Membrane in water
40344
    1TMC1    C1    1   4.434   3.813  11.820  0.3619 -0.7369  0.4354
    1TMC1    C2    2   4.479   3.938  11.838  0.6223 -0.8171 -0.2867
    1TMC1    C3    3   4.610   3.967  11.805 -0.9872  0.3424 -0.4277
    1TMC1    C4    4   4.518   3.718  11.763  0.1099 -0.2932 -0.2295
    1TMC1    C5    5   4.643   3.755  11.732  0.3371  0.6894  0.3027
    1TMC1    C6    6   4.693   3.877  11.750  0.1904 -0.3416  0.0571
    1TMC1     C    7   4.295   3.791  11.840  0.2140 -0.1269 -0.6430
    1TMC1     O    8   4.241   3.871  11.917 -0.6719 -0.4083 -0.2311
    1TMC1     H    9   4.407   4.010  11.876  0.6138 -1.4400  0.8604
    1TMC1    H1   10   4.485   3.615  11.758  2.0453 -0.8372 -1.9145
    1TMC1    H2   11   0.061   3.902  11.727 -1.2327  3.2091 -2.4431
    1TMC1    C7   12   4.733   3.634  11.703 -0.6199 -0.5149 -0.3681
    1TMC1    C8   13   4.674   4.092  11.854  0.0833 -0.0470 -0.1741
    1TMC1    O1   14   4.688   3.522  11.684 -0.1228 -0.1879  0.5506
    1TMC1    O2   15   0.051   4.131  11.818  0.1330 -0.2323  0.4778
    1TMC1    O3   16   0.117   3.660  11.762 -0.2627  0.5436 -0.4579
    1TMC1    H3   17   0.137   3.748  11.800 -0.5005  0.4562 -0.1254
    1TMC1    O5   18   4.609   4.134  11.961  0.5895 -0.2335  1.0537
    1TMC1    H5   19   4.551   4.068  12.003  1.0757 -0.6774  1.0259
    2MPD2     C   20   3.907   3.450  11.879  0.1770 -0.2770 -0.6827
    2MPD2    C1   21   3.917   3.579  11.931 -0.2880 -0.2757 -0.1291
    2MPD2    C2   22   4.030   3.654  11.900  0.0757  0.0233  0.0153
    2MPD2    C3   23   4.134   3.594  11.830 -0.2302  0.1041 -0.7055
    2MPD2    C4   24   4.125   3.470  11.782  0.1496  0.3899  0.1329
    2MPD2    C5   25   4.018   3.392  11.812  0.0484 -0.3223  0.0427
    2MPD2     H   26   4.035   3.756  11.937  0.6428 -0.1652  0.4596
    2MPD2    H1   27   4.196   3.434  11.709 -1.0588  0.9206 -1.3040
    2MPD2    H2   28   3.818   3.389  11.888  0.4243 -0.6529 -0.7859
    2MPD2    H3   29   4.000   3.293  11.772  1.3639  0.3798 -2.2936
    2MPD2     N   30   4.257   3.667  11.800 -0.6366  0.2782 -0.2380
    2MPD2    H5   31   4.334   3.626  11.748  1.5207  2.7573  0.9876
    2MPD2    N1   32   3.811   3.629  12.015 -0.3302 -0.2544  0.0468
    2MPD2    H7   33   3.813   3.729  12.031  0.5035 -0.5445  1.7934
    3TMC1    C1   34   3.447   1.383   9.920  0.1182  0.8902  0.3400
    3TMC1    C2   35   3.495   1.394   9.796 -0.1945  0.7103  0.3188
    3TMC1    C3   36   3.628   1.424   9.785  0.4831 -0.1298 -0.5639
    3TMC1    C4   37   3.515   1.407  10.033 -0.7430  0.0065  0.0218
    3TMC1    C5   38   3.655   1.433  10.022 -0.3196  0.3238  0.8867
    3TMC1    C6   39   3.711   1.444   9.896  0.2536  0.1522  0.3128
    3TMC1     C   40   3.306   1.354   9.925  0.3159 -0.4025  0.2150
    3TMC1     O   41   3.257   1.302   9.825 -0.1953 -0.6056 -0.4515
    3TMC1     H   42   3.436   1.380   9.706 -2.6583  0.0095  2.0312
    3TMC1    H1   43   3.469   1.397  10.130  0.7380 -0.6948  0.6366
    3TMC1    H2   44   3.817   1.464   9.891  0.2095  0.9389  2.5606
    3TMC1    C7   45   3.727   1.490  10.136  0.7358  0.0218 -0.3745
    3TMC1    C8   46   3.682   1.413   9.646 -0.6854  0.2053 -0.7241
    3TMC1    O1   47   3.784   1.597  10.146  0.3944 -0.1830 -0.9007
    3TMC1    O2   48   3.621   1.367   9.552 -0.4805 -0.1702 -0.0843
    3TMC1    O3   49   3.691   1.407  10.233  0.5503 -0.2605  0.2712
    3TMC1    H3   50   3.653   1.318  10.215 -0.2532  0.2445 -0.5127
    3TMC1    O5   51   3.791   1.498   9.629  0.1259 -0.0663  0.1831
    3TMC1    H5   52   3.810   1.558   9.705 -0.8122  0.4289  0.0211
    4MPD2     C   53   2.884   1.312  10.183 -0.4627  0.8369 -0.3371
    4MPD2    C1   54   2.954   1.412  10.238  0.4466  0.6960  0.2899
    4MPD2    C2   55   3.077   1.446  10.186 -0.4848  0.1040  0.3314
    4MPD2    C3   56   3.118   1.377  10.073 -0.0323  0.1037 -0.6429
    4MPD2    C4   57   3.044   1.287  10.013  0.0301  0.3301  0.4023
    4MPD2    C5   58   2.925   1.249  10.069 -0.9102 -0.1497 -0.7162
    4MPD2     H   59   3.140   1.514  10.243 -0.9742  1.8756 -1.2328
    4MPD2    H1   60   3.079   1.229   9.928  1.5972 -0.2610  1.4626
    4MPD2    H2   61   2.793   1.275  10.229 -0.5040  1.4990  0.1182
    4MPD2    H3   62   2.865   1.167  10.032 -1.8014 -0.2531  0.9922
    4MPD2     N   63   3.247   1.398  10.038  0.0056  0.3927  0.1165
    4MPD2    H5   64   3.291   1.469  10.096 -2.6500  1.0537  1.3436
    4MPD2    N1   65   2.912   1.477  10.356 -0.5850 -0.3839 -0.3327
    4MPD2    H7   66   2.966   1.554  10.395 -0.0929 -1.7473  1.6910
    5TCq1    O1   67   3.592   1.965  11.890  0.1283 -0.3759 -0.0770
    5TCq1    C1   68   3.663   1.984  11.778  0.3710  0.4935 -0.2824
    5TCq1    O2   69   3.738   1.901  11.725  0.0364 -0.0656 -0.3987
    5TCq1    C2   70   3.600   2.090  11.699  0.5490 -0.2371  1.0890
    5TCq1    C3   71   3.518   2.189  11.756  0.7463  0.5438 -0.6146
    5TCq1    C4   72   3.472   2.293  11.684  0.3945  0.5782 -0.4886
    5TCq1    C5   73   3.485   2.290  11.549 -0.1247  0.1243  0.3876
    5TCq1    C6   74   3.561   2.190  11.502  0.7415 -0.5857 -0.7028
    5TCq1    C7   75   3.631   2.093  11.567 -0.1624 -0.0944  0.0777
    5TCq1    C8   76   3.560   2.168  11.353  0.0037  0.2929 -0.3962
    5TCq1    O4   77   3.638   2.088  11.305 -0.3152  0.6025  0.0723
    5TCq1    C9   78   3.385   2.392  11.748 -0.4313  0.8689 -0.5180
    5TCq1    O5   79   3.348   2.351  11.864 -0.5264  0.0352 -0.3516
    5TCq1    O6   80   3.322   2.464  11.667 -0.1579 -0.3379  0.0629
    5TCq1    H1   81   3.516   2.026  11.902  0.8705  0.2404  1.3964
    5TCq1    H2   82   3.519   2.194  11.864  0.0440  0.9798 -0.6257
    5TCq1    H3   83   3.439   2.360  11.480 -2.5583  0.1161  1.9822
    5TCq1    H4   84   3.692   2.017  11.520 -0.3948 -0.6833  0.7286
    6MPD2     C   85   3.282   2.265  11.142  0.3950 -0.1288  0.3515
    6MPD2    C1   86   3.399   2.206  11.173  0.2975  0.1607 -0.4520
    6MPD2    C2   87   3.451   2.115  11.081  0.3382 -0.0229 -0.1118
    6MPD2    C3   88   3.383   2.081  10.970  0.2700 -0.7633 -0.4919
    6MPD2    C4   89   3.270   2.150  10.937 -0.3195 -0.2312  0.0461
    6MPD2    C5   90   3.221   2.240  11.023 -0.3894 -0.4676 -0.6369
    6MPD2     H   91   3.546   2.069  11.104 -0.0894 -1.4849 -1.2246
    6MPD2    H1   92   3.208   2.127  10.850 -1.3781  0.1983  0.6820
    6MPD2    H2   93   3.237   2.328  11.218 -0.0661 -1.6404  1.3419
    6MPD2    H3   94   3.127   2.290  11.003 -0.5099  0.0154  1.0900
    6MPD2     N   95   3.427   1.971  10.895  0.0492  0.2508 -0.2376
    6MPD2    H5   96   3.521   1.936  10.915  0.0167 -1.4997 -3.1404
    6MPD2    N1   97   3.449   2.221  11.303  0.7971  0.1994 -0.2915
    6MPD2    H7   98   3.387   2.253  11.376  0.2849  0.6279 -0.9119
    7TCq1    O1   99   1.463   0.555  14.558  0.1542  0.1455  0.8404
    7TCq1    C1  100   1.422   0.432  14.524 -0.0413 -0.0471 -0.3543
    7TCq1    O2  101   1.491   0.332  14.520  0.0739  0.1483  0.2496
    7TCq1    C2  102   1.317   0.458  14.429  0.3896 -0.4201  0.5557
    7TCq1    C3  103   1.210   0.535  14.473  0.8061  0.1418 -0.8129
    7TCq1    C4  104   1.126   0.586  14.376  0.0135 -0.7600  0.1366
    7TCq1    C5  105   1.139   0.562  14.248  0.5784  0.3019 -0.0410
    7TCq1    C6  106   1.242   0.481  14.207  0.1546  0.0897  0.1194
    7TCq1    C7  107   1.330   0.430  14.299  0.7095 -0.0832  0.1563
    7TCq1    C8  108   1.268   0.453  14.070 -0.5176 -0.3124  0.1164
    7TCq1    O4  109   1.385   0.422  14.038  0.3429  0.5788 -0.1740
    7TCq1    C9  110   1.017   0.679  14.426  0.0530  0.2500  0.0353
    7TCq1    O5  111   0.966   0.751  14.334 -0.7293 -0.7210 -0.1580
    7TCq1    O6  112   0.956   0.650  14.527  0.4807  0.1805 -0.1956
    7TCq1    H1  113   1.408   0.629  14.524  0.0077  0.2481  1.2940
    7TCq1    H2  114   1.213   0.567  14.576 -2.8823 -0.5984 -0.4595
    7TCq1    H3  115   1.068   0.590  14.171 -1.5902  1.8745  2.5454
    7TCq1    H4  116   1.396   0.348  14.273  3.0195  1.7484  0.2843
    8MPD2     C  117   1.104   0.412  13.570 -0.1690 -0.0206  0.0203
    8MPD2    C1  118   1.220   0.360  13.625 -0.5975  0.1224  0.5017
    8MPD2    C2  119   1.244   0.379  13.765 -0.1329 -0.7152  0.2459
    8MPD2    C3  120   1.150   0.446  13.847  0.3208  0.2326 -0.4151
    8MPD2    C4  121   1.034   0.485  13.784 -0.3177  0.0963 -0.5434
    8MPD2    C5  122   1.012   0.470  13.649  0.8018  0.1909  0.3644
    8MPD2     H  123   1.340   0.349  13.803  0.0615 -0.4398 -0.0233
    8MPD2    H1  124   0.959   0.545  13.834  2.1019  1.4688  1.4409
    8MPD2    H2  125   1.086   0.418  13.463 -0.0336  0.7111  0.0393
    8MPD2    H3  126   0.932   0.509  13.587 -0.7337  1.2126  2.9931
    8MPD2     N  127   1.161   0.466  13.989  0.5160 -0.0314 -0.8760
    8MPD2    H5  128   1.079   0.498  14.039  0.5432 -1.5364  0.1156
    8MPD2    N1  129   1.321   0.291  13.555 -0.4844 -0.0753  0.2983
    8MPD2    H7  130   1.404   0.280  13.612 -1.2209 -1.9851  1.0273
    9TMC1    C1  131   3.402   0.764  11.484 -0.5649 -0.1493 -0.0350
    9TMC1    C2  132   3.378   0.892  11.501  0.3753  0.1543 -0.0973
    9TMC1    C3  133   3.401   0.970  11.389  0.3451 -0.2242  0.0675
    9TMC1    C4  134   3.455   0.703  11.375  1.1395  0.0435 -0.0323
    9TMC1    C5  135   3.484   0.791  11.273 -0.1228  0.7167  0.0969
    9TMC1    C6  136   3.451   0.922  11.275 -0.0064  0.5183 -0.2412
    9TMC1     C  137   3.391   0.677  11.597 -0.3369  0.2104 -0.1561
    9TMC1     O  138   3.470   0.580  11.598 -0.4562  0.1855  0.3559
    9TMC1     H  139   3.330   0.923  11.593  0.5627  1.2476 -0.3692
    9TMC1    H1  140   3.479   0.597  11.372 -1.0424 -0.4457 -0.3264
    9TMC1    H2  141   3.466   0.990  11.192  2.0038  0.7081  0.2788
    9TMC1    C7  142   3.540   0.745  11.146  0.0582 -0.9208  0.1814
    9TMC1    C8  143   3.373   1.112  11.391 -0.2072 -0.6866  0.6049
    9TMC1    O1  144   3.551   0.812  11.049 -0.0620  0.7162 -0.1570
    9TMC1    O2  145   3.309   1.159  11.299 -0.1054  0.2788 -0.7465
    9TMC1    O3  146   3.595   0.629  11.163 -0.2308 -0.7353 -0.0324
    9TMC1    H3  147   3.606   0.622  11.261  2.0938  0.9544 -0.1820
    9TMC1    O5  148   3.408   1.163  11.512 -0.0287 -0.3038 -0.0249
    9TMC1    H5  149   3.476   1.112  11.561  0.1598  0.6164  0.6557
   10MPD2     C  150   3.146   0.680  11.874 -0.0533 -0.1910  0.1181
   10MPD2    C1  151   3.251   0.631  11.804 -0.1428 -0.6035  0.1632
   10MPD2    C2  152   3.316   0.517  11.854  0.3609 -0.0408 -0.0827
   10MPD2    C3  153   3.268   0.443  11.960  0.2560  0.3739 -0.0466
   10MPD2    C4  154   3.163   0.502  12.028 -0.3528 -1.0882 -0.7471
   10MPD2    C5  155   3.103   0.615  11.983 -0.1268 -0.3687 -0.2285
   10MPD2     H  156   3.404   0.476  11.804  0.1359 -0.5193 -0.0836
   10MPD2    H1  157   3.121   0.449  12.112  0.5191  0.5176  0.7037
   10MPD2    H2  158   3.086   0.764  11.841  0.2604 -1.2903 -3.2045
   10MPD2    H3  159   3.008   0.652  12.021 -1.2410 -0.2673 -3.1378
   10MPD2     N  160   3.302   0.313  11.981 -0.8140 -0.8582 -0.0812
   10MPD2    H5  161   3.241   0.247  12.027 -0.6163 -0.8502  0.1914
   10MPD2    N1  162   3.284   0.698  11.684 -0.3436  0.5945 -0.0809
   10MPD2    H7  163   3.224   0.777  11.661 -0.3294  0.6785  0.1705
   11TCq1    O1  164   3.857   0.463  14.137  0.2947 -0.1684  0.1746
   11TCq1    C1  165   3.980   0.422  14.171  0.2894 -0.8621 -0.8438
   11TCq1    O2  166   4.077   0.494  14.194 -0.1278 -0.4566 -0.7543
   11TCq1    C2  167   3.967   0.285  14.204  0.1787 -0.4628  0.4083
   11TCq1    C3  168   4.053   0.229  14.295 -0.0950  0.3359  0.2472
   11TCq1    C4  169   4.048   0.089  14.309 -0.0594  0.0449  0.0745
   11TCq1    C5  170   3.960   0.013  14.239 -0.2971  0.7769  0.0570
   11TCq1    C6  171   3.880   0.072  14.149 -0.9471 -0.0013 -0.3800
   11TCq1    C7  172   3.879   0.209  14.135 -0.4650  0.6668 -0.6268
   11TCq1    C8  173   3.772   4.730  14.079  0.3016  0.1284  0.0425
   11TCq1    O4  174   3.676   0.061  14.044  0.1750 -0.0455  0.4899
   11TCq1    C9  175   4.129   0.027  14.406  0.1653 -0.1421  0.0086
   11TCq1    O5  176   4.131   4.640  14.414  0.4688 -0.2179 -0.0588
   11TCq1    O6  177   4.205   0.106  14.468 -0.1006 -0.0053 -0.2913
   11TCq1    H1  178   3.785   0.397  14.127  0.5191 -0.8450  3.0019
   11TCq1    H2  179   4.127   0.294  14.341  1.4873 -1.3310  0.0660
   11TCq1    H3  180   3.936   4.645  14.261  3.4160 -0.2976 -0.8789
   11TCq1    H4  181   3.826   0.256  14.052 -0.3201  0.7039 -0.6970
   12MPD2     C  182   3.550   4.524  14.046  0.8684 -0.0860  0.8721
   12MPD2    C1  183   3.679   4.489  14.065 -0.2798 -0.7955  0.3816
   12MPD2    C2  184   3.711   4.349  14.091 -0.0597 -0.1188 -0.3528
   12MPD2    C3  185   3.617   4.251  14.061 -0.7400 -0.2062 -0.0884
   12MPD2    C4  186   3.490   4.295  14.027 -0.5381  0.0490 -0.9119
   12MPD2    C5  187   3.461   4.430  14.039 -0.4115  0.1459  0.4054
   12MPD2     H  188   3.815   4.327  14.116  0.2490  0.3485 -1.2169
   12MPD2    H1  189   3.410   4.225  14.007 -0.6040  0.0916 -0.7954
   12MPD2    H2  190   3.529   4.630  14.041  1.1557  0.0098  1.6265
   12MPD2    H3  191   3.358   4.455  14.015  0.1655  1.7446 -0.4096
   12MPD2     N  192   3.651   4.113  14.073  0.2805  0.2435  0.2644
   12MPD2    H5  193   3.746   4.094  14.104  0.1696 -2.6870 -1.2217
   12MPD2    N1  194   3.781   4.593  14.079  0.2067  0.3848 -0.2332
   12MPD2    H7  195   3.875   4.557  14.094  0.2713  0.9358  0.7328
   13TCq1    O1  196   3.917   0.857  11.220  0.0450 -0.3944 -0.6863
   13TCq1    C1  197   4.047   0.814  11.215  0.4893 -0.0789  0.6614
   13TCq1    O2  198   4.141   0.891  11.189  0.3378  0.0326 -0.3283
   13TCq1    C2  199   4.049   0.692  11.287 -0.0269 -0.0776  0.8500
   13TCq1    C3  200   4.156   0.682  11.372 -0.0970  0.1441  0.6570
   13TCq1    C4  201   4.159   0.583  11.462  0.0309  0.3101 -0.0340
   13TCq1    C5  202   4.052   0.496  11.469 -0.0326  0.6261 -0.3753
   13TCq1    C6  203   3.943   0.518  11.387  0.4392  0.5371  0.6912
   13TCq1    C7  204   3.939   0.614  11.293 -0.2040  0.0028 -0.6810
   13TCq1    C8  205   3.818   0.453  11.407 -0.3988  0.0470  0.1424
   13TCq1    O4  206   3.716   0.516  11.384 -0.5217 -0.4139  0.1907
   13TCq1    C9  207   4.277   0.558  11.528 -0.0018  0.4263 -0.3058
   13TCq1    O5  208   4.313   0.442  11.557 -0.5750 -0.0141  0.1405
   13TCq1    O6  209   4.354   0.656  11.537 -0.5322 -0.0441  0.3376
   13TCq1    H1  210   3.861   0.807  11.283  1.2592 -3.2592 -1.8776
   13TCq1    H2  211   4.247   0.736  11.347  0.7006 -0.2742  2.6904
   13TCq1    H3  212   4.037   0.415  11.539  2.0457  0.2412 -0.3526
   13TCq1    H4  213   3.865   0.615  11.214 -0.4369 -2.3279 -0.4780
   14MPD2     C  214   3.771   0.109  11.535  0.8535 -0.6300 -0.8523
   14MPD2    C1  215   3.737   0.238  11.499  0.2018 -0.3225 -1.0510
   14MPD2    C2  216   3.606   0.278  11.512  0.7246 -0.1752 -0.4503
   14MPD2    C3  217   3.506   0.184  11.535 -0.7489 -0.3321  0.5816
   14MPD2    C4  218   3.541   0.051  11.555  0.3114  0.3607 -0.3120
   14MPD2    C5  219   3.672   0.020  11.561 -0.1564 -0.4410 -0.1118
   14MPD2     H  220   3.572   0.381  11.508 -2.9773 -1.3767  0.1797
   14MPD2    H1  221   3.471   4.704  11.566 -0.3774  0.8529 -1.0168
   14MPD2    H2  222   3.876   0.079  11.531  0.5702 -1.6260 -0.9377
   14MPD2    H3  223   3.718   4.661  11.590  1.8698  0.8149  0.8276
   14MPD2     N  224   3.377   0.240  11.551  0.0407  0.4074 -0.9171
   14MPD2    H5  225   3.375   0.342  11.546  0.2285  0.3179 -2.9367
   14MPD2    N1  226   3.839   0.318  11.445  1.0434 -0.2568  0.5913
   14MPD2    H7  227   3.934   0.281  11.452  0.3897 -1.8159  1.0838
   15TCq1    O1  228   0.808   2.945   1.229  0.1875  0.4155 -0.2004
   15TCq1    C1  229   0.799   2.898   1.107 -0.4000 -0.3367 -0.1932
   15TCq1    O2  230   0.699   2.840   1.068 -0.0683 -0.0132  0.6112
   15TCq1    C2  231   0.940   2.865   1.068 -0.3772  0.1567 -0.0019
   15TCq1    C3  232   1.012   2.977   1.024 -0.0441  0.3928 -0.2387
   15TCq1    C4  233   1.108   2.963   0.929 -0.4710  1.0668 -0.3804
   15TCq1    C5  234   1.147   2.839   0.893 -0.1671 -0.1288  0.1739
   15TCq1    C6  235   1.074   2.728   0.927  0.1686  0.1303 -0.6227
   15TCq1    C7  236   0.973   2.740   1.026 -0.3843  0.2881  0.6529
   15TCq1    C8  237   1.140   2.596   0.926  0.3851  0.1920 -0.6253
   15TCq1    O4  238   1.136   2.523   1.023 -0.1121  0.0915 -0.0884
   15TCq1    C9  239   1.181   3.076   0.877  0.1649  0.6918 -0.1388
   15TCq1    O5  240   1.305   3.068   0.864 -0.8386  0.1265 -0.4076
   15TCq1    O6  241   1.119   3.186   0.897  0.3308 -0.1304 -0.2061
   15TCq1    H1  242   0.894   2.984   1.257  0.5902  0.3851 -1.3809
   15TCq1    H2  243   0.967   3.074   1.039 -1.3847 -0.3913  0.9053
   15TCq1    H3  244   1.232   2.824   0.827 -1.4945  0.4944 -1.6890
   15TCq1    H4  245   0.905   2.662   1.056 -0.3169  0.0323  0.1399
   16MPD2     C  246   1.305   2.423   0.649  0.1971  0.6907  0.3281
   16MPD2    C1  247   1.272   2.448   0.779  0.1604  0.2783  0.7322
   16MPD2    C2  248   1.299   2.346   0.868 -0.4048  0.4303  0.0439
   16MPD2    C3  249   1.358   2.230   0.828  0.2181 -0.1048  0.0049
   16MPD2    C4  250   1.416   2.219   0.705 -0.0709 -0.6104  0.7080
   16MPD2    C5  251   1.371   2.307   0.607 -0.0092 -0.4736 -0.8230
   16MPD2     H  252   1.249   2.347   0.964 -0.3352 -2.1536  0.1133
   16MPD2    H1  253   1.482   2.138   0.679  2.6020  2.1205 -0.9800
   16MPD2    H2  254   1.282   2.497   0.573  0.6759  2.4626  1.9124
   16MPD2    H3  255   1.405   2.293   0.505  0.0303 -1.2361 -0.7024
   16MPD2     N  256   1.389   2.137   0.926  0.0748 -0.0775 -0.3120
   16MPD2    H5  257   1.387   2.169   1.022  0.9144  1.1597 -0.7022
   16MPD2    N1  258   1.195   2.565   0.808 -0.4017  0.2810  0.0274
   16MPD2    H7  259   1.180   2.634   0.735  1.4873  1.4118  0.6848
   17TMC1    C1  260   4.009   4.063  11.490 -0.4131 -0.7174 -0.7337
   17TMC1    C2  261   3.877   4.046  11.463 -0.5333 -0.5066  0.1660
   17TMC1    C3  262   3.793   4.153  11.476  0.5154 -0.2877 -0.6980
   17TMC1    C4  263   4.060   4.187  11.528 -0.1007  0.1825  0.2571
   17TMC1    C5  264   3.973   4.296  11.528 -0.7081 -0.4296 -0.1389
   17TMC1    C6  265   3.840   4.278  11.502 -0.5938  0.2737 -0.4816
   17TMC1     C  266   4.093   3.942  11.490  0.3692 -0.1782 -0.3524
   17TMC1     O  267   4.030   3.838  11.517  0.2992  0.3033 -0.0147
   17TMC1     H  268   3.846   3.942  11.454 -1.5885 -0.2137  0.4066
   17TMC1    H1  269   4.165   4.194  11.553  0.0292 -0.4294 -0.0936
   17TMC1    H2  270   3.773   4.360  11.480 -1.9768 -0.3621  1.3474
   17TMC1    C7  271   4.022   4.436  11.551  0.7491  0.2145  0.0316
   17TMC1    C8  272   3.654   4.130  11.506  0.9001  0.3233  0.5123
   17TMC1    O1  273   3.942   4.527  11.573  0.2701  0.5523 -0.1747
   17TMC1    O2  274   3.606   4.182  11.606 -0.1928  0.1003 -0.7142
   17TMC1    O3  275   4.156   4.438  11.558  0.0563 -0.1924  0.0202
   17TMC1    H3  276   4.208   4.365  11.518  2.0329 -0.1278  2.4359
   17TMC1    O5  277   3.616   4.011  11.448 -0.3560 -0.0982 -0.4557
   17TMC1    H5  278   3.673   3.993  11.371  1.6988 -0.6675  1.1938
   18MPD2     C  279   4.302   3.744  11.489  0.3976  0.4016  0.6733
   18MPD2    C1  280   4.327   3.868  11.440  0.0437 -0.0216  0.4218
   18MPD2    C2  281   4.450   3.900  11.389 -0.1106 -0.0209 -0.1192
   18MPD2    C3  282   4.548   3.807  11.366 -0.5377  0.5072 -1.0434
   18MPD2    C4  283   4.521   3.673  11.408 -0.9646 -0.0368 -0.4846
   18MPD2    C5  284   4.402   3.646  11.474 -0.0299 -0.0570  0.3839
   18MPD2     H  285   4.468   4.003  11.361  0.3548 -0.0950 -0.0918
   18MPD2    H1  286   4.588   3.589  11.391  1.4720  1.5080  1.4061
   18MPD2    H2  287   4.211   3.721  11.544 -0.2701  0.3322 -0.4732
   18MPD2    H3  288   4.390   3.543  11.504  1.7451  0.0859  1.5636
   18MPD2     N  289   4.669   3.825  11.299  0.0117 -0.7099 -0.0064
   18MPD2    H5  290   0.002   3.751  11.305  0.1404 -0.5937 -0.0422
   18MPD2    N1  291   4.225   3.965  11.450 -0.3696  0.9579  0.3798
   18MPD2    H7  292   4.242   4.060  11.420  1.3803  0.0377 -1.5739
   19TMC2    C1  293   0.497   4.559  13.762 -0.4476  0.2731 -0.0885
   19TMC2    C2  294   0.436   4.651  13.680  0.8711 -0.0176 -0.0271
   19TMC2    C3  295   0.304   4.672  13.679 -1.4789 -0.1368  0.5231
   19TMC2    C4  296   0.417   4.493  13.856  0.5344 -0.7077 -0.4049
   19TMC2    C5  297   0.286   4.515  13.853  0.2277  0.0554 -0.5196
   19TMC2    C6  298   0.224   4.599  13.758  0.5031  0.2438 -0.0766
   19TMC2     C  299   0.637   4.544  13.755 -0.2554 -0.3963  0.4193
   19TMC2     O  300   0.700   4.598  13.665  0.3113  0.2756 -0.0689
   19TMC2     H  301   0.496   4.696  13.602  2.6237  1.0810  1.9128
   19TMC2    H1  302   0.454   4.409  13.912 -0.4949  0.1910  1.6172
   19TMC2    H2  303   0.117   4.595  13.741  0.7609  0.3865 -1.7315
   19TMC2    C7  304   0.208   4.402  13.891 -0.1628  0.0395 -0.8288
   19TMC2    C8  305   0.239   0.019  13.579 -0.0835 -0.4415 -0.0455
   19TMC2    O1  306   0.259   4.291  13.871 -0.1418  0.1672 -0.8196
   19TMC2    O2  307   0.152   4.700  13.514 -0.0663  0.1108 -0.1991
   19TMC2    O5  308   0.333   0.109  13.547 -0.2386 -0.0048 -0.0415
   19TMC2    H5  309   0.367   0.145  13.631  0.7451 -0.5286 -0.2181
   20MPD2     C  310   0.932   4.476  13.784 -0.4058 -0.3507 -0.1469
   20MPD2    C1  311   0.825   4.418  13.855  0.1534  0.1986  0.5914
   20MPD2    C2  312   0.858   4.312  13.934  0.8093 -0.7768 -0.5785
   20MPD2    C3  313   0.989   4.254  13.935 -0.6441 -0.1660  0.4030
   20MPD2    C4  314   1.088   4.319  13.865  0.1824 -0.0772 -0.1047
   20MPD2    C5  315   1.056   4.418  13.787 -0.8614 -0.0648  0.3706
   20MPD2     H  316   0.781   4.262  13.993  1.6872 -2.1935 -0.6411
   20MPD2    H1  317   1.194   4.300  13.873  0.0264 -1.2094 -0.7436
   20MPD2    H2  318   0.920   4.566  13.725  0.7519  1.1586  1.9502
   20MPD2    H3  319   1.130   4.478  13.735 -0.9413 -2.0831 -2.0726
   20MPD2     N  320   1.025   4.146  14.022 -0.0216 -0.2265 -0.0407
   20MPD2    H5  321   1.116   4.102  14.014 -0.2695 -0.8811  0.8076
   20MPD2    N1  322   0.687   4.458  13.853 -0.1839 -0.0508 -1.1916
   20MPD2    H7  323   0.625   4.426  13.926 -0.2970  1.3596 -0.6647
   21TMC2    C1  324   2.838   4.336  14.460  0.1045  0.6688 -0.4019
   21TMC2    C2  325   2.845   4.203  14.471  0.3065 -0.6819  0.7250
   21TMC2    C3  326   2.744   4.145  14.546 -0.4018 -0.1522 -0.0891
   21TMC2    C4  327   2.733   4.413  14.501 -0.0682 -0.8142 -0.1535
   21TMC2    C5  328   2.639   4.345  14.574  0.5614  0.0679  0.7677
   21TMC2    C6  329   2.646   4.218  14.597 -0.7444  0.6680  0.2969
   21TMC2     C  330   2.956   4.408  14.404 -0.0306 -0.1926  0.8014
   21TMC2     O  331   3.069   4.368  14.433 -0.3003  0.3811  0.1998
   21TMC2     H  332   2.935   4.149  14.446  0.2893 -0.8338  0.9841
   21TMC2    H1  333   2.735   4.522  14.503 -3.5989 -0.7037 -1.3640
   21TMC2    H2  334   2.564   4.165  14.643 -0.8374  1.4319  1.0121
   21TMC2    C7  335   2.546   4.417  14.654 -0.1038 -0.6845  0.3397
   21TMC2    C8  336   2.746   4.013  14.581 -0.0677 -0.4428  0.0106
   21TMC2    O1  337   2.491   4.361  14.745 -0.3153  0.2713 -0.5119
   21TMC2    O2  338   2.685   3.982  14.682  0.2906 -0.1123  0.4245
   21TMC2    O5  339   2.838   3.951  14.507 -0.6374  0.3834  0.1670
   21TMC2    H5  340   2.860   4.010  14.431  3.0276 -0.5554  0.5110
   22MPD2     C  341   3.156   0.063  14.124  0.5587 -0.0546  0.3160
   22MPD2    C1  342   3.202   4.721  14.224  0.2673  0.5064  0.1925
   22MPD2    C2  343   3.131   4.621  14.279 -0.0179 -0.2274  0.5423
   22MPD2    C3  344   2.995   4.601  14.256 -0.2827  0.4630  0.3251
   22MPD2    C4  345   2.948   4.689  14.159  0.0074 -0.4959  0.4328
   22MPD2    C5  346   3.026   0.037  14.090 -0.3175  0.2740  0.0510
   22MPD2     H  347   3.168   4.572  14.369 -0.4884  0.1206  0.9196
   22MPD2    H1  348   2.845   4.696  14.125 -0.3540  1.8666  1.9667
   22MPD2    H2  349   3.215   0.139  14.075  0.2764  0.6811  1.1161
   22MPD2    H3  350   2.988   0.109  14.019  0.9979 -0.0650 -0.9962
   22MPD2     N  351   2.914   4.516  14.334 -0.0758  0.3605 -0.3974
   22MPD2    H5  352   2.817   4.528  14.309 -0.6382 -0.3803  1.4351
   22MPD2    N1  353   3.333   0.000  14.279  0.7880  0.7292  0.4533
   22MPD2    H7  354   3.356   4.667  14.351 -1.2924 -0.8656 -0.3899
   23TMC2    C1  355   4.232   0.947  14.455  0.6663  0.2162  0.1677
   23TMC2    C2  356   4.352   1.001  14.417  0.4112  0.3555  0.5685
   23TMC2    C3  357   4.368   1.014  14.284  0.4667 -0.7895 -0.1278
   23TMC2    C4  358   4.131   0.917  14.371  0.1333 -0.2897 -0.4695
   23TMC2    C5  359   4.156   0.942  14.240  0.0227  0.0623  0.9033
   23TMC2    C6  360   4.275   0.991  14.191 -0.3132 -0.2950  0.3128
   23TMC2     C  361   4.203   0.947  14.595 -0.5242  0.1659 -0.2061
   23TMC2     O  362   4.298   0.976  14.670 -0.6233  0.3873  0.5098
   23TMC2     H  363   4.425   1.025  14.494  0.7263 -0.4034  0.5014
   23TMC2    H1  364   4.040   0.868  14.403  0.0280 -0.0897 -0.4600
   23TMC2    H2  365   4.294   0.996  14.085 -1.7279 -3.4732 -0.0752
   23TMC2    C7  366   4.061   0.912  14.141  0.9009 -0.9536 -0.1308
   23TMC2    C8  367   4.497   1.069  14.225  0.9074  0.0935 -0.3864
   23TMC2    O1  368   4.095   0.894  14.026  0.3021 -0.2969 -0.1889
   23TMC2    O2  369   4.508   1.078  14.102 -0.4177  0.7653 -0.4506
   23TMC2    O5  370   4.589   1.074  14.324 -0.2374 -0.1812  0.3680
   23TMC2    H5  371   4.678   1.104  14.294 -2.1651  2.2047 -2.9107
   24MPD2     C  372   3.923   0.955  15.020 -0.0415  0.3262 -0.0410
   24MPD2    C1  373   4.044   0.895  14.985 -0.9650  0.1811 -0.3946
   24MPD2    C2  374   4.093   0.891  14.854 -0.5623 -0.0526 -0.6247
   24MPD2    C3  375   4.021   0.950  14.756 -0.0872  0.4844 -0.4050
   24MPD2    C4  376   3.901   1.012  14.787  0.4232  0.8397 -0.1067
   24MPD2    C5  377   3.849   1.012  14.918  0.3092  0.3865 -0.3404
   24MPD2     H  378   4.190   0.848  14.833 -0.4637 -0.9256  1.5719
   24MPD2    H1  379   3.847   1.073  14.715  0.3535  0.1435 -0.6519
   24MPD2    H2  380   3.886   0.954  15.122  0.4039 -0.1145  0.1190
   24MPD2    H3  381   3.759   1.068  14.938 -0.9024 -0.9946 -1.9374
   24MPD2     N  382   4.069   0.956  14.623  0.2387 -0.1464  0.2407
   24MPD2    H5  383   4.008   0.999  14.553 -1.5945  0.4006  2.1586
   24MPD2    N1  384   4.103   0.829  15.092 -0.4370  0.1532  0.5710
   24MPD2    H7  385   4.068   0.853  15.184 -0.0192  1.5997  0.3523
   25TMC2    C1  386   3.623   3.073  11.812 -0.1944 -0.0807  0.4536
   25TMC2    C2  387   3.727   3.063  11.901  0.0631  0.3877 -0.4060
   25TMC2    C3  388   3.703   3.115  12.026 -0.4055 -0.1701 -0.2449
   25TMC2    C4  389   3.499   3.125  11.846 -0.0911  0.4784  0.0836
   25TMC2    C5  390   3.483   3.174  11.972  0.1067 -0.0571  0.5139
   25TMC2    C6  391   3.584   3.167  12.063 -0.3745 -0.4534 -0.2734
   25TMC2     C  392   3.653   3.040  11.676  0.0383  0.1644  0.1023
   25TMC2     O  393   3.768   3.005  11.653  0.1118 -0.1920 -0.9477
   25TMC2     H  394   3.826   3.027  11.874  0.7090  0.5091  1.7712
   25TMC2    H1  395   3.424   3.141  11.770 -0.1989  1.6884  0.4410
   25TMC2    H2  396   3.565   3.220  12.156  0.0192  0.2293 -0.5809
   25TMC2    C7  397   3.369   3.255  12.007  0.0868  0.2301 -0.6433
   25TMC2    C8  398   3.818   3.114  12.108  0.8483 -0.0050  0.2349
   25TMC2    O1  399   3.322   3.242  12.122 -0.0081  0.4374  0.0173
   25TMC2    O2  400   3.906   3.031  12.100 -0.6086 -0.1678  0.5316
   25TMC2    O5  401   3.832   3.240  12.160  0.6294  0.3913 -0.9742
   25TMC2    H5  402   3.755   3.299  12.142  0.1126  0.3329  1.0444
   26MPD2     C  403   3.507   2.992  11.185  0.5608  0.4052 -0.0015
   26MPD2    C1  404   3.399   2.972  11.270  0.6799  0.7453 -0.9046
   26MPD2    C2  405   3.421   2.980  11.405 -0.5619 -0.3024  0.1940
   26MPD2    C3  406   3.542   3.018  11.465 -0.4200  0.0387  0.4217
   26MPD2    C4  407   3.650   3.042  11.386  0.1667  0.0697 -0.2041
   26MPD2    C5  408   3.631   3.017  11.249 -0.4074  0.5477 -0.0472
   26MPD2     H  409   3.353   2.946  11.483 -1.1720 -0.2854 -0.3374
   26MPD2    H1  410   3.748   3.083  11.407  1.0595 -1.5609 -1.2325
   26MPD2    H2  411   3.500   2.995  11.077 -1.7273  0.1662  0.1303
   26MPD2    H3  412   3.726   3.030  11.199 -0.5220 -1.8400 -0.9104
   26MPD2     N  413   3.543   3.020  11.601 -0.0053 -0.1043 -0.2611
   26MPD2    H5  414   3.455   3.014  11.652 -1.0183 -2.6463 -2.3169
   26MPD2    N1  415   3.272   2.952  11.214 -0.0255 -0.2114  0.2946
   26MPD2    H7  416   3.267   2.923  11.117  0.0397  1.6327 -0.2491
   27TMC2    C1  417   1.930   1.233  11.973 -0.2861 -0.2185 -0.2901
   27TMC2    C2  418   1.880   1.303  11.873 -0.2486  0.3964 -0.2217
   27TMC2    C3  419   1.882   1.440  11.896 -0.0349  0.6004 -0.2820
   27TMC2    C4  420   1.983   1.294  12.080 -0.1143 -0.2912 -0.1676
   27TMC2    C5  421   1.979   1.427  12.098  0.3155  0.3521  1.0106
   27TMC2    C6  422   1.937   1.508  11.996 -0.2125 -0.1646  0.0135
   27TMC2     C  423   1.896   1.083  11.975  0.2140 -0.5329 -0.1733
   27TMC2     O  424   1.856   1.032  11.875  0.3645  0.5742  0.0372
   27TMC2     H  425   1.828   1.262  11.788  0.6113  0.7319 -0.9012
   27TMC2    H1  426   2.014   1.234  12.165 -1.5903 -2.0352 -0.8561
   27TMC2    H2  427   1.928   1.614  12.016  1.4401  0.3989 -2.2581
   27TMC2    C7  428   1.968   1.466  12.241 -1.0747 -0.5105 -0.4637
   27TMC2    C8  429   1.810   1.515  11.801  0.5944  0.5647  0.7544
   27TMC2    O1  430   2.032   1.406  12.330 -0.5203  0.5382  0.0553
   27TMC2    O2  431   1.711   1.474  11.748  0.4643  0.2060 -0.5519
   27TMC2    O5  432   1.863   1.643  11.790 -0.9739 -0.1898  0.2043
   27TMC2    H5  433   1.958   1.650  11.812 -0.7584 -1.0434 -0.4715
   28MPD2     C  434   1.853   0.635  12.206 -0.5207 -0.1797 -0.0113
   28MPD2    C1  435   1.836   0.741  12.299  0.2650 -0.5764 -0.2245
   28MPD2    C2  436   1.858   0.868  12.262 -0.3303  0.4445  0.2432
   28MPD2    C3  437   1.900   0.896  12.134  0.3671 -0.0228 -0.2344
   28MPD2    C4  438   1.920   0.799  12.049  0.3064  0.0216  0.0582
   28MPD2    C5  439   1.895   0.668  12.081  0.1414 -0.7536  0.0814
   28MPD2     H  440   1.862   0.950  12.334  0.3307 -0.1627  0.9048
   28MPD2    H1  441   1.959   0.824  11.950  0.3402  2.2831  0.6438
   28MPD2    H2  442   1.836   0.531  12.232  0.4702 -0.0733  1.0549
   28MPD2    H3  443   1.907   0.586  12.011  0.0900 -0.9075  0.2523
   28MPD2     N  444   1.912   1.031  12.098 -0.7210  0.5056  0.3571
   28MPD2    H5  445   1.927   1.098  12.173  0.0824  0.8912 -0.1396
   28MPD2    N1  446   1.798   0.710  12.429 -0.1063 -0.1111 -1.0609
   28MPD2    H7  447   1.788   0.612  12.453  0.3972 -0.4051 -2.0107
   29TMC2    C1  448   1.421   2.907  14.370  1.0694  0.5217 -0.1653
   29TMC2    C2  449   1.395   2.896  14.506 -0.0765  0.7876 -0.6724
   29TMC2    C3  450   1.434   3.005  14.579  0.1427  0.6609  0.0118
   29TMC2    C4  451   1.479   3.015  14.317  0.7371 -0.4162  0.4962
   29TMC2    C5  452   1.507   3.126  14.400 -0.2117  0.1257 -0.3644
   29TMC2    C6  453   1.485   3.122  14.534 -0.0932 -0.1054 -0.3499
   29TMC2     C  454   1.394   2.789  14.289 -0.5497 -0.6084  0.0681
   29TMC2     O  455   1.398   2.681  14.352  0.0298 -0.2940  0.3304
   29TMC2     H  456   1.350   2.811  14.554  0.9758  0.9681  0.6486
   29TMC2    H1  457   1.524   3.010  14.218 -2.3172 -1.5682 -0.8348
   29TMC2    H2  458   1.492   3.203  14.605 -0.1939 -1.0823  0.7827
   29TMC2    C7  459   1.558   3.246  14.327  0.3744 -0.1294  0.0160
   29TMC2    C8  460   1.380   3.020  14.715  0.6613 -0.5122  0.1373
   29TMC2    O1  461   1.532   3.255  14.209 -0.0125  0.2089  0.2901
   29TMC2    O2  462   1.357   3.129  14.767 -0.2324 -0.0198  0.5456
   29TMC2    O5  463   1.386   2.915  14.794  0.3987  0.2706 -0.5105
   29TMC2    H5  464   1.426   2.832  14.760 -0.4164  0.2375 -1.3843
   30MPD2     C  465   1.318   2.523  13.859  0.3782 -0.9800 -0.4707
   30MPD2    C1  466   1.379   2.485  13.974 -0.6885  0.3054  0.2477
   30MPD2    C2  467   1.395   2.574  14.073  0.6849  0.1923  0.0624
   30MPD2    C3  468   1.352   2.705  14.061 -0.5907  1.5281  0.1489
   30MPD2    C4  469   1.278   2.737  13.949 -0.5591  0.1602 -0.0291
   30MPD2    C5  470   1.270   2.652  13.845 -0.1273  0.3098  0.4213
   30MPD2     H  471   1.448   2.536  14.159  1.2722  2.6296  0.7625
   30MPD2    H1  472   1.245   2.840  13.937 -2.1148  0.0153  3.1311
   30MPD2    H2  473   1.315   2.453  13.776 -0.4383 -2.0099  0.4386
   30MPD2    H3  474   1.217   2.673  13.753  0.5505  1.6537  0.3423
   30MPD2     N  475   1.370   2.809  14.158  0.2401 -0.3149 -0.4014
   30MPD2    H5  476   1.366   2.907  14.130 -2.9316 -0.2483  0.3320
   30MPD2    N1  477   1.437   2.365  14.014 -0.1184 -0.2234 -0.2961
   30MPD2    H7  478   1.467   2.354  14.111  0.6205  0.9407 -0.3906
   31TMC2    C1  479   3.727   1.414  15.659 -0.6108 -0.2994 -0.1504
   31TMC2    C2  480   3.591   1.438  15.654  0.5762  0.3562 -0.4657
   31TMC2    C3  481   3.535   1.506  15.756 -0.4534  0.6374  0.6358
   31TMC2    C4  482   3.801   1.441  15.767  0.8160  0.4280 -0.8415
   31TMC2    C5  483   3.733   1.493  15.875  0.2640  0.8053 -0.7672
   31TMC2    C6  484   3.603   1.529  15.870  0.3531  0.3169 -0.3536
   31TMC2     C  485   3.792   1.418  15.527 -0.7613 -0.6617 -0.3808
   31TMC2     O  486   3.717   1.418  15.425 -0.0165  0.3369  0.0103
   31TMC2     H  487   3.537   1.408  15.565 -0.1065 -1.0991  0.4447
   31TMC2    H1  488   3.905   1.411  15.766  1.0477  1.2413 -1.1459
   31TMC2    H2  489   3.557   1.569  15.960 -1.6567 -4.2632  0.6684
   31TMC2    C7  490   3.802   1.490  16.003 -0.3328 -0.2006 -0.1439
   31TMC2    C8  491   3.390   1.530  15.761 -0.2073  0.2094 -0.0898
   31TMC2    O1  492   3.888   1.405  16.031  0.1836 -0.0901  0.8949
   31TMC2    O2  493   3.326   1.472  15.843 -0.0732 -0.2622 -0.4258
   31TMC2    O5  494   3.352   1.581  15.640 -0.7464  0.0287  0.0013
   31TMC2    H5  495   3.428   1.614  15.588  0.6482  0.4677  2.3244
   32MPD2     C  496   4.171   1.449  15.208 -0.3313  0.7275 -0.0767
   32MPD2    C1  497   4.045   1.503  15.195  0.1236  0.1230 -0.1221
   32MPD2    C2  498   3.963   1.481  15.300 -0.4715 -0.5927 -0.2991
   32MPD2    C3  499   4.007   1.417  15.413 -0.5037 -0.1056  1.2315
   32MPD2    C4  500   4.131   1.363  15.424 -0.2565  0.5582  0.4911
   32MPD2    C5  501   4.205   1.367  15.311  0.1984 -0.3565  0.0001
   32MPD2     H  502   3.869   1.534  15.295 -0.6462 -0.7672  1.4516
   32MPD2    H1  503   4.163   1.302  15.508  0.3181 -0.1506 -0.2485
   32MPD2    H2  504   4.246   1.465  15.131 -0.4280  0.9499 -0.1224
   32MPD2    H3  505   4.301   1.318  15.316 -0.9655 -2.7751 -1.1212
   32MPD2     N  506   3.926   1.409  15.533  0.8612  0.0740 -0.0652
   32MPD2    H5  507   3.969   1.374  15.618 -0.9010 -1.1989  0.2946
   32MPD2    N1  508   4.016   1.586  15.087 -0.1612  0.6264  0.0958
   32MPD2    H7  509   4.091   1.593  15.019  0.1669 -2.2551  0.1665
   33TMC2    C1  510   4.605   0.081  10.687  0.3196  0.4446  0.0866
   33TMC2    C2  511   4.533   0.026  10.794 -1.3580 -0.3795 -0.4701
   33TMC2    C3  512   4.410   0.078  10.834 -0.1235  0.4650  0.4379
   33TMC2    C4  513   4.555   0.194  10.627  0.0168 -0.1525 -0.3235
   33TMC2    C5  514   4.435   0.244  10.677 -0.2238  0.0597  1.0645
   33TMC2    C6  515   4.361   0.187  10.770  0.2206 -0.0006  0.2626
   33TMC2     C  516   0.004   0.034  10.653  0.0799  0.4565  0.5828
   33TMC2     O  517   0.082   0.104  10.585  0.3480 -0.1459 -0.1743
   33TMC2     H  518   4.582   4.687  10.856  0.6979 -0.2392 -1.9247
   33TMC2    H1  519   4.609   0.250  10.551  0.8800  0.3451  0.6596
   33TMC2    H2  520   4.297   0.253  10.828  0.1406  0.9986 -0.9591
   33TMC2    C7  521   4.384   0.370  10.633 -0.1742  0.1632  0.1758
   33TMC2    C8  522   4.367   0.035  10.968 -0.6337  0.3903  0.0969
   33TMC2    O1  523   4.470   0.448  10.592  0.0947 -0.0192 -0.1985
   33TMC2    O2  524   4.446   4.718  11.044  0.2980 -0.1392 -0.5717
   33TMC2    O5  525   4.247   0.103  11.002  0.3828  0.2182 -0.4654
   33TMC2    H5  526   4.191   0.127  10.925  2.0278 -1.1654 -2.1090
   34MPD2     C  527   0.352   4.381  10.683 -0.5127 -0.1331  0.6380
   34MPD2    C1  528   0.253   4.354  10.772 -0.5393 -0.4648 -0.1352
   34MPD2    C2  529   0.147   4.445  10.780 -0.9954  0.3495  0.7176
   34MPD2    C3  530   0.144   4.561  10.695  0.5057 -0.1872  0.0720
   34MPD2    C4  531   0.251   4.585  10.615 -0.0646 -0.3157 -0.7560
   34MPD2    C5  532   0.347   4.489  10.602  0.1495 -0.3360 -0.2930
   34MPD2     H  533   0.070   4.430  10.854 -2.7233 -1.5044 -1.4691
   34MPD2    H1  534   0.261   4.670  10.549  1.1024 -0.7394 -1.1277
   34MPD2    H2  535   0.446   4.327  10.679 -0.7676 -0.5491  0.2268
   34MPD2    H3  536   0.429   4.513  10.536  0.9935  1.5211  1.4436
   34MPD2     N  537   0.036   4.646  10.714 -0.4165  0.6982 -0.2786
   34MPD2    H5  538   4.695   4.592  10.754 -0.3418  0.9992  0.2809
   34MPD2    N1  539   0.275   4.238  10.857 -0.5890  0.1629  0.2157
   34MPD2    H7  540   0.355   4.181  10.834 -2.6230 -1.8224 -1.9894
   35TMC2    C1  541   1.087   1.290  11.059 -0.5905  0.5111  0.1504
   35TMC2    C2  542   1.022   1.346  10.952  0.4887 -0.4122  0.5328
   35TMC2    C3  543   0.924   1.269  10.900 -0.9552  0.6066 -0.1211
   35TMC2    C4  544   1.047   1.175  11.118  0.4259 -0.5268 -0.5389
   35TMC2    C5  545   0.934   1.112  11.079  1.1266 -0.2093  0.5215
   35TMC2    C6  546   0.878   1.155  10.963  0.2817  0.0191  0.5071
   35TMC2     C  547   1.184   1.385  11.129  0.5761 -0.2429 -0.0430
   35TMC2     O  548   1.230   1.473  11.053 -0.4574 -0.1919  0.1134
   35TMC2     H  549   1.073   1.424  10.896 -0.5935  0.0534  0.2117
   35TMC2    H1  550   1.107   1.149  11.205  0.9028  1.1162 -0.3763
   35TMC2    H2  551   0.784   1.110  10.932  0.6513 -1.2857  1.3205
   35TMC2    C7  552   0.899   0.982  11.133  0.2555  0.0728 -0.0134
   35TMC2    C8  553   0.854   1.334  10.796 -0.0025 -0.3000  0.1497
   35TMC2    O1  554   0.814   0.924  11.073  0.4494 -0.1681  0.5981
   35TMC2    O2  555   0.894   1.439  10.752 -0.3033  0.0866  0.4884
   35TMC2    O5  556   0.779   1.249  10.723  0.4170  0.2507 -0.7459
   35TMC2    H5  557   0.769   1.157  10.755 -0.5527  0.9535  0.9328
   36MPD2     C  558   1.462   1.565  11.521  0.0783  0.4941 -0.7176
   36MPD2    C1  559   1.413   1.441  11.553  0.2478 -0.7866 -0.4416
   36MPD2    C2  560   1.324   1.371  11.467  0.1951 -0.0741  0.1803
   36MPD2    C3  561   1.285   1.433  11.349 -0.0528  0.0752  0.5628
   36MPD2    C4  562   1.335   1.563  11.316  0.1687 -0.3348  0.4310
   36MPD2    C5  563   1.427   1.627  11.401  0.0120 -0.0329  0.6616
   36MPD2     H  564   1.285   1.272  11.487 -1.1392  0.7164  1.5055
   36MPD2    H1  565   1.311   1.605  11.220  0.0996  0.5322  0.8305
   36MPD2    H2  566   1.536   1.619  11.578 -1.3407  2.8542 -1.1441
   36MPD2    H3  567   1.465   1.725  11.375  2.2337 -1.2339 -0.6252
   36MPD2     N  568   1.211   1.353  11.259  0.2124 -0.4624 -0.3091
   36MPD2    H5  569   1.181   1.273  11.314  0.4350 -0.0111  0.4676
   36MPD2    N1  570   1.459   1.383  11.672 -0.6793 -0.9234 -0.5749
   36MPD2    H7  571   1.522   1.441  11.726 -0.5207 -1.6780  0.0612
   37TMC2    C1  572   3.322   0.955  11.974 -0.1463  0.4103 -0.7205
   37TMC2    C2  573   3.234   0.928  12.074 -0.1597  0.0054  0.7180
   37TMC2    C3  574   3.118   1.007  12.077 -0.2888  0.4734  0.6565
   37TMC2    C4  575   3.297   1.057  11.882 -0.5942  0.4210  0.5152
   37TMC2    C5  576   3.180   1.122  11.884 -0.4622  0.2734  0.5806
   37TMC2    C6  577   3.084   1.102  11.984 -0.1690  0.2996 -0.4870
   37TMC2     C  578   3.461   0.918  11.986 -0.1505 -0.3143  0.6527
   37TMC2     O  579   3.536   0.991  11.921  0.9122 -0.4393 -0.6503
   37TMC2     H  580   3.238   0.837  12.134  0.0820 -0.0703  0.5822
   37TMC2    H1  581   3.370   1.081  11.805  0.1857  2.7992  2.0037
   37TMC2    H2  582   2.991   1.156  11.989 -0.5274 -0.4577  0.9558
   37TMC2    C7  583   3.164   1.231  11.790  0.3487 -0.2273  0.0814
   37TMC2    C8  584   3.023   0.967  12.173  0.2576 -0.8766 -0.1374
   37TMC2    O1  585   3.270   1.270  11.742  0.2996 -0.8247  0.3750
   37TMC2    O2  586   3.032   0.861  12.227  0.3780 -0.9155  0.9882
   37TMC2    O5  587   2.983   1.082  12.230  0.1801 -0.0890 -1.0384
   37TMC2    H5  588   3.015   1.168  12.194 -1.3134 -0.0537 -2.2937
   38MPD2     C  589   3.857   0.641  12.177  0.8229  0.0992 -0.3929
   38MPD2    C1  590   3.745   0.562  12.175  0.9459  0.3394  0.0013
   38MPD2    C2  591   3.624   0.610  12.122  0.3063 -1.2700 -1.1883
   38MPD2    C3  592   3.611   0.741  12.085 -0.1164 -0.2076 -0.3490
   38MPD2    C4  593   3.728   0.819  12.087  0.2349 -0.3358  0.4383
   38MPD2    C5  594   3.850   0.771  12.131  0.5266  0.1871  0.0039
   38MPD2     H  595   3.537   0.546  12.131 -0.3987 -0.4226 -2.0028
   38MPD2    H1  596   3.715   0.924  12.062 -0.4001 -0.4991  0.0750
   38MPD2    H2  597   3.953   0.595  12.198  0.4018 -0.8419 -0.5213
   38MPD2    H3  598   3.939   0.832  12.140  0.7080 -0.1718  0.6736
   38MPD2     N  599   3.482   0.802  12.056 -0.5100  0.3695 -0.1043
   38MPD2    H5  600   3.404   0.740  12.075 -0.3461 -0.2222 -1.3490
   38MPD2    N1  601   3.749   0.429  12.226 -1.0008 -0.0448  0.5102
   38MPD2    H7  602   3.675   0.368  12.192  0.9733 -0.8349 -2.3342
   39TMC2    C1  603   1.290   2.456   1.381 -0.6922  0.0853 -0.3131
   39TMC2    C2  604   1.339   2.360   1.467  0.6460 -0.4714  0.0414
   39TMC2    C3  605   1.471   2.318   1.454  0.1380 -0.3195  0.4207
   39TMC2    C4  606   1.354   2.482   1.263 -0.3943 -0.0553  1.2145
   39TMC2    C5  607   1.485   2.430   1.247  0.2068 -0.8488  0.4426
   39TMC2    C6  608   1.544   2.348   1.340  0.5892  0.0163  0.4428
   39TMC2     C  609   1.148   2.458   1.364 -0.1910 -0.1783 -0.3089
   39TMC2     O  610   1.099   2.361   1.311 -0.1718  0.4287 -0.2436
   39TMC2     H  611   1.291   2.321   1.556  1.1507 -0.4499  0.3262
   39TMC2    H1  612   1.307   2.537   1.183 -1.8953 -1.2889  1.2446
   39TMC2    H2  613   1.647   2.317   1.331  0.4666 -0.3912  0.4798
   39TMC2    C7  614   1.542   2.412   1.113  0.2657 -0.5198  0.0458
   39TMC2    C8  615   1.510   2.211   1.538  0.1259  0.1244  0.3743
   39TMC2    O1  616   1.611   2.315   1.089  0.6599  0.2677 -0.0791
   39TMC2    O2  617   1.426   2.147   1.601 -0.0674  0.0254  0.7831
   39TMC2    O5  618   1.639   2.221   1.570 -0.0679  0.0442 -0.5514
   39TMC2    H5  619   1.677   2.301   1.527  1.4777 -1.7712 -2.5541
   40MPD2     C  620   0.899   2.683   1.510 -0.4797  0.0095 -0.5009
   40MPD2    C1  621   0.949   2.584   1.424  0.9924  0.0474 -0.8189
   40MPD2    C2  622   0.870   2.530   1.324  0.1809 -0.3334  0.6050
   40MPD2    C3  623   0.735   2.562   1.319 -0.6263 -0.8978 -0.0060
   40MPD2    C4  624   0.691   2.662   1.396  0.3214 -0.8312  0.1769
   40MPD2    C5  625   0.765   2.709   1.498  0.0332  0.3354  0.4499
   40MPD2     H  626   0.915   2.468   1.247  1.3342  0.7237  0.4181
   40MPD2    H1  627   0.588   2.693   1.398 -0.1855 -2.5445  0.1179
   40MPD2    H2  628   0.960   2.719   1.592  0.9113 -1.3563 -0.9403
   40MPD2    H3  629   0.722   2.779   1.568  0.1980  0.8532  0.0361
   40MPD2     N  630   0.643   2.503   1.226  0.0746 -0.5738 -0.2411
   40MPD2    H5  631   0.545   2.529   1.228  0.4078  0.7486 -0.9825
   40MPD2    N1  632   1.088   2.554   1.430 -0.2281  0.1986 -1.1246
   40MPD2    H7  633   1.145   2.613   1.491  0.1020 -1.5669  0.2596
   41TMC2    C1  634   0.190   1.227  13.276  0.2136 -0.0237  0.2467
   41TMC2    C2  635   0.174   1.319  13.375 -0.3643 -0.1966 -0.5926
   41TMC2    C3  636   0.226   1.443  13.346  0.2230  0.3425 -0.2151
   41TMC2    C4  637   0.239   1.257  13.152 -0.2104 -0.1041  0.0276
   41TMC2    C5  638   0.291   1.384  13.132 -0.5449 -0.3329 -0.2302
   41TMC2    C6  639   0.266   1.482  13.227  0.4207  0.3772 -0.7876
   41TMC2     C  640   0.124   1.102  13.305  0.2070 -0.4550 -0.2039
   41TMC2     O  641   0.087   1.042  13.205 -0.1943  0.0978 -0.0629
   41TMC2     H  642   0.113   1.300  13.462 -0.8018 -2.0054 -1.2790
   41TMC2    H1  643   0.274   1.168  13.102  0.4917 -1.0268  2.1915
   41TMC2    H2  644   0.315   1.578  13.210  1.1049  0.1273 -0.2004
   41TMC2    C7  645   0.355   1.425  13.009  0.7879  0.2718  0.0114
   41TMC2    C8  646   0.195   1.531  13.456  1.2524  0.0275  0.4550
   41TMC2    O1  647   0.332   1.542  12.981  0.2140  0.2171 -0.8189
   41TMC2    O2  648   0.199   1.499  13.574  0.2484  0.1695 -0.1203
   41TMC2    O5  649   0.150   1.645  13.410  0.2680 -0.0949 -0.7729
   41TMC2    H5  650   0.136   1.651  13.313  2.5044 -1.1863 -1.1758
   42MPD2     C  651   0.014   0.862  13.422  0.8912 -0.1612 -0.9563
   42MPD2    C1  652   0.069   0.963  13.500  0.3028  0.8906 -0.5951
   42MPD2    C2  653   0.081   0.950  13.639 -0.0467  0.1137 -0.4233
   42MPD2    C3  654   0.034   0.836  13.705  0.4690 -0.0751 -0.3164
   42MPD2    C4  655   4.703   0.741  13.626 -0.1624 -0.1694 -0.5987
   42MPD2    C5  656   4.684   0.759  13.491  0.2330  0.5197 -0.6371
   42MPD2     H  657   0.124   1.031  13.696  2.6945 -0.8089 -1.2102
   42MPD2    H1  658   4.653   0.655  13.669 -2.4572  0.0280 -2.8335
   42MPD2    H2  659   0.010   0.859  13.314  2.3050  0.5125 -1.0337
   42MPD2    H3  660   4.635   0.680  13.436 -0.3264  0.4653 -0.0612
   42MPD2     N  661   0.044   0.811  13.840 -0.4603  0.4162  0.3630
   42MPD2    H5  662   0.001   0.726  13.874  0.8385  0.2210  1.5380
   42MPD2    N1  663   0.114   1.076  13.437 -0.3209  0.0007 -0.1536
   42MPD2    H7  664   0.151   1.150  13.497 -0.0504  0.4723 -0.9049
   43TMC2    C1  665   1.047   2.996   0.444 -0.7206  0.0759 -1.0292
   43TMC2    C2  666   0.943   2.986   0.355  0.4283  0.4108 -0.0479
   43TMC2    C3  667   0.893   3.108   0.310 -0.2932 -0.2691 -0.4335
   43TMC2    C4  668   1.074   3.119   0.502  0.0485  0.4135  0.5174
   43TMC2    C5  669   1.025   3.238   0.454 -0.2402  0.2195  0.1099
   43TMC2    C6  670   0.943   3.232   0.348  0.8363 -0.1664 -0.9856
   43TMC2     C  671   1.126   2.886   0.464 -0.1953  0.2436  0.7089
   43TMC2     O  672   1.234   2.907   0.516  0.6353 -0.5893  0.1294
   43TMC2     H  673   0.903   2.892   0.317  1.9852  0.5379 -1.9777
   43TMC2    H1  674   1.150   3.125   0.579  2.0764 -0.8799 -1.3732
   43TMC2    H2  675   0.919   3.329   0.305  1.5508  0.7844  0.7372
   43TMC2    C7  676   1.107   3.355   0.466 -0.7675  0.8389 -0.0516
   43TMC2    C8  677   0.758   3.106   0.259  0.1410  0.5886  0.2213
   43TMC2    O1  678   1.146   3.412   0.367  0.0982 -0.1467 -0.0571
   43TMC2    O2  679   0.697   3.006   0.223 -0.6245 -0.3028  0.0382
   43TMC2    O5  680   0.727   3.230   0.230 -0.0589  0.2378  0.0146
   43TMC2    H5  681   0.779   3.294   0.282  0.0633  0.5490 -0.4998
   44MPD2     C  682   1.292   2.458   0.276  0.4059 -0.7071  0.5365
   44MPD2    C1  683   1.362   2.567   0.310 -0.5899  0.5025  0.2734
   44MPD2    C2  684   1.290   2.670   0.369 -0.3049 -0.1966  0.2503
   44MPD2    C3  685   1.159   2.656   0.399  0.5425  0.0877 -0.0862
   44MPD2    C4  686   1.092   2.535   0.376  0.9164 -0.4043  0.3012
   44MPD2    C5  687   1.167   2.431   0.323  0.3830  0.5211  0.1202
   44MPD2     H  688   1.348   2.762   0.370  0.4688 -0.6494 -1.7443
   44MPD2    H1  689   0.991   2.522   0.413  0.2238 -1.1623 -1.8906
   44MPD2    H2  690   1.322   2.389   0.198 -0.5341 -1.7536  1.0917
   44MPD2    H3  691   1.127   2.340   0.281  0.3582  0.5433  0.0958
   44MPD2     N  692   1.076   2.766   0.419  0.1546  0.3596  0.1298
   44MPD2    H5  693   0.975   2.757   0.412  0.1257  0.1582  0.8179
   44MPD2    N1  694   1.504   2.579   0.298 -0.0724 -0.1861  0.8413
   44MPD2    H7  695   1.541   2.671   0.322 -0.2663 -0.3754  1.8353
   45TMC2    C1  696   2.066   1.732   9.594  0.5996  1.0051  0.4776
   45TMC2    C2  697   1.950   1.730   9.524 -0.1680 -0.4694 -0.2397
   45TMC2    C3  698   1.896   1.844   9.473 -0.0561 -0.0688  0.1976
   45TMC2    C4  699   2.127   1.852   9.618 -0.1472  0.0363  0.1365
   45TMC2    C5  700   2.076   1.967   9.570 -0.1168 -0.1354 -0.1181
   45TMC2    C6  701   1.949   1.966   9.513 -0.6612 -0.7658  0.1590
   45TMC2     C  702   2.118   1.615   9.667  0.1549  0.1425 -1.2356
   45TMC2     O  703   2.198   1.636   9.754 -0.1528 -0.0675  0.1852
   45TMC2     H  704   1.915   1.635   9.483 -1.1570 -0.2929  0.1867
   45TMC2    H1  705   2.220   1.855   9.675  0.3436  2.0919 -0.7748
   45TMC2    H2  706   1.908   2.059   9.477  0.9556  0.6271  1.9485
   45TMC2    C7  707   2.136   2.092   9.612  0.0804 -0.2283  0.1102
   45TMC2    C8  708   1.800   1.819   9.369  0.0670 -0.9290 -0.0363
   45TMC2    O1  709   2.209   2.086   9.711  0.2868 -0.2375 -0.0780
   45TMC2    O2  710   1.743   1.713   9.358  0.5399  0.0349 -0.7459
   45TMC2    O5  711   1.816   1.916   9.276 -0.1632  0.2728 -0.0109
   45TMC2    H5  712   1.896   1.971   9.294 -0.4076  1.2558 -1.9766
   46MPD2     C  713   2.203   1.341   9.752 -0.1132  0.1335 -0.4408
   46MPD2    C1  714   2.085   1.372   9.689 -0.5419 -0.5625  0.1659
   46MPD2    C2  715   2.016   1.262   9.644  0.7583 -0.5350  0.3859
   46MPD2    C3  716   2.064   1.135   9.657  0.0722  0.7116  0.1157
   46MPD2    C4  717   2.184   1.107   9.717 -0.4441 -1.1198  0.4852
   46MPD2    C5  718   2.252   1.215   9.773  0.0327  0.5250  0.3075
   46MPD2     H  719   1.921   1.272   9.592  1.5057 -1.5571 -1.1931
   46MPD2    H1  720   2.230   1.010   9.727  0.3060 -0.6586  1.5500
   46MPD2    H2  721   2.273   1.417   9.785  0.0539  1.0290 -2.8854
   46MPD2    H3  722   2.346   1.203   9.828 -0.1999 -2.4101  0.0875
   46MPD2     N  723   1.976   1.028   9.617 -0.5338 -0.3013  0.0041
   46MPD2    H5  724   1.880   1.056   9.599 -0.6556 -0.2317  0.7894
   46MPD2    N1  725   2.049   1.502   9.649  0.0082  0.4053 -0.0539
   46MPD2    H7  726   1.970   1.501   9.585 -2.8667  2.3497  3.4394
   47TMC2    C1  727   4.074   2.177   9.382  0.3611  0.0137  0.0246
   47TMC2    C2  728   4.015   2.052   9.393 -0.0769 -0.1585 -1.2941
   47TMC2    C3  729   3.892   2.057   9.449 -0.4750 -0.5466  0.4582
   47TMC2    C4  730   4.011   2.301   9.401 -0.5752  0.5351 -0.1596
   47TMC2    C5  731   3.878   2.298   9.435 -0.1939  0.5860  0.4773
   47TMC2    C6  732   3.821   2.177   9.462  0.1084  0.1016  1.0072
   47TMC2     C  733   4.215   2.183   9.334  0.2694 -0.6091 -0.7581
   47TMC2     O  734   4.247   2.297   9.299  0.3036 -0.2049 -0.4561
   47TMC2     H  735   4.057   1.956   9.365  1.2098  0.0178  0.0021
   47TMC2    H1  736   4.064   2.391   9.371 -0.4569  0.1692 -1.0645
   47TMC2    H2  737   3.714   2.176   9.479 -0.0542 -0.0605  0.0029
   47TMC2    C7  738   3.796   2.421   9.432  0.8454 -0.5136  0.2298
   47TMC2    C8  739   3.846   1.936   9.517 -0.0081  0.0801  0.3960
   47TMC2    O1  740   3.684   2.406   9.475  0.3011  0.2703  0.3610
   47TMC2    O2  741   3.880   1.820   9.503 -0.3754  0.0751 -0.4713
   47TMC2    O5  742   3.767   1.984   9.613 -0.2037  0.3315  0.7039
   47TMC2    H5  743   3.791   2.077   9.634  2.1679 -0.3686  1.0605
   48MPD2     C  744   4.465   2.137   9.181 -0.4234  0.0013 -0.3421
   48MPD2    C1  745   4.410   2.052   9.272  0.4240 -0.2345 -0.7984
   48MPD2    C2  746   4.472   1.932   9.297 -0.4013 -0.8382  0.1923
   48MPD2    C3  747   4.602   1.903   9.252  0.1372 -0.0434  0.0615
   48MPD2    C4  748   4.661   1.992   9.167 -0.6009 -0.5470 -0.8131
   48MPD2    C5  749   4.595   2.110   9.135 -0.3041  0.1983 -0.3141
   48MPD2     H  750   4.416   1.864   9.361  0.1423 -1.9634 -0.5268
   48MPD2    H1  751   0.031   1.986   9.144  0.2456 -0.4643  3.0730
   48MPD2    H2  752   4.425   2.232   9.147  1.7543  1.0817  0.1206
   48MPD2    H3  753   4.647   2.173   9.064 -0.3052  1.2555  0.6289
   48MPD2     N  754   4.662   1.786   9.299  0.2586  0.4926  0.0584
   48MPD2    H5  755   4.606   1.735   9.366  1.1938  1.4221  1.5639
   48MPD2    N1  756   4.276   2.058   9.324 -0.0585 -0.2147 -0.0614
   48MPD2    H7  757   4.248   1.984   9.387 -2.1218  2.6718  2.4122
   49TMC2    C1  758   2.214   4.069   9.554  0.5788 -0.3166 -0.0977
   49TMC2    C2  759   2.170   4.058   9.425  0.4692  0.5024  0.1644
   49TMC2    C3  760   2.054   3.996   9.395  0.5667  0.0044 -0.4657
   49TMC2    C4  761   2.145   4.004   9.649  0.3354 -0.0271  0.2404
   49TMC2    C5  762   2.033   3.932   9.612 -0.0532  0.0147  0.0426
   49TMC2    C6  763   1.979   3.933   9.493 -0.0627 -0.3458 -0.8175
   49TMC2     C  764   2.340   4.136   9.590 -0.2062  0.3401 -0.0143
   49TMC2     O  765   2.377   4.229   9.518 -0.3000 -0.0369 -0.3387
   49TMC2     H  766   2.216   4.129   9.357 -2.5666  0.0230 -2.3857
   49TMC2    H1  767   2.176   4.001   9.753 -1.1738 -0.9830  0.6535
   49TMC2    H2  768   1.899   3.864   9.468 -1.6228  0.4334  1.9218
   49TMC2    C7  769   1.948   3.874   9.709  1.1761  0.3498 -0.1403
   49TMC2    C8  770   2.018   3.993   9.259  0.3714 -0.3070  0.4297
   49TMC2    O1  771   2.010   3.811   9.793  0.4106 -0.1926 -0.6057
   49TMC2    O2  772   2.091   4.040   9.171 -0.4149 -0.5980 -0.1905
   49TMC2    O5  773   1.887   4.006   9.248 -0.1186  0.5860 -0.5301
   49TMC2    H5  774   1.830   3.993   9.327 -0.3829 -1.5954 -1.0618
   50MPD2     C  775   2.564   4.264   9.751 -0.0633 -0.2341  0.9843
   50MPD2    C1  776   2.516   4.133   9.762 -0.4396 -0.2666  0.7104
   50MPD2    C2  777   2.582   4.050   9.852  0.2180 -0.5650 -0.5204
   50MPD2    C3  778   2.668   4.109   9.943  0.8033 -0.4373 -0.0164
   50MPD2    C4  779   2.704   4.244   9.931 -0.9950  0.5833  0.8143
   50MPD2    C5  780   2.652   4.315   9.832 -0.0731 -0.3903 -0.5138
   50MPD2     H  781   2.541   3.951   9.865  3.1539 -1.5635  1.1144
   50MPD2    H1  782   2.777   4.299   9.989  0.4153  0.9505 -1.2916
   50MPD2    H2  783   2.515   4.327   9.677 -0.5404 -1.5998  0.1351
   50MPD2    H3  784   2.679   4.419   9.825  1.3286 -0.6424  1.1820
   50MPD2     N  785   2.732   4.036  10.041  0.8080  0.0524  0.2297
   50MPD2    H5  786   2.791   4.091  10.103  1.3494 -0.6850  0.3703
   50MPD2    N1  787   2.407   4.076   9.695 -0.1231 -0.2198  0.2466
   50MPD2    H7  788   2.381   3.981   9.721  1.9582 -1.7644 -3.2826
   51TMC2    C1  789   3.318   2.326   1.205 -0.3655  0.3255 -0.2602
   51TMC2    C2  790   3.205   2.368   1.271  0.5710 -0.0386  0.7582
   51TMC2    C3  791   3.153   2.492   1.238  0.4260 -0.2677  0.1002
   51TMC2    C4  792   3.375   2.402   1.098 -0.8719 -0.6370  0.3850
   51TMC2    C5  793   3.312   2.526   1.080 -0.2425  0.5952  0.2970
   51TMC2    C6  794   3.207   2.578   1.150  0.1247  0.4168  0.5472
   51TMC2     C  795   3.376   2.194   1.224 -0.7164  0.4433 -0.5583
   51TMC2     O  796   3.464   2.161   1.148 -0.0209  0.1979  0.6196
   51TMC2     H  797   3.148   2.302   1.336  2.4669 -2.1060  0.3034
   51TMC2    H1  798   3.454   2.365   1.033 -1.3947  0.5821 -0.9497
   51TMC2    H2  799   3.172   2.679   1.131 -0.5506  0.0983  0.0886
   51TMC2    C7  800   3.344   2.594   0.951  0.4206  0.6980  0.3213
   51TMC2    C8  801   3.071   2.544   1.340  0.4748  0.7617  0.2057
   51TMC2    O1  802   3.458   2.579   0.913 -0.5099 -0.1726  0.0154
   51TMC2    O2  803   3.069   2.496   1.451 -0.2382 -0.4749 -0.4994
   51TMC2    O5  804   2.997   2.641   1.289  0.1614 -0.6619 -0.2624
   51TMC2    H5  805   2.998   2.639   1.191 -0.2397  1.9544 -0.3174
   52MPD2     C  806   3.460   1.746   1.458 -0.0084 -0.0341 -0.0745
   52MPD2    C1  807   3.472   1.781   1.327 -0.1755 -0.3207  0.1647
   52MPD2    C2  808   3.447   1.912   1.289 -0.3969  0.5263 -0.7313
   52MPD2    C3  809   3.385   2.002   1.374  0.1687  0.4452 -0.3496
   52MPD2    C4  810   3.358   1.964   1.505  0.4733  0.6635 -0.1288
   52MPD2    C5  811   3.397   1.840   1.540 -0.3093  0.2539 -0.3216
   52MPD2     H  812   3.469   1.926   1.184 -0.1118 -0.5776 -0.8234
   52MPD2    H1  813   3.314   2.025   1.583  0.7779  0.3212  0.3104
   52MPD2    H2  814   3.472   1.645   1.495  0.2663  0.1442  0.3209
   52MPD2    H3  815   3.369   1.810   1.641 -0.3263 -1.2992 -0.7864
   52MPD2     N  816   3.348   2.136   1.344  0.2169  0.6606 -0.0344
   52MPD2    H5  817   3.291   2.184   1.413  0.2512 -0.2222  0.6020
   52MPD2    N1  818   3.532   1.695   1.228 -0.9919 -0.0714 -0.0917
   52MPD2    H7  819   3.520   1.733   1.135 -0.4184 -0.3538 -0.2788
   53TMC2    C1  820   3.169   1.372  11.078 -0.1476 -0.3014 -0.0308
   53TMC2    C2  821   3.166   1.277  10.977 -0.4133  0.6708 -0.7791
   53TMC2    C3  822   3.291   1.219  10.935  0.0550  0.2383 -0.3453
   53TMC2    C4  823   3.295   1.419  11.117 -0.1419 -0.2877  0.1712
   53TMC2    C5  824   3.408   1.359  11.074 -0.6329  0.3303 -1.1400
   53TMC2    C6  825   3.412   1.255  10.988  0.1143 -0.0705 -0.1349
   53TMC2     C  826   3.054   1.382  11.163  0.1769  0.1747  0.0018
   53TMC2     O  827   2.941   1.374  11.117 -0.4388  0.3294 -0.3907
   53TMC2     H  828   3.071   1.228  10.960  0.3998 -1.4370  0.6949
   53TMC2    H1  829   3.298   1.498  11.191 -0.6119  1.5264 -1.7440
   53TMC2    H2  830   3.503   1.208  10.953  0.4882 -0.1410  0.9365
   53TMC2    C7  831   3.529   1.395  11.155  0.4462  0.3294 -0.1110
   53TMC2    C8  832   3.291   1.093  10.873  0.2028  0.1065  0.3036
   53TMC2    O1  833   3.519   1.502  11.211  0.1134 -0.4328 -0.0531
   53TMC2    O2  834   3.341   0.991  10.916  0.0537  0.4961 -0.2786
   53TMC2    O5  835   3.174   1.084  10.808 -0.1478  0.6015  0.4904
   53TMC2    H5  836   3.156   1.172  10.770 -0.8900  1.0586  1.9037
   54MPD2     C  837   2.883   1.406  11.410  0.5897  0.0268  0.0555
   54MPD2    C1  838   3.018   1.368  11.406  0.2187  0.6733  0.1670
   54MPD2    C2  839   3.066   1.318  11.523  0.2165  0.2805  0.2573
   54MPD2    C3  840   2.987   1.319  11.637 -0.0515 -0.6758  0.0012
   54MPD2    C4  841   2.858   1.367  11.640 -0.2357  0.2509  0.5741
   54MPD2    C5  842   2.801   1.408  11.524  0.0597  0.1982  0.3787
   54MPD2     H  843   3.169   1.284  11.517  0.4436  0.9724  0.2376
   54MPD2    H1  844   2.803   1.378  11.733  1.5174 -1.1790  1.7614
   54MPD2    H2  845   2.835   1.436  11.318  0.5601  1.2271  0.4556
   54MPD2    H3  846   2.702   1.450  11.533  0.3602  0.6765  1.5141
   54MPD2     N  847   3.034   1.265  11.762  0.3495 -0.4684  0.4667
   54MPD2    H5  848   2.961   1.253  11.832  1.4589 -1.8630  1.3736
   54MPD2    N1  849   3.096   1.367  11.290  0.3709 -0.3949 -0.7743
   54MPD2    H7  850   3.192   1.335  11.302 -0.0240 -0.6603  1.6785
   55TMC2    C1  851   4.165   3.783  17.658 -0.0285  0.6189  0.4109
   55TMC2    C2  852   4.288   3.839  17.660  0.2096  0.1117  0.0749
   55TMC2    C3  853   4.391   3.761  17.617  0.3556 -0.6056  0.4044
   55TMC2    C4  854   4.150   3.646  17.650 -0.2520  0.5578 -0.1763
   55TMC2    C5  855   4.255   3.564  17.617 -0.0867 -0.4924  0.3223
   55TMC2    C6  856   4.376   3.626  17.599  0.1365 -0.3378 -0.0720
   55TMC2     C  857   4.046   3.863  17.687 -0.1395  0.3603 -0.1963
   55TMC2     O  858   3.940   3.806  17.713  0.5298 -0.7306  0.4303
   55TMC2     H  859   4.296   3.946  17.678  1.0317 -0.0885  0.9011
   55TMC2    H1  860   4.053   3.601  17.635  1.4619 -2.3701 -2.5743
   55TMC2    H2  861   4.464   3.570  17.570  0.7678  0.3594  0.4940
   55TMC2    C7  862   4.264   3.422  17.618  0.8017  0.9043 -0.0236
   55TMC2    C8  863   4.520   3.818  17.585 -0.6690  0.0887 -0.5302
   55TMC2    O1  864   4.375   3.367  17.616  0.4648 -0.5473 -0.5229
   55TMC2    O2  865   4.587   3.777  17.495  0.4255  0.3652  0.0487
   55TMC2    O5  866   4.553   3.900  17.685 -0.3302  0.3937  0.1957
   55TMC2    H5  867   4.489   3.911   0.019 -1.9905  0.1963 -1.2099
   56MPD2     C  868   3.980   4.215  17.622 -0.5523 -0.6697  0.1041
   56MPD2    C1  869   3.962   4.087  17.673  0.0738  0.5788 -0.2811
   56MPD2    C2  870   3.848   4.065   0.020 -0.1357 -0.2976  0.0620
   56MPD2    C3  871   3.758   4.166   0.037 -0.1789 -0.8167 -0.2907
   56MPD2    C4  872   3.773   4.284  17.711 -1.0992 -0.8395  0.3229
   56MPD2    C5  873   3.885   4.312  17.637 -0.4534 -0.4237  0.2336
   56MPD2     H  874   3.824   3.968   0.063  2.7959  0.0281  2.4135
   56MPD2    H1  875   3.695   4.358  17.724 -0.2338  0.5547 -2.3862
   56MPD2    H2  876   4.068   4.238  17.562 -1.1654 -2.1147 -1.3794
   56MPD2    H3  877   3.897   4.412  17.595 -1.5575  0.3309  1.7143
   56MPD2     N  878   3.646   4.135   0.121  0.2855  0.3310  0.1713
   56MPD2    H5  879   3.634   4.037   0.145  0.9927  0.6763  2.0035
   56MPD2    N1  880   4.060   3.990  17.638  0.1322  0.6184  0.1346
   56MPD2    H7  881   4.144   4.014  17.586 -0.5400  1.0806 -0.7404
   57TMC2    C1  882   3.807   4.333  13.756 -0.1149 -0.4614  1.2692
   57TMC2    C2  883   3.866   4.222  13.816  0.0842 -0.4927  0.5758
   57TMC2    C3  884   4.004   4.219  13.832 -0.6924 -0.2264  0.2916
   57TMC2    C4  885   3.882   4.438  13.711 -0.0126 -0.6507  0.0314
   57TMC2    C5  886   4.020   4.422  13.715  0.9569  0.6918  0.1820
   57TMC2    C6  887   4.084   4.323  13.786  0.1358  0.7414 -0.0382
   57TMC2     C  888   3.665   4.345  13.733 -0.2509  0.7583  0.0702
   57TMC2     O  889   3.629   4.461  13.712  0.9635 -0.3083 -0.1821
   57TMC2     H  890   3.800   4.141  13.846 -1.1814  1.4103  2.9706
   57TMC2    H1  891   3.844   4.523  13.656  0.4952 -1.8002 -2.1225
   57TMC2    H2  892   4.178   4.340  13.837 -0.4406  0.0685  1.2499
   57TMC2    C7  893   4.097   4.482  13.612  0.5608 -0.2123 -0.1630
   57TMC2    C8  894   4.043   4.151  13.952  0.3021  0.1799  0.6110
   57TMC2    O1  895   4.063   4.592  13.566 -0.3241 -0.2975  0.6221
   57TMC2    O2  896   3.965   4.110  14.033 -0.1615 -0.3235 -0.2712
   57TMC2    O5  897   4.170   4.122  13.942  0.0363 -0.1504 -0.2951
   57TMC2    H5  898   4.213   4.167  13.866  1.3505 -1.7142 -0.4776
   58MPD2     C  899   3.208   4.157  13.609  0.5098 -0.3597 -0.0522
   58MPD2    C1  900   3.246   4.279  13.640 -0.1195 -0.5029  0.6828
   58MPD2    C2  901   3.373   4.303  13.688 -0.4370  0.4002  0.6746
   58MPD2    C3  902   3.468   4.208  13.675 -0.2345 -0.3110  0.2603
   58MPD2    C4  903   3.426   4.086  13.637  0.5877  0.1595 -0.3706
   58MPD2    C5  904   3.295   4.058  13.613 -0.3453 -0.1815  0.1857
   58MPD2     H  905   3.399   4.403  13.724 -0.7168  0.3144  1.1139
   58MPD2    H1  906   3.494   4.002  13.624 -0.6422 -1.0769  1.0876
   58MPD2    H2  907   3.107   4.128  13.584 -0.4293  3.2446 -0.4761
   58MPD2    H3  908   3.249   3.971  13.569  0.2031  0.8977 -2.5258
   58MPD2     N  909   3.606   4.226  13.714  0.5098 -0.1454  0.5261
   58MPD2    H5  910   3.668   4.146  13.706 -0.4451 -0.6862 -1.3483
   58MPD2    N1  911   3.154   4.392  13.649  0.5415 -0.5900  0.8332
   58MPD2    H7  912   3.192   4.481  13.680 -1.2195  0.2400  0.6240
   59TMC2    C1  913   1.433   0.248  12.652  0.0869  0.5039 -1.2869
   59TMC2    C2  914   1.327   0.161  12.651  0.3993  0.4018  0.0206
   59TMC2    C3  915   1.290   0.116  12.523  0.8567  0.2535 -0.4758
   59TMC2    C4  916   1.498   0.292  12.537  0.3170 -0.6010  0.4266
   59TMC2    C5  917   1.461   0.239  12.416 -0.4240  0.1074  0.9145
   59TMC2    C6  918   1.372   0.135  12.411 -0.1293  0.0113 -0.1203
   59TMC2     C  919   1.445   0.334  12.764 -1.0224 -0.0899  0.3098
   59TMC2     O  920   1.343   0.384  12.816 -0.1995  0.3028  0.1783
   59TMC2     H  921   1.272   0.138  12.741 -0.4794  1.6896 -0.1863
   59TMC2    H1  922   1.561   0.379  12.549 -2.0367  1.2218 -0.3441
   59TMC2    H2  923   1.346   0.094  12.314  0.5079  0.5233 -0.5106
   59TMC2    C7  924   1.504   0.287  12.287 -0.0717  0.2450  0.2387
   59TMC2    C8  925   1.195   0.006  12.512 -0.3283 -0.3281  0.0498
   59TMC2    O1  926   1.539   0.199  12.205  0.3515  0.1257 -0.3184
   59TMC2    O2  927   1.196   4.665  12.414 -0.0916 -0.8720 -0.1895
   59TMC2    O5  928   1.102   0.004  12.608 -0.0131  0.6815 -0.3589
   59TMC2    H5  929   1.113   0.079  12.671  2.2592 -0.5476  0.7096
   60MPD2     C  930   1.548   0.500  13.001 -0.7913  0.4355 -0.4451
   60MPD2    C1  931   1.625   0.409  12.930  0.0113  0.5572 -0.0374
   60MPD2    C2  932   1.759   0.395  12.975  0.8985 -0.3850  0.1539
   60MPD2    C3  933   1.800   0.449  13.096 -0.8037 -0.4711  0.0293
   60MPD2    C4  934   1.713   0.532  13.170  0.7481 -0.3548  0.6090
   60MPD2    C5  935   1.591   0.565  13.116 -0.3513  0.2114 -0.7434
   60MPD2     H  936   1.831   0.324  12.934  2.2562  1.8333 -1.3173
   60MPD2    H1  937   1.737   0.568  13.269  3.5181  0.9084 -0.5344
   60MPD2    H2  938   1.441   0.503  12.984 -0.9191 -1.0062  0.0721
   60MPD2    H3  939   1.519   0.618  13.177 -0.2985  0.2989 -0.7567
   60MPD2     N  940   1.923   0.431  13.161 -0.7398  0.0139 -0.3194
   60MPD2    H5  941   1.932   0.485  13.246 -0.1642 -0.4445 -0.0865
   60MPD2    N1  942   1.578   0.331  12.819 -0.1940 -0.6939  0.3778
   60MPD2    H7  943   1.640   0.279  12.758  2.0481  0.6535  1.5002
   61TMC2    C1  944   0.671   0.861  15.239  0.0565 -0.3667  0.6299
   61TMC2    C2  945   0.620   0.756  15.320 -0.2376  0.9823  0.4775
   61TMC2    C3  946   0.583   0.787  15.449 -0.1016  0.4875  0.0574
   61TMC2    C4  947   0.672   0.991  15.287 -0.1832 -0.2955 -0.0887
   61TMC2    C5  948   0.622   1.014  15.407 -0.1423 -0.8282 -0.2262
   61TMC2    C6  949   0.582   0.917  15.489  0.2605 -0.4893  0.3488
   61TMC2     C  950   0.754   0.816  15.127 -0.1576  0.0431 -0.3851
   61TMC2     O  951   0.806   0.708  15.150 -0.3153  0.3165 -0.0697
   61TMC2     H  952   0.615   0.654  15.284 -0.8691  1.0985  0.2447
   61TMC2    H1  953   0.713   1.074  15.230 -0.2915  0.3886  0.8255
   61TMC2    H2  954   0.532   0.939  15.583 -0.8511 -0.3616 -0.2761
   61TMC2    C7  955   0.642   1.146  15.454 -0.1348 -0.1820  0.2305
   61TMC2    C8  956   0.516   0.680  15.522 -0.4490 -0.1121  0.3604
   61TMC2    O1  957   0.672   1.234  15.373  0.1032  0.5232 -0.3406
   61TMC2    O2  958   0.456   0.591  15.470 -0.1869 -0.3925  0.3578
   61TMC2    O5  959   0.522   0.697  15.653  0.2094  0.1499  0.0391
   61TMC2    H5  960   0.578   0.773  15.678  2.0078 -1.1365 -0.0474
   62MPD2     C  961   0.970   0.814  14.908  0.3508 -0.0483 -0.5498
   62MPD2    C1  962   0.887   0.924  14.950  0.5028 -0.0685  0.4968
   62MPD2    C2  963   0.901   1.047  14.888  0.2806  0.5568  0.6552
   62MPD2    C3  964   1.000   1.069  14.799  0.1340  0.4796 -0.1428
   62MPD2    C4  965   1.085   0.962  14.761 -0.5661  0.7490 -0.5687
   62MPD2    C5  966   1.060   0.833  14.809 -0.0281 -0.5630 -0.6856
   62MPD2     H  967   0.833   1.123  14.922  0.6924  0.8426  0.8379
   62MPD2    H1  968   1.160   0.965  14.683 -1.2556 -1.7292 -1.3381
   62MPD2    H2  969   0.950   0.719  14.956  0.4419  0.2441  0.0590
   62MPD2    H3  970   1.123   0.747  14.788 -0.4261 -0.6594 -1.4921
   62MPD2     N  971   1.016   1.202  14.736 -0.0455  0.0977 -0.3498
   62MPD2    H5  972   0.949   1.277  14.754  1.0766  1.0457 -0.1746
   62MPD2    N1  973   0.790   0.918  15.044 -0.5234  0.5728  0.5359
   62MPD2    H7  974   0.740   1.006  15.052 -0.1351  0.7635  0.8569
   63TMC2    C1  975   0.159   1.793  10.602  0.9186  0.1144  0.1326
   63TMC2    C2  976   0.230   1.838  10.712 -0.9313  0.6320  0.3137
   63TMC2    C3  977   0.343   1.917  10.689  0.3211  0.0522 -0.1078
   63TMC2    C4  978   0.185   1.831  10.473 -0.4144  0.1057 -0.0862
   63TMC2    C5  979   0.290   1.911  10.456  0.5669 -0.0990 -0.0192
   63TMC2    C6  980   0.370   1.957  10.563  0.9315 -0.1825 -0.1973
   63TMC2     C  981   0.036   1.722  10.615 -0.2935 -0.1938  0.3718
   63TMC2     O  982   4.697   1.729  10.519  0.3733 -0.1327 -0.3586
   63TMC2     H  983   0.194   1.815  10.812 -0.8188 -3.4575 -0.5932
   63TMC2    H1  984   0.125   1.797  10.390 -2.5045 -1.1092  1.9138
   63TMC2    H2  985   0.454   2.024  10.550  0.5886  0.8370  2.7311
   63TMC2    C7  986   0.311   1.972  10.321 -0.0558  0.0905  0.0751
   63TMC2    C8  987   0.363   2.008  10.802 -0.8017  0.0144 -0.3855
   63TMC2    O1  988   0.222   1.947  10.242  0.4503  0.0418 -0.1666
   63TMC2    O2  989   0.353   1.971  10.915  0.5967 -0.4859  0.1757
   63TMC2    O5  990   0.327   2.129  10.752 -0.3461  0.2388 -0.0014
   63TMC2    H5  991   0.352   2.140  10.658  0.8584 -0.9823  0.1824
   64MPD2     C  992   4.414   1.407  10.799  0.0814 -0.3681 -0.1142
   64MPD2    C1  993   4.541   1.376  10.855  0.3778  0.1502 -0.4183
   64MPD2    C2  994   4.652   1.455  10.836 -0.0792 -0.1946  0.1894
   64MPD2    C3  995   4.645   1.566  10.752 -0.5875  0.1798 -0.3408
   64MPD2    C4  996   4.515   1.596  10.703  0.1384 -0.2388 -0.3524
   64MPD2    C5  997   4.406   1.515  10.724  0.1544  0.4187  0.3578
   64MPD2     H  998   0.009   1.419  10.879  0.8448  2.0159  0.0270
   64MPD2    H1  999   4.496   1.678  10.636  0.3390  1.3946  1.5783
   64MPD2    H2 1000   4.332   1.341  10.825  2.2152 -2.7172  0.6651
   64MPD2    H3 1001   4.311   1.546  10.682  0.3975 -0.4232 -0.8254
   64MPD2     N 1002   0.027   1.640  10.726 -0.1041  0.2368  0.0206
   64MPD2    H5 1003   0.109   1.621  10.783  0.4403 -0.3068 -0.9528
   64MPD2    N1 1004   4.556   1.258  10.931 -0.0150  0.3311  0.1371
   64MPD2    H7 1005   4.645   1.251  10.981  0.3310  0.6358 -0.4378
   65TMC2    C1 1006   1.034   1.046  15.467 -0.0405 -0.2254  0.4164
   65TMC2    C2 1007   1.093   1.011  15.348 -0.1694 -0.3187 -0.2555
   65TMC2    C3 1008   1.108   1.109  15.251 -0.0271 -0.9638  0.8916
   65TMC2    C4 1009   0.975   1.167  15.491  0.3823 -0.1202 -0.0957
   65TMC2    C5 1010   0.988   1.264  15.390 -0.7308 -0.4053  0.1379
   65TMC2    C6 1011   1.051   1.229  15.272 -0.1760 -0.0196  0.2091
   65TMC2     C 1012   0.982   0.935  15.552 -0.9846 -0.2560 -0.1417
   65TMC2     O 1013   0.953   0.972  15.666 -0.5238  0.1651  0.1743
   65TMC2     H 1014   1.147   0.917  15.351 -1.4486 -1.0370  0.6874
   65TMC2    H1 1015   0.921   1.193  15.581  1.9735  0.0395  0.7994
   65TMC2    H2 1016   1.072   1.317  15.212  0.0233  1.4807  2.4959
   65TMC2    C7 1017   0.984   1.406  15.423  0.3348  0.6079 -0.5393
   65TMC2    C8 1018   1.196   1.089  15.136  0.4150  0.4099 -0.0554
   65TMC2    O1 1019   0.984   1.486  15.329  0.5845 -0.3876 -0.4674
   65TMC2    O2 1020   1.238   1.182  15.070 -0.0799 -0.3426  0.2206
   65TMC2    O5 1021   1.178   0.957  15.100  0.6811 -0.3580 -0.2235
   65TMC2    H5 1022   1.137   0.897  15.166  2.3378 -0.8229  0.3862
   66MPD2     C 1023   0.905   0.679  15.693 -0.0643  0.0044 -0.0832
   66MPD2    C1 1024   0.911   0.692  15.551 -0.2212 -0.1692 -0.5359
   66MPD2    C2 1025   0.873   0.586  15.470  0.4108 -0.3308  0.3406
   66MPD2    C3 1026   0.833   0.466  15.531 -0.2220 -0.7190 -0.6445
   66MPD2    C4 1027   0.819   0.461  15.672 -0.4525  0.6551 -0.0876
   66MPD2    C5 1028   0.859   0.565  15.752 -0.2582 -0.1974 -0.6443
   66MPD2     H 1029   0.878   0.605  15.363  1.1449  2.1803  0.8121
   66MPD2    H1 1030   0.783   0.371  15.720  0.7899  0.4142  0.3836
   66MPD2    H2 1031   0.940   0.757  15.759  0.4343  2.8135 -3.6979
   66MPD2    H3 1032   0.855   0.554  15.860  1.6076 -0.9056 -0.6459
   66MPD2     N 1033   0.796   0.349  15.460  0.2475 -0.1804 -0.1964
   66MPD2    H5 1034   0.755   0.272  15.512 -0.6572  0.6337  0.3032
   66MPD2    N1 1035   0.963   0.811  15.491 -0.7557  0.4833 -1.2703
   66MPD2    H7 1036   0.987   0.800  15.393  0.3018 -2.1879 -0.7207
   67TMC2    C1 1037   1.744   0.312  14.133  0.6656  0.2979 -0.7571
   67TMC2    C2 1038   1.669   0.433  14.133  0.1329  0.2343  0.2072
   67TMC2    C3 1039   1.676   0.510  14.242 -0.1051  0.3055  0.0280
   67TMC2    C4 1040   1.804   0.258  14.247 -0.7942  0.3546  0.6260
   67TMC2    C5 1041   1.791   0.341  14.357 -0.1425  0.3934 -0.5379
   67TMC2    C6 1042   1.723   0.462  14.357  0.0577 -0.0979 -0.0489
   67TMC2     C 1043   1.721   0.220  14.028  0.5101  0.0211 -0.5029
   67TMC2     O 1044   1.798   0.122  14.017  0.5717 -0.1766  0.3602
   67TMC2     H 1045   1.614   0.464  14.045  0.6365 -0.5103 -0.3712
   67TMC2    H1 1046   1.862   0.167  14.236 -1.1258 -0.0426  2.2561
   67TMC2    H2 1047   1.722   0.532  14.440  0.9653 -2.9519  2.3625
   67TMC2    C7 1048   1.859   0.307  14.474  0.4511  0.6621  0.0933
   67TMC2    C8 1049   1.613   0.643  14.228  1.0206 -0.0307 -0.7817
   67TMC2    O1 1050   1.974   0.262  14.469  0.0472 -0.3924  0.3705
   67TMC2    O2 1051   1.533   0.669  14.139 -0.1698  0.0027 -0.7854
   67TMC2    O5 1052   1.680   0.735  14.306  0.6242 -0.5346  1.1140
   67TMC2    H5 1053   1.757   0.693  14.349  1.4183  0.4797  0.6821
   68MPD2     C 1054   1.605   0.051  13.816  0.0454  0.2367 -0.2455
   68MPD2    C1 1055   1.535   0.142  13.886 -0.1064 -0.3028 -0.0687
   68MPD2    C2 1056   1.402   0.128  13.882 -0.6356 -0.2565  0.0467
   68MPD2    C3 1057   1.338   0.033  13.810 -0.2237 -0.1148 -0.5912
   68MPD2    C4 1058   1.416   4.692  13.725 -0.4538  0.0027 -0.6666
   68MPD2    C5 1059   1.547   4.698  13.734  0.3459 -0.1440  0.0025
   68MPD2     H 1060   1.348   0.184  13.958 -0.5634 -0.4861  0.2677
   68MPD2    H1 1061   1.373   4.617  13.659 -1.2116 -0.4124  0.3105
   68MPD2    H2 1062   1.713   0.044  13.817  0.0356 -0.2590 -1.5300
   68MPD2    H3 1063   1.608   4.636  13.670 -1.1674 -0.9137 -0.7072
   68MPD2     N 1064   1.200   0.028  13.814 -0.4103  0.3848  0.3409
   68MPD2    H5 1065   1.152   4.727  13.733  0.7008  1.1134 -0.6590
   68MPD2    N1 1066   1.591   0.232  13.979 -0.0300  0.0760  0.1716
   68MPD2    H7 1067   1.521   0.294  14.019  0.3110  1.4902 -1.3825
   69TMC2    C1 1068   4.174   1.349  12.218  0.3439  0.6356  1.0011
   69TMC2    C2 1069   4.155   1.463  12.296  0.0926 -0.7613 -0.2925
   69TMC2    C3 1070   4.151   1.585  12.244  0.4739  0.3382  0.3690
   69TMC2    C4 1071   4.185   1.363  12.080 -0.1324  0.3277  0.2215
   69TMC2    C5 1072   4.170   1.493  12.029  0.2187  0.3428 -0.1521
   69TMC2    C6 1073   4.163   1.604  12.105  0.0269  0.4359 -0.4631
   69TMC2     C 1074   4.187   1.220  12.287  0.1498 -0.0919 -0.3710
   69TMC2     O 1075   4.176   1.221  12.412  0.5237 -0.1434 -0.4500
   69TMC2     H 1076   4.137   1.454  12.402 -1.3342  0.9333 -0.3922
   69TMC2    H1 1077   4.213   1.280  12.017 -1.5693 -1.5936  2.0985
   69TMC2    H2 1078   4.158   1.702  12.060 -0.8139  1.4560  1.8497
   69TMC2    C7 1079   4.187   1.508  11.893  0.7658  0.1716  0.3214
   69TMC2    C8 1080   4.159   1.682  12.348 -0.4954  0.3349 -0.2244
   69TMC2    O1 1081   4.235   1.616  11.859  0.3430  0.0127  0.1804
   69TMC2    O2 1082   4.164   1.670  12.470  0.4612  0.1468  0.5761
   69TMC2    O5 1083   4.249   1.763  12.292  0.2289  0.8477 -0.1607
   69TMC2    H5 1084   4.258   1.751  12.196  1.1947 -2.0058  0.2939
   70MPD2     C 1085   4.290   0.883  12.164 -0.2804 -0.0294 -0.2537
   70MPD2    C1 1086   4.217   0.975  12.240 -0.5088  0.2608 -0.0589
   70MPD2    C2 1087   4.130   0.933  12.338  0.8666  0.1979 -0.8343
   70MPD2    C3 1088   4.117   0.800  12.358 -0.2454  0.7285 -0.4529
   70MPD2    C4 1089   4.201   0.711  12.291  0.5302 -0.0137  0.6931
   70MPD2    C5 1090   4.280   0.751  12.189 -0.3965 -0.2225 -0.4059
   70MPD2     H 1091   4.076   1.008  12.393  0.5156 -0.9059  0.3237
   70MPD2    H1 1092   4.189   0.604  12.304 -0.2826  0.1820  1.5390
   70MPD2    H2 1093   4.360   0.913  12.087  0.6970  0.4242  0.7961
   70MPD2    H3 1094   4.328   0.678  12.125  0.3343 -0.8457  0.8529
   70MPD2     N 1095   4.026   0.752  12.453  0.2383  0.0380 -0.6557
   70MPD2    H5 1096   4.018   0.651  12.461 -0.0818  0.1281  0.2293
   70MPD2    N1 1097   4.232   1.115  12.209 -0.3448 -0.1213  0.7784
   70MPD2    H7 1098   4.296   1.136  12.133 -0.3727 -0.7214  0.5906
   71TMC2    C1 1099   0.314   1.454   1.903 -0.4655  0.1080 -0.5744
   71TMC2    C2 1100   0.384   1.569   1.948  0.2108  0.6430  0.7322
   71TMC2    C3 1101   0.298   1.668   1.992 -0.1043 -0.8580  0.1345
   71TMC2    C4 1102   0.179   1.448   1.893  0.5312  0.4905 -0.0741
   71TMC2    C5 1103   0.107   1.548   1.941 -0.8919  0.0142  0.0297
   71TMC2    C6 1104   0.164   1.665   1.983  0.8926 -0.2453 -0.4861
   71TMC2     C 1105   0.398   1.354   1.840  0.3205  0.0680  0.1167
   71TMC2     O 1106   0.509   1.396   1.806 -0.1702 -0.2598 -0.5648
   71TMC2     H 1107   0.491   1.580   1.959  0.3566 -0.8141  0.7454
   71TMC2    H1 1108   0.137   1.351   1.869  0.5267  0.0724  1.6219
   71TMC2    H2 1109   0.110   1.749   2.025  2.1636 -0.7682  2.1779
   71TMC2    C7 1110   4.702   1.536   1.925  0.1855  0.1414  0.8027
   71TMC2    C8 1111   0.354   1.795   2.034  0.1454  0.6051 -0.7590
   71TMC2    O1 1112   4.632   1.585   2.012  0.0760 -0.3488 -0.0190
   71TMC2    O2 1113   0.291   1.898   2.041 -0.3109  0.4909  0.4924
   71TMC2    O5 1114   0.458   1.769   2.120  0.4497 -0.1933 -0.3405
   71TMC2    H5 1115   0.490   1.679   2.141 -0.6685 -0.4764  0.1363
   72MPD2     C 1116   0.525   0.872   1.740  0.3157  0.7097  0.2185
   72MPD2    C1 1117   0.595   0.988   1.708  0.3243  0.5142  0.2210
   72MPD2    C2 1118   0.531   1.105   1.738 -0.2504  0.3198  0.1883
   72MPD2    C3 1119   0.404   1.110   1.796 -0.3470 -0.5961 -0.2306
   72MPD2    C4 1120   0.336   0.991   1.813  0.3050  0.1233  0.9394
   72MPD2    C5 1121   0.397   0.872   1.790  0.0104  0.3588  0.4095
   72MPD2     H 1122   0.592   1.194   1.727  0.0631  0.1560  0.6026
   72MPD2    H1 1123   0.234   0.989   1.850 -0.7594 -3.2163 -2.2563
   72MPD2    H2 1124   0.562   0.770   1.732  1.4431  1.1194  0.2418
   72MPD2    H3 1125   0.354   0.780   1.828  0.4022 -0.7657 -1.8298
   72MPD2     N 1126   0.342   1.228   1.833 -0.2386 -0.1376 -0.1666
   72MPD2    H5 1127   0.270   1.218   1.903 -1.5886  2.9416 -1.1138
   72MPD2    N1 1128   0.723   0.990   1.653  0.0504  0.3965 -0.5141
   72MPD2    H7 1129   0.766   1.081   1.644  2.3903 -0.7451 -1.0150
   73TMC2    C1 1130   0.447   3.974  13.943  0.3057  0.4484 -0.9023
   73TMC2    C2 1131   0.445   4.073  14.038  0.2959  0.1244 -0.2027
   73TMC2    C3 1132   0.510   4.042  14.156  0.4702  0.4034  0.1352
   73TMC2    C4 1133   0.484   3.851  13.961  0.4310 -0.2874  0.5646
   73TMC2    C5 1134   0.561   3.827  14.073 -0.2837  0.7409  0.1777
   73TMC2    C6 1135   0.569   3.920  14.179 -0.6729 -0.7376 -0.1294
   73TMC2     C 1136   0.497   4.009  13.813 -0.5592  0.2895  0.0634
   73TMC2     O 1137   0.580   3.936  13.766  0.2470 -0.3234 -0.1870
   73TMC2     H 1138   0.414   4.176  14.024 -0.5816 -0.1785 -0.4990
   73TMC2    H1 1139   0.491   3.778  13.882 -1.2362 -0.6385  0.7354
   73TMC2    H2 1140   0.640   3.915  14.260 -0.0401 -0.6942 -0.6780
   73TMC2    C7 1141   0.690   3.766  14.058 -0.2802  0.2216 -0.3882
   73TMC2    C8 1142   0.558   4.161  14.230 -0.3356  0.4282  0.0484
   73TMC2    O1 1143   0.739   3.718  14.160  0.0955  0.1094 -0.3003
   73TMC2    O2 1144   0.574   4.267  14.177 -0.4116  0.7942  0.2743
   73TMC2    O5 1145   0.564   4.123  14.359  0.1622  0.3077 -0.0756
   73TMC2    H5 1146   0.528   4.034  14.377 -2.1641  1.8845  3.1533
   74MPD2     C 1147   0.614   4.351  13.439 -0.1361  0.4153 -0.1521
   74MPD2    C1 1148   0.688   4.253  13.507  0.2346 -0.2562 -0.0621
   74MPD2    C2 1149   0.647   4.191  13.622  0.1950  0.3619  0.3486
   74MPD2    C3 1150   0.516   4.202  13.658 -1.0567 -0.2583  0.7901
   74MPD2    C4 1151   0.442   4.300  13.594  0.0703 -0.8283 -0.3320
   74MPD2    C5 1152   0.492   4.375  13.487 -0.0120 -0.2511 -0.6841
   74MPD2     H 1153   0.706   4.115  13.672  0.9906  1.6910  1.4272
   74MPD2    H1 1154   0.337   4.321  13.614  0.0368 -1.2255 -0.0894
   74MPD2    H2 1155   0.640   4.392  13.342  1.1356 -0.2459 -0.0853
   74MPD2    H3 1156   0.422   4.443  13.440  1.1573  2.2743  1.2169
   74MPD2     N 1157   0.455   4.130  13.763  0.1328 -0.2009  0.3727
   74MPD2    H5 1158   0.364   4.163  13.793  0.6024  0.3069  1.2591
   74MPD2    N1 1159   0.815   4.229  13.444 -0.0285 -0.3052  0.2765
   74MPD2    H7 1160   0.844   4.283  13.364 -0.2684 -1.1262 -0.3726
   75TMC2    C1 1161   0.982   0.084  13.864  0.1890  0.0013 -0.5740
   75TMC2    C2 1162   0.890   0.077  13.967 -0.4192 -0.4000  0.1351
   75TMC2    C3 1163   0.760   0.089  13.937  0.0857 -0.2664  0.1927
   75TMC2    C4 1164   0.943   0.120  13.737  0.1028  0.1126 -0.5324
   75TMC2    C5 1165   0.805   0.128  13.708 -0.1685  0.7450 -0.0894
   75TMC2    C6 1166   0.716   0.120  13.812 -0.2829  0.1799  0.1844
   75TMC2     C 1167   1.123   0.094  13.905 -0.1943 -0.5685  0.3868
   75TMC2     O 1168   1.141   0.120  14.025 -0.0231 -0.2791 -0.5374
   75TMC2     H 1169   0.916   0.057  14.070 -1.6086 -0.8756  0.3413
   75TMC2    H1 1170   1.015   0.132  13.657 -0.6374  1.4074 -0.9990
   75TMC2    H2 1171   0.609   0.126  13.793 -0.0626  0.2032 -1.0249
   75TMC2    C7 1172   0.766   0.216  13.605 -0.3907 -0.3988 -0.2155
   75TMC2    C8 1173   0.676   0.058  14.049  0.5167  0.1034  1.2139
   75TMC2    O1 1174   0.825   0.209  13.496 -0.0349 -0.7300 -0.1475
   75TMC2    O2 1175   0.705   4.700  14.118 -0.0185  0.2526  0.2733
   75TMC2    O5 1176   0.551   0.086  14.013 -0.1502  0.2462 -0.4137
   75TMC2    H5 1177   0.539   0.168  13.960 -2.0592  0.6216  0.5854
   76TMC2    C1 1178   0.413   1.213  11.502 -0.0202  1.0579  0.3568
   76TMC2    C2 1179   0.334   1.116  11.558  0.1599 -0.5338  0.1969
   76TMC2    C3 1180   0.389   1.000  11.602  0.5465 -0.7210 -0.0923
   76TMC2    C4 1181   0.545   1.184  11.473 -0.7749 -0.6634  0.4560
   76TMC2    C5 1182   0.603   1.070  11.526  0.1682  0.9090 -0.1104
   76TMC2    C6 1183   0.521   0.980  11.584  0.2609  0.5035  0.3669
   76TMC2     C 1184   0.344   1.327  11.447  0.4295  0.4200  0.1776
   76TMC2     O 1185   0.218   1.324  11.449 -0.9135 -0.6502  0.4946
   76TMC2     H 1186   0.231   1.145  11.572  0.5323  0.9289 -0.0277
   76TMC2    H1 1187   0.618   1.253  11.432 -2.4020  1.0015  0.3643
   76TMC2    H2 1188   0.563   0.887  11.620 -0.1123 -0.2213 -1.0806
   76TMC2    C7 1189   0.743   1.060  11.550 -0.6870  0.2167 -0.0181
   76TMC2    C8 1190   0.293   0.892  11.642 -0.0152  0.1388 -0.2767
   76TMC2    O1 1191   0.828   1.102  11.478  0.7815  0.0824  0.9736
   76TMC2    O2 1192   0.193   0.913  11.709 -0.3426 -0.1407 -0.0360
   76TMC2    O5 1193   0.350   0.767  11.620 -0.3768  0.1415 -0.2728
   76TMC2    H5 1194   0.424   0.761  11.555  2.1887 -1.5643  2.8692
   77MPD2     C 1195   0.292   1.746  11.169 -0.1932 -0.2972  0.3152
   77MPD2    C1 1196   0.198   1.656  11.213  0.2230 -0.2642  0.1976
   77MPD2    C2 1197   0.248   1.556  11.297 -0.5906  0.3275 -0.1882
   77MPD2    C3 1198   0.377   1.548  11.333  0.1239 -0.2837 -0.3909
   77MPD2    C4 1199   0.463   1.638  11.299 -0.2931 -0.3172 -0.2951
   77MPD2    C5 1200   0.420   1.735  11.215 -0.4504  0.0494  0.1081
   77MPD2     H 1201   0.164   1.491  11.319  1.7405 -1.8545  2.3279
   77MPD2    H1 1202   0.568   1.639  11.326 -0.6411 -3.6253  1.2372
   77MPD2    H2 1203   0.265   1.824  11.098 -0.3907 -0.5388  0.1267
   77MPD2    H3 1204   0.493   1.808  11.182  0.9518 -0.6833  1.5313
   77MPD2     N 1205   0.431   1.428  11.394  0.1966 -0.0253 -0.2978
   77MPD2    H5 1206   0.530   1.412  11.411  0.0622  2.3166  2.7494
   77MPD2    N1 1207   0.062   1.659  11.184 -0.0445  0.3886  0.3670
   77MPD2    H7 1208   0.010   1.592  11.241  1.1364 -0.4233  0.4751
   78TMC2    C1 1209   0.466   0.613   1.319 -0.1892 -0.7390 -0.5034
   78TMC2    C2 1210   0.437   0.477   1.317  0.3677  0.2656  0.1351
   78TMC2    C3 1211   0.542   0.382   1.336 -0.1743 -0.4156 -0.2184
   78TMC2    C4 1212   0.586   0.655   1.367 -0.5248 -0.1479 -0.8537
   78TMC2    C5 1213   0.688   0.566   1.382 -0.0348  0.3215  0.3409
   78TMC2    C6 1214   0.668   0.437   1.367 -0.1298 -0.2085 -0.3824
   78TMC2     C 1215   0.354   0.699   1.302 -0.0720  0.0248  0.3449
   78TMC2     O 1216   0.252   0.647   1.262  0.0549 -0.0946  0.0334
   78TMC2     H 1217   0.343   0.450   1.272 -1.0213  2.0567  2.0031
   78TMC2    H1 1218   0.617   0.757   1.351  0.7627 -0.2136  1.2447
   78TMC2    H2 1219   0.755   0.372   1.375 -0.1021 -0.0125  0.9016
   78TMC2    C7 1220   0.825   0.618   1.382 -0.3483 -0.0906 -0.2018
   78TMC2    C8 1221   0.542   0.259   1.268  0.4210  0.7455 -0.1617
   78TMC2    O1 1222   0.830   0.722   1.315 -0.0105  0.2176  0.5726
   78TMC2    O2 1223   0.643   0.208   1.218  0.5536 -0.5386 -0.0036
   78TMC2    O5 1224   0.421   0.207   1.269  0.2709 -0.0371 -0.0338
   78TMC2    H5 1225   0.363   0.254   1.333 -1.4227 -0.9944 -0.8759
   79MPD1     C 1226   0.104   1.126   1.460 -0.0343  0.6962 -0.4627
   79MPD1    C1 1227   0.059   1.007   1.408  0.2561 -0.1008 -0.3227
   79MPD1    C2 1228   0.148   0.908   1.369 -0.0252  0.2688 -0.0891
   79MPD1    C3 1229   0.281   0.933   1.383  0.5983  0.1043 -0.4131
   79MPD1    C4 1230   0.322   1.060   1.422  0.1300  0.1606 -0.0026
   79MPD1    C5 1231   0.236   1.149   1.476 -0.3271 -0.2083  0.1469
   79MPD1     H 1232   0.110   0.811   1.339  0.6270  0.0655 -0.2531
   79MPD1    H1 1233   0.428   1.083   1.429  0.3240 -0.3245 -1.3636
   79MPD1    H2 1234   0.042   1.214   1.475 -1.7362 -0.7140  0.7984
   79MPD1    H3 1235   0.276   1.231   1.535  0.1177 -0.3326  0.0214
   79MPD1     N 1236   0.380   0.837   1.353 -0.1135  0.1580  0.0947
   79MPD1    H5 1237   0.474   0.864   1.381  0.7434 -1.0997 -1.5083
   79MPD1    N1 1238   4.655   0.998   1.393  0.3123 -0.8451 -0.0973
   79MPD1    H6 1239   4.630   0.930   1.321  1.5255 -0.9132 -0.4546
   79MPD1    H7 1240   4.601   1.083   1.379  3.5126  1.3001  0.7549
   80TMC2    C1 1241   3.106   4.307  12.441 -0.5656  0.0894 -0.4927
   80TMC2    C2 1242   3.034   4.394  12.369 -0.0731 -0.3003  0.3647
   80TMC2    C3 1243   2.925   4.451  12.430 -0.2875 -0.0243  0.5885
   80TMC2    C4 1244   3.067   4.256  12.560  0.1941  0.1229  0.0570
   80TMC2    C5 1245   2.956   4.313  12.620  0.6446 -0.1785  0.0625
   80TMC2    C6 1246   2.890   4.413  12.558  0.8877  0.3843  0.2609
   80TMC2     C 1247   3.227   4.254  12.378  0.2082 -0.1276 -0.3362
   80TMC2     O 1248   3.258   4.144  12.422  0.3244  0.6890  0.5136
   80TMC2     H 1249   3.075   4.441  12.280  0.2221 -0.2216  0.5397
   80TMC2    H1 1250   3.118   4.177  12.615  0.3842  1.1991  1.4215
   80TMC2    H2 1251   2.814   4.466  12.615 -0.7258 -0.4643 -1.0718
   80TMC2    C7 1252   2.917   4.280  12.757 -0.2238  0.4732 -0.7948
   80TMC2    C8 1253   2.852   4.571  12.382  0.2455 -0.3739  0.2876
   80TMC2    O1 1254   2.800   4.305  12.793 -0.0910 -0.5184 -0.0167
   80TMC2    O2 1255   2.736   4.598  12.409  0.5634 -0.2537  0.0188
   80TMC2    O5 1256   2.944   4.664  12.363 -0.2577  0.1560 -0.0144
   80TMC2    H5 1257   3.038   4.639  12.367 -1.5617 -4.4124  1.5153
   81MPD2     C 1258   3.500   4.195  12.268 -0.4383 -0.4148  0.2545
   81MPD2    C1 1259   3.437   4.324  12.275  0.0260 -0.2270 -0.5120
   81MPD2    C2 1260   3.510   4.442  12.269 -0.9165  0.1239 -0.5221
   81MPD2    C3 1261   3.654   4.434  12.268 -0.1407 -0.1417  0.2701
   81MPD2    C4 1262   3.714   4.309  12.253 -0.4432 -0.1952  0.1418
   81MPD2    C5 1263   3.636   4.198  12.260  0.4411 -0.1863 -0.3251
   81MPD2     H 1264   3.453   4.534  12.281 -0.5568  0.4116 -0.9862
   81MPD2    H1 1265   3.822   4.300  12.263 -0.1377 -0.3674 -3.5160
   81MPD2    H2 1266   3.445   4.103  12.286  2.2927 -2.0354  0.2296
   81MPD2    H3 1267   3.692   4.105  12.260 -2.0015 -1.6718 -2.7378
   81MPD2     N 1268   3.737   4.545  12.282  0.0410 -0.1961 -0.5724
   81MPD2    H5 1269   3.838   4.530  12.280  0.4850  2.5861  1.1001
   81MPD2    N1 1270   3.302   4.346  12.308 -0.2738 -0.4796  0.0305
   81MPD2    H7 1271   3.265   4.441  12.311 -1.2281 -0.7743 -2.4281
   82TMC2    C1 1272   1.912   4.394  10.708  0.1875  0.4258 -0.1001
   82TMC2    C2 1273   2.035   4.399  10.771  0.3999  0.3686  0.6876
   82TMC2    C3 1274   2.072   4.294  10.846  0.5930  0.6913  0.7011
   82TMC2    C4 1275   1.837   4.278  10.721  0.2942  0.0670  0.3192
   82TMC2    C5 1276   1.877   4.177  10.798 -0.4122 -0.2243  0.2847
   82TMC2    C6 1277   1.993   4.181  10.864  0.3110 -0.4189 -0.1077
   82TMC2     C 1278   1.848   4.518  10.665 -0.3188 -0.0143  0.3420
   82TMC2     O 1279   1.739   4.508  10.607  0.4048  0.6844  0.2410
   82TMC2     H 1280   2.105   4.482  10.768  0.2660  0.4997  1.2966
   82TMC2    H1 1281   1.746   4.264  10.664 -0.8998  0.3361  2.1462
   82TMC2    H2 1282   2.027   4.095  10.921  1.0308  0.0886  0.2191
   82TMC2    C7 1283   1.774   4.107  10.870  0.6992  0.1107  0.5926
   82TMC2    C8 1284   2.164   4.312  10.951  1.0120 -0.2651 -0.1788
   82TMC2    O1 1285   1.677   4.076  10.803  0.3912 -0.3742  0.1919
   82TMC2    O2 1286   2.194   4.419  10.996 -0.0562 -0.2985 -0.6264
   82TMC2    O5 1287   2.244   4.198  10.964 -0.3075  0.2657  0.0565
   82TMC2    H5 1288   2.210   4.120  10.915  1.5962 -1.0319  0.8248
   83MPD2     C 1289   1.767   0.302  10.695 -0.0037 -0.1431 -0.0266
   83MPD2    C1 1290   1.694   0.200  10.638  0.0334 -0.2175  0.1564
   83MPD2    C2 1291   1.736   0.065  10.640  0.9639  0.1251  0.0798
   83MPD2    C3 1292   1.862   0.032  10.690  1.1388 -0.2468 -0.3366
   83MPD2    C4 1293   1.933   0.138  10.745  0.2344 -0.5554 -0.3264
   83MPD2    C5 1294   1.887   0.266  10.742 -0.0101 -0.2837  0.3465
   83MPD2     H 1295   1.681   4.724  10.586 -0.7841  1.8079 -0.5006
   83MPD2    H1 1296   2.031   0.120  10.788 -0.2502 -1.8197  0.2589
   83MPD2    H2 1297   1.736   0.404  10.712 -0.5519 -0.7077  2.4297
   83MPD2    H3 1298   1.950   0.347  10.776  0.5756  0.1235 -1.7260
   83MPD2     N 1299   1.915   4.638  10.706  0.0539 -0.6367 -0.5319
   83MPD2    H5 1300   2.005   4.643  10.753 -0.8418  1.7103  0.9595
   83MPD2    N1 1301   1.574   0.236  10.571 -0.1186 -0.5335 -1.1322
   83MPD2    H7 1302   1.565   0.335  10.549 -0.5522 -0.3142  0.0181
   84TMC2    C1 1303   2.796   3.837  10.391 -0.1347 -0.5063 -0.4723
   84TMC2    C2 1304   2.837   3.705  10.393 -0.2282 -0.0841  0.2142
   84TMC2    C3 1305   2.870   3.654  10.271 -0.5655  0.5013 -0.5778
   84TMC2    C4 1306   2.765   3.903  10.274  0.4204 -0.8956 -0.2165
   84TMC2    C5 1307   2.788   3.837  10.162 -0.3969 -0.1927 -0.0287
   84TMC2    C6 1308   2.832   3.712  10.155  0.4973 -0.2416 -0.4202
   84TMC2     C 1309   2.783   3.909  10.511 -0.2013 -0.8892  0.0861
   84TMC2     O 1310   2.790   4.030  10.510  0.3859 -0.3229  0.4029
   84TMC2     H 1311   2.864   3.648  10.481  4.1721  0.6789 -0.6527
   84TMC2    H1 1312   2.712   3.996  10.282  0.9390 -0.8050  2.0790
   84TMC2    H2 1313   2.856   3.666  10.060 -1.6887  2.5801 -2.3284
   84TMC2    C7 1314   2.741   3.899  10.039  0.5622  0.2451 -0.1208
   84TMC2    C8 1315   2.898   3.509  10.256 -0.8116  0.2953  0.8396
   84TMC2    O1 1316   2.726   3.822   9.945 -0.3134  0.4273  0.5813
   84TMC2    O2 1317   2.851   3.454  10.161 -1.1484  0.1877 -0.2841
   84TMC2    O5 1318   2.970   3.462  10.359  0.1596 -0.7231 -0.2733
   84TMC2    H5 1319   3.028   3.529  10.401 -3.4373  1.9002  0.5253
   85TMC2    C1 1320   3.364   1.958  15.813  1.2358 -0.8934  1.1264
   85TMC2    C2 1321   3.263   2.053  15.825  0.2169 -0.4634  0.2008
   85TMC2    C3 1322   3.285   2.179  15.770 -0.7191 -0.0326 -0.4333
   85TMC2    C4 1323   3.486   1.989  15.757 -0.1778  0.5533  0.1334
   85TMC2    C5 1324   3.502   2.118  15.716 -0.1915 -0.0995 -0.4199
   85TMC2    C6 1325   3.399   2.213  15.706  0.0304 -0.3208  0.6489
   85TMC2     C 1326   3.374   1.853  15.909 -0.3866 -0.5315  0.3600
   85TMC2     O 1327   3.487   1.821  15.952  0.6482  0.0490 -0.3401
   85TMC2     H 1328   3.188   2.042  15.902  2.1262  0.7242  2.2159
   85TMC2    H1 1329   3.565   1.916  15.740 -0.9942 -0.0154 -1.2185
   85TMC2    H2 1330   3.406   2.308  15.656 -0.7299 -0.8512 -0.4559
   85TMC2    C7 1331   3.627   2.147  15.656 -0.0357 -0.2314 -0.1907
   85TMC2    C8 1332   3.215   2.297  15.813  0.9273 -0.4443 -0.3709
   85TMC2    O1 1333   3.714   2.065  15.673 -0.2463  0.1731  0.9198
   85TMC2    O2 1334   3.253   2.408  15.778 -0.2537 -0.3896  0.6495
   85TMC2    O5 1335   3.086   2.264  15.814  0.1143 -0.0978  0.0922
   85TMC2    H5 1336   3.064   2.186  15.869  1.5268 -0.3787  0.2518
   86MPD2     C 1337   3.201   1.521  16.239 -0.3519  0.3444  0.0824
   86MPD2    C1 1338   3.101   1.541  16.151 -0.0131  0.4662 -0.0205
   86MPD2    C2 1339   3.116   1.634  16.050 -0.0571  0.3122 -0.0167
   86MPD2    C3 1340   3.235   1.705  16.047  0.3030  0.9369  0.0237
   86MPD2    C4 1341   3.337   1.680  16.138  0.9842  0.8627 -0.3397
   86MPD2    C5 1342   3.321   1.588  16.234  0.1644  0.7527  0.6763
   86MPD2     H 1343   3.043   1.644  15.970  1.0298  1.3058 -0.9001
   86MPD2    H1 1344   3.429   1.735  16.156  0.6268  2.0384 -2.1214
   86MPD2    H2 1345   3.197   1.440  16.311 -1.9799  0.0082 -0.3912
   86MPD2    H3 1346   3.401   1.577  16.307  0.1618  2.0213  0.8711
   86MPD2     N 1347   3.250   1.795  15.937 -0.0382  0.5734 -0.2726
   86MPD2    H5 1348   3.170   1.814  15.876 -0.8337 -0.5473  0.4223
   86MPD2    N1 1349   2.996   1.449  16.140  0.2265 -0.3607  0.1154
   86MPD2    H7 1350   2.934   1.453  16.060  0.6504 -0.7531 -0.2287
   87TMC2    C1 1351   1.168   4.283   0.909 -0.3145  0.2488  0.4292
   87TMC2    C2 1352   1.134   4.177   0.987  0.1090 -0.1712 -0.3107
   87TMC2    C3 1353   1.123   4.205   1.125 -0.1712  0.0462  0.2763
   87TMC2    C4 1354   1.197   4.409   0.962 -0.1006 -0.4431 -0.0675
   87TMC2    C5 1355   1.196   4.424   1.105  0.6377 -0.2017  0.1337
   87TMC2    C6 1356   1.150   4.329   1.186 -0.0535  0.1926  1.2220
   87TMC2     C 1357   1.139   4.278   0.769 -0.3831  0.0107 -0.2547
   87TMC2     O 1358   1.130   4.389   0.715 -0.0487 -0.5506 -0.8245
   87TMC2     H 1359   1.084   4.089   0.947  0.3600  0.3701 -1.8317
   87TMC2    H1 1360   1.212   4.493   0.895  1.0610 -0.2411  0.4402
   87TMC2    H2 1361   1.152   4.345   1.293 -0.5448 -2.8255  1.6842
   87TMC2    C7 1362   1.194   4.553   1.166 -0.0128 -0.0641  0.0494
   87TMC2    C8 1363   1.053   4.108   1.212  0.1821 -0.5454  0.1486
   87TMC2    O1 1364   1.088   4.617   1.157  0.5583 -0.0913 -0.3787
   87TMC2    O2 1365   1.020   4.134   1.325 -0.1275 -0.0356 -0.5271
   87TMC2    O5 1366   1.093   3.989   1.174  0.0900  0.1637  0.9332
   87TMC2    H5 1367   1.126   3.985   1.082  0.3336  1.0538  0.9788
   88MPD2     C 1368   1.457   4.727   1.364  0.4008  0.7410  0.6737
   88MPD2    C1 1369   1.347   4.713   1.285  0.4594  0.4768 -0.1143
   88MPD2    C2 1370   1.285   0.091   1.239 -0.4336  0.3273 -0.1929
   88MPD2    C3 1371   1.336   0.217   1.270 -0.5142 -0.1484  0.2657
   88MPD2    C4 1372   1.443   0.230   1.352 -0.1253 -0.0841 -0.5679
   88MPD2    C5 1373   1.499   0.120   1.404 -0.3064 -0.6006 -0.2942
   88MPD2     H 1374   1.199   0.082   1.174 -0.3195 -0.5069 -0.2313
   88MPD2    H1 1375   1.488   0.327   1.372 -1.7411  0.7084 -0.7901
   88MPD2    H2 1376   1.509   4.643   1.410  0.6942 -0.9595 -2.6879
   88MPD2    H3 1377   1.590   0.119   1.462  0.5458  1.3682 -1.5870
   88MPD2     N 1378   1.293   0.333   1.208  0.6047  0.1399  0.7337
   88MPD2    H5 1379   1.341   0.420   1.230  1.3767 -0.4942  1.5274
   88MPD2    N1 1380   1.314   4.586   1.232 -0.6152  0.9090  0.2221
   88MPD2    H7 1381   1.382   4.512   1.248 -0.0920  1.3262 -0.0490
   89TMC2    C1 1382   1.516   3.003   0.532  0.0977 -0.5317 -0.0489
   89TMC2    C2 1383   1.494   3.086   0.636  0.0419  0.8149 -0.0418
   89TMC2    C3 1384   1.464   3.219   0.620 -0.6824 -1.0162 -0.0724
   89TMC2    C4 1385   1.476   3.044   0.404 -0.1442  0.0628 -0.0500
   89TMC2    C5 1386   1.433   3.173   0.395 -0.0576 -0.3331 -0.3290
   89TMC2    C6 1387   1.435   3.267   0.501  0.2822 -0.1183 -0.0421
   89TMC2     C 1388   1.555   2.867   0.543  0.6165 -0.3289 -0.0278
   89TMC2     O 1389   1.613   2.807   0.450 -0.5416  0.0195  0.5693
   89TMC2     H 1390   1.533   3.060   0.733  1.0325  3.1065  0.1858
   89TMC2    H1 1391   1.512   2.988   0.318 -3.0627 -1.0282 -0.5557
   89TMC2    H2 1392   1.409   3.371   0.482  0.7276 -0.1285 -0.7169
   89TMC2    C7 1393   1.413   3.218   0.256  0.2610 -0.0470 -0.2843
   89TMC2    C8 1394   1.507   3.317   0.716  0.2379 -0.7506 -0.2242
   89TMC2    O1 1395   1.355   3.142   0.182 -0.0319 -0.5961 -0.8107
   89TMC2    O2 1396   1.612   3.371   0.695  0.0556 -0.5284 -0.6074
   89TMC2    O5 1397   1.470   3.265   0.835 -0.2944 -0.1274  0.0610
   89TMC2    H5 1398   1.403   3.193   0.837  0.5123 -0.8881 -0.2759
   90MPD2     C 1399   1.628   2.445   0.833  0.0354  0.0939  0.4396
   90MPD2    C1 1400   1.567   2.545   0.907 -0.0862 -0.7230 -0.1031
   90MPD2    C2 1401   1.536   2.666   0.847  0.0578 -0.2456 -0.5947
   90MPD2    C3 1402   1.558   2.691   0.711 -0.4798 -0.1870 -0.8497
   90MPD2    C4 1403   1.621   2.585   0.637 -0.4318 -0.1468 -0.1855
   90MPD2    C5 1404   1.652   2.467   0.699 -0.7528  0.2543 -0.8553
   90MPD2     H 1405   1.497   2.745   0.910 -0.9285  0.2946 -1.9012
   90MPD2    H1 1406   1.637   2.596   0.531 -0.1045 -0.4791 -0.1707
   90MPD2    H2 1407   1.643   2.343   0.866  1.9402  0.3189  0.2370
   90MPD2    H3 1408   1.694   2.386   0.639  1.5060  0.4755  0.4254
   90MPD2     N 1409   1.531   2.822   0.670  0.5300 -0.3719 -0.1283
   90MPD2    H5 1410   1.492   2.884   0.740 -0.3065 -0.0871 -0.8402
   90MPD2    N1 1411   1.528   2.524   1.046 -0.1604  0.1984 -0.4285
   90MPD2    H7 1412   1.484   2.600   1.096  2.8648  1.6457  0.0422
   91TMC2    C1 1413   3.094   2.929  16.464 -0.0142 -0.7186 -0.0864
   91TMC2    C2 1414   3.125   2.950  16.596  0.3925 -0.8450 -0.1389
   91TMC2    C3 1415   3.054   2.886  16.692 -0.5248  0.2489  0.3521
   91TMC2    C4 1416   2.980   2.856  16.424  0.0480  0.3888 -0.8567
   91TMC2    C5 1417   2.892   2.817  16.524  0.2874 -0.6148 -0.4203
   91TMC2    C6 1418   2.927   2.840  16.657 -0.7556  0.0633  0.5170
   91TMC2     C 1419   3.172   2.981  16.354  0.5474 -0.5799 -1.0035
   91TMC2     O 1420   3.130   2.959  16.241  0.1933 -0.4103 -0.0405
   91TMC2     H 1421   3.219   2.995  16.627  0.0249  0.4347 -0.9214
   91TMC2    H1 1422   2.961   2.851  16.318  0.8358 -4.9863 -0.7780
   91TMC2    H2 1423   2.861   2.793  16.728 -1.4544 -1.9328 -1.4457
   91TMC2    C7 1424   2.790   2.720  16.501  0.1285 -0.4636 -0.1282
   91TMC2    C8 1425   3.073   2.935  16.829  0.1844  0.2799  0.1183
   91TMC2    O1 1426   2.749   2.651  16.596  0.3386 -0.1083  0.0332
   91TMC2    O2 1427   3.000   3.016  16.881 -0.5309  0.5144  0.0652
   91TMC2    O5 1428   3.210   2.934  16.848 -0.0907  0.4104 -0.0184
   91TMC2    H5 1429   3.258   2.870  16.792 -1.2618 -0.2588 -0.2444
   92MPD2     C 1430   3.399   3.045  16.166  0.2193  0.3831 -0.6062
   92MPD2    C1 1431   3.407   3.042  16.302 -0.6890  0.8185 -0.3914
   92MPD2    C2 1432   3.530   3.055  16.364  0.0801 -0.6342  0.7540
   92MPD2    C3 1433   3.641   3.049  16.290  0.3088  0.0337 -0.9748
   92MPD2    C4 1434   3.633   3.049  16.151 -0.6442 -0.4119 -0.5279
   92MPD2    C5 1435   3.514   3.054  16.091  0.2953 -0.7770  0.0590
   92MPD2     H 1436   3.529   3.055  16.472 -0.2619  1.0391  0.7466
   92MPD2    H1 1437   3.727   3.049  16.096 -0.4996 -1.4204 -0.2732
   92MPD2    H2 1438   3.305   3.062  16.115  0.6234  0.6350 -1.2727
   92MPD2    H3 1439   3.506   3.062  15.983  2.8221 -1.3666 -0.1806
   92MPD2     N 1440   3.762   3.036  16.361 -0.1669  0.1563 -0.6793
   92MPD2    H5 1441   3.748   3.031  16.462 -0.4316  0.7189 -0.6905
   92MPD2    N1 1442   3.297   3.024  16.388  0.1279 -0.3798  0.3725
   92MPD2    H7 1443   3.323   3.034  16.486 -0.0926  1.3978  0.2367
   93TMC2    C1 1444   0.567   3.443  13.966  0.7719 -0.2439  0.2736
   93TMC2    C2 1445   0.584   3.401  14.101 -0.2463  0.2851  0.3189
   93TMC2    C3 1446   0.707   3.358  14.134 -0.4322 -0.9767 -0.6874
   93TMC2    C4 1447   0.666   3.440  13.880  0.5509  0.3593 -0.3528
   93TMC2    C5 1448   0.789   3.404  13.929 -0.1532  0.4830 -0.4811
   93TMC2    C6 1449   0.815   3.368  14.058 -0.2874  0.0275  0.5495
   93TMC2     C 1450   0.433   3.485  13.917  0.5099 -0.5833 -0.4240
   93TMC2     O 1451   0.433   3.570  13.828 -0.4928 -0.5895 -0.3097
   93TMC2     H 1452   0.515   3.421  14.183  1.8438  0.6071  1.9914
   93TMC2    H1 1453   0.638   3.465  13.778 -0.2306  0.2684 -0.1599
   93TMC2    H2 1454   0.912   3.328  14.089 -1.2027 -2.1306  0.6530
   93TMC2    C7 1455   0.911   3.427  13.852 -0.0156  0.6169 -0.3928
   93TMC2    C8 1456   0.733   3.326  14.276  0.0212  0.0076 -0.1787
   93TMC2    O1 1457   1.021   3.389  13.893 -0.6270  0.1524  0.2997
   93TMC2    O2 1458   0.845   3.321  14.328  0.0982 -0.0817 -0.0356
   93TMC2    O5 1459   0.625   3.255  14.319  0.0352  0.1954 -0.1702
   93TMC2    H5 1460   0.570   3.217  14.247  0.7120 -0.2369 -0.4564
   94MPD2     C 1461   0.151   3.560  13.873  0.3531 -0.0039 -0.2402
   94MPD2    C1 1462   0.185   3.458  13.951 -1.0477 -0.1225 -1.0530
   94MPD2    C2 1463   0.089   3.372  13.995 -0.1239  0.7349  0.0094
   94MPD2    C3 1464   4.692   3.400  13.963 -0.0211 -0.1483 -0.5894
   94MPD2    C4 1465   4.658   3.503  13.882 -0.0964 -0.2524  0.1765
   94MPD2    C5 1466   0.018   3.580  13.844  0.1813 -0.9307  0.6530
   94MPD2     H 1467   0.118   3.276  14.034  0.2167  0.7380 -0.2390
   94MPD2    H1 1468   4.558   3.535  13.856  0.1080 -1.8444 -2.5411
   94MPD2    H2 1469   0.221   3.633  13.834 -0.0532  1.2032  1.3150
   94MPD2    H3 1470   4.723   3.660  13.779  1.0990 -0.2474  1.0704
   94MPD2     N 1471   4.584   3.328  14.010 -0.3054 -0.6331 -0.1153
   94MPD2    H5 1472   4.496   3.355  13.966 -1.8469 -3.3900  1.2476
   94MPD2    N1 1473   0.320   3.427  13.987  0.4175 -0.0472 -0.2586
   94MPD2    H7 1474   0.324   3.349  14.053 -1.9821 -0.8981 -1.1057
   95TMC2    C1 1475   0.158   4.346  15.921 -0.6536 -0.3364  0.0037
   95TMC2    C2 1476   0.155   4.264  16.033  0.4320 -0.0356  0.7875
   95TMC2    C3 1477   0.101   4.313  16.147  0.1140 -0.7258 -0.3560
   95TMC2    C4 1478   0.108   4.474  15.934  0.2822 -0.3426 -0.7087
   95TMC2    C5 1479   0.059   4.521  16.053 -0.1684 -0.2248  1.1094
   95TMC2    C6 1480   0.054   4.438  16.161 -0.0503 -0.5372 -0.1017
   95TMC2     C 1481   0.202   4.293  15.791 -0.2142  0.7782  0.5808
   95TMC2     O 1482   0.215   4.170  15.784  0.1796 -0.0338  0.1547
   95TMC2     H 1483   0.191   4.162  16.036  2.8411  0.7922 -0.1330
   95TMC2    H1 1484   0.084   4.527  15.842 -1.7036  0.7817  0.4545
   95TMC2    H2 1485   4.734   4.464  16.251 -2.0790 -1.8616 -0.9667
   95TMC2    C7 1486   4.716   4.645  16.058  0.0340  0.2124 -0.7595
   95TMC2    C8 1487   0.114   4.225  16.259 -0.3547  0.2965  0.4941
   95TMC2    O1 1488   4.686   4.686  15.949  0.6558  0.3003  0.3692
   95TMC2    O2 1489   0.109   4.104  16.256 -0.2204 -0.3114 -0.0959
   95TMC2    O5 1490   0.159   4.302  16.360  0.2483  0.2957  0.3380
   95TMC2    H5 1491   0.165   4.399  16.341  1.7629 -0.1254 -1.3806
   96MPD2     C 1492   0.379   4.368  15.321  0.1624  0.4264  0.2905
   96MPD2    C1 1493   0.403   4.489  15.386 -0.2932  0.8269  0.0393
   96MPD2    C2 1494   0.363   4.495  15.516  0.4503 -0.6341 -0.0692
   96MPD2    C3 1495   0.298   4.385  15.583  0.1375  0.2352 -0.6349
   96MPD2    C4 1496   0.285   4.261  15.514 -0.3443 -0.2423  0.5056
   96MPD2    C5 1497   0.328   4.254  15.382 -0.0942  0.6795  0.7512
   96MPD2     H 1498   0.369   4.588  15.570 -0.6423 -0.2436 -0.6326
   96MPD2    H1 1499   0.273   4.166  15.564  0.3571 -1.5412 -1.7879
   96MPD2    H2 1500   0.420   4.349  15.222  0.0948  0.7908  0.1918
   96MPD2    H3 1501   0.335   4.160  15.329 -0.8996 -0.4178  2.5632
   96MPD2     N 1502   0.247   4.398  15.712  0.2288 -0.3476 -0.3022
   96MPD2    H5 1503   0.243   4.494  15.745  0.3927  0.4719 -2.6200
   96MPD2    N1 1504   0.476   4.589  15.311 -0.2004  0.2484 -0.1148
   96MPD2    H7 1505   0.519   4.555  15.225 -2.4455 -0.5769 -0.9226
   97TMC2    C1 1506   2.468   2.396   0.176  0.2943  0.6160 -0.8837
   97TMC2    C2 1507   2.348   2.343   0.141  0.1316  0.3283 -0.5299
   97TMC2    C3 1508   2.269   2.425   0.062  0.7511 -0.2704 -0.6620
   97TMC2    C4 1509   2.505   2.517   0.127  0.4804 -0.0774  1.3778
   97TMC2    C5 1510   2.419   2.587   0.048 -0.5625  0.9153  0.3582
   97TMC2    C6 1511   2.294   2.553   0.021 -0.1840  0.2345 -1.1575
   97TMC2     C 1512   2.546   2.339   0.284 -0.7427 -0.3416  0.6127
   97TMC2     O 1513   2.558   2.215   0.292 -0.5066  0.2076  0.0354
   97TMC2     H 1514   2.330   2.247   0.186  2.7187  0.2844  0.4324
   97TMC2    H1 1515   2.605   2.544   0.160  0.6656  0.2242  0.5807
   97TMC2    H2 1516   2.251   2.591  17.669 -3.0835  1.2398  0.6179
   97TMC2    C7 1517   2.465   2.724   0.021  0.1838 -0.5074 -0.2389
   97TMC2    C8 1518   2.154   2.377  17.729  0.0905 -0.1886 -0.5730
   97TMC2    O1 1519   2.583   2.760   0.033 -0.1005  0.8513 -0.2999
   97TMC2    O2 1520   2.073   2.444  17.665  0.7807 -0.2175 -0.3994
   97TMC2    O5 1521   2.132   2.253   0.040  0.4780  0.8559  0.2883
   97TMC2    H5 1522   2.212   2.205   0.071 -0.2610 -0.2441  0.4990
   98MPD2     C 1523   2.770   2.387   0.740 -0.7855 -0.1216 -0.0523
   98MPD2    C1 1524   2.784   2.285   0.645  0.0222 -0.0161  1.0273
   98MPD2    C2 1525   2.724   2.298   0.522 -0.6549 -0.0353 -0.7943
   98MPD2    C3 1526   2.640   2.404   0.497 -0.8527  0.5680  0.2991
   98MPD2    C4 1527   2.622   2.497   0.597  0.0745 -0.5133  0.0623
   98MPD2    C5 1528   2.692   2.495   0.712  0.1455 -0.5090  1.2552
   98MPD2     H 1529   2.738   2.227   0.441 -0.1801 -2.3994  1.3675
   98MPD2    H1 1530   2.550   2.577   0.584 -1.1251 -1.6002  0.0286
   98MPD2    H2 1531   2.823   2.389   0.834  0.0630  3.0742 -0.5882
   98MPD2    H3 1532   2.699   2.575   0.785  1.1938  0.6074 -0.0664
   98MPD2     N 1533   2.578   2.433   0.380 -0.7832  0.0258 -0.7479
   98MPD2    H5 1534   2.532   2.523   0.373  1.3798  1.2018 -0.0378
   98MPD2    N1 1535   2.852   2.168   0.684 -0.3139 -0.6500  0.3767
   98MPD2    H7 1536   2.897   2.175   0.774  0.6626  0.0949 -0.1700
   99TMC2    C1 1537   1.371   3.600   1.226 -0.1915  0.6079 -0.1687
   99TMC2    C2 1538   1.476   3.598   1.312 -0.5042 -0.2023 -0.2612
   99TMC2    C3 1539   1.450   3.571   1.445  0.0617  0.4752 -0.6981
   99TMC2    C4 1540   1.243   3.576   1.271 -0.7801  0.6765 -0.4067
   99TMC2    C5 1541   1.230   3.534   1.399  0.2943 -0.4354 -0.3166
   99TMC2    C6 1542   1.330   3.538   1.490 -0.1884 -0.0317  0.2410
   99TMC2     C 1543   1.407   3.611   1.083 -0.2479  0.3946  0.6450
   99TMC2     O 1544   1.523   3.642   1.049 -0.1823  0.0065  0.5716
   99TMC2     H 1545   1.579   3.613   1.281 -0.3164  1.5164  1.2105
   99TMC2    H1 1546   1.161   3.575   1.201  0.0217  1.7457 -1.3623
   99TMC2    H2 1547   1.314   3.512   1.594 -3.0521  1.4857  0.1820
   99TMC2    C7 1548   1.099   3.505   1.451  0.5381 -0.6142 -0.5576
   99TMC2    C8 1549   1.560   3.559   1.541 -0.1905 -1.0386  0.2146
   99TMC2    O1 1550   1.083   3.506   1.574 -0.1272  0.1975 -0.2797
   99TMC2    O2 1551   1.556   3.581   1.661 -0.3333 -0.4900  0.5031
   99TMC2    O5 1552   1.631   3.456   1.492 -0.3466  0.4242 -0.2421
   99TMC2    H5 1553   1.608   3.417   1.405 -0.0205 -0.9455  0.2865
  100MPD2     C 1554   1.386   3.651   0.798  0.3191  0.1404 -0.0990
  100MPD2    C1 1555   1.304   3.564   0.865  0.4058 -0.4494 -0.4622
  100MPD2    C2 1556   1.218   3.483   0.794  0.5908 -0.8435  0.3045
  100MPD2    C3 1557   1.217   3.481   0.656 -0.2614  1.0750 -0.1054
  100MPD2    C4 1558   1.296   3.571   0.594  0.8539  0.4091  0.3419
  100MPD2    C5 1559   1.390   3.642   0.657  0.5012 -0.2642  0.2700
  100MPD2     H 1560   1.146   3.419   0.845 -1.5196  0.5176 -1.0045
  100MPD2    H1 1561   1.292   3.566   0.486 -0.2704  0.6397  0.3740
  100MPD2    H2 1562   1.450   3.727   0.841 -0.7686  1.3528 -0.5967
  100MPD2    H3 1563   1.454   3.708   0.600  0.7448 -2.9966 -2.5998
  100MPD2     N 1564   1.133   3.383   0.598  0.0829  0.0919 -0.0886
  100MPD2    H5 1565   1.065   3.338   0.659  0.2696 -0.8421 -0.5758
  100MPD2    N1 1566   1.306   3.566   1.004 -0.7985  0.2326 -0.2541
  100MPD2    H7 1567   1.233   3.507   1.042 -1.6292  1.8155  0.6188
  101TMC2    C1 1568   2.833   1.058  12.784  0.5233  0.9844  0.1718
  101TMC2    C2 1569   2.787   1.178  12.841 -0.0131 -0.2404  0.2316
  101TMC2    C3 1570   2.822   1.295  12.783 -0.3843  0.1317  0.1691
  101TMC2    C4 1571   2.919   1.063  12.674 -0.1946  0.4607  0.7523
  101TMC2    C5 1572   2.975   1.182  12.639  0.3608 -0.3533 -0.7753
  101TMC2    C6 1573   2.923   1.301  12.690  0.5013 -0.6916 -0.4630
  101TMC2     C 1574   2.788   0.942  12.849  0.6191  0.3176 -0.7590
  101TMC2     O 1575   2.706   0.958  12.933  0.4199  0.1164  0.1301
  101TMC2     H 1576   2.701   1.187  12.906  0.7586 -0.7991  1.3373
  101TMC2    H1 1577   2.952   0.966  12.639  0.9633  1.1710 -0.1544
  101TMC2    H2 1578   2.939   1.401  12.651 -1.0652 -0.6992 -1.1599
  101TMC2    C7 1579   3.093   1.190  12.550 -0.3567 -0.3426 -0.0519
  101TMC2    C8 1580   2.751   1.418  12.824  0.0651  0.3079 -0.2262
  101TMC2    O1 1581   3.114   1.304  12.511  0.2363  0.1539  0.6388
  101TMC2    O2 1582   2.651   1.405  12.887  0.4308  0.1410 -0.1683
  101TMC2    O5 1583   2.840   1.515  12.831 -0.3678 -0.0543 -0.5202
  101TMC2    H5 1584   2.935   1.492  12.817 -0.4542 -1.9185  2.0750
  102MPD2     C 1585   2.829   0.581  12.770 -1.1279 -0.8514 -0.4973
  102MPD2    C1 1586   2.771   0.698  12.825 -0.6176  0.3438 -0.2911
  102MPD2    C2 1587   2.685   0.677  12.934 -0.3123  0.2554  0.3545
  102MPD2    C3 1588   2.657   0.553  12.978  0.6661 -0.1384 -0.0301
  102MPD2    C4 1589   2.706   0.441  12.917  0.0870 -0.2600 -0.6672
  102MPD2    C5 1590   2.796   0.456  12.814  0.2661 -1.3206  0.7475
  102MPD2     H 1591   2.642   0.761  12.986 -0.3086 -0.5723  1.6842
  102MPD2    H1 1592   2.678   0.338  12.936  0.3573  0.3840  3.3016
  102MPD2    H2 1593   2.901   0.590  12.689 -1.0304  0.0443 -0.3155
  102MPD2    H3 1594   2.854   0.373  12.775 -0.6591 -0.0467 -3.2731
  102MPD2     N 1595   2.551   0.539  13.082 -0.3123 -0.0556 -0.5458
  102MPD2    H5 1596   2.512   0.630  13.107  1.7479  0.7646 -0.3077
  102MPD2    N1 1597   2.821   0.824  12.790 -0.3268  0.3517 -0.4213
  102MPD2    H7 1598   2.897   0.828  12.722 -1.2826  0.3942 -1.4778
  103TMC2    C1 1599   0.958   1.002  12.319 -0.3784  0.5289  0.2318
  103TMC2    C2 1600   1.083   0.989  12.364  0.4322 -0.8216 -0.3515
  103TMC2    C3 1601   1.101   1.008  12.501 -0.1244  0.0325 -0.1594
  103TMC2    C4 1602   0.851   1.036  12.399 -0.6882 -0.1137 -0.2185
  103TMC2    C5 1603   0.882   1.055  12.535  0.9880  0.5184  0.0974
  103TMC2    C6 1604   1.005   1.052  12.583 -0.3595 -0.3227  0.1650
  103TMC2     C 1605   0.922   0.978  12.175 -0.2693  0.4925 -1.0624
  103TMC2     O 1606   0.804   0.938  12.158 -0.7083  0.4912  0.3820
  103TMC2     H 1607   1.166   0.948  12.309  1.0503 -1.4372  1.0578
  103TMC2    H1 1608   0.753   1.035  12.354 -0.7491  0.5946 -0.0977
  103TMC2    H2 1609   1.019   1.087  12.684  0.4622  1.0952 -0.4416
  103TMC2    C7 1610   0.782   1.110  12.623  0.0907  0.3359 -1.3301
  103TMC2    C8 1611   1.234   1.031  12.554 -0.2970 -0.4139 -0.0520
  103TMC2    O1 1612   0.770   1.057  12.731  0.4265 -0.2385  0.6838
  103TMC2    O2 1613   1.333   1.050  12.482  0.1831 -0.2089 -0.0029
  103TMC2    O5 1614   1.242   0.987  12.684 -0.2892  0.3349  0.0393
  103TMC2    H5 1615   1.158   0.960  12.727 -0.1621  2.1692  1.4812
  104MPD2     C 1616   1.124   0.952  11.861 -0.1864  0.8330  0.2125
  104MPD2    C1 1617   1.013   0.964  11.945 -0.4359  0.4175 -0.3287
  104MPD2    C2 1618   0.897   0.981  11.878  0.6689  0.7304 -0.1528
  104MPD2    C3 1619   0.890   0.985  11.739  0.0203 -0.3053  0.1338
  104MPD2    C4 1620   0.998   0.953  11.661  0.2138  0.4556 -0.2506
  104MPD2    C5 1621   1.121   0.936  11.727  0.0196  0.5471 -0.4347
  104MPD2     H 1622   0.803   1.000  11.930  0.8386  1.9411 -0.2745
  104MPD2    H1 1623   0.986   0.950  11.554  1.0154  0.4463 -0.3403
  104MPD2    H2 1624   1.220   0.938  11.908 -1.3079 -1.0124  1.9520
  104MPD2    H3 1625   1.211   0.900  11.678  1.5417  0.4404  2.4430
  104MPD2     N 1626   0.764   1.011  11.679 -0.7970 -0.3296 -0.1683
  104MPD2    H5 1627   0.690   1.023  11.748  0.0570 -1.0827  0.8852
  104MPD2    N1 1628   1.026   0.976  12.089 -0.4066 -0.2738 -0.7455
  104MPD2    H7 1629   1.119   1.006  12.120  0.1510 -0.4546 -2.2418
  105TMC2    C1 1630   0.978   4.426  17.576 -0.3488  0.3070  0.5255
  105TMC2    C2 1631   1.013   4.554  17.607  0.1163  0.1406  0.1163
  105TMC2    C3 1632   1.035   4.577   0.002  0.1587 -0.0561 -0.3023
  105TMC2    C4 1633   0.963   4.328  17.670  0.3264 -0.4885  0.2452
  105TMC2    C5 1634   0.981   4.355   0.058 -0.0930 -0.8396  0.1057
  105TMC2    C6 1635   1.030   4.477   0.094 -0.6421 -0.6043 -0.1837
  105TMC2     C 1636   0.961   4.405  17.428  0.3375 -0.2060 -0.8551
  105TMC2     O 1637   0.869   4.340  17.389  0.3198 -0.0673  0.5404
  105TMC2     H 1638   0.999   4.640  17.542  1.5650  1.3115  1.3451
  105TMC2    H1 1639   0.919   4.233  17.641  1.4501 -0.6823 -0.7880
  105TMC2    H2 1640   1.078   4.485   0.191  0.9678 -1.7778 -0.8792
  105TMC2    C7 1641   0.995   4.237   0.141  0.5987  0.2992  0.7551
  105TMC2    C8 1642   1.046   4.711   0.054  0.4775 -0.9180  0.0074
  105TMC2    O1 1643   0.987   4.129   0.087  0.2325  0.0168 -0.4794
  105TMC2    O2 1644   1.036   4.734   0.174 -0.0331  0.4436  0.2475
  105TMC2    O5 1645   1.123   0.044  17.699 -0.0364 -0.1846  0.5649
  105TMC2    H5 1646   1.163   4.720  17.631 -3.5278 -3.1829  1.1593
  106MPD2     C 1647   1.245   4.340  17.021  0.7676  0.1123  0.2440
  106MPD2    C1 1648   1.297   4.445  17.088 -0.6486  0.3181 -0.4890
  106MPD2    C2 1649   1.231   4.488  17.197 -0.7417 -0.3718 -0.2569
  106MPD2    C3 1650   1.109   4.431  17.239 -0.0835  0.1087 -0.0780
  106MPD2    C4 1651   1.062   4.325  17.165  0.1183 -0.2593 -0.2262
  106MPD2    C5 1652   1.118   4.302  17.044  0.9075 -0.3475  0.0336
  106MPD2     H 1653   1.273   4.563  17.263 -0.1372 -1.0555  0.1233
  106MPD2    H1 1654   0.980   4.263  17.199 -1.8147  1.7089 -1.3223
  106MPD2    H2 1655   1.288   4.302  16.929 -1.7418 -1.4116 -0.3165
  106MPD2    H3 1656   1.077   4.213  16.999  0.6347 -0.5223  0.6357
  106MPD2     N 1657   1.068   4.461  17.365  0.5061 -0.8131 -0.2115
  106MPD2    H5 1658   1.138   4.506  17.423 -0.4536  2.2558 -1.4322
  106MPD2    N1 1659   1.424   4.495  17.058 -0.1732  0.0454  0.1987
  106MPD2    H7 1660   1.448   4.566  17.126 -1.5474 -0.1277  0.8572
  107TMC2    C1 1661   2.812   4.454  11.307 -0.0768 -0.4542  0.4068
  107TMC2    C2 1662   2.890   4.520  11.220 -0.1955 -0.0555  0.8268
  107TMC2    C3 1663   2.934   4.447  11.117 -0.0891 -0.4256 -0.9834
  107TMC2    C4 1664   2.749   4.336  11.276  0.0491  0.2555 -0.8348
  107TMC2    C5 1665   2.762   4.290  11.149  0.2799  0.4777  0.6456
  107TMC2    C6 1666   2.866   4.334  11.072 -0.6230 -0.1535 -0.1687
  107TMC2     C 1667   2.754   4.517  11.423  0.2845  0.1822 -0.1576
  107TMC2     O 1668   2.715   4.450  11.516  0.5032  0.1269 -0.4878
  107TMC2     H 1669   2.950   4.604  11.254  0.2989  0.3719 -1.1063
  107TMC2    H1 1670   2.670   4.295  11.339 -0.6724 -1.1802 -2.6779
  107TMC2    H2 1671   2.888   4.314  10.968  4.5023  0.7708  0.7174
  107TMC2    C7 1672   2.690   4.165  11.119  0.0986  0.4158 -0.1598
  107TMC2    C8 1673   3.032   4.507  11.023 -0.3101 -0.6987  0.0812
  107TMC2    O1 1674   2.654   4.095  11.216  0.3377  0.3873  0.6457
  107TMC2    O2 1675   3.027   4.498  10.902 -0.1628  0.0941  0.1531
  107TMC2    O5 1676   3.119   4.578  11.093 -0.5733 -0.1813 -0.3733
  107TMC2    H5 1677   3.110   4.566  11.189 -0.4307 -0.4124 -0.3893
  108MPD2     C 1678   2.765   0.138  11.450 -0.3758 -0.3752 -0.5269
  108MPD2    C1 1679   2.734   0.018  11.494  0.3157  0.0628  0.2925
  108MPD2    C2 1680   2.657   4.731  11.605 -0.0391  0.6236  0.1478
  108MPD2    C3 1681   2.619   0.108  11.679 -0.1314 -0.4056  0.2191
  108MPD2    C4 1682   2.646   0.235  11.632  0.4314  0.0668  0.4198
  108MPD2    C5 1683   2.715   0.248  11.520  0.4344  0.3360 -0.3185
  108MPD2     H 1684   2.634   4.632  11.642 -1.5623  1.9269  2.7475
  108MPD2    H1 1685   2.604   0.321  11.684 -0.0127 -0.0903  0.3211
  108MPD2    H2 1686   2.815   0.152  11.355  0.2516 -2.0007 -0.4266
  108MPD2    H3 1687   2.744   0.346  11.484  0.6586  0.2877 -0.2692
  108MPD2     N 1688   2.562   0.097  11.804 -0.5192 -0.7115 -0.8566
  108MPD2    H5 1689   2.537   0.186  11.847  0.4652 -1.5453  1.4097
  108MPD2    N1 1690   2.768   4.654  11.405  0.2891  0.0477 -0.2027
  108MPD2    H7 1691   2.797   4.677  11.310 -1.5779 -1.0289 -1.0401
  109TMC2    C1 1692   1.900   1.984   0.972  0.0603 -0.1476  0.4621
  109TMC2    C2 1693   1.884   2.113   0.937 -0.5756  0.3088 -0.4706
  109TMC2    C3 1694   1.998   2.185   0.927 -1.2570 -0.0831  0.4313
  109TMC2    C4 1695   2.024   1.924   0.986 -0.8188 -0.2321  0.2378
  109TMC2    C5 1696   2.135   2.012   0.993  0.3722  0.1402  0.7388
  109TMC2    C6 1697   2.123   2.144   0.965  0.2441  0.7853 -0.6752
  109TMC2     C 1698   1.792   1.902   0.911 -0.9847  0.3990  0.4903
  109TMC2     O 1699   1.713   1.966   0.845  0.5864  0.5016  0.6538
  109TMC2     H 1700   1.792   2.162   0.907 -0.1685  2.0293  1.0936
  109TMC2    H1 1701   2.039   1.817   1.002 -2.8905 -0.7159 -1.1397
  109TMC2    H2 1702   2.207   2.212   0.960  2.5857 -2.1224 -0.4882
  109TMC2    C7 1703   2.264   1.960   0.982 -0.1860 -0.3150  0.1707
  109TMC2    C8 1704   1.980   2.326   0.904 -0.3317  0.5957 -0.2340
  109TMC2    O1 1705   2.342   2.012   0.906 -0.4062  0.4753  0.3962
  109TMC2    O2 1706   1.968   2.402   0.997  0.2408 -0.4248  0.6910
  109TMC2    O5 1707   1.966   2.343   0.770 -0.4547  0.1558 -0.4930
  109TMC2    H5 1708   1.980   2.264   0.713 -1.0942 -1.1617  1.1652
  110MPD2     C 1709   1.489   1.498   0.852 -0.1861 -0.1027  0.7080
  110MPD2    C1 1710   1.575   1.473   0.954  0.8015  0.3174  0.2087
  110MPD2    C2 1711   1.671   1.570   0.986 -0.2505 -0.3898  0.7955
  110MPD2    C3 1712   1.685   1.688   0.914 -1.0589 -0.4998 -0.7355
  110MPD2    C4 1713   1.600   1.704   0.804  0.0295  0.1956 -0.7785
  110MPD2    C5 1714   1.508   1.605   0.779 -0.0591  0.2012  0.0149
  110MPD2     H 1715   1.742   1.558   1.068  0.0105  2.6841  1.0034
  110MPD2    H1 1716   1.592   1.797   0.749  3.7238  0.2792 -1.1681
  110MPD2    H2 1717   1.418   1.425   0.816  1.6482 -0.6368 -1.8348
  110MPD2    H3 1718   1.429   1.622   0.707 -0.5427  0.2928  0.5671
  110MPD2     N 1719   1.789   1.776   0.959  0.1989 -0.4410  0.1811
  110MPD2    H5 1720   1.853   1.756   1.035  0.5710  1.6271  0.4124
  110MPD2    N1 1721   1.565   1.363   1.039  0.3500  0.2982 -0.3462
  110MPD2    H7 1722   1.635   1.362   1.113  1.2656  0.2097 -1.2261
  111TMC2    C1 1723   2.747   2.232  11.677 -0.4801 -0.0425  0.2694
  111TMC2    C2 1724   2.707   2.319  11.780 -0.3322  0.5849 -0.0715
  111TMC2    C3 1725   2.813   2.346  11.860  0.9696  0.2502 -0.9716
  111TMC2    C4 1726   2.871   2.191  11.652 -0.0374 -0.3669  0.3321
  111TMC2    C5 1727   2.969   2.224  11.744 -0.1907 -1.4229 -0.2764
  111TMC2    C6 1728   2.940   2.295  11.849  0.0106 -0.4559 -0.0122
  111TMC2     C 1729   2.643   2.191  11.583  0.2758 -0.0190 -0.4608
  111TMC2     O 1730   2.680   2.158  11.472  0.5245  0.4874  0.0300
  111TMC2     H 1731   2.610   2.365  11.795 -2.0366 -2.7426 -0.7109
  111TMC2    H1 1732   2.884   2.130  11.563 -1.3638  0.8408 -0.6857
  111TMC2    H2 1733   3.018   2.315  11.922  1.4366  0.3261 -1.7689
  111TMC2    C7 1734   3.085   2.137  11.753 -0.3023 -0.5011  0.9284
  111TMC2    C8 1735   2.782   2.417  11.982 -0.7838 -0.0516 -0.8026
  111TMC2    O1 1736   3.133   2.108  11.864  0.0687 -0.0560  0.5093
  111TMC2    O2 1737   2.666   2.422  12.024  0.3209 -0.2889  0.1220
  111TMC2    O5 1738   2.882   2.503  12.015  0.2459 -0.5726 -0.9202
  111TMC2    H5 1739   2.970   2.491  11.975  0.3317  0.1160 -0.9432
  112MPD2     C 1740   2.152   2.048  11.468  0.2764  0.3315  0.8502
  112MPD2    C1 1741   2.258   2.068  11.385  0.2804  0.0565  0.5698
  112MPD2    C2 1742   2.383   2.110  11.445 -0.5556  0.0188 -0.0418
  112MPD2    C3 1743   2.395   2.135  11.581  0.4767 -0.2502  0.1637
  112MPD2    C4 1744   2.284   2.103  11.662  0.1847  0.3131 -1.0116
  112MPD2    C5 1745   2.165   2.056  11.610 -0.5688  0.3041  0.2211
  112MPD2     H 1746   2.473   2.122  11.386 -0.7038  1.1919 -0.0263
  112MPD2    H1 1747   2.281   2.117  11.770  0.3989 -0.6060 -0.8821
  112MPD2    H2 1748   2.055   2.019  11.429  0.5249  0.4382  0.1601
  112MPD2    H3 1749   2.088   2.019  11.677  1.7053 -1.3379  1.9142
  112MPD2     N 1750   2.517   2.171  11.646 -0.2882 -0.5005  0.4365
  112MPD2    H5 1751   2.502   2.179  11.746 -1.3562 -2.0610  0.4035
  112MPD2    N1 1752   2.252   2.063  11.244 -0.2514 -0.3680  0.4883
  112MPD2    H7 1753   2.338   2.080  11.193  0.1124 -1.6157  0.6852
  113TMC2    C1 1754   0.137   4.006   0.712  0.2467  0.1373 -0.1544
  113TMC2    C2 1755   0.074   4.122   0.735  0.0965  0.4057 -0.7205
  113TMC2    C3 1756   4.725   4.163   0.641  0.4511  0.3795  0.2562
  113TMC2    C4 1757   0.116   3.934   0.593  0.3970  0.2369 -0.2609
  113TMC2    C5 1758   0.026   3.983   0.502 -0.5132 -0.2114 -0.1646
  113TMC2    C6 1759   4.701   4.099   0.526  0.5803  0.4390  0.5857
  113TMC2     C 1760   0.225   3.958   0.813 -0.3737 -0.0484  0.0272
  113TMC2     O 1761   0.233   4.027   0.912  0.5932  0.0460 -0.4798
  113TMC2     H 1762   0.072   4.179   0.828  0.0559  2.4523 -1.9800
  113TMC2    H1 1763   0.189   3.863   0.557 -1.1753 -0.7372 -1.4914
  113TMC2    H2 1764   4.625   4.132   0.456 -0.4083  1.3285  2.0721
  113TMC2    C7 1765   4.719   3.908   0.390 -0.1444  0.8312  0.2440
  113TMC2    C8 1766   4.665   4.294   0.658  0.3576 -0.2628 -0.3240
  113TMC2    O1 1767   4.667   3.967   0.297  0.0992  0.3710 -0.1337
  113TMC2    O2 1768   4.617   4.354   0.561  0.4679 -0.0296  0.2945
  113TMC2    O5 1769   4.685   4.357   0.778  0.1991 -0.6138 -0.0732
  113TMC2    H5 1770   4.700   4.305   0.860 -2.0783 -4.1417 -1.8693
  114MPD2     C 1771   0.579   3.637   0.998 -0.2744  0.0006 -0.0462
  114MPD2    C1 1772   0.543   3.764   1.045 -0.5436 -0.5047  0.3457
  114MPD2    C2 1773   0.440   3.832   0.972 -1.0585  0.0666 -0.0200
  114MPD2    C3 1774   0.380   3.770   0.857  0.4725  0.1318  0.3975
  114MPD2    C4 1775   0.424   3.644   0.820 -0.8102  0.2920  0.8103
  114MPD2    C5 1776   0.523   3.579   0.892 -0.0841  0.1308 -0.2571
  114MPD2     H 1777   0.415   3.933   1.000  0.8139  1.2245 -2.5872
  114MPD2    H1 1778   0.373   3.601   0.734 -0.5231 -1.0196  1.2927
  114MPD2    H2 1779   0.648   3.575   1.054 -1.0576 -1.4395 -0.7000
  114MPD2    H3 1780   0.547   3.477   0.864 -0.2552  0.1211 -0.3712
  114MPD2     N 1781   0.279   3.834   0.780  0.6599  0.4247  0.7816
  114MPD2    H5 1782   0.250   3.779   0.700 -0.7375  0.1036  1.5065
  114MPD2    N1 1783   0.608   3.830   1.149  0.2551 -0.1331  0.0042
  114MPD2    H7 1784   0.566   3.918   1.179  0.1108 -0.4918  0.8734
  115TMC2    C1 1785   1.021   2.213   0.027 -1.1124 -0.0649 -0.5324
  115TMC2    C2 1786   0.894   2.153   0.020 -0.0811  0.2296  0.1131
  115TMC2    C3 1787   0.785   2.228  17.718 -0.1400 -0.4995 -0.0732
  115TMC2    C4 1788   1.032   2.348   0.006 -0.2807 -0.1831  0.5190
  115TMC2    C5 1789   0.926   2.419  17.707  0.3627  0.4426 -0.4022
  115TMC2    C6 1790   0.798   2.368  17.691  0.3736  0.3514 -0.1149
  115TMC2     C 1791   1.139   2.123   0.045 -0.3198  0.2377  0.0429
  115TMC2     O 1792   1.237   2.159   0.105  0.8526  0.0280 -0.2620
  115TMC2     H 1793   0.873   2.052   0.054 -0.1413 -0.2313 -1.2940
  115TMC2    H1 1794   1.126   2.402   0.011 -0.8104  0.8491 -0.5684
  115TMC2    H2 1795   0.713   2.422  17.651 -1.0258 -2.1403 -0.5423
  115TMC2    C7 1796   0.933   2.560  17.707  0.2718  0.4142 -0.5925
  115TMC2    C8 1797   0.659   2.174   0.025 -0.8792  0.3851 -0.1619
  115TMC2    O1 1798   0.829   2.613  17.728 -0.5279 -0.1562 -0.5718
  115TMC2    O2 1799   0.625   2.059   0.018  0.0464 -0.0373 -0.9999
  115TMC2    O5 1800   0.608   2.264   0.106  0.0204  0.2991 -0.1220
  115TMC2    H5 1801   0.646   2.355   0.108  0.5852  0.0478  0.3571
  116MPD2     C 1802   1.281   1.612   0.056  0.0528  0.6313 -0.5162
  116MPD2    C1 1803   1.165   1.629  17.718  0.0950  0.2981  0.4016
  116MPD2    C2 1804   1.121   1.759  17.699  0.4626  0.8089 -0.4281
  116MPD2    C3 1805   1.177   1.871   0.014  0.0648  0.3487 -0.2622
  116MPD2    C4 1806   1.296   1.850   0.091  0.1281 -0.7185 -0.2557
  116MPD2    C5 1807   1.354   1.725   0.089  1.8370 -0.0237 -0.0232
  116MPD2     H 1808   1.028   1.769  17.644 -0.5885 -0.1210  1.1698
  116MPD2    H1 1809   1.350   1.936   0.130 -2.2091 -0.4961  2.5038
  116MPD2    H2 1810   1.330   1.517   0.073 -1.8192 -0.1960  0.2727
  116MPD2    H3 1811   1.450   1.712   0.136  1.8343 -0.3166 -0.0980
  116MPD2     N 1812   1.108   1.995   0.001  0.1901  0.4843 -0.4585
  116MPD2    H5 1813   1.022   1.994  17.688 -0.7222  0.1199  1.0281
  116MPD2    N1 1814   1.098   1.515  17.665  0.3383  0.6628 -0.4697
  116MPD2    H7 1815   1.125   1.425  17.706 -1.2424 -0.0599 -1.0429
  117TMC2    C1 1816   4.673   3.654  14.276 -0.2978  0.3624  0.9446
  117TMC2    C2 1817   0.058   3.588  14.291  0.0979 -0.6278  0.0090
  117TMC2    C3 1818   0.169   3.647  14.224  0.2721 -0.1525 -0.0932
  117TMC2    C4 1819   4.654   3.752  14.178  0.5705  0.4881  0.0575
  117TMC2    C5 1820   0.031   3.794  14.115 -0.5531 -0.0502 -0.0175
  117TMC2    C6 1821   0.158   3.752  14.143  0.1473 -0.3215  0.4183
  117TMC2     C 1822   4.562   3.593  14.344 -0.4885 -0.1910  0.4032
  117TMC2     O 1823   4.580   3.486  14.396 -0.5470  0.6880  0.0251
  117TMC2     H 1824   0.071   3.509  14.364 -0.5887 -0.6354  0.1170
  117TMC2    H1 1825   4.555   3.771  14.140 -0.2895 -2.0301  1.0593
  117TMC2    H2 1826   0.247   3.791  14.095  0.3910 -0.6981  0.5638
  117TMC2    C7 1827   0.028   3.913  14.031 -1.2029  0.0017  0.3776
  117TMC2    C8 1828   0.300   3.624  14.292 -0.1801 -0.0999 -0.1474
  117TMC2    O1 1829   0.127   3.950  13.973  0.0493  0.1112 -0.1726
  117TMC2    O2 1830   0.383   3.713  14.300  0.7987  0.0176 -0.1590
  117TMC2    O5 1831   0.296   3.499  14.338 -0.7839  0.2459  0.4266
  117TMC2    H5 1832   0.222   3.439  14.317 -0.3251  0.2248 -1.1327
  118MPD2     C 1833   4.518   4.175  14.060  0.3145 -0.1365  0.5566
  118MPD2    C1 1834   4.642   4.123  14.035 -0.2210  0.2479  0.8624
  118MPD2    C2 1835   0.007   4.205  13.999 -1.1511  0.5837  0.2708
  118MPD2    C3 1836   4.720   4.338  13.979  0.4666 -0.3093  0.5172
  118MPD2    C4 1837   4.591   4.394  13.997 -0.4136 -0.1853 -0.1739
  118MPD2    C5 1838   4.495   4.310  14.043 -0.4696  0.7392 -0.0235
  118MPD2     H 1839   0.108   4.166  14.012 -0.5013  1.8201 -0.9827
  118MPD2    H1 1840   4.572   4.500  13.990  3.9618  0.6597  0.5474
  118MPD2    H2 1841   4.431   4.114  14.081  0.0724  0.4582  1.2922
  118MPD2    H3 1842   4.397   4.348  14.068 -0.6784 -0.2208  0.6109
  118MPD2     N 1843   0.091   4.430  13.958  0.1806 -0.4228  0.3385
  118MPD2    H5 1844   0.069   4.529  13.954 -3.6168 -1.2660  0.6481
  118MPD2    N1 1845   4.649   3.984  14.057  0.0879  0.4111  0.9371
  118MPD2    H7 1846   4.577   3.944  14.117 -0.5044 -0.3187 -0.2371
  119TMC2    C1 1847   2.959   4.581  13.076  0.2390 -0.2233 -0.3895
  119TMC2    C2 1848   2.976   4.666  12.967 -0.2564 -0.2998  0.1597
  119TMC2    C3 1849   2.865   4.696  12.899  0.0116 -0.6915 -0.5444
  119TMC2    C4 1850   2.837   4.519  13.093  0.3354 -0.6358  0.7059
  119TMC2    C5 1851   2.739   4.531  13.004  0.0930  0.0653 -0.0885
  119TMC2    C6 1852   2.749   4.630  12.908 -0.3815 -0.1816 -0.0084
  119TMC2     C 1853   3.031   4.603  13.195  0.5697  0.2728 -0.0352
  119TMC2     O 1854   2.976   4.565  13.298 -0.0843 -0.2198 -0.0632
  119TMC2     H 1855   3.069   4.714  12.940  0.5846 -2.0014 -0.0042
  119TMC2    H1 1856   2.840   4.435  13.162 -0.6450  2.1129  4.0810
  119TMC2    H2 1857   2.672   4.642  12.833  0.1885  0.6055 -0.4721
  119TMC2    C7 1858   2.601   4.494  13.035  0.2893 -1.0445 -0.2173
  119TMC2    C8 1859   2.869   0.077  12.811 -0.5737  0.2960  0.1323
  119TMC2    O1 1860   2.521   4.484  12.941 -0.4015  0.2242  0.4067
  119TMC2    O2 1861   2.973   0.135  12.785  0.0148  0.2230  0.6311
  119TMC2    O5 1862   2.744   0.121  12.805  0.2734  0.0605 -0.3527
  119TMC2    H5 1863   2.672   0.075  12.853  0.4461 -2.4813 -2.5896
  120MPD2     C 1864   3.332   0.160  13.468  0.0063 -0.0920 -0.3212
  120MPD2    C1 1865   3.209   0.117  13.501 -0.0397 -0.2627 -0.6001
  120MPD2    C2 1866   3.139   0.051  13.401 -1.1210  0.2149 -0.3868
  120MPD2    C3 1867   3.197   0.034  13.276 -0.1398  0.0196 -0.5633
  120MPD2    C4 1868   3.321   0.089  13.246 -0.5097 -0.9418  0.1607
  120MPD2    C5 1869   3.385   0.161  13.343 -0.1936 -0.0908  0.1889
  120MPD2     H 1870   3.035   0.024  13.418 -0.1674 -2.0308  1.8049
  120MPD2    H1 1871   3.355   0.071  13.145 -0.6733  0.5094 -0.1446
  120MPD2    H2 1872   3.391   0.206  13.547 -2.2639 -0.2524  1.4610
  120MPD2    H3 1873   3.484   0.202  13.327 -0.4547  0.1941 -0.6743
  120MPD2     N 1874   3.133   4.692  13.174  0.6535 -0.1726  0.3760
  120MPD2    H5 1875   3.177   4.700  13.083  1.1423 -0.9018  0.5482
  120MPD2    N1 1876   3.164   0.160  13.631  0.3153  0.0514 -0.3062
  120MPD2    H7 1877   3.227   0.231  13.666  1.6411 -0.7330 -1.0741
  121TMC2    C1 1878   4.714   1.805  14.129  0.3030  1.3629  0.5035
  121TMC2    C2 1879   0.112   1.759  14.113  0.3130  0.1600  0.5857
  121TMC2    C3 1880   0.140   1.631  14.149 -0.3068  0.5627  0.2640
  121TMC2    C4 1881   4.619   1.723  14.185 -0.5600 -0.4268 -0.2427
  121TMC2    C5 1882   4.661   1.608  14.229  0.1237 -0.2960  0.3655
  121TMC2    C6 1883   0.051   1.555  14.207  0.3793 -0.0552  0.4033
  121TMC2     C 1884   4.664   1.934  14.075  0.4062  0.5503  0.4931
  121TMC2     O 1885   4.559   1.976  14.120  0.4789  0.1098 -0.1231
  121TMC2     H 1886   0.191   1.822  14.073 -0.1045  0.9931  1.0784
  121TMC2    H1 1887   4.520   1.754  14.219  0.3558  1.2313  0.8978
  121TMC2    H2 1888   0.083   1.456  14.236  2.7377  0.8079  0.7872
  121TMC2    C7 1889   4.569   1.512  14.289 -0.1977 -0.4614 -0.6081
  121TMC2    C8 1890   0.262   1.567  14.122  0.1994  0.3418  0.2815
  121TMC2    O1 1891   4.617   1.433  14.369 -0.3757  0.2973  0.5480
  121TMC2    O2 1892   0.274   1.444  14.115 -0.1437 -0.3984 -0.8882
  121TMC2    O5 1893   0.365   1.648  14.120 -0.0372 -0.0479 -0.0245
  121TMC2    H5 1894   0.344   1.741  14.141  1.2496  0.1863  0.2030
  122MPD2     C 1895   4.662   2.215  13.979  0.0064  0.2461 -0.7732
  122MPD2    C1 1896   0.001   2.112  13.925  0.0715  0.2567  0.7638
  122MPD2    C2 1897   0.074   2.133  13.812  0.0277  0.0744  0.5136
  122MPD2    C3 1898   0.071   2.258  13.746  0.0066 -0.1164  0.0620
  122MPD2    C4 1899   4.733   2.358  13.809  0.0327 -0.4290 -0.3333
  122MPD2    C5 1900   4.659   2.332  13.920 -0.1067 -0.2205  0.6582
  122MPD2     H 1901   0.144   2.061  13.772  0.0911 -0.4813  1.6116
  122MPD2    H1 1902   4.721   2.455  13.763 -1.3222  0.2269  1.4228
  122MPD2    H2 1903   4.616   2.203  14.076 -0.0149  2.2346 -0.5367
  122MPD2    H3 1904   4.592   2.412  13.952 -0.0376 -0.8668  2.4275
  122MPD2     N 1905   0.130   2.292  13.625  0.1243 -0.2131  0.0915
  122MPD2    H5 1906   0.114   2.388  13.599  0.1023 -0.5524 -1.1419
  122MPD2    N1 1907   0.014   1.989  13.989 -0.8049  0.6493 -0.0354
  122MPD2    H7 1908   0.089   1.931  13.953 -0.4232  0.6697  0.7374
  123TMC2    C1 1909   2.690   0.682  11.174 -0.2418  0.4438 -0.4674
  123TMC2    C2 1910   2.658   0.796  11.249 -0.2942  0.1280 -0.2247
  123TMC2    C3 1911   2.689   0.912  11.195 -0.2946  0.2393 -0.0756
  123TMC2    C4 1912   2.770   0.691  11.063 -0.6607  0.3369 -0.3360
  123TMC2    C5 1913   2.800   0.810  11.014 -0.5812  0.1094 -0.5019
  123TMC2    C6 1914   2.759   0.925  11.078  0.0299 -0.5544 -0.2030
  123TMC2     C 1915   2.644   0.556  11.215 -0.0704  0.3933 -0.8034
  123TMC2     O 1916   2.621   0.549  11.334  0.0199  0.3030 -0.7535
  123TMC2     H 1917   2.578   0.800  11.322  0.2025  0.4765  0.3000
  123TMC2    H1 1918   2.808   0.605  11.010 -2.0070 -0.5285  0.1155
  123TMC2    H2 1919   2.779   1.019  11.027 -0.3555 -0.3474  0.0302
  123TMC2    C7 1920   2.853   0.820  10.878  0.0194 -0.7145 -0.6153
  123TMC2    C8 1921   2.674   1.027  11.276 -0.0450  0.1817 -0.5877
  123TMC2    O1 1922   2.910   0.723  10.837 -0.1133 -0.3006 -0.0267
  123TMC2    O2 1923   2.685   1.014  11.396  0.5877 -0.6070  0.0736
  123TMC2    O5 1924   2.589   1.103  11.204  0.3268  0.2114 -0.2566
  123TMC2    H5 1925   2.587   1.077  11.109 -1.1040  0.1832 -0.2147
  124MPD2     C 1926   2.470   0.068  11.101 -0.3617  0.0203 -0.5653
  124MPD2    C1 1927   2.516   0.131  10.988  0.9472 -0.2947 -0.6796
  124MPD2    C2 1928   2.560   0.261  10.997 -0.2297 -0.3967  0.5316
  124MPD2    C3 1929   2.570   0.339  11.109 -0.1371 -0.0779 -0.4084
  124MPD2    C4 1930   2.526   0.274  11.221 -0.0418  0.7086  0.3122
  124MPD2    C5 1931   2.480   0.142  11.218 -0.2382  0.7527 -0.6010
  124MPD2     H 1932   2.590   0.306  10.904  2.1074  0.7653  1.8426
  124MPD2    H1 1933   2.505   0.320  11.317  0.7584  0.0064  0.8250
  124MPD2    H2 1934   2.423   4.706  11.107 -1.1986  0.2672 -3.2718
  124MPD2    H3 1935   2.445   0.085  11.303  0.4056  0.2370 -0.6775
  124MPD2     N 1936   2.621   0.467  11.107 -0.4283  0.5172  0.2488
  124MPD2    H5 1937   2.639   0.507  11.016  0.4346  0.1663  0.2607
  124MPD2    N1 1938   2.510   0.055  10.874  0.2186 -0.0898  0.5809
  124MPD2    H7 1939   2.446   4.712  10.879 -0.4601  0.3239 -1.8138
  125TMC2    C1 1940   3.204   3.116   9.745  0.0784  0.9184 -0.0856
  125TMC2    C2 1941   3.145   3.005   9.802  0.1641  0.0993 -1.4235
  125TMC2    C3 1942   3.225   2.888   9.792 -0.4994  0.3375  0.5825
  125TMC2    C4 1943   3.323   3.107   9.682  0.5330  0.1868  0.2767
  125TMC2    C5 1944   3.396   2.989   9.680  0.1372  0.7563  1.0253
  125TMC2    C6 1945   3.351   2.874   9.737 -0.0521  0.3273 -0.6418
  125TMC2     C 1946   3.124   3.239   9.758  0.2851 -0.1004  0.5059
  125TMC2     O 1947   3.011   3.234   9.801  0.3308 -0.5540  0.1451
  125TMC2     H 1948   3.044   3.018   9.839  0.8667  3.5985 -0.7461
  125TMC2    H1 1949   3.363   3.197   9.636 -2.0866  1.8213  1.2004
  125TMC2    H2 1950   3.397   2.776   9.733 -1.0293 -0.0336 -2.7025
  125TMC2    C7 1951   3.502   2.986   9.580 -0.3675  0.2569  0.5501
  125TMC2    C8 1952   3.195   2.786   9.882 -0.4452 -0.6198  0.0335
  125TMC2    O1 1953   3.522   3.091   9.514 -0.6909 -0.1818 -0.5501
  125TMC2    O2 1954   3.285   2.713   9.929 -0.5301  0.1303  0.3352
  125TMC2    O5 1955   3.056   2.767   9.889 -0.0727 -0.5293 -0.5812
  125TMC2    H5 1956   3.016   2.808   9.810 -0.7464 -3.3805 -1.7102
  126MPD1     C 1957   3.057   3.744   9.682  0.1477 -0.4623 -0.0538
  126MPD1    C1 1958   3.173   3.707   9.619 -0.7264 -0.0978 -0.3030
  126MPD1    C2 1959   3.219   3.576   9.633 -0.4974 -0.5918  0.3422
  126MPD1    C3 1960   3.151   3.491   9.716 -0.7410  0.0888 -0.0246
  126MPD1    C4 1961   3.049   3.534   9.795  0.7762 -0.2586 -0.8728
  126MPD1    C5 1962   2.998   3.655   9.771 -0.0361 -0.6592 -0.1358
  126MPD1     H 1963   3.307   3.540   9.582 -0.8998  0.9289 -1.4411
  126MPD1    H1 1964   2.986   3.463   9.848 -1.8351  1.9530 -0.9721
  126MPD1    H2 1965   3.031   3.849   9.668  0.2818 -0.1190  2.2080
  126MPD1    H3 1966   2.906   3.686   9.818  1.9743  1.3730  2.4339
  126MPD1     N 1967   3.190   3.350   9.705  0.2155 -0.1007  0.4611
  126MPD1    H5 1968   3.271   3.331   9.647  0.4117 -1.5026  1.2011
  126MPD1    N1 1969   3.242   3.790   9.532 -0.8865 -0.0239 -0.0106
  126MPD1    H6 1970   3.240   3.891   9.548 -0.8517 -0.1119  0.5558
  126MPD1    H7 1971   3.340   3.767   9.516 -0.3680  1.6104  0.7341
  127TMC2    C1 1972   4.424   1.170  10.264  0.6877  0.6927  0.0194
  127TMC2    C2 1973   4.515   1.187  10.361 -0.1976  0.1107 -0.4439
  127TMC2    C3 1974   4.496   1.129  10.482 -0.1942 -0.2159 -0.6653
  127TMC2    C4 1975   4.311   1.100  10.288  0.1111 -0.3923  0.3471
  127TMC2    C5 1976   4.304   1.040  10.409 -0.2297  0.8948  0.1124
  127TMC2    C6 1977   4.391   1.052  10.510  0.7998  0.7784  0.3804
  127TMC2     C 1978   4.467   1.205  10.127  0.1108 -0.1631  0.6714
  127TMC2     O 1979   4.562   1.287  10.123  0.0454 -0.0348 -0.3174
  127TMC2     H 1980   4.609   1.230  10.328 -0.9177  2.6786  0.7799
  127TMC2    H1 1981   4.237   1.087  10.209  1.0425 -1.1569 -0.3939
  127TMC2    H2 1982   4.375   1.022  10.613  1.0473  0.4580  0.3255
  127TMC2    C7 1983   4.196   0.948  10.422  0.1482  0.2838  0.3500
  127TMC2    C8 1984   4.597   1.124  10.584 -0.5324 -0.4466 -0.5353
  127TMC2    O1 1985   4.090   0.957  10.357 -0.6321 -0.3291 -0.3757
  127TMC2    O2 1986   4.614   1.030  10.665 -0.6221  0.4086  0.2965
  127TMC2    O5 1987   4.685   1.225  10.567 -0.3344 -0.3248 -0.0972
  127TMC2    H5 1988   4.646   1.290  10.504  0.6159  1.2746  0.9696
  128MPD2     C 1989   4.340   1.087   9.809  0.0500 -0.1243 -0.4429
  128MPD2    C1 1990   4.424   1.150   9.887  1.1699 -0.4109 -0.2721
  128MPD2    C2 1991   4.532   1.219   9.827  0.4457  0.8002  0.2670
  128MPD2    C3 1992   4.551   1.218   9.690 -0.1023 -0.0892  0.2381
  128MPD2    C4 1993   4.449   1.165   9.615 -0.4685 -0.9115 -0.0913
  128MPD2    C5 1994   4.349   1.094   9.673  0.1218 -0.1837  0.1029
  128MPD2     H 1995   4.613   1.260   9.887 -0.2856  1.0003  1.1238
  128MPD2    H1 1996   4.445   1.165   9.506 -0.0635  0.5341 -0.1051
  128MPD2    H2 1997   4.265   1.025   9.857 -0.4363  1.6757  1.1391
  128MPD2    H3 1998   4.267   1.050   9.618  0.3166 -1.7527  1.0796
  128MPD2     N 1999   4.656   1.297   9.641 -1.1161  0.3906  0.1949
  128MPD2    H5 2000   4.730   1.331   9.701 -1.4620  1.5461 -0.0359
  128MPD2    N1 2001   4.396   1.143  10.029  0.8881 -0.5304 -0.0123
  128MPD2    H7 2002   4.316   1.089  10.058  1.6478 -0.7993  1.5847
  129TMC2    C1 2003   3.277   0.632   1.365  0.3480  0.0714 -0.2237
  129TMC2    C2 2004   3.179   0.730   1.346  0.2960  0.0136 -0.0015
  129TMC2    C3 2005   3.052   0.701   1.393 -0.8289 -0.1882  0.2952
  129TMC2    C4 2006   3.248   0.508   1.420  0.9079  0.3176  0.4675
  129TMC2    C5 2007   3.115   0.486   1.453 -0.3586  0.1012 -0.1226
  129TMC2    C6 2008   3.016   0.581   1.451  0.7167 -0.0511  0.4786
  129TMC2     C 2009   3.405   0.632   1.297  0.1158 -0.1028  0.5841
  129TMC2     O 2010   3.459   0.524   1.289  0.7080 -0.2515 -0.6927
  129TMC2     H 2011   3.200   0.821   1.291 -2.7091 -0.5211 -2.0804
  129TMC2    H1 2012   3.328   0.438   1.442  0.9987  0.4309  0.5001
  129TMC2    H2 2013   2.926   0.574   1.511 -0.2289 -0.1037 -0.9548
  129TMC2    C7 2014   3.075   0.350   1.495  0.5658 -0.2472 -0.1326
  129TMC2    C8 2015   2.962   0.814   1.383 -0.6618  0.4565  0.0565
  129TMC2    O1 2016   2.965   0.340   1.537  0.3165 -0.1291  0.2466
  129TMC2    O2 2017   2.989   0.925   1.332 -0.2923 -0.0494  0.1594
  129TMC2    O5 2018   2.839   0.759   1.368 -0.2312 -0.0066  0.0117
  129TMC2    H5 2019   2.843   0.661   1.381  1.1462  0.0436 -0.0656
  130MPD2     C 2020   3.652   0.713   1.125  0.2844  0.0630 -1.1182
  130MPD2    C1 2021   3.567   0.798   1.185  0.5620 -0.1789  0.2181
  130MPD2    C2 2022   3.588   0.934   1.188 -0.6142 -0.2147  0.7216
  130MPD2    C3 2023   3.685   0.986   1.107  0.0890  0.0357 -1.1005
  130MPD2    C4 2024   3.763   0.903   1.031  0.6500 -0.3996  0.6999
  130MPD2    C5 2025   3.751   0.765   1.052 -0.1655  0.2097 -0.4655
  130MPD2     H 2026   3.520   1.000   1.241 -0.6491  1.1809 -1.0596
  130MPD2    H1 2027   3.833   0.938   0.956  1.3272 -0.9931  1.0438
  130MPD2    H2 2028   3.642   0.605   1.129 -3.5756  0.4505 -0.1308
  130MPD2    H3 2029   3.814   0.698   0.994 -0.8637 -1.4887  0.7478
  130MPD2     N 2030   3.688   1.127   1.101 -0.2452 -1.1514  0.1922
  130MPD2    H5 2031   3.616   1.179   1.150  2.7693  2.0993  1.1803
  130MPD2    N1 2032   3.453   0.760   1.265 -0.0344 -0.2183 -0.0901
  130MPD2    H7 2033   3.398   0.839   1.300 -0.9977 -0.1212 -1.8412
  131TMC2    C1 2034   2.506   0.867  10.293 -0.3339  0.6639 -0.8326
  131TMC2    C2 2035   2.523   0.921  10.420 -0.0180  0.7973 -0.2671
  131TMC2    C3 2036   2.530   1.056  10.433  0.3312 -0.1331  0.0331
  131TMC2    C4 2037   2.501   0.948  10.189  0.5731  0.0081  0.1696
  131TMC2    C5 2038   2.522   1.083  10.202 -0.4294 -0.0352 -0.8886
  131TMC2    C6 2039   2.528   1.145  10.328 -0.0272  0.2290 -0.5937
  131TMC2     C 2040   2.516   0.726  10.288  0.2660  0.1807  0.0285
  131TMC2     O 2041   2.541   0.674  10.396 -0.3031  0.0079  0.1992
  131TMC2     H 2042   2.497   0.867  10.510  0.8617 -0.5559 -0.8164
  131TMC2    H1 2043   2.492   0.910  10.088 -0.9373 -1.6136  0.9259
  131TMC2    H2 2044   2.531   1.252  10.348  2.2796  0.3257 -1.3845
  131TMC2    C7 2045   2.519   1.164  10.077  0.3531  0.3482 -0.1702
  131TMC2    C8 2046   2.478   1.101  10.560 -0.4985  1.2316  0.4415
  131TMC2    O1 2047   2.510   1.106   9.973 -0.0445  0.0193  0.3313
  131TMC2    O2 2048   2.486   1.040  10.664 -0.6457 -0.2106 -0.5006
  131TMC2    O5 2049   2.369   1.164  10.516  0.0865  0.5189  0.0366
  131TMC2    H5 2050   2.344   1.147  10.423  1.6138 -0.7072 -0.1428
  132MPD2     C 2051   2.482   0.510  10.006 -0.1157 -0.4692 -0.4951
  132MPD2    C1 2052   2.508   0.537  10.137 -0.7192 -0.6820  0.6983
  132MPD2    C2 2053   2.511   0.431  10.235  0.1539  1.1792 -0.6327
  132MPD2    C3 2054   2.491   0.301  10.190 -0.6123 -0.3172  0.6260
  132MPD2    C4 2055   2.480   0.277  10.053 -0.0963  0.1456 -0.1909
  132MPD2    C5 2056   2.465   0.380   9.961  0.4014 -0.0182 -0.0265
  132MPD2     H 2057   2.535   0.445  10.339  0.4938 -1.4358 -0.3459
  132MPD2    H1 2058   2.453   0.178  10.016 -2.2077  0.7708 -0.3258
  132MPD2    H2 2059   2.498   0.587   9.931  1.7902  0.1103  0.4939
  132MPD2    H3 2060   2.463   0.355   9.855  0.4220  1.2178 -0.3191
  132MPD2     N 2061   2.491   0.203  10.288  0.4749  0.6038  0.3048
  132MPD2    H5 2062   2.495   0.247  10.379  0.6137  0.5745  0.3115
  132MPD2    N1 2063   2.508   0.676  10.164 -0.4219  0.7811  0.0364
  132MPD2    H7 2064   2.492   0.744  10.089 -0.4730  0.0811 -0.5911
  133TMC2    C1 2065   1.930   4.653   9.807 -0.2346 -0.3318 -0.3299
  133TMC2    C2 2066   2.038   4.676   9.891 -0.8020  0.2530  0.3309
  133TMC2    C3 2067   2.032   4.632  10.020  0.4893 -0.2951  0.3020
  133TMC2    C4 2068   1.816   4.599   9.853  0.4219 -0.3138  0.5443
  133TMC2    C5 2069   1.821   4.542   9.983  0.7548 -0.0804  1.4494
  133TMC2    C6 2070   1.928   4.560  10.068  0.1093 -0.2145  0.4396
  133TMC2     C 2071   1.908   4.727   9.691 -0.5119  0.4274  0.7377
  133TMC2     O 2072   1.799   0.039   9.665 -0.0938 -0.1968 -0.5718
  133TMC2     H 2073   2.125   4.722   9.847 -2.4889  0.4900 -2.7485
  133TMC2    H1 2074   1.734   4.587   9.783 -0.4876 -2.4891  1.9542
  133TMC2    H2 2075   1.944   4.520  10.168  0.5945 -0.8785  0.1007
  133TMC2    C7 2076   1.728   4.437  10.031 -0.2178 -0.0172 -0.2094
  133TMC2    C8 2077   2.141   4.660  10.109  1.0808  0.1655  0.5079
  133TMC2    O1 2078   1.762   4.359  10.124 -0.1741 -0.2413  0.0975
  133TMC2    O2 2079   2.150   4.605  10.217  0.4953 -0.0467  0.5422
  133TMC2    O5 2080   2.174   0.051  10.087 -0.4690 -0.9378  0.7900
  133TMC2    H5 2081   2.127   0.079  10.006  0.5047  0.7687  0.8192
  134MPD2     C 2082   2.172   0.066   9.439 -0.8274  0.2428  0.3976
  134MPD2    C1 2083   2.054   0.088   9.513  0.5382  0.9040 -1.3701
  134MPD2    C2 2084   1.986   0.209   9.503  0.7755  0.5112 -0.1645
  134MPD2    C3 2085   2.038   0.303   9.415 -0.0686  0.1046  0.9202
  134MPD2    C4 2086   2.161   0.286   9.353  0.0360 -0.5643 -0.7543
  134MPD2    C5 2087   2.226   0.172   9.367  0.1915  0.6687  0.0005
  134MPD2     H 2088   1.902   0.229   9.569 -0.1629 -0.6722 -1.0053
  134MPD2    H1 2089   2.208   0.369   9.302  0.8347  0.2149  1.2394
  134MPD2    H2 2090   2.231   4.711   9.453 -1.0601 -0.4001 -2.7486
  134MPD2    H3 2091   2.319   0.155   9.313 -0.7047 -3.9096 -0.0759
  134MPD2     N 2092   1.978   0.432   9.418 -1.0314 -0.0420  0.7086
  134MPD2    H5 2093   2.020   0.504   9.361  1.5209 -2.2178 -0.1439
  134MPD2    N1 2094   2.022   4.727   9.613 -0.0794  0.1099 -0.6659
  134MPD2    H7 2095   2.102   4.669   9.638  0.5354  0.8991 -0.7973
  135TMC2    C1 2096   3.151   3.656   9.177  0.1878  0.0981  0.2300
  135TMC2    C2 2097   3.135   3.784   9.132 -0.2861  0.3967  0.2252
  135TMC2    C3 2098   3.029   3.859   9.168 -0.3433 -0.5280 -0.0397
  135TMC2    C4 2099   3.055   3.595   9.256 -1.0396  0.1680  0.6638
  135TMC2    C5 2100   2.948   3.672   9.283  0.1601  0.1110  0.3114
  135TMC2    C6 2101   2.937   3.803   9.252 -0.0866 -0.0296 -1.3258
  135TMC2     C 2102   3.263   3.592   9.117  0.5569 -0.1196 -0.2639
  135TMC2     O 2103   3.350   3.660   9.064 -0.1370 -0.6854 -0.1866
  135TMC2     H 2104   3.215   3.826   9.071  1.9612 -1.5985  1.8056
  135TMC2    H1 2105   3.035   3.490   9.271  1.3369 -0.1788  1.4584
  135TMC2    H2 2106   2.858   3.853   9.307 -0.8798 -1.6931 -0.9513
  135TMC2    C7 2107   2.831   3.615   9.340  0.3338 -0.6525  0.3845
  135TMC2    C8 2108   3.036   3.993   9.135 -0.0970 -0.0596  0.2528
  135TMC2    O1 2109   2.729   3.659   9.296  0.1984 -0.2091  0.1643
  135TMC2    O2 2110   3.133   4.054   9.093 -0.0033  0.3252  0.4255
  135TMC2    O5 2111   2.914   4.043   9.128  0.0156  0.8294  0.6401
  135TMC2    H5 2112   2.839   3.979   9.129  0.0465  0.7887  0.3209
  136MPD2     C 2113   3.489   3.407   9.023  0.0107  0.6177 -0.1668
  136MPD2    C1 2114   3.366   3.358   9.065 -0.2529  0.4372 -0.5378
  136MPD2    C2 2115   3.351   3.223   9.089 -1.2044 -0.1027 -0.0540
  136MPD2    C3 2116   3.458   3.135   9.082 -0.0230  0.2056 -1.3733
  136MPD2    C4 2117   3.581   3.177   9.046 -0.5699  0.0351  0.4381
  136MPD2    C5 2118   3.591   3.315   9.020 -0.3217  0.1619  0.1675
  136MPD2     H 2119   3.258   3.187   9.131 -0.6330  0.2012  1.4801
  136MPD2    H1 2120   3.666   3.114   9.020 -1.2267  0.2674 -2.2702
  136MPD2    H2 2121   3.515   3.509   8.996  0.5296 -0.0194 -2.0565
  136MPD2    H3 2122   3.686   3.358   8.992  0.9176 -1.8231  1.3188
  136MPD2     N 2123   3.445   2.995   9.121 -0.7399 -0.5967  0.1280
  136MPD2    H5 2124   3.534   2.947   9.133 -0.2179  0.6111  1.1368
  136MPD2    N1 2125   3.264   3.450   9.120  0.0869 -0.6719  0.2357
  136MPD2    H7 2126   3.181   3.402   9.151 -0.2882 -0.9261 -1.1467
  137TMC2    C1 2127   4.028   2.045   9.999  0.0625 -0.1367  0.5144
  137TMC2    C2 2128   4.149   2.022   9.940 -0.5913 -0.4256  0.3951
  137TMC2    C3 2129   4.147   1.915   9.853 -0.0946 -0.2609 -0.2815
  137TMC2    C4 2130   3.913   1.969   9.990  0.3421 -0.0783  0.8327
  137TMC2    C5 2131   3.927   1.858   9.912  0.0986  0.0284 -0.3777
  137TMC2    C6 2132   4.040   1.828   9.844 -0.8023 -0.1719  0.1113
  137TMC2     C 2133   4.010   2.178  10.056 -0.1366  0.1821 -0.0120
  137TMC2     O 2134   4.084   2.265  10.019  0.4791  0.1818 -0.0062
  137TMC2     H 2135   4.229   2.089   9.968  0.7244 -1.8238  0.0125
  137TMC2    H1 2136   3.816   2.011  10.013  0.2701 -0.1392  0.6334
  137TMC2    H2 2137   4.045   1.746   9.773  0.5352 -0.6976  0.8034
  137TMC2    C7 2138   3.804   1.785   9.866  1.0904 -0.1656  0.3211
  137TMC2    C8 2139   4.268   1.861   9.794  0.5312  0.3402 -0.8762
  137TMC2    O1 2140   3.825   1.697   9.786  0.0860  0.6312  0.3343
  137TMC2    O2 2141   4.256   1.806   9.688  0.0275 -0.3107  0.1430
  137TMC2    O5 2142   4.345   1.823   9.897 -0.9749  0.0523  0.1800
  137TMC2    H5 2143   4.324   1.891   9.964 -1.5805  1.6128 -1.6084
  138MPD2     C 2144   3.778   2.298  10.320 -0.2487  0.3695 -0.5163
  138MPD2    C1 2145   3.850   2.305  10.203  0.0472 -0.1309  0.4811
  138MPD2    C2 2146   3.866   2.426  10.137 -0.5044  0.2814 -0.6648
  138MPD2    C3 2147   3.803   2.539  10.190  0.1126 -0.0667  0.0437
  138MPD2    C4 2148   3.731   2.534  10.300 -0.8412  0.3086 -0.1085
  138MPD2    C5 2149   3.712   2.411  10.369 -0.4330 -0.5590  0.3898
  138MPD2     H 2150   3.926   2.432  10.047  1.6669  1.3624  0.8707
  138MPD2    H1 2151   3.676   2.614  10.347 -1.3335 -0.2432  0.2535
  138MPD2    H2 2152   3.764   2.201  10.366  0.4707  0.0687 -0.9322
  138MPD2    H3 2153   3.655   2.402  10.461  0.0254 -0.3170  0.6967
  138MPD2     N 2154   3.822   2.659  10.115 -0.0532 -0.0784  0.5278
  138MPD2    H5 2155   3.878   2.653  10.031 -0.1589 -0.7438  0.5100
  138MPD2    N1 2156   3.912   2.186  10.156  0.2256  0.0214  0.8448
  138MPD2    H7 2157   3.874   2.105  10.204  0.7790 -1.7742 -1.7764
  139TMC2    C1 2158   0.203   4.594  13.207 -0.5444  0.9187  0.5351
  139TMC2    C2 2159   0.322   4.663  13.215  0.5578  0.5570 -0.2484
  139TMC2    C3 2160   0.320   0.064  13.236 -0.6463 -0.1795  0.0808
  139TMC2    C4 2161   0.091   4.671  13.203  0.0356 -0.4512 -0.1091
  139TMC2    C5 2162   0.096   0.072  13.200 -0.6109  0.4662 -0.0580
  139TMC2    C6 2163   0.206   0.138  13.228 -0.2090  1.0913  0.0417
  139TMC2     C 2164   0.194   4.455  13.249 -0.0111 -0.3112 -0.3207
  139TMC2     O 2165   0.291   4.389  13.243  0.7071  0.9079  0.4873
  139TMC2     H 2166   0.419   4.615  13.219  1.1510  1.7536 -0.3212
  139TMC2    H1 2167   4.728   4.629  13.184  0.1307 -1.7534  2.2466
  139TMC2    H2 2168   0.196   0.245  13.245  1.6547  0.5247  4.9088
  139TMC2    C7 2169   4.707   0.129  13.247  0.1936 -0.2256 -0.5106
  139TMC2    C8 2170   0.443   0.137  13.242 -0.5238 -0.1355  0.1754
  139TMC2    O1 2171   4.659   0.233  13.207  0.2528  0.7142  0.0335
  139TMC2    O2 2172   0.540   0.111  13.175 -0.1311 -0.1189  0.2993
  139TMC2    O5 2173   0.428   0.262  13.286  0.7926 -0.1369 -0.1263
  139TMC2    H5 2174   0.344   0.260  13.336  0.7560 -1.1909 -0.2352
  140MPD2     C 2175   4.726   4.375  13.553  0.2045 -0.7786 -0.8440
  140MPD2    C1 2176   0.078   4.345  13.451  0.3477  0.2871  0.0886
  140MPD2    C2 2177   0.143   4.222  13.441  0.6285 -1.0138 -0.0764
  140MPD2    C3 2178   0.107   4.123  13.531 -0.1515 -0.0313  0.3193
  140MPD2    C4 2179   0.013   4.152  13.638  0.0058 -0.1505 -0.1453
  140MPD2    C5 2180   4.696   4.275  13.635 -0.4313 -0.3634 -0.1611
  140MPD2     H 2181   0.210   4.199  13.360  0.1355  0.7412 -0.9804
  140MPD2    H1 2182   4.720   4.078  13.712  1.3307  0.0186  0.5400
  140MPD2    H2 2183   4.679   4.472  13.566  0.0388 -0.9312 -0.2962
  140MPD2    H3 2184   4.624   4.308  13.708 -0.6624  0.2929 -0.6897
  140MPD2     N 2185   0.163   3.997  13.517  0.0786 -0.3631  0.2281
  140MPD2    H5 2186   0.239   3.982  13.451 -0.9377 -0.6269 -0.8668
  140MPD2    N1 2187   0.101   4.446  13.351  0.1784 -0.2391  0.2564
  140MPD2    H7 2188   0.044   4.529  13.359 -1.2225 -1.0419 -1.3306
  141TMC2    C1 2189   0.076   0.877  14.074 -0.1592 -0.2229  0.0964
  141TMC2    C2 2190   0.150   0.765  14.113  0.1516 -0.8735 -0.1625
  141TMC2    C3 2191   0.225   0.769  14.230  0.1736 -0.3566 -0.6061
  141TMC2    C4 2192   0.094   0.996  14.140  0.5199  0.7344  0.5887
  141TMC2    C5 2193   0.180   1.001  14.249  1.0684  0.1254 -0.3571
  141TMC2    C6 2194   0.248   0.891  14.299  0.5724  0.5977  0.5908
  141TMC2     C 2195   0.093   0.902  13.935 -0.4164  0.0882 -0.0942
  141TMC2     O 2196   0.143   1.012  13.920 -0.1398  0.3737 -0.1500
  141TMC2     H 2197   0.160   0.674  14.055  0.7360 -1.6063  1.0770
  141TMC2    H1 2198   0.038   1.087  14.124  0.5478  0.4651 -0.9843
  141TMC2    H2 2199   0.301   0.883  14.393  0.8476 -0.1592  0.3733
  141TMC2    C7 2200   0.200   1.129  14.316  0.1673 -0.4652 -0.3170
  141TMC2    C8 2201   0.311   0.657  14.254  0.1936 -0.5257 -0.6483
  141TMC2    O1 2202   0.093   1.192  14.322 -1.0369  0.0355  0.7186
  141TMC2    O2 2203   0.371   0.593  14.168 -0.0733  0.4199 -0.0152
  141TMC2    O5 2204   0.297   0.617  14.382  0.4186  0.3813  0.1832
  141TMC2    H5 2205   0.230   0.671  14.431 -0.2930  0.8689 -1.3439
  142TMC2    C1 2206   2.867   0.337  10.167  0.2101  0.4250 -0.1198
  142TMC2    C2 2207   2.822   0.389  10.046  0.4179 -0.5883  0.9404
  142TMC2    C3 2208   2.812   0.526  10.035  0.4036  0.4012  1.0450
  142TMC2    C4 2209   2.909   0.420  10.264  0.5592  0.2034  0.3030
  142TMC2    C5 2210   2.894   0.558  10.251 -0.3363 -0.1040 -0.1505
  142TMC2    C6 2211   2.840   0.614  10.140  1.0003  0.5708 -0.1408
  142TMC2     C 2212   2.851   0.194  10.194 -0.8714 -0.5383  0.0589
  142TMC2     O 2213   2.818   0.131  10.094  0.2237  0.0887  0.3294
  142TMC2     H 2214   2.778   0.326   9.970 -0.6496 -0.6802  1.6419
  142TMC2    H1 2215   2.958   0.391  10.356 -0.5000 -1.2901  0.3971
  142TMC2    H2 2216   2.832   0.722  10.128 -0.0489  0.6958  1.7677
  142TMC2    C7 2217   2.885   0.637  10.370 -0.2744  0.6759  0.4205
  142TMC2    C8 2218   2.780   0.593   9.910  0.6030  0.3600  0.5054
  142TMC2    O1 2219   2.877   0.576  10.473  0.1280 -0.2475  0.1823
  142TMC2    O2 2220   2.720   0.701   9.905  0.9187 -0.3933 -0.1805
  142TMC2    O5 2221   2.832   0.518   9.808  0.1044 -0.0911 -0.0577
  142TMC2    H5 2222   2.894   0.454   9.848  0.2026 -1.1014 -1.8166
  143MPD2     C 2223   2.825   4.513  10.502  0.2787 -0.2300  0.5629
  143MPD2    C1 2224   2.769   4.537  10.381 -0.7188 -0.3632  0.0195
  143MPD2    C2 2225   2.790   4.661  10.320  0.1628  0.0256  0.0182
  143MPD2    C3 2226   2.861   0.027  10.384 -0.4337  1.0351  0.2369
  143MPD2    C4 2227   2.916   4.733  10.505  0.6914 -0.5488  0.3337
  143MPD2    C5 2228   2.901   4.605  10.563 -0.2725  0.2828  0.0110
  143MPD2     H 2229   2.740   4.696  10.231 -1.7169 -2.1741  0.2094
  143MPD2    H1 2230   2.984   0.069  10.549 -0.0647  0.3946 -0.0346
  143MPD2    H2 2231   2.805   4.417  10.548  0.9578  0.3822  2.1064
  143MPD2    H3 2232   2.935   4.581  10.663  1.7238  0.6976 -0.5735
  143MPD2     N 2233   2.874   0.151  10.323  0.0118  0.8557  0.6483
  143MPD2    H5 2234   2.903   0.223  10.388 -3.3510  1.7327  1.1806
  143MPD2    N1 2235   2.676   4.438  10.338 -0.0745  0.8813  1.0652
  143MPD2    H7 2236   2.643   4.366  10.402 -0.9167  0.8505  0.6015
  144TMC2    C1 2237   0.216   2.379   0.176 -0.0353  0.7395  0.5055
  144TMC2    C2 2238   0.207   2.246   0.128 -0.1561 -0.1970 -0.1041
  144TMC2    C3 2239   0.285   2.152   0.187  0.3753 -0.6296 -0.3894
  144TMC2    C4 2240   0.310   2.415   0.266  0.5619  0.2421  0.0094
  144TMC2    C5 2241   0.396   2.319   0.319 -0.5711  0.0551  0.3493
  144TMC2    C6 2242   0.377   2.187   0.285  0.0653 -0.7706  0.8200
  144TMC2     C 2243   0.136   2.479   0.114 -0.8880 -0.4982 -0.2572
  144TMC2     O 2244   0.171   2.592   0.097 -0.3905  0.4858  0.0856
  144TMC2     H 2245   0.132   2.191   0.072 -1.1388 -0.2062  1.2063
  144TMC2    H1 2246   0.325   2.517   0.300 -0.7842  0.4671 -0.0872
  144TMC2    H2 2247   0.449   2.108   0.303  0.2183 -0.4499  1.6130
  144TMC2    C7 2248   0.502   2.339   0.414  0.6938 -0.0320 -0.0538
  144TMC2    C8 2249   0.261   2.012   0.154 -0.0686  0.1779 -0.3748
  144TMC2    O1 2250   0.579   2.245   0.447 -0.0454 -0.5081  0.0925
  144TMC2    O2 2251   0.213   1.971   0.051  0.0320  0.2187 -0.1086
  144TMC2    O5 2252   0.260   1.941   0.271 -0.1406  0.3371 -0.7018
  144TMC2    H5 2253   0.296   1.997   0.344 -0.1568  0.4494 -0.7800
  145MPD2     C 2254   4.514   2.501  17.480  0.2884  0.4011 -0.2017
  145MPD2    C1 2255   4.601   2.602  17.525 -1.0498 -0.0802  0.3048
  145MPD2    C2 2256   4.692   2.580  17.623  0.5410  0.1834  0.1965
  145MPD2    C3 2257   4.691   2.456  17.689 -1.0031  0.2987  0.6461
  145MPD2    C4 2258   4.594   2.363  17.654  0.5949  0.6368  0.3028
  145MPD2    C5 2259   4.513   2.386  17.548 -0.9907  0.0986 -0.1092
  145MPD2     H 2260   0.044   2.645  17.628  0.0620  0.4033  5.8791
  145MPD2    H1 2261   4.586   2.270  17.709 -0.6029 -0.1829 -1.2658
  145MPD2    H2 2262   4.438   2.516  17.405  1.2539 -0.4851 -1.3574
  145MPD2    H3 2263   4.444   2.312  17.511 -0.0757 -1.6384  1.6410
  145MPD2     N 2264   0.037   2.416   0.052 -0.3304  0.3691 -0.2439
  145MPD2    H5 2265   0.017   2.322   0.083 -0.6368 -0.0609 -1.7556
  145MPD2    N1 2266   4.601   2.728  17.473 -0.0066 -0.4902 -0.6155
  145MPD2    H7 2267   4.669   2.795  17.508 -1.7948  1.5276 -1.0432
  146TMC2    C1 2268   2.540   2.353  12.611  0.1405  0.3875  0.1270
  146TMC2    C2 2269   2.442   2.373  12.520  0.7569 -0.0386  0.2932
  146TMC2    C3 2270   2.479   2.395  12.388 -0.5776  0.3085 -0.0292
  146TMC2    C4 2271   2.674   2.344  12.591  0.0521 -0.0914 -0.3726
  146TMC2    C5 2272   2.700   2.379  12.462  0.0266  0.3123  0.1839
  146TMC2    C6 2273   2.613   2.389  12.357  0.0827  0.0037  0.1981
  146TMC2     C 2274   2.506   2.329  12.750 -0.3818 -0.3810 -0.0007
  146TMC2     O 2275   2.394   2.362  12.787  0.5312 -0.3528 -0.3327
  146TMC2     H 2276   2.338   2.374  12.549  0.5928 -0.8058 -0.2948
  146TMC2    H1 2277   2.739   2.376  12.671  0.9529 -0.3441 -1.0027
  146TMC2    H2 2278   2.642   2.414  12.256 -2.0915  2.2116  0.1214
  146TMC2    C7 2279   2.837   2.358  12.418 -0.4608  0.3740  0.5584
  146TMC2    C8 2280   2.382   2.364  12.287  0.8481  0.1195 -0.4247
  146TMC2    O1 2281   2.877   2.411  12.316  0.0712 -0.5762  0.3993
  146TMC2    O2 2282   2.406   2.315  12.178 -0.4248  0.5649 -0.6645
  146TMC2    O5 2283   2.272   2.441  12.316  0.2752  0.1391  0.5848
  146TMC2    H5 2284   2.282   2.510  12.384  0.8482  0.2968  0.3460
  147MPD2     C 2285   3.302   2.185  12.470  0.3789 -0.1113 -0.2129
  147MPD2    C1 2286   3.227   2.107  12.545 -0.4977 -0.3808  0.8388
  147MPD2    C2 2287   3.094   2.153  12.567  0.2492  1.2330  0.4814
  147MPD2    C3 2288   3.044   2.265  12.504 -0.3376 -0.9328  0.6331
  147MPD2    C4 2289   3.129   2.348  12.431  0.1061  0.6260  0.2741
  147MPD2    C5 2290   3.254   2.302  12.408 -0.5113  0.1414  0.1532
  147MPD2     H 2291   3.028   2.104  12.637  2.1569 -0.2363  1.2503
  147MPD2    H1 2292   3.103   2.442  12.384 -1.0800 -0.3279 -0.9452
  147MPD2    H2 2293   3.404   2.157  12.443  0.4029 -0.1500 -0.0805
  147MPD2    H3 2294   3.324   2.363  12.351 -0.2832 -0.4034 -0.1484
  147MPD2     N 2295   2.903   2.276  12.503 -0.8267  1.0569 -0.3018
  147MPD2    H5 2296   2.846   2.220  12.564 -0.3762 -0.3777 -1.1977
  147MPD2    N1 2297   3.278   1.988  12.583  0.6509 -0.0866 -0.3100
  147MPD2    H7 2298   3.378   1.978  12.570  0.3390 -0.2176 -2.5462
  148TMC2    C1 2299   1.892   1.359  10.415  0.4377  0.9721  0.1300
  148TMC2    C2 2300   1.965   1.473  10.410 -0.3641  0.1046 -0.4181
  148TMC2    C3 2301   2.064   1.484  10.501  0.0812 -0.2698  0.4403
  148TMC2    C4 2302   1.906   1.260  10.510 -0.3249 -0.2405 -0.0028
  148TMC2    C5 2303   2.008   1.282  10.593  0.3207 -0.1862 -0.0008
  148TMC2    C6 2304   2.099   1.385  10.590 -0.0931  0.8556  0.6702
  148TMC2     C 2305   1.790   1.343  10.313  0.6419  0.8933 -0.2757
  148TMC2     O 2306   1.791   1.427  10.226 -0.0952 -0.2057  0.1329
  148TMC2     H 2307   1.946   1.547  10.333 -0.6648  0.6700  0.2007
  148TMC2    H1 2308   1.833   1.183  10.530 -2.0459  0.8515 -2.1217
  148TMC2    H2 2309   2.179   1.388  10.663  0.2809  0.2687  0.2867
  148TMC2    C7 2310   2.033   1.173  10.687  0.0039  0.2707 -0.0667
  148TMC2    C8 2311   2.091   1.626  10.517  0.5833  0.3152 -0.0038
  148TMC2    O1 2312   2.000   1.069  10.637 -1.1769 -0.6795 -0.1902
  148TMC2    O2 2313   2.048   1.710  10.441  0.8034  0.0348 -0.3966
  148TMC2    O5 2314   2.191   1.643  10.610  0.5289 -0.6917 -0.4091
  148TMC2    H5 2315   2.220   1.563  10.658 -0.9930 -0.1047  1.5229
  149MPD2     C 2316   1.537   1.277  10.166 -0.1575 -0.1723 -0.1911
  149MPD2    C1 2317   1.628   1.182  10.215  0.3211  1.0277 -0.3668
  149MPD2    C2 2318   1.622   1.052  10.173  0.7495  0.2028 -0.1345
  149MPD2    C3 2319   1.529   1.014  10.078 -0.6936  0.4655  0.7358
  149MPD2    C4 2320   1.447   1.109  10.034 -0.1953  0.2552 -0.1922
  149MPD2    C5 2321   1.440   1.237  10.083  0.4500  0.3548 -0.0993
  149MPD2     H 2322   1.684   0.977  10.222  0.2697  0.5929  1.0604
  149MPD2    H1 2323   1.358   1.077   9.980 -0.3806  0.5638 -0.0773
  149MPD2    H2 2324   1.539   1.382  10.196 -0.0344  0.3671 -2.0633
  149MPD2    H3 2325   1.355   1.291  10.044 -0.1789 -0.3968  0.2415
  149MPD2     N 2326   1.517   0.886  10.022  0.1477 -0.0217 -0.1382
  149MPD2    H5 2327   1.441   0.870   9.956  0.8527  0.7792 -1.1419
  149MPD2    N1 2328   1.737   1.217  10.294  0.0901 -0.0763 -0.3939
  149MPD2    H7 2329   1.778   1.137  10.343  0.3903 -0.2704 -0.9665
  150TMC2    C1 2330   4.414   4.377  12.137 -0.2862 -0.1604  0.7893
  150TMC2    C2 2331   4.461   4.319  12.255 -0.8970 -0.5208 -0.6939
  150TMC2    C3 2332   4.536   4.400  12.330  0.4396 -0.0052 -0.1156
  150TMC2    C4 2333   4.438   4.502  12.093  0.3344  0.2650 -0.0256
  150TMC2    C5 2334   4.511   4.577  12.180  0.2643 -0.0275 -0.0123
  150TMC2    C6 2335   4.564   4.535  12.302 -0.5027 -0.8688 -0.1623
  150TMC2     C 2336   4.298   4.304  12.078  0.0745 -0.0953 -0.0882
  150TMC2     O 2337   4.297   4.183  12.094  0.1333 -0.3072  0.1254
  150TMC2     H 2338   4.436   4.216  12.278  1.4819 -0.4351  2.2644
  150TMC2    H1 2339   4.413   4.529  11.991  0.5884 -0.7992 -0.3709
  150TMC2    H2 2340   4.621   4.595  12.372 -0.7736  0.2806 -0.9169
  150TMC2    C7 2341   4.560   4.703  12.132  0.0286  0.3192 -0.2860
  150TMC2    C8 2342   4.600   4.335  12.445  0.7948  0.1477  0.1382
  150TMC2    O1 2343   4.484   0.028  12.057 -0.2414  0.3058 -0.7254
  150TMC2    O2 2344   4.711   4.361  12.497 -0.3560 -0.0952 -0.0400
  150TMC2    O5 2345   4.506   4.258  12.500 -0.2274  0.0565 -0.2399
  150TMC2    H5 2346   4.416   4.276  12.466 -0.2287  0.4169 -0.0420
  151MPD2     C 2347   3.829   4.282  11.900  0.0913 -0.1788  0.1618
  151MPD2    C1 2348   3.852   4.416  11.928 -0.1972  0.3494 -0.0567
  151MPD2    C2 2349   3.981   4.448  11.968  0.2963  0.2103 -0.3676
  151MPD2    C3 2350   4.084   4.352  11.972  0.1161 -0.2604  0.0514
  151MPD2    C4 2351   4.055   4.220  11.933 -0.5945  0.0604  0.0873
  151MPD2    C5 2352   3.927   4.186  11.898 -1.5618  0.0889 -0.0269
  151MPD2     H 2353   4.002   4.547  12.005 -0.9164  0.9731 -1.7343
  151MPD2    H1 2354   4.124   4.138  11.943 -0.9965 -0.3546 -0.5349
  151MPD2    H2 2355   3.737   4.242  11.860 -1.4060  3.3224  0.1932
  151MPD2    H3 2356   3.899   4.087  11.866  0.3189 -0.1875 -0.7851
  151MPD2     N 2357   4.209   4.386  12.021  0.2535  0.1623 -1.0047
  151MPD2    H5 2358   4.228   4.485  12.035  1.0538  0.0599 -1.4028
  151MPD2    N1 2359   3.740   4.501  11.926 -0.2728  0.7424 -0.2727
  151MPD2    H7 2360   3.663   4.466  11.870 -0.5369  1.3753 -0.3000
  152TMC2    C1 2361   4.472   4.320  12.869 -0.2842  0.0656 -0.4137
  152TMC2    C2 2362   4.583   4.243  12.910  0.3866 -0.4266  0.9901
  152TMC2    C3 2363   4.708   4.298  12.902  0.2668  0.3347 -0.3360
  152TMC2    C4 2364   4.483   4.443  12.811 -0.1456  0.1572  0.9899
  152TMC2    C5 2365   4.609   4.496  12.801 -0.2717  0.4944 -0.0323
  152TMC2    C6 2366   4.720   4.423  12.845 -0.3997  1.1207  0.6220
  152TMC2     C 2367   4.341   4.297  12.937  0.6403  0.7885  0.1664
  152TMC2     O 2368   4.267   4.391  12.928 -0.5693 -0.0997 -0.1726
  152TMC2     H 2369   4.573   4.149  12.962  1.2704 -0.5297  0.9624
  152TMC2    H1 2370   4.397   4.501  12.781  0.2655  0.4801  0.4479
  152TMC2    H2 2371   0.084   4.466  12.842 -0.1028  0.4566  0.7731
  152TMC2    C7 2372   4.628   4.601  12.699  0.3328  0.5141 -0.7133
  152TMC2    C8 2373   0.081   4.252  12.985  0.0396 -0.5771  0.2010
  152TMC2    O1 2374   4.540   4.609  12.614  0.7099  0.1471  0.5575
  152TMC2    O2 2375   0.049   4.185  13.084 -0.4147  0.1358 -0.2127
  152TMC2    O5 2376   0.180   4.226  12.905  0.1638  1.0456  0.6246
  152TMC2    H5 2377   0.151   4.261  12.818 -1.6780  0.1329  0.8639
  153MPD2     C 2378   4.234   4.015  13.162 -0.2407 -0.2188 -0.1374
  153MPD2    C1 2379   4.234   4.136  13.105  0.2425  0.1632  0.2811
  153MPD2    C2 2380   4.128   4.220  13.147 -0.0029  0.2008  0.7161
  153MPD2    C3 2381   4.029   4.182  13.238  0.2211  0.3096 -0.1046
  153MPD2    C4 2382   4.034   4.049  13.279 -0.2252  0.1537 -0.5774
  153MPD2    C5 2383   4.138   3.972  13.248  0.6405 -0.4236  0.0651
  153MPD2     H 2384   4.121   4.320  13.106 -1.2527 -0.4326 -0.6258
  153MPD2    H1 2385   3.962   3.999  13.343 -0.4739 -0.6247 -1.4702
  153MPD2    H2 2386   4.297   3.939  13.117 -0.9091 -0.0987 -1.2864
  153MPD2    H3 2387   4.136   3.871  13.285 -1.8404 -0.0790  0.8787
  153MPD2     N 2388   3.911   4.259  13.267 -0.4016 -0.2402  0.3934
  153MPD2    H5 2389   3.905   4.355  13.234  0.6966 -0.4811 -0.4887
  153MPD2    N1 2390   4.336   4.173  13.003  0.1448 -0.9260 -0.0680
  153MPD2    H7 2391   4.412   4.106  12.992 -0.5777 -1.7173 -0.1871
  154TMC2    C1 2392   0.587   3.844   0.560 -0.3254  0.0677 -0.2931
  154TMC2    C2 2393   0.664   3.801   0.668 -0.7091  0.6830 -0.4301
  154TMC2    C3 2394   0.768   3.718   0.640 -0.3418  0.1522 -0.0077
  154TMC2    C4 2395   0.614   3.797   0.436  0.3753 -0.6708 -0.0589
  154TMC2    C5 2396   0.714   3.707   0.421 -0.1291 -0.2051  0.2653
  154TMC2    C6 2397   0.790   3.663   0.523 -0.2832 -0.1074  0.1004
  154TMC2     C 2398   0.528   3.978   0.575 -0.6830  1.0309  0.2109
  154TMC2     O 2399   0.544   4.027   0.688 -0.1877 -0.1457  0.0094
  154TMC2     H 2400   0.647   3.841   0.767 -0.1521 -0.3560  0.0838
  154TMC2    H1 2401   0.558   3.830   0.349 -0.3805  0.7567  0.9673
  154TMC2    H2 2402   0.863   3.584   0.513  0.0810  0.1474  0.7777
  154TMC2    C7 2403   0.741   3.640   0.298 -0.5472 -0.0511  0.3046
  154TMC2    C8 2404   0.850   3.671   0.747  0.0379 -0.1630 -0.1622
  154TMC2    O1 2405   0.791   3.532   0.311  0.0369  0.5962  0.5922
  154TMC2    O2 2406   0.880   3.552   0.754 -0.5340 -0.2959  0.6607
  154TMC2    O5 2407   0.880   3.768   0.831  0.2144  0.2928  0.2367
  154TMC2    H5 2408   0.855   3.855   0.795 -2.3711 -1.1402 -1.4294
  155MPD2     C 2409   0.276   4.133   0.353  0.4129 -0.5845  0.1208
  155MPD2    C1 2410   0.363   4.124   0.465  0.5165  0.8529  0.5973
  155MPD2    C2 2411   0.368   4.228   0.553 -0.2154  0.1982 -0.0581
  155MPD2    C3 2412   0.286   4.342   0.529  0.7602 -0.2769 -0.5967
  155MPD2    C4 2413   0.204   4.349   0.421  0.1912  0.3835 -0.3692
  155MPD2    C5 2414   0.196   4.244   0.336 -0.0996  0.6176  0.3889
  155MPD2     H 2415   0.432   4.231   0.640  1.4369  0.8117 -1.3100
  155MPD2    H1 2416   0.136   4.433   0.405 -0.1900  0.5399  2.0376
  155MPD2    H2 2417   0.256   4.049   0.288  2.7477 -1.1747  0.1566
  155MPD2    H3 2418   0.124   4.241   0.255 -0.3789  1.6112  0.5940
  155MPD2     N 2419   0.296   4.443   0.625 -0.6819 -0.1657  0.1000
  155MPD2    H5 2420   0.366   4.430   0.697  0.6962  0.8603 -1.0516
  155MPD2    N1 2421   0.444   4.009   0.474 -0.6442  0.5005  0.0233
  155MPD2    H7 2422   0.432   3.943   0.398 -3.4277  2.0947 -0.9158
  156TMC2    C1 2423   3.964   2.112  11.777  1.0066  0.5600  0.4024
  156TMC2    C2 2424   4.021   1.997  11.731 -0.0579 -0.1290 -0.4690
  156TMC2    C3 2425   4.042   1.992  11.601  0.0566 -0.7572 -0.1626
  156TMC2    C4 2426   3.944   2.224  11.703 -0.5595 -1.1227 -0.1427
  156TMC2    C5 2427   3.956   2.208  11.569 -0.0254  0.0692 -0.3626
  156TMC2    C6 2428   4.002   2.089  11.515  0.3476  0.0796  0.0551
  156TMC2     C 2429   3.929   2.110  11.923  0.1406 -0.0225 -0.0155
  156TMC2     O 2430   3.889   2.216  11.975  0.2388  0.0851  0.8778
  156TMC2     H 2431   4.029   1.904  11.785 -1.5276 -0.1703 -0.3060
  156TMC2    H1 2432   3.883   2.307  11.736  1.9162  0.3427  0.7147
  156TMC2    H2 2433   4.024   2.085  11.409 -1.4750  0.8562 -0.3532
  156TMC2    C7 2434   3.942   2.331  11.498  0.1489  0.2459 -0.2000
  156TMC2    C8 2435   4.079   1.858  11.552 -0.7360 -0.5958 -0.5034
  156TMC2    O1 2436   3.966   2.434  11.558  0.5999  0.2447 -0.2672
  156TMC2    O2 2437   4.027   1.758  11.591 -0.1120 -0.4958  0.3255
  156TMC2    O5 2438   4.147   1.870  11.437  0.2124  0.1809 -0.2517
  156TMC2    H5 2439   4.195   1.956  11.431  2.0767 -0.8134  0.6319
  157MPD2     C 2440   3.855   1.835  12.142  0.9248 -0.0450 -0.4222
  157MPD2    C1 2441   3.905   1.955  12.113 -0.2407  0.2864 -0.2165
  157MPD2    C2 2442   3.962   2.039  12.203  0.4681 -0.9085  0.0262
  157MPD2    C3 2443   3.950   2.008  12.337  0.0054 -0.4193  0.4219
  157MPD2    C4 2444   3.883   1.895  12.380 -0.4769 -0.1756 -0.1920
  157MPD2    C5 2445   3.841   1.811  12.278  0.0438 -0.3561 -0.0275
  157MPD2     H 2446   4.014   2.127  12.167  0.9665 -1.5216 -0.7530
  157MPD2    H1 2447   3.870   1.865  12.483 -0.6069 -1.7441 -0.6585
  157MPD2    H2 2448   3.810   1.768  12.069  0.1044 -0.9911  0.9525
  157MPD2    H3 2449   3.808   1.716  12.317  2.0980 -1.4507 -0.9037
  157MPD2     N 2450   4.019   2.100  12.417  0.3169 -0.1541  0.2687
  157MPD2    H5 2451   4.069   2.173  12.369  2.1155 -2.1730 -0.9075
  157MPD2    N1 2452   3.923   1.981  11.972 -0.8825 -0.7141 -0.1239
  157MPD2    H7 2453   3.907   1.905  11.906 -2.1901 -1.1240  0.6544
  158TMC2    C1 2454   4.494   1.408  13.228  0.3515  0.0793  0.0371
  158TMC2    C2 2455   4.506   1.531  13.181  0.1454 -0.0386  0.1044
  158TMC2    C3 2456   4.423   1.561  13.076  0.8934  0.4110  0.1372
  158TMC2    C4 2457   4.392   1.320  13.189  0.2946  0.4381  0.0782
  158TMC2    C5 2458   4.307   1.362  13.093 -0.7791  0.2857  0.3983
  158TMC2    C6 2459   4.325   1.484  13.030 -0.3611  0.6648  0.4004
  158TMC2     C 2460   4.553   1.391  13.360 -0.9023 -0.5930 -0.0303
  158TMC2     O 2461   4.630   1.477  13.390 -0.5307 -0.2198  0.2534
  158TMC2     H 2462   4.579   1.601  13.220  1.0973 -0.9045 -0.1399
  158TMC2    H1 2463   4.378   1.228  13.244  2.3279 -0.7350 -1.3811
  158TMC2    H2 2464   4.259   1.525  12.955 -2.1013  1.5511  2.4021
  158TMC2    C7 2465   4.206   1.272  13.036 -0.2422 -0.0014 -0.4139
  158TMC2    C8 2466   4.458   1.677  12.997  0.3063  0.4750  0.6462
  158TMC2    O1 2467   4.145   1.310  12.938  0.1527  0.4675  0.1107
  158TMC2    O2 2468   4.510   1.771  13.044 -0.0314 -0.5660 -0.0903
  158TMC2    O5 2469   4.445   1.649  12.867  0.9695 -0.0594 -0.0575
  158TMC2    H5 2470   4.402   1.564  12.844 -0.0713  0.2887  0.6073
  159MPD2     C 2471   4.606   1.203  13.835  0.4706 -0.2585 -0.1773
  159MPD2    C1 2472   4.523   1.114  13.762  0.2166  0.6765 -0.0976
  159MPD2    C2 2473   4.501   1.144  13.629  0.0422 -0.5645 -0.3914
  159MPD2    C3 2474   4.557   1.251  13.569 -0.1056 -0.2191  0.6181
  159MPD2    C4 2475   4.635   1.336  13.639 -0.3710  0.0434  0.5703
  159MPD2    C5 2476   4.654   1.314  13.771 -0.8759  0.1607  0.4836
  159MPD2     H 2477   4.423   1.098  13.569 -1.1240  3.2528 -1.7682
  159MPD2    H1 2478   4.679   1.430  13.606  0.1755 -1.2521 -2.4710
  159MPD2    H2 2479   4.620   1.184  13.941  0.3032 -1.7802 -0.4292
  159MPD2    H3 2480   4.719   1.383  13.824 -2.0541  1.4607  0.2523
  159MPD2     N 2481   4.532   1.273  13.428  0.2631 -0.2623 -0.2099
  159MPD2    H5 2482   4.468   1.206  13.387 -0.6485  2.2096 -2.8567
  159MPD2    N1 2483   4.477   1.001  13.830 -0.7313  0.0778  0.2013
  159MPD2    H7 2484   4.495   0.989  13.929 -2.6738  1.0491  0.6867
  160TMC2    C1 2485   3.837   2.898   1.130  1.3434 -0.2363  0.7604
  160TMC2    C2 2486   3.851   2.796   1.213  0.0921 -0.5270 -0.1631
  160TMC2    C3 2487   3.917   2.681   1.169  0.1929  0.6854  0.1399
  160TMC2    C4 2488   3.889   2.899   1.002 -0.5156  0.7055 -0.7454
  160TMC2    C5 2489   3.969   2.797   0.963 -0.2124 -0.0541  0.3437
  160TMC2    C6 2490   3.983   2.682   1.048  0.3489 -0.7783 -0.4679
  160TMC2     C 2491   3.770   3.015   1.185  0.3687  0.4726  0.1504
  160TMC2     O 2492   3.746   3.017   1.306 -0.1918  0.4628  0.0042
  160TMC2     H 2493   3.818   2.802   1.316  1.9208  1.0941  0.3473
  160TMC2    H1 2494   3.870   2.983   0.936 -0.6318  1.7498  0.6092
  160TMC2    H2 2495   4.024   2.586   1.017  0.0789 -0.9377 -0.3315
  160TMC2    C7 2496   3.999   2.788   0.820  0.2033  0.5165  0.7286
  160TMC2    C8 2497   3.956   2.575   1.262  0.5237  0.3444 -0.3814
  160TMC2    O1 2498   3.978   2.685   0.757 -0.1386 -0.1424 -0.5397
  160TMC2    O2 2499   4.054   2.502   1.248  0.3984  0.5582 -0.7070
  160TMC2    O5 2500   3.848   2.557   1.342  0.0211 -0.1898  0.3692
  160TMC2    H5 2501   3.779   2.624   1.323 -1.1654 -0.7925  2.6191
  161MPD2     C 2502   3.775   3.299   1.254 -0.4274  0.4130  0.0922
  161MPD2    C1 2503   3.724   3.250   1.135  0.1829  0.4489 -0.2293
  161MPD2    C2 2504   3.642   3.332   1.060  0.0166  0.6573 -0.7634
  161MPD2    C3 2505   3.613   3.462   1.101  0.9271 -0.4924  0.0995
  161MPD2    C4 2506   3.683   3.516   1.207 -0.6425  0.1831 -0.0160
  161MPD2    C5 2507   3.766   3.433   1.287 -0.1318  0.0149 -0.0824
  161MPD2     H 2508   3.588   3.281   0.980 -2.3318 -0.1301  1.3119
  161MPD2    H1 2509   3.668   3.613   1.251 -1.7543 -0.8543  1.8818
  161MPD2    H2 2510   3.836   3.237   1.320  0.3722  0.6181 -0.4472
  161MPD2    H3 2511   3.811   3.472   1.378 -0.3007  0.8141 -0.3434
  161MPD2     N 2512   3.515   3.548   1.036 -0.4659  0.8416 -0.4999
  161MPD2    H5 2513   3.512   3.642   1.073  2.4201  0.7282  0.0400
  161MPD2    N1 2514   3.739   3.114   1.097  0.4636 -0.7220 -0.0796
  161MPD2    H7 2515   3.738   3.090   0.998 -3.3256 -0.3995 -0.1203
  162TMC2    C1 2516   2.083   0.572   1.274 -0.3984 -0.3859 -0.5421
  162TMC2    C2 2517   1.952   0.625   1.286  0.8154  0.6852  0.2277
  162TMC2    C3 2518   1.895   0.629   1.410 -0.0759  0.7224 -0.1302
  162TMC2    C4 2519   2.160   0.544   1.386  0.0403  0.0484  0.3468
  162TMC2    C5 2520   2.097   0.566   1.510 -0.1161 -0.8855 -0.1611
  162TMC2    C6 2521   1.966   0.613   1.524 -0.8992  0.1180 -0.1567
  162TMC2     C 2522   2.138   0.547   1.140  0.1443 -0.3791 -0.1228
  162TMC2     O 2523   2.062   0.561   1.045  0.2443  0.1882  0.7335
  162TMC2     H 2524   1.891   0.641   1.198 -0.7738  1.5884  1.4953
  162TMC2    H1 2525   2.258   0.500   1.374  0.1795  0.2695  0.6909
  162TMC2    H2 2526   1.916   0.608   1.620  0.3229  0.5789  0.5072
  162TMC2    C7 2527   2.147   0.492   1.626  0.4876  0.5054  0.5664
  162TMC2    C8 2528   1.756   0.663   1.432  0.2436 -0.0458 -0.5236
  162TMC2    O1 2529   2.092   0.515   1.737 -0.2030 -0.5036 -0.6794
  162TMC2    O2 2530   1.687   0.722   1.344 -0.7338  0.3153  0.5082
  162TMC2    O5 2531   1.713   0.547   1.473  0.2571 -0.3859  0.1404
  162TMC2    H5 2532   1.771   0.496   1.533 -1.5268 -2.4556  0.1391
  163MPD2     C 2533   2.502   0.538   0.776 -0.0164 -0.1106  0.8508
  163MPD2    C1 2534   2.365   0.565   0.773  0.4333  0.6666 -0.2838
  163MPD2    C2 2535   2.296   0.561   0.892 -0.5237  0.4822 -0.2961
  163MPD2    C3 2536   2.353   0.540   1.017 -0.2521  0.5599 -0.1563
  163MPD2    C4 2537   2.482   0.524   1.019 -0.3013 -1.2213  0.3965
  163MPD2    C5 2538   2.561   0.520   0.901 -0.3964  0.8239 -1.4161
  163MPD2     H 2539   2.189   0.570   0.879 -0.4695 -1.3621 -2.0759
  163MPD2    H1 2540   2.540   0.512   1.110 -1.8243  0.0214  1.5150
  163MPD2    H2 2541   2.567   0.529   0.690 -1.6450 -1.6141 -0.2175
  163MPD2    H3 2542   2.667   0.499   0.900 -0.6459 -0.4932 -0.4185
  163MPD2     N 2543   2.278   0.539   1.137  0.9045  0.8192  0.5118
  163MPD2    H5 2544   2.329   0.538   1.224  1.9480 -0.0178 -0.1058
  163MPD2    N1 2545   2.314   0.579   0.647 -0.2911  0.0915  0.7527
  163MPD2    H7 2546   2.374   0.543   0.574 -0.1648  0.7033  0.5499
  164TMC2    C1 2547   2.773   1.537  10.542  0.9947  0.1047  0.5542
  164TMC2    C2 2548   2.884   1.559  10.621 -0.1480 -0.1554 -0.2403
  164TMC2    C3 2549   2.869   1.587  10.752 -0.3013 -0.3051 -0.7490
  164TMC2    C4 2550   2.644   1.537  10.595 -0.3711 -0.6318  0.0112
  164TMC2    C5 2551   2.635   1.554  10.729 -0.1360 -0.0566 -0.5457
  164TMC2    C6 2552   2.746   1.581  10.810 -0.0134 -0.0975  0.4622
  164TMC2     C 2553   2.791   1.472  10.417  0.1279  0.1081  0.6149
  164TMC2     O 2554   2.695   1.406  10.381  0.4013  0.0259  0.0548
  164TMC2     H 2555   2.987   1.552  10.586  0.0946  1.1048  0.1836
  164TMC2    H1 2556   2.558   1.516  10.532 -0.2993 -0.4420 -0.1490
  164TMC2    H2 2557   2.738   1.609  10.914 -2.0706  0.0924  0.2650
  164TMC2    C7 2558   2.500   1.568  10.781  0.4662 -0.0628  0.2355
  164TMC2    C8 2559   2.991   1.610  10.834 -0.3034  0.0064 -0.8208
  164TMC2    O1 2560   2.404   1.521  10.717 -0.3307 -0.1294  0.4632
  164TMC2    O2 2561   3.095   1.558  10.800 -0.5181 -0.2210 -0.4943
  164TMC2    O5 2562   2.972   1.734  10.893 -0.1889  0.2496 -0.0734
  164TMC2    H5 2563   2.881   1.771  10.895 -1.1089 -1.9897 -0.2869
  165TMC2    C1 2564   3.600   2.575   0.326  0.1775  0.3090 -0.0477
  165TMC2    C2 2565   3.545   2.493   0.231 -0.2400 -0.5211 -0.8172
  165TMC2    C3 2566   3.631   2.411   0.160  0.1826  0.7661 -0.1055
  165TMC2    C4 2567   3.737   2.580   0.341  0.1866  0.4515  0.3342
  165TMC2    C5 2568   3.817   2.494   0.273 -0.6938  0.4760  0.4755
  165TMC2    C6 2569   3.767   2.415   0.169 -0.1793 -0.0665 -0.4734
  165TMC2     C 2570   3.517   2.650   0.427  0.6267  0.1472 -1.0878
  165TMC2     O 2571   3.574   2.703   0.523 -0.0819  0.1691 -0.2037
  165TMC2     H 2572   3.440   2.485   0.204 -1.1074  2.5557  1.7636
  165TMC2    H1 2573   3.780   2.635   0.424 -1.6688 -0.2480  1.7571
  165TMC2    H2 2574   3.829   2.341   0.119  1.3209  0.3406  0.7652
  165TMC2    C7 2575   3.959   2.523   0.286  0.5062  0.7097  0.3160
  165TMC2    C8 2576   3.579   2.341   0.042  0.1522 -1.2649 -0.0802
  165TMC2    O1 2577   4.011   2.552   0.395 -0.0336  0.3223 -0.5213
  165TMC2    O2 2578   3.465   2.294   0.036 -0.3047  0.2981 -0.7473
  165TMC2    O5 2579   3.651   2.397  17.681  0.0255 -0.4081  0.2088
  165TMC2    H5 2580   3.719   2.462  17.710 -0.6790 -1.2660  3.8153
  166MPD2     C 2581   3.084   2.656   0.701  0.2647 -0.3239 -0.1257
  166MPD2    C1 2582   3.212   2.656   0.747 -0.3272 -0.0484 -0.2467
  166MPD2    C2 2583   3.312   2.650   0.654  0.1067  0.2605  0.1356
  166MPD2    C3 2584   3.289   2.646   0.514  0.1024 -0.7696 -0.5432
  166MPD2    C4 2585   3.158   2.637   0.476  0.1472 -0.0981  1.2458
  166MPD2    C5 2586   3.054   2.647   0.567 -0.1505  0.2874  0.1535
  166MPD2     H 2587   3.413   2.649   0.693  0.1140 -1.5702  0.0358
  166MPD2    H1 2588   3.128   2.622   0.373  1.2423 -1.2838  1.0924
  166MPD2    H2 2589   2.998   2.654   0.767  0.5434  0.5566  0.2712
  166MPD2    H3 2590   2.947   2.643   0.550 -0.0235  1.1761 -0.8351
  166MPD2     N 2591   3.381   2.619   0.411  0.1639  0.3851  0.1255
  166MPD2    H5 2592   3.352   2.589   0.318 -1.1839 -0.7448  0.9076
  166MPD2    N1 2593   3.227   2.628   0.887 -0.5434 -0.3326  0.3624
  166MPD2    H7 2594   3.140   2.599   0.931 -0.3871 -0.5209  0.5431
  167TMC2    C1 2595   1.879   1.583  12.989  0.3621 -0.0148 -0.9845
  167TMC2    C2 2596   1.853   1.650  13.112 -1.1988 -0.8764  0.1478
  167TMC2    C3 2597   1.837   1.565  13.224  0.0876 -0.2132  0.9700
  167TMC2    C4 2598   1.899   1.444  12.986 -0.1596 -0.1232  0.0763
  167TMC2    C5 2599   1.882   1.368  13.101  0.1141  0.2241 -0.1051
  167TMC2    C6 2600   1.841   1.430  13.217  0.0531  1.2731  0.4035
  167TMC2     C 2601   1.834   1.654  12.867  0.0505  0.7008 -0.2500
  167TMC2     O 2602   1.779   1.761  12.881  0.0054  1.0269 -0.1989
  167TMC2     H 2603   1.819   1.753  13.110  0.1982 -0.4406 -1.0038
  167TMC2    H1 2604   1.898   1.395  12.890 -0.5649  0.6370 -0.3091
  167TMC2    H2 2605   1.835   1.371  13.308 -1.2972  1.3392  0.3539
  167TMC2    C7 2606   1.873   1.222  13.087  0.8566  0.0929  0.1647
  167TMC2    C8 2607   1.802   1.620  13.349 -0.3494  0.5991  0.2055
  167TMC2    O1 2608   1.812   1.162  13.175  0.0119 -0.1724 -0.4870
  167TMC2    O2 2609   1.768   1.544  13.440 -0.5104 -0.5425  0.7576
  167TMC2    O5 2610   1.825   1.757  13.352 -0.9709  0.2382 -0.4911
  167TMC2    H5 2611   1.868   1.798  13.274 -2.6787  0.6019 -1.2572
  168MPD2     C 2612   1.720   1.741  12.594 -0.3073  0.5416 -0.2303
  168MPD2    C1 2613   1.813   1.631  12.612 -0.1083 -0.3950 -1.0379
  168MPD2    C2 2614   1.872   1.575  12.500  0.0009  0.4292  0.0544
  168MPD2    C3 2615   1.849   1.637  12.376  0.0060 -0.1756  0.4390
  168MPD2    C4 2616   1.752   1.737  12.358 -0.0563 -0.0975 -0.7514
  168MPD2    C5 2617   1.685   1.784  12.466  0.1811 -0.3545 -0.3814
  168MPD2     H 2618   1.939   1.490  12.506 -0.1620  0.0948 -2.7098
  168MPD2    H1 2619   1.723   1.764  12.257  0.2728  2.5338 -0.1483
  168MPD2    H2 2620   1.678   1.793  12.678 -2.2899 -2.6991  0.7556
  168MPD2    H3 2621   1.610   1.861  12.458 -0.0999 -0.7127 -1.1354
  168MPD2     N 2622   1.898   1.584  12.257  0.3009  0.0169  0.1096
  168MPD2    H5 2623   1.850   1.620  12.175  0.1076 -0.0750  0.1844
  168MPD2    N1 2624   1.854   1.587  12.742 -0.1769 -0.9631  0.3727
  168MPD2    H7 2625   1.918   1.510  12.730  0.6946 -0.2111  0.2475
  169MPD1     C 2626   3.351   0.976  10.005 -0.2132  0.6885 -0.6840
  169MPD1    C1 2627   3.453   0.996   9.907 -0.5331 -0.3938  0.0803
  169MPD1    C2 2628   3.581   0.944   9.916 -0.4253  0.1286 -0.6233
  169MPD1    C3 2629   3.611   0.866  10.033 -0.1499 -0.3342  0.1230
  169MPD1    C4 2630   3.515   0.857  10.131 -0.9206 -0.1010 -0.0606
  169MPD1    C5 2631   3.387   0.908  10.115 -0.1735  0.0263 -0.8366
  169MPD1     H 2632   3.652   0.948   9.834  0.3350  0.3899  0.0521
  169MPD1    H1 2633   3.525   0.814  10.230 -0.0023  0.8860  0.2803
  169MPD1    H2 2634   3.252   1.019   9.993  0.2728  1.6338 -1.3157
  169MPD1    H3 2635   3.321   0.892  10.199  1.6110 -0.0059  0.5454
  169MPD1     N 2636   3.730   0.783  10.036 -0.0909  0.1383 -0.0751
  169MPD1    H5 2637   3.798   0.809   9.966  0.0066 -0.5427 -0.2301
  169MPD1    N1 2638   3.411   1.061   9.790  0.6599  0.5592  0.3665
  169MPD1    H6 2639   3.353   1.142   9.810 -0.7072 -0.7869  1.7967
  169MPD1    H7 2640   3.494   1.097   9.743  0.3894 -0.3929 -0.8539
  170MPD1     C 2641   3.098   2.264  12.899 -0.4643 -0.1600 -1.0463
  170MPD1    C1 2642   3.087   2.395  12.851  0.4254 -0.4933 -0.0372
  170MPD1    C2 2643   3.047   2.489  12.941  0.0555 -0.0429  0.5315
  170MPD1    C3 2644   2.987   2.459  13.064  0.0739 -0.2427  0.0574
  170MPD1    C4 2645   2.983   2.319  13.104 -0.3417 -0.8591  0.0614
  170MPD1    C5 2646   3.046   2.229  13.023  0.6176  0.6341  0.1094
  170MPD1     H 2647   3.056   2.595  12.920 -0.0098 -0.4892 -1.6988
  170MPD1    H1 2648   2.942   2.282  13.197 -0.6823 -0.5901  0.0172
  170MPD1    H2 2649   3.138   2.185  12.836 -0.8658 -1.1506 -0.0646
  170MPD1    H3 2650   3.061   2.124  13.045  0.6385  0.4437 -0.8075
  170MPD1     N 2651   2.939   2.565  13.147  0.6447  0.4058  0.0096
  170MPD1    H5 2652   2.938   2.658  13.105  1.2809  0.5729  0.3607
  170MPD1    N1 2653   3.159   2.429  12.736 -0.4741 -0.2071  0.1753
  170MPD1    H6 2654   3.127   2.510  12.683 -0.2761 -0.1521  0.1396
  170MPD1    H7 2655   3.160   2.351  12.672 -1.4939 -0.9624  1.0830
  171MPD1     C 2656   1.035   3.955  15.438  0.6215 -0.4320  0.7395
  171MPD1    C1 2657   0.971   3.875  15.536  0.1062  0.6310  0.2038
  171MPD1    C2 2658   1.029   3.755  15.560 -0.1347  1.0568  0.4323
  171MPD1    C3 2659   1.146   3.706  15.495 -0.6289  0.0367  0.0400
  171MPD1    C4 2660   1.202   3.790  15.402  0.5731  0.4068  0.3159
  171MPD1    C5 2661   1.155   3.916  15.375  0.1641 -0.5483  0.1695
  171MPD1     H 2662   0.991   3.712  15.652 -1.0202 -1.0475 -0.9124
  171MPD1    H1 2663   1.299   3.763  15.362 -0.9597  0.1816 -3.2338
  171MPD1    H2 2664   0.989   4.045  15.399  0.6261 -0.9906 -0.5349
  171MPD1    H3 2665   1.205   3.973  15.298 -0.2897  2.1206  1.8408
  171MPD1     N 2666   1.207   3.590  15.534 -0.1488  0.7345 -0.0268
  171MPD1    H5 2667   1.302   3.580  15.501  0.3876 -0.5467  1.9136
  171MPD1    N1 2668   0.861   3.919  15.613  0.6968  0.0128 -0.5671
  171MPD1    H6 2669   0.840   3.851  15.686 -0.0324  0.2631 -0.5435
  171MPD1    H7 2670   0.880   4.007  15.660 -1.3007  0.0046  0.2373
  172MPD1     C 2671   0.790   3.082   0.687  0.6841  0.0143 -0.8554
  172MPD1    C1 2672   0.797   3.218   0.697 -0.7765 -0.9799 -0.0700
  172MPD1    C2 2673   0.699   3.285   0.613 -0.7804  0.1621 -0.1910
  172MPD1    C3 2674   0.604   3.217   0.543  0.2181  0.4576  0.0509
  172MPD1    C4 2675   0.612   3.079   0.540 -0.0100  0.2347  0.6414
  172MPD1    C5 2676   0.706   3.011   0.606  0.1498  0.5544 -0.1637
  172MPD1     H 2677   0.704   3.393   0.615 -1.2460  0.1726  0.4511
  172MPD1    H1 2678   0.539   3.024   0.481 -0.0145  1.5032 -0.5592
  172MPD1    H2 2679   0.865   3.021   0.736 -1.6457 -2.5413 -0.4543
  172MPD1    H3 2680   0.716   2.903   0.602 -3.1207  0.1596  2.9735
  172MPD1     N 2681   0.509   3.277   0.455  0.1349  0.1331 -0.2016
  172MPD1    H5 2682   0.448   3.213   0.405  0.1227  0.5307 -0.6959
  172MPD1    N1 2683   0.911   3.280   0.750  0.1447 -0.3777  0.0616
  172MPD1    H6 2684   0.903   3.375   0.785 -0.3891 -0.4363  0.1027
  172MPD1    H7 2685   0.955   3.225   0.823 -1.5215 -2.1853 -0.2886
  173MPD1     C 2686   2.665   3.668  14.211 -0.3552 -0.2973 -0.0316
  173MPD1    C1 2687   2.536   3.706  14.217  0.6357 -0.4127 -0.3574
  173MPD1    C2 2688   2.435   3.611  14.186 -0.0593  0.1348 -0.0305
  173MPD1    C3 2689   2.470   3.491  14.121  0.2473  0.8821 -0.4711
  173MPD1    C4 2690   2.600   3.464  14.094 -0.8306 -0.5710 -0.1958
  173MPD1    C5 2691   2.692   3.554  14.136  0.5343 -1.0961 -0.3270
  173MPD1     H 2692   2.330   3.630  14.205 -0.0031  0.6574 -0.2473
  173MPD1    H1 2693   2.626   3.374  14.040  1.8284  0.1025  0.0059
  173MPD1    H2 2694   2.751   3.717  14.254 -0.4924 -0.5134  0.4845
  173MPD1    H3 2695   2.794   3.518  14.134  0.7725 -0.4670  0.5027
  173MPD1     N 2696   2.367   3.403  14.083  0.0751 -0.3993 -0.5467
  173MPD1    H5 2697   2.275   3.445  14.087 -1.3639 -3.5487 -0.5020
  173MPD1    N1 2698   2.505   3.819  14.292  0.3546 -0.1610 -0.0379
  173MPD1    H6 2699   2.582   3.884  14.279  1.5923 -1.9614 -1.7161
  173MPD1    H7 2700   2.426   3.876  14.262  0.3160 -1.2713 -2.0732
  174MPD1     C 2701   1.941   2.514  13.597  0.2742 -0.0831 -0.2047
  174MPD1    C1 2702   1.919   2.645  13.555 -0.2415 -0.1255 -0.4012
  174MPD1    C2 2703   1.990   2.739  13.620  0.2277  0.9438 -0.7608
  174MPD1    C3 2704   2.054   2.714  13.741 -0.1541  0.0519 -0.1881
  174MPD1    C4 2705   2.059   2.590  13.791  0.5929 -0.3841 -0.3263
  174MPD1    C5 2706   2.018   2.483  13.708  0.4962 -0.7034  0.2177
  174MPD1     H 2707   1.991   2.841  13.583  2.7978  0.3169 -2.3617
  174MPD1    H1 2708   2.110   2.583  13.886  1.3489  2.1577 -0.5333
  174MPD1    H2 2709   1.897   2.428  13.547 -0.5761 -0.6407  1.4674
  174MPD1    H3 2710   2.036   2.377  13.725  3.5639 -0.1146  0.6361
  174MPD1     N 2711   2.108   2.816  13.823  0.6432 -0.8256  0.1569
  174MPD1    H5 2712   2.129   2.792  13.920  0.2555  0.6170  0.6073
  174MPD1    N1 2713   1.860   2.669  13.431 -0.0839 -0.3944  0.1662
  174MPD1    H6 2714   1.783   2.605  13.409 -0.6704 -0.1047  1.3690
  174MPD1    H7 2715   1.829   2.765  13.416  0.1443 -0.0695  1.7723
  175MPD1     C 2716   0.711   3.985  15.099 -0.2532 -0.6204  0.3291
  175MPD1    C1 2717   0.585   4.043  15.079 -0.6915 -0.1822  0.4449
  175MPD1    C2 2718   0.478   4.010  15.164  0.1436  0.3461  0.0420
  175MPD1    C3 2719   0.505   3.931  15.274  0.1628  0.7206  0.6470
  175MPD1    C4 2720   0.631   3.891  15.300 -0.2558 -0.5350  0.3060
  175MPD1    C5 2721   0.729   3.911  15.213 -0.2266 -0.1501  0.1003
  175MPD1     H 2722   0.374   4.036  15.151 -0.4528 -2.2109 -0.1736
  175MPD1    H1 2723   0.652   3.826  15.384 -2.1315  0.2270  1.3821
  175MPD1    H2 2724   0.792   4.006  15.030 -2.5758  0.4517 -2.0391
  175MPD1    H3 2725   0.829   3.875  15.229 -0.7831 -2.2095 -1.0816
  175MPD1     N 2726   0.407   3.880  15.369  0.0401  0.8941 -0.3442
  175MPD1    H5 2727   0.449   3.849  15.456  1.1355  0.0761 -1.1538
  175MPD1    N1 2728   0.571   4.122  14.968  0.2923 -0.3024  0.1177
  175MPD1    H6 2729   0.652   4.181  14.948  2.2192 -2.7962  0.5270
  175MPD1    H7 2730   0.484   4.175  14.961  0.1927 -0.3203  1.2341
  176MPD1     C 2731   2.066   0.756  16.679 -0.0806 -0.5644 -0.3195
  176MPD1    C1 2732   2.072   0.876  16.617 -0.0363  0.5860 -0.4238
  176MPD1    C2 2733   2.022   0.992  16.682 -0.0803  0.1841  0.5688
  176MPD1    C3 2734   1.972   0.984  16.807  0.3280 -0.3607 -0.7195
  176MPD1    C4 2735   1.971   0.863  16.875 -0.1029  0.1181  0.2264
  176MPD1    C5 2736   2.018   0.750  16.813  0.3383  0.2349  0.2540
  176MPD1     H 2737   2.042   1.085  16.630 -0.7223 -0.2644 -0.4785
  176MPD1    H1 2738   1.947   0.848  16.979  0.7399  1.5504  0.6258
  176MPD1    H2 2739   2.102   0.662  16.637 -2.1766 -0.4592 -2.3748
  176MPD1    H3 2740   2.037   0.667  16.881  1.6931 -0.0438 -0.4741
  176MPD1     N 2741   1.926   1.103  16.869 -0.4375  0.1839 -0.3018
  176MPD1    H5 2742   1.924   1.178  16.801  0.7512  0.0821 -0.4483
  176MPD1    N1 2743   2.149   0.890  16.498 -0.2764  0.5643  1.0311
  176MPD1    H6 2744   2.097   0.952  16.436  1.6489  0.1791 -0.9427
  176MPD1    H7 2745   2.159   0.797  16.458  0.1845  1.8591 -1.8618
  177MPD1     C 2746   0.698   1.474   9.983  0.5388  0.4541 -0.3553
  177MPD1    C1 2747   0.585   1.398  10.010  0.1401  0.3382 -0.2511
  177MPD1    C2 2748   0.483   1.385   9.912 -0.4444 -0.2016  0.5123
  177MPD1    C3 2749   0.474   1.486   9.815  0.6291  0.5438 -0.3120
  177MPD1    C4 2750   0.574   1.575   9.809 -0.3890 -0.5969  0.6496
  177MPD1    C5 2751   0.690   1.554   9.875  0.6573 -0.3721  0.0942
  177MPD1     H 2752   0.412   1.304   9.924 -2.4174  1.1327 -2.1788
  177MPD1    H1 2753   0.579   1.656   9.738 -0.0206 -0.6376  0.6311
  177MPD1    H2 2754   0.790   1.481  10.040  0.1592 -1.8544  0.5412
  177MPD1    H3 2755   0.773   1.617   9.845  0.7794 -0.5571  0.0429
  177MPD1     N 2756   0.363   1.483   9.725  0.0924  0.5241  0.3956
  177MPD1    H5 2757   0.296   1.413   9.755 -0.6718  1.1520  0.1730
  177MPD1    N1 2758   0.601   1.308  10.122  0.0971  0.1767 -0.2172
  177MPD1    H6 2759   0.512   1.273  10.157  1.2905 -2.1448  0.4810
  177MPD1    H7 2760   0.648   1.337  10.208  1.0676  0.1807 -0.7554
  178MPD1     C 2761   2.634   1.214   0.270 -0.0603  0.1026  0.8716
  178MPD1    C1 2762   2.765   1.239   0.255 -0.3358  0.3036 -0.8941
  178MPD1    C2 2763   2.801   1.334   0.164 -0.0436  0.3174  0.6633
  178MPD1    C3 2764   2.712   1.395   0.085  0.1279 -0.0941  0.7516
  178MPD1    C4 2765   2.579   1.384   0.117 -0.4063  0.5388  0.8335
  178MPD1    C5 2766   2.537   1.288   0.207 -0.2231  0.4151  0.3332
  178MPD1     H 2767   2.907   1.355   0.163  0.2915 -1.4332 -1.1964
  178MPD1    H1 2768   2.504   1.441   0.063 -0.1716 -1.3596 -1.5117
  178MPD1    H2 2769   2.599   1.135   0.336 -1.4585 -1.0085 -1.2367
  178MPD1    H3 2770   2.431   1.267   0.208  0.4465 -2.6306  2.9253
  178MPD1     N 2771   2.749   1.485  17.718 -0.3939 -0.5068 -0.1626
  178MPD1    H5 2772   2.666   1.515  17.669 -0.3069 -0.3588 -0.2172
  178MPD1    N1 2773   2.852   1.141   0.296  0.0896 -0.2850 -0.1890
  178MPD1    H6 2774   2.833   1.095   0.385 -3.7641 -3.2286 -2.5797
  178MPD1    H7 2775   2.948   1.176   0.301 -0.2283  0.4544  0.8460
  179MPD1     C 2776   1.699   0.771  16.064 -0.1572  0.0273  0.7814
  179MPD1    C1 2777   1.823   0.774  15.988 -0.8921 -0.1613 -0.2011
  179MPD1    C2 2778   1.870   0.660  15.923  0.2688 -0.5659  0.2550
  179MPD1    C3 2779   1.797   0.537  15.925  0.3423 -0.4493 -0.0157
  179MPD1    C4 2780   1.677   0.537  15.992 -0.6904  0.3634  0.0136
  179MPD1    C5 2781   1.628   0.650  16.058 -0.1586  0.2667  0.7618
  179MPD1     H 2782   1.974   0.665  15.891  1.2607 -0.2467  3.5918
  179MPD1    H1 2783   1.615   0.448  15.995 -2.0007  1.3541  2.5862
  179MPD1    H2 2784   1.647   0.858  16.103 -4.4411 -1.7193 -1.0731
  179MPD1    H3 2785   1.537   0.639  16.116 -0.7168  1.2377  0.0699
  179MPD1     N 2786   1.843   0.422  15.858  0.2649  0.4035 -0.5964
  179MPD1    H5 2787   1.779   0.344  15.847 -0.6927  0.9795  0.8813
  179MPD1    N1 2788   1.902   0.889  15.986 -0.0702 -0.3789  0.5749
  179MPD1    H6 2789   1.936   0.890  15.890  0.1762 -1.1759  0.6485
  179MPD1    H7 2790   1.857   0.974  16.018 -0.8301 -1.4411  2.3296
  180MPD1     C 2791   1.679   1.461  14.776 -0.2724  0.5900  0.2605
  180MPD1    C1 2792   1.796   1.523  14.770 -0.3173  0.3823 -0.4049
  180MPD1    C2 2793   1.872   1.505  14.658 -0.0127  0.1742 -0.0029
  180MPD1    C3 2794   1.824   1.453  14.542  0.3083 -0.5017  0.4406
  180MPD1    C4 2795   1.690   1.412  14.539 -0.6078  0.4038  0.5852
  180MPD1    C5 2796   1.623   1.412  14.662 -0.5805 -0.7910 -0.3633
  180MPD1     H 2797   1.975   1.534  14.673 -0.4290  1.6226  0.0583
  180MPD1    H1 2798   1.634   1.375  14.453 -1.2462  1.4373  0.5599
  180MPD1    H2 2799   1.615   1.470  14.863  2.2655  3.9709  1.7413
  180MPD1    H3 2800   1.528   1.360  14.665  0.1237 -2.1147 -0.8786
  180MPD1     N 2801   1.915   1.443  14.437 -0.3008 -0.0727  0.0814
  180MPD1    H5 2802   2.011   1.469  14.460 -0.8801 -1.2759  3.8345
  180MPD1    N1 2803   1.855   1.576  14.886  0.0697 -0.0228  0.3849
  180MPD1    H6 2804   1.932   1.641  14.876  0.7857 -0.9828 -0.3634
  180MPD1    H7 2805   1.794   1.603  14.963 -1.4900  0.5908 -1.0677
  181MPD1     C 2806   4.133   3.878  11.103 -0.1390  0.8929 -0.2539
  181MPD1    C1 2807   4.111   3.767  11.022  0.0249  0.1796 -0.1690
  181MPD1    C2 2808   4.210   3.743  10.933 -0.0095  0.2745 -0.5711
  181MPD1    C3 2809   4.321   3.819  10.910 -0.1159  0.5753 -0.2520
  181MPD1    C4 2810   4.334   3.930  10.988  0.2914 -0.4292  0.1334
  181MPD1    C5 2811   4.236   3.962  11.076 -0.4563  0.0106 -0.3199
  181MPD1     H 2812   4.191   3.647  10.886 -0.6855 -0.0144  0.2853
  181MPD1    H1 2813   4.418   3.998  10.984  0.6440 -0.8125  0.9812
  181MPD1    H2 2814   4.060   3.902  11.179 -0.4381 -0.0683 -0.2419
  181MPD1    H3 2815   4.258   4.051  11.134 -0.1193  1.1340 -2.1702
  181MPD1     N 2816   4.416   3.795  10.809  0.6718 -0.0937 -0.0109
  181MPD1    H5 2817   4.482   3.871  10.790 -1.6378  2.3017  1.6125
  181MPD1    N1 2818   4.014   3.672  11.039 -0.6966 -0.4187 -0.1880
  181MPD1    H6 2819   3.995   3.615  10.957 -0.6962 -0.6039 -0.0606
  181MPD1    H7 2820   3.929   3.705  11.085 -1.2468 -0.9544 -0.8153
  182MPD1     C 2821   4.423   0.979   0.022 -0.0215  0.0247 -0.2441
  182MPD1    C1 2822   4.536   1.009   0.104 -0.4209 -0.1947 -0.4243
  182MPD1    C2 2823   4.594   1.127   0.085  0.1359 -0.1111  0.2967
  182MPD1    C3 2824   4.537   1.227   0.001 -0.1557 -0.3788  1.0504
  182MPD1    C4 2825   4.415   1.200  17.671 -0.1676 -0.4355  0.3942
  182MPD1    C5 2826   4.351   1.080  17.693  0.0745 -0.2536 -0.0615
  182MPD1     H 2827   4.673   1.156   0.153  0.3028 -1.9490  0.8727
  182MPD1    H1 2828   4.366   1.278  17.614  1.4763 -1.1163 -1.9454
  182MPD1    H2 2829   4.386   0.877   0.026 -1.8244  0.4657 -4.9676
  182MPD1    H3 2830   4.263   1.048  17.639 -0.9473  0.9063  0.9258
  182MPD1     N 2831   4.586   1.363   0.002 -0.0949 -0.0857  0.4404
  182MPD1    H5 2832   4.533   1.430  17.685 -1.3701 -2.3287 -1.0286
  182MPD1    N1 2833   4.591   0.898   0.179  0.3507 -0.3963  0.3663
  182MPD1    H6 2834   4.520   0.829   0.203 -0.8273  0.4768 -0.5939
  182MPD1    H7 2835   4.633   0.932   0.265  0.8639 -0.2716  0.0720
  183MPD1     C 2836   4.683   2.126   8.221  0.4339  0.2263 -0.3842
  183MPD1    C1 2837   0.016   2.242   8.215 -0.0221 -0.4324 -0.9077
  183MPD1    C2 2838   4.700   2.352   8.287 -0.4986 -0.6666 -0.1610
  183MPD1    C3 2839   4.587   2.349   8.360  0.1686 -0.4546  1.0721
  183MPD1    C4 2840   4.535   2.224   8.389  0.2511 -0.1990 -0.3199
  183MPD1    C5 2841   4.584   2.119   8.317  0.3306 -0.6736  0.7507
  183MPD1     H 2842   0.009   2.448   8.263 -3.8265  0.8620 -0.1324
  183MPD1    H1 2843   4.450   2.208   8.454  0.4350  0.0437 -0.0230
  183MPD1    H2 2844   4.713   2.038   8.166 -2.9497  0.9307 -3.3101
  183MPD1    H3 2845   4.523   2.029   8.323 -0.5024 -0.0898  1.0634
  183MPD1     N 2846   4.551   2.455   8.443  0.2462  0.6036  0.0392
  183MPD1    H5 2847   4.597   2.543   8.422  3.0145 -0.6465  0.9159
  183MPD1    N1 2848   0.110   2.274   8.112  0.1500 -0.0975 -0.3438
  183MPD1    H6 2849   0.163   2.191   8.087  0.6293  0.2172 -0.3608
  183MPD1    H7 2850   0.176   2.348   8.133 -1.4311  1.1693  0.1316
  184MPD1     C 2851   4.148   1.443  10.422  0.9176 -0.4820  0.1051
  184MPD1    C1 2852   4.057   1.399  10.329  0.2968 -0.4258  0.1021
  184MPD1    C2 2853   4.099   1.388  10.198  0.0517 -0.1710 -0.1296
  184MPD1    C3 2854   4.218   1.440  10.146  0.0583 -0.0719 -0.0370
  184MPD1    C4 2855   4.305   1.493  10.241 -0.2198 -0.3140  0.1087
  184MPD1    C5 2856   4.276   1.480  10.379  0.0789  0.3183  0.2495
  184MPD1     H 2857   4.033   1.341  10.126 -0.5961  0.5933 -0.0386
  184MPD1    H1 2858   4.406   1.529  10.226  0.0083 -0.3172  1.6861
  184MPD1    H2 2859   4.124   1.443  10.527  2.7652 -3.0965  0.5117
  184MPD1    H3 2860   4.353   1.509  10.451  1.1802 -1.0281 -0.3754
  184MPD1     N 2861   4.252   1.442  10.007 -0.5151 -0.1579 -0.6262
  184MPD1    H5 2862   4.345   1.476   9.985 -0.4418  0.9176  1.2883
  184MPD1    N1 2863   3.936   1.334  10.369  0.5658  0.0595  0.1298
  184MPD1    H6 2864   3.858   1.364  10.311  0.7946  0.8962  0.2442
  184MPD1    H7 2865   3.916   1.349  10.468 -0.1228  1.4950 -0.2180
  185MPD1     C 2866   4.279   1.011   9.055 -0.4959  0.1779 -0.3485
  185MPD1    C1 2867   4.157   1.043   9.115  0.5335 -0.3521  0.0185
  185MPD1    C2 2868   4.150   1.144   9.208 -0.0615  0.5507 -0.7259
  185MPD1    C3 2869   4.270   1.202   9.253  0.8100 -0.0817  0.4130
  185MPD1    C4 2870   4.393   1.165   9.206 -0.2158 -0.4236  0.0577
  185MPD1    C5 2871   4.393   1.064   9.110 -0.0170  0.1934  0.0643
  185MPD1     H 2872   4.051   1.170   9.245 -0.5310 -1.4554 -0.6100
  185MPD1    H1 2873   4.485   1.205   9.246 -0.7197  2.0296 -1.2358
  185MPD1    H2 2874   4.291   0.939   8.975  0.3923 -1.7930  1.5721
  185MPD1    H3 2875   4.483   1.020   9.068 -1.2180 -1.7800 -0.4272
  185MPD1     N 2876   4.276   1.297   9.353  0.3376 -0.0385  0.3931
  185MPD1    H5 2877   4.370   1.332   9.366  0.3483 -0.0955  0.4636
  185MPD1    N1 2878   4.038   1.004   9.051 -0.1257 -0.1415 -0.6612
  185MPD1    H6 2879   4.044   0.919   8.996  1.5429 -0.4524 -0.0010
  185MPD1    H7 2880   3.954   1.002   9.108 -0.9014 -1.8726 -1.8663
  186MPD1     C 2881   2.142   0.515  16.107  0.3796 -0.2359 -0.1400
  186MPD1    C1 2882   2.228   0.624  16.107  0.5420  0.1653 -0.0606
  186MPD1    C2 2883   2.358   0.602  16.147 -0.1255 -0.4158 -0.4164
  186MPD1    C3 2884   2.405   0.475  16.177 -0.2667 -0.1500  0.4171
  186MPD1    C4 2885   2.313   0.373  16.197  1.4171 -0.5081 -0.3812
  186MPD1    C5 2886   2.185   0.397  16.156 -0.2575 -0.2884 -0.1062
  186MPD1     H 2887   2.427   0.685  16.157  0.2503 -0.9687  1.6324
  186MPD1    H1 2888   2.339   0.277  16.238 -3.2446 -1.1828  1.0543
  186MPD1    H2 2889   2.040   0.523  16.072  0.8787 -2.3052 -2.0517
  186MPD1    H3 2890   2.114   0.315  16.161  1.2530 -1.7344 -2.2562
  186MPD1     N 2891   2.536   0.454  16.218  0.4292  0.6739 -0.1755
  186MPD1    H5 2892   2.563   0.369  16.267 -1.1046 -1.0569 -2.3346
  186MPD1    N1 2893   2.177   0.748  16.076 -0.2193  0.0879 -0.2054
  186MPD1    H6 2894   2.235   0.818  16.030  1.6880 -0.5660  1.1572
  186MPD1    H7 2895   2.085   0.739  16.034 -1.0305  0.6117  1.4526
  187MPD1     C 2896   2.284   1.540  17.347 -0.2528  0.8180 -0.6797
  187MPD1    C1 2897   2.322   1.633  17.444  0.0532  0.3077  0.0013
  187MPD1    C2 2898   2.272   1.761  17.442  0.0342 -0.0063 -0.3757
  187MPD1    C3 2899   2.167   1.793  17.355 -0.6163  0.3459  0.4822
  187MPD1    C4 2900   2.123   1.703  17.266  0.3670 -0.6239  0.6764
  187MPD1    C5 2901   2.180   1.579  17.273  0.2751 -0.1091 -0.0866
  187MPD1     H 2902   2.302   1.830  17.520 -2.1490  1.8559 -1.1880
  187MPD1    H1 2903   2.030   1.704  17.210 -0.1064 -1.0653  1.4676
  187MPD1    H2 2904   2.333   1.443  17.339  0.0763  0.8308  1.0943
  187MPD1    H3 2905   2.133   1.498  17.217  2.0055 -0.9266 -0.3489
  187MPD1     N 2906   2.111   1.922  17.341  0.4549  0.9944 -0.3222
  187MPD1    H5 2907   2.038   1.924  17.271  0.9220  1.3868 -0.7902
  187MPD1    N1 2908   2.449   1.608  17.505 -0.1526  0.0621 -0.5368
  187MPD1    H6 2909   2.454   1.675  17.581  0.8948  2.0102 -2.3422
  187MPD1    H7 2910   2.466   1.513  17.540 -1.6389 -0.1162 -0.3190
  188MPD1     C 2911   1.753   2.742   9.919  0.4047  0.0487  0.3340
  188MPD1    C1 2912   1.893   2.724   9.924  0.1903  0.0331  0.8051
  188MPD1    C2 2913   1.938   2.594   9.953  0.0919 -0.6978  0.2198
  188MPD1    C3 2914   1.851   2.495  10.000  0.6438  0.8026 -0.0820
  188MPD1    C4 2915   1.715   2.520  10.009  0.3482  0.3562 -0.6892
  188MPD1    C5 2916   1.666   2.639   9.957  0.4982  0.2324 -0.3056
  188MPD1     H 2917   2.041   2.569   9.934  0.1432 -0.5129  0.2583
  188MPD1    H1 2918   1.644   2.440  10.026 -0.6392  1.6872  1.4800
  188MPD1    H2 2919   1.708   2.827   9.869  1.2469 -0.9027 -2.0601
  188MPD1    H3 2920   1.561   2.655   9.936  0.2790 -0.8689 -0.0501
  188MPD1     N 2921   1.892   2.363  10.005  0.0633  0.2600 -0.0666
  188MPD1    H5 2922   1.817   2.296  10.020 -0.2051  0.4609 -0.5183
  188MPD1    N1 2923   1.974   2.809   9.846 -0.3833  0.3217 -0.3022
  188MPD1    H6 2924   2.075   2.791   9.853 -0.2133  0.7324 -1.6834
  188MPD1    H7 2925   1.957   2.909   9.853  1.8621  0.6826  0.0603
  189MPD1     C 2926   3.591   3.002  17.639 -0.4417 -0.1028 -0.2651
  189MPD1    C1 2927   3.503   2.912  17.594  0.8354 -0.4902  0.5062
  189MPD1    C2 2928   3.371   2.957  17.574 -0.2234  0.2266  0.8246
  189MPD1    C3 2929   3.335   3.092  17.577 -0.0303 -0.3730  0.4434
  189MPD1    C4 2930   3.425   3.176  17.634  0.1584 -0.3247  1.0976
  189MPD1    C5 2931   3.553   3.133  17.660  0.1303 -0.6724 -0.0637
  189MPD1     H 2932   3.300   2.885  17.535  1.4065  0.2598 -2.1827
  189MPD1    H1 2933   3.403   3.277  17.666  1.9025 -0.2182  2.0158
  189MPD1    H2 2934   3.694   2.975  17.662  0.7532  3.5051 -1.2707
  189MPD1    H3 2935   3.633   3.203  17.682 -0.5113  0.0895 -0.1318
  189MPD1     N 2936   3.208   3.135  17.537  0.0519 -0.2835  0.3884
  189MPD1    H5 2937   3.141   3.067  17.503  2.0334 -0.7078 -2.7164
  189MPD1    N1 2938   3.554   2.784  17.571  0.6237 -0.2986  0.1124
  189MPD1    H6 2939   3.651   2.777  17.542  1.0107  0.3445  1.2564
  189MPD1    H7 2940   3.491   2.725  17.517  0.9679 -1.7621  1.3035
  190MPD1     C 2941   2.045   1.006  15.167  0.2839  0.3758  0.4938
  190MPD1    C1 2942   2.178   1.005  15.115 -1.1488  0.1567 -0.4184
  190MPD1    C2 2943   2.282   1.041  15.199 -0.0528  0.0971  1.1567
  190MPD1    C3 2944   2.255   1.098  15.326 -0.0560  0.0437 -0.1500
  190MPD1    C4 2945   2.124   1.088  15.375 -0.2179 -0.1778 -0.2429
  190MPD1    C5 2946   2.024   1.042  15.297 -0.6512 -0.0428 -0.1457
  190MPD1     H 2947   2.386   1.029  15.170 -0.5905 -0.2089 -0.6548
  190MPD1    H1 2948   2.085   1.121  15.471  0.1150  0.3397 -0.2908
  190MPD1    H2 2949   1.969   0.969  15.099  1.1155  3.0166 -1.8705
  190MPD1    H3 2950   1.922   1.034  15.334 -0.0517 -0.4633  1.4146
  190MPD1     N 2951   2.367   1.147  15.401 -0.2372  0.1348  0.1200
  190MPD1    H5 2952   2.458   1.131  15.360 -0.3728 -1.5042  0.4357
  190MPD1    N1 2953   2.203   0.973  14.982  0.1287  0.2245  0.0168
  190MPD1    H6 2954   2.290   1.012  14.948  0.1443  1.6725  1.7327
  190MPD1    H7 2955   2.123   0.997  14.924 -0.6609 -2.7142 -0.1327
  191MPD1     C 2956   1.655   4.052  12.541 -0.3289 -0.0260  0.1401
  191MPD1    C1 2957   1.674   4.179  12.499 -0.5838 -0.0874 -0.1563
  191MPD1    C2 2958   1.798   4.208  12.444  0.3080  0.2135 -0.6743
  191MPD1    C3 2959   1.896   4.109  12.415 -0.2112 -0.1668 -0.3358
  191MPD1    C4 2960   1.868   3.979  12.461  0.2686  0.5539 -0.6555
  191MPD1    C5 2961   1.746   3.956  12.515 -0.5616  0.1866 -0.4843
  191MPD1     H 2962   1.817   4.307  12.404  1.1857 -1.4347 -4.3000
  191MPD1    H1 2963   1.936   3.895  12.465  0.4982  0.7227 -0.9331
  191MPD1    H2 2964   1.571   4.024  12.604 -0.1775 -0.6494  0.0704
  191MPD1    H3 2965   1.728   3.851  12.537  1.0449 -0.5825 -2.7541
  191MPD1     N 2966   2.017   4.136  12.357 -0.1215  0.2993 -0.3219
  191MPD1    H5 2967   2.035   4.231  12.329  2.4175 -0.3072 -0.7247
  191MPD1    N1 2968   1.584   4.283  12.523 -0.5373 -0.0706 -0.3139
  191MPD1    H6 2969   1.617   4.369  12.479 -0.6957  0.0579 -0.1807
  191MPD1    H7 2970   1.567   4.298  12.622  0.4215  1.7566 -0.4212
  192MPD1     C 2971   2.301   4.622  11.545  0.2572  0.0487  0.4823
  192MPD1    C1 2972   2.205   4.640  11.642  0.3392 -0.1831 -0.3154
  192MPD1    C2 2973   2.216   4.564  11.759  0.7229  0.1992  0.2256
  192MPD1    C3 2974   2.304   4.454  11.772  0.4014  1.0800 -0.5103
  192MPD1    C4 2975   2.373   4.420  11.654 -0.4399  0.6744 -0.6998
  192MPD1    C5 2976   2.387   4.508  11.553 -0.6659  0.4045 -0.6139
  192MPD1     H 2977   2.156   4.594  11.844  1.0963 -0.2762  0.6564
  192MPD1    H1 2978   2.435   4.331  11.652 -1.6122 -0.1623  0.4576
  192MPD1    H2 2979   2.315   4.694  11.465  0.8195 -1.1806 -0.5219
  192MPD1    H3 2980   2.454   4.486  11.471  0.0671  1.6425 -0.3457
  192MPD1     N 2981   2.320   4.374  11.886 -0.6194  0.0306  0.4645
  192MPD1    H5 2982   2.370   4.287  11.873 -0.2502  0.8467 -3.5463
  192MPD1    N1 2983   2.117   0.012  11.628 -0.0205  0.2088 -0.0818
  192MPD1    H6 2984   2.097   0.037  11.531  1.2802 -0.3197 -0.4804
  192MPD1    H7 2985   2.037   4.731  11.689  0.0122 -0.0035 -0.0971
  193MPD1     C 2986   0.787   3.749  16.399  0.7130  0.0044 -0.2612
  193MPD1    C1 2987   0.899   3.682  16.350  0.1797 -0.0209  0.1086
  193MPD1    C2 2988   1.013   3.757  16.360 -0.4855 -0.0095  0.2760
  193MPD1    C3 2989   1.025   3.879  16.432  1.1214 -0.4553  0.2660
  193MPD1    C4 2990   0.908   3.942  16.479 -0.1709  0.5522  0.3508
  193MPD1    C5 2991   0.788   3.877  16.453 -0.3810  0.1342 -0.1834
  193MPD1     H 2992   1.103   3.707  16.326 -0.9237  0.1021 -1.0593
  193MPD1    H1 2993   0.908   4.033  16.536 -2.3314  2.5419 -2.7827
  193MPD1    H2 2994   0.688   3.709  16.382  0.3317  0.7131  0.3229
  193MPD1    H3 2995   0.695   3.928  16.473  0.1571  1.3814 -0.8779
  193MPD1     N 2996   1.150   3.945  16.453  0.7402  0.0792  0.1262
  193MPD1    H5 2997   1.144   4.031  16.507 -2.4248  0.1995 -0.4158
  193MPD1    N1 2998   0.897   3.559  16.291 -0.9396  0.1742  0.2721
  193MPD1    H6 2999   0.986   3.510  16.294  0.0703  1.8332 -2.6948
  193MPD1    H7 3000   0.826   3.498  16.329 -1.6050  1.0296  0.4041
  194MPD1     C 3001   3.858   1.268  17.002  0.4520  0.3527  0.5664
  194MPD1    C1 3002   3.806   1.221  16.889 -0.2671 -0.3220  0.0625
  194MPD1    C2 3003   3.821   1.085  16.865  0.3861  0.2474 -0.1922
  194MPD1    C3 3004   3.905   1.006  16.943 -1.0036  0.5260  0.0422
  194MPD1    C4 3005   3.973   1.065  17.052  0.1098 -0.3110 -0.2551
  194MPD1    C5 3006   3.950   1.192  17.071  0.0061  0.4009 -0.2529
  194MPD1     H 3007   3.764   1.053  16.779  2.5044 -0.9510 -1.1394
  194MPD1    H1 3008   4.041   1.015  17.120 -0.1010 -1.0600 -0.5865
  194MPD1    H2 3009   3.838   1.369  17.033 -1.7639  0.8465 -2.5127
  194MPD1    H3 3010   3.986   1.250  17.156  0.9366 -0.9004  0.2340
  194MPD1     N 3011   3.920   0.867  16.934 -0.3662 -0.1405  1.0837
  194MPD1    H5 3012   3.976   0.821  17.004  1.2949  2.2688  1.3373
  194MPD1    N1 3013   3.715   1.293  16.813  0.0176  0.1772  0.0914
  194MPD1    H6 3014   3.733   1.393  16.808  1.1955 -0.0576 -0.3055
  194MPD1    H7 3015   3.707   1.249  16.721 -2.1136  0.9135 -0.0771
  195MPD1     C 3016   1.610   2.872  17.691 -0.4391  0.2217  0.3341
  195MPD1    C1 3017   1.487   2.823  17.736  0.3127 -0.1252  0.2374
  195MPD1    C2 3018   1.466   2.689  17.714  0.5795  0.5715  0.6401
  195MPD1    C3 3019   1.555   2.615  17.638  0.7613  0.8541  0.3424
  195MPD1    C4 3020   1.678   2.661  17.606 -0.3620  0.4047 -0.3694
  195MPD1    C5 3021   1.704   2.797  17.630 -0.1142  0.0676  0.5613
  195MPD1     H 3022   1.383   2.638   0.022 -0.2542  1.0979 -0.2459
  195MPD1    H1 3023   1.756   2.605  17.556 -1.7249 -0.9465 -0.9770
  195MPD1    H2 3024   1.628   2.976  17.716 -0.3849  0.4204 -0.5422
  195MPD1    H3 3025   1.800   2.841  17.607  0.4995 -1.4284  0.2411
  195MPD1     N 3026   1.542   2.476  17.633 -0.0005 -1.1616 -0.0206
  195MPD1    H5 3027   1.623   2.416  17.621  0.4535 -0.8208  1.3652
  195MPD1    N1 3028   1.419   2.889   0.097  0.1572 -0.5300 -0.5397
  195MPD1    H6 3029   1.423   2.990   0.084 -1.4401 -0.4842 -0.7282
  195MPD1    H7 3030   1.322   2.865   0.116 -0.2021  0.6575 -0.8684
  196MPD1     C 3031   1.546   0.446   1.846 -0.2040  0.0915 -0.4142
  196MPD1    C1 3032   1.585   0.573   1.824  0.6915  0.5273  0.1027
  196MPD1    C2 3033   1.490   0.670   1.797  0.2283 -0.2706 -0.1271
  196MPD1    C3 3034   1.355   0.641   1.792  0.2577 -0.5080  0.9958
  196MPD1    C4 3035   1.316   0.512   1.815  0.7256 -0.3278 -0.0380
  196MPD1    C5 3036   1.412   0.413   1.848  0.2254 -0.7586 -0.0211
  196MPD1     H 3037   1.529   0.770   1.810 -0.2621 -0.1861  0.7612
  196MPD1    H1 3038   1.212   0.484   1.813  0.8765 -1.0672  1.7187
  196MPD1    H2 3039   1.624   0.373   1.864  1.1341  1.0995 -2.1996
  196MPD1    H3 3040   1.383   0.311   1.872  2.0537 -1.0057  1.1768
  196MPD1     N 3041   1.255   0.728   1.750  0.5376 -0.3396 -0.3638
  196MPD1    H5 3042   1.156   0.705   1.748  0.8656 -2.0056  2.1057
  196MPD1    N1 3043   1.717   0.619   1.850 -0.4651  0.3529 -0.6850
  196MPD1    H6 3044   1.792   0.558   1.817 -0.9808 -0.5406 -0.1901
  196MPD1    H7 3045   1.734   0.714   1.818  3.5997 -0.0463  0.2003
  197MPD1     C 3046   0.310   3.495  17.217 -0.3689 -0.2782 -0.4844
  197MPD1    C1 3047   0.342   3.615  17.271 -0.1367 -0.1095  0.5375
  197MPD1    C2 3048   0.341   3.727  17.191  0.2898 -0.0962 -0.4366
  197MPD1    C3 3049   0.302   3.719  17.058  0.3205 -0.3178  1.0495
  197MPD1    C4 3050   0.255   3.601  17.008  0.1825 -0.1328 -1.1983
  197MPD1    C5 3051   0.261   3.494  17.089  0.3930 -0.6054 -0.4456
  197MPD1     H 3052   0.380   3.821  17.230 -0.2574  0.7367 -1.8743
  197MPD1    H1 3053   0.222   3.592  16.905 -2.8096  0.9883 -0.3572
  197MPD1    H2 3054   0.317   3.403  17.274  2.4526 -0.0462 -0.4464
  197MPD1    H3 3055   0.238   3.397  17.045 -0.5610 -0.1000 -1.0517
  197MPD1     N 3056   0.316   3.824  16.971  0.1453 -0.5067  0.4282
  197MPD1    H5 3057   0.284   3.806  16.876  1.3745  1.2134 -0.3135
  197MPD1    N1 3058   0.353   3.614  17.409  0.3078 -0.0986 -0.8981
  197MPD1    H6 3059   0.384   3.525  17.447  1.6266  1.7275  2.3211
  197MPD1    H7 3060   0.425   3.675  17.447 -0.2674  0.4964 -0.7482
  198MPD1     C 3061   1.822   2.326  15.162  0.1986  0.0803  0.0419
  198MPD1    C1 3062   1.806   2.462  15.165  0.8832 -0.0645  0.3028
  198MPD1    C2 3063   1.893   2.528  15.256 -0.6286  0.1871  0.3843
  198MPD1    C3 3064   1.987   2.467  15.335 -0.0303  1.0231 -0.3261
  198MPD1    C4 3065   1.986   2.329  15.332 -0.1397  0.3485  0.5250
  198MPD1    C5 3066   1.918   2.264  15.237  0.1738  0.4292  0.2007
  198MPD1     H 3067   1.898   2.636  15.259 -1.1848  0.2599 -0.9401
  198MPD1    H1 3068   2.066   2.271  15.377 -0.4009 -2.3023 -2.4964
  198MPD1    H2 3069   1.763   2.269  15.092  0.7606 -0.7680  0.2570
  198MPD1    H3 3070   1.931   2.157  15.222  2.6077  0.5669  1.5057
  198MPD1     N 3071   2.061   2.544  15.426 -0.1796 -0.4699 -0.4282
  198MPD1    H5 3072   2.052   2.644  15.414 -1.0947 -0.3362  1.3229
  198MPD1    N1 3073   1.728   2.531  15.075 -0.6276 -0.0064 -0.2975
  198MPD1    H6 3074   1.679   2.613  15.110  0.7024  0.7090 -0.1260
  198MPD1    H7 3075   1.652   2.471  15.042  0.0344 -1.9360  1.7297
  199MPD1     C 3076   0.750   0.088  10.177 -0.2303 -0.3402  0.3827
  199MPD1    C1 3077   0.733   4.689  10.190 -0.9206  0.0865  1.1460
  199MPD1    C2 3078   0.603   4.638  10.194  0.0077  0.0294 -0.3719
  199MPD1    C3 3079   0.485   4.717  10.206 -0.5180  0.5050  0.4540
  199MPD1    C4 3080   0.505   0.119  10.201 -0.0404  0.1051 -0.2433
  199MPD1    C5 3081   0.636   0.168  10.186  0.0422 -0.3847  0.1515
  199MPD1     H 3082   0.590   4.531  10.187  0.1038 -0.0709  0.9563
  199MPD1    H1 3083   0.437   0.202  10.221  0.7343  0.3246  1.4587
  199MPD1    H2 3084   0.838   0.147  10.157 -0.6598 -0.6955 -2.6186
  199MPD1    H3 3085   0.651   0.275  10.193  0.3151 -0.4541  0.6903
  199MPD1     N 3086   0.350   4.669  10.233  0.6175 -0.0206 -0.3164
  199MPD1    H5 3087   0.278   0.006  10.229  1.1124  0.4060 -1.5125
  199MPD1    N1 3088   0.850   4.614  10.177  0.2711 -0.8569  0.0613
  199MPD1    H6 3089   0.934   4.654  10.218 -0.6336  1.9646 -0.8675
  199MPD1    H7 3090   0.853   4.512  10.183 -1.4959 -0.8959  0.0772
  200MPD1     C 3091   3.234   0.194  15.870 -0.1363 -0.3172 -0.0147
  200MPD1    C1 3092   3.259   0.281  15.767  0.2258 -0.2956 -0.4541
  200MPD1    C2 3093   3.361   0.245  15.676 -0.3193 -0.2417  0.1736
  200MPD1    C3 3094   3.442   0.134  15.691  0.3808  0.2382  0.1025
  200MPD1    C4 3095   3.419   0.053  15.801 -0.0437 -0.0444  0.1699
  200MPD1    C5 3096   3.315   0.084  15.882 -0.6021  1.4479 -0.1115
  200MPD1     H 3097   3.386   0.305  15.589 -1.1156  0.2453  0.2778
  200MPD1    H1 3098   3.473   4.698  15.827  0.7662  0.2776 -0.3991
  200MPD1    H2 3099   3.160   0.211  15.947  0.9523  1.0750  0.7181
  200MPD1    H3 3100   3.304   0.023  15.970  0.5562 -1.1438 -1.7612
  200MPD1     N 3101   3.540   0.099  15.600  0.1705 -0.5954  0.2969
  200MPD1    H5 3102   3.568   0.176  15.540  1.6789 -1.4873 -0.1498
  200MPD1    N1 3103   3.170   0.383  15.729 -0.4699 -0.2392 -0.8297
  200MPD1    H6 3104   3.121   0.427  15.806  1.6845 -1.5806  1.3160
  200MPD1    H7 3105   3.208   0.451  15.664  0.6342  0.2597  0.3268
  201MPD1     C 3106   1.667   2.145  13.022 -0.2707 -0.4134 -0.6834
  201MPD1    C1 3107   1.626   2.052  13.114 -0.1960  0.0094 -0.7794
  201MPD1    C2 3108   1.620   2.089  13.251 -0.1880  0.3285 -0.0957
  201MPD1    C3 3109   1.653   2.211  13.302 -0.2480 -1.1046 -0.0884
  201MPD1    C4 3110   1.700   2.303  13.204 -0.5375  0.5623  0.0184
  201MPD1    C5 3111   1.709   2.269  13.068  0.1384  0.3617  0.2403
  201MPD1     H 3112   1.592   2.011  13.320 -1.4280 -0.5954 -1.6192
  201MPD1    H1 3113   1.736   2.402  13.228 -0.3113 -0.4388  3.8290
  201MPD1    H2 3114   1.666   2.122  12.916  0.9729  0.2882 -0.8560
  201MPD1    H3 3115   1.753   2.338  12.997 -1.6255 -1.1147 -2.3013
  201MPD1     N 3116   1.636   2.235  13.443 -0.3271  0.5822 -0.7242
  201MPD1    H5 3117   1.626   2.155  13.505  0.4443 -0.6819 -2.1996
  201MPD1    N1 3118   1.566   1.931  13.074  0.2538 -0.4853 -0.3269
  201MPD1    H6 3119   1.610   1.898  12.988 -1.0951  1.9145 -1.9463
  201MPD1    H7 3120   1.556   1.860  13.146 -0.7979  0.5188  0.5151
  202MPD1     C 3121   0.077   1.762   8.762 -0.2911  0.0999 -0.2226
  202MPD1    C1 3122   0.198   1.708   8.793 -1.2808  0.4970 -0.1809
  202MPD1    C2 3123   0.294   1.807   8.836 -0.4473  0.5815  0.1603
  202MPD1    C3 3124   0.249   1.924   8.893 -0.2189 -0.1319 -0.0193
  202MPD1    C4 3125   0.117   1.970   8.870  0.0893  0.0623 -0.0931
  202MPD1    C5 3126   0.033   1.886   8.806 -0.4641 -0.7272 -0.2022
  202MPD1     H 3127   0.397   1.776   8.845  0.0527  1.7417 -1.4481
  202MPD1    H1 3128   0.071   2.053   8.922  0.2204 -0.0936  0.2714
  202MPD1    H2 3129   0.007   1.699   8.709 -0.8556 -1.8514  2.8123
  202MPD1    H3 3130   4.665   1.914   8.794  0.1002  1.1102 -0.6953
  202MPD1     N 3131   0.330   2.014   8.967  0.0773  0.0423  0.3070
  202MPD1    H5 3132   0.295   2.108   8.980  1.2315  0.4107  0.7866
  202MPD1    N1 3133   0.243   1.590   8.724  0.1674 -0.3066  0.7487
  202MPD1    H6 3134   0.175   1.515   8.733 -0.4309 -0.0882 -1.9340
  202MPD1    H7 3135   0.325   1.561   8.778  2.0462 -0.1322 -2.0317
  203MPD1     C 3136   4.716   3.998  12.693  0.1051 -0.4140 -0.4347
  203MPD1    C1 3137   4.604   3.920  12.668 -0.1322  0.2249 -0.2140
  203MPD1    C2 3138   4.609   3.787  12.699  0.3960  0.5827 -0.0913
  203MPD1    C3 3139   4.724   3.726  12.741 -0.5853  0.6568 -0.9033
  203MPD1    C4 3140   0.100   3.809  12.762 -0.1085  0.1983 -0.3998
  203MPD1    C5 3141   0.092   3.945  12.750 -0.5417  0.2465  0.3364
  203MPD1     H 3142   4.517   3.731  12.691  0.9100 -0.3712  0.7509
  203MPD1    H1 3143   0.192   3.759  12.789 -0.5602  0.3322  1.3875
  203MPD1    H2 3144   4.718   4.106  12.684 -0.9678 -0.2317  1.6619
  203MPD1    H3 3145   0.175   4.009  12.777  0.2233 -0.2484 -0.8586
  203MPD1     N 3146   4.715   3.587  12.747  0.3989 -0.0079  0.3377
  203MPD1    H5 3147   4.632   3.547  12.705 -0.0517  0.1814  1.0526
  203MPD1    N1 3148   4.489   3.976  12.611  0.6884 -0.2154  0.4747
  203MPD1    H6 3149   4.428   3.910  12.562  2.4868 -2.8006  1.6792
  203MPD1    H7 3150   4.515   4.061  12.562 -2.5455 -1.5114 -3.5502
  204MPD1     C 3151   3.278   4.547  17.678 -0.7251 -0.4390 -0.2038
  204MPD1    C1 3152   3.402   4.602  17.663  0.0334 -0.5033 -0.2317
  204MPD1    C2 3153   3.495   4.535  17.599  0.2838 -0.0490 -0.3212
  204MPD1    C3 3154   3.468   4.412  17.545 -0.0173 -0.2494  0.1505
  204MPD1    C4 3155   3.345   4.360  17.565  0.9040 -0.2461  0.9947
  204MPD1    C5 3156   3.250   4.424  17.633 -0.1810 -0.2120 -0.0924
  204MPD1     H 3157   3.589   4.581  17.570  0.0696 -0.2387 -1.3270
  204MPD1    H1 3158   3.311   4.272  17.511 -0.2818 -0.3870  1.9499
  204MPD1    H2 3159   3.206   4.595   0.005 -0.0426 -0.5568  0.6125
  204MPD1    H3 3160   3.154   4.375  17.648 -1.2337  2.1729  0.9689
  204MPD1     N 3161   3.565   4.349  17.462  0.0347 -0.4751  0.0086
  204MPD1    H5 3162   3.643   4.412  17.448  0.1092 -0.5207  0.2144
  204MPD1    N1 3163   3.425   4.732  17.695 -0.1513  0.1808  0.3200
  204MPD1    H6 3164   3.351   0.034   0.014 -0.8934 -1.8255  0.6722
  204MPD1    H7 3165   3.518   0.023  17.727 -1.1757  3.5222  0.4673
  205MPD1     C 3166   3.142   3.600  16.353 -0.8269  0.0181  0.1045
  205MPD1    C1 3167   3.265   3.618  16.297 -0.1367  0.1921 -0.5833
  205MPD1    C2 3168   3.365   3.589  16.387  0.1082 -0.5528  0.6812
  205MPD1    C3 3169   3.342   3.548  16.518 -0.2601 -0.0702  0.8991
  205MPD1    C4 3170   3.220   3.541  16.573  0.7732 -0.4185 -0.4546
  205MPD1    C5 3171   3.120   3.574  16.483 -0.5194  0.2504 -0.1012
  205MPD1     H 3172   3.467   3.597  16.352 -0.0314 -0.0587  0.3839
  205MPD1    H1 3173   3.205   3.507  16.675  0.2437 -1.7288 -0.9730
  205MPD1    H2 3174   3.046   3.598  16.302  0.1259 -0.4802 -1.6764
  205MPD1    H3 3175   3.018   3.557  16.518  0.4870  0.1841  2.7817
  205MPD1     N 3176   3.446   3.502  16.604 -0.2075  0.4921  0.1446
  205MPD1    H5 3177   3.420   3.481  16.700 -1.2447 -0.1217 -0.2685
  205MPD1    N1 3178   3.289   3.619  16.160  0.8681 -0.2777  0.5417
  205MPD1    H6 3179   3.368   3.678  16.136  0.1869  0.2724 -0.3334
  205MPD1    H7 3180   3.210   3.645  16.102  2.7919  5.8525  0.6977
  206MPD1     C 3181   4.561   1.576  17.317 -0.1608  0.1465  0.0053
  206MPD1    C1 3182   4.558   1.438  17.301 -0.0982 -0.2060  0.4341
  206MPD1    C2 3183   4.468   1.387  17.207 -0.1629 -0.1388  0.1266
  206MPD1    C3 3184   4.408   1.474  17.114  0.4258  0.0561  0.5674
  206MPD1    C4 3185   4.414   1.608  17.133  0.5965  1.0387 -0.0653
  206MPD1    C5 3186   4.491   1.657  17.235  0.1336 -0.0939 -0.1370
  206MPD1     H 3187   4.454   1.279  17.212  0.6364 -0.2507 -0.0650
  206MPD1    H1 3188   4.356   1.681  17.077 -0.3031 -0.3444 -0.9361
  206MPD1    H2 3189   4.622   1.614  17.399  2.2702  0.1038 -1.7887
  206MPD1    H3 3190   4.488   1.764  17.254  3.0417 -0.5098  2.4147
  206MPD1     N 3191   4.328   1.424  17.009 -0.0869  0.5315 -0.9468
  206MPD1    H5 3192   4.295   1.492  16.942 -2.1298 -0.9211 -1.4016
  206MPD1    N1 3193   4.613   1.364  17.410  0.0401  0.0806  0.3567
  206MPD1    H6 3194   4.686   1.397  17.473 -0.6065  1.3047  0.4531
  206MPD1    H7 3195   4.633   1.268  17.380  0.0913 -0.1107  0.9927
  207MPD1     C 3196   1.809   4.278   9.661 -0.4107 -0.6825  0.1209
  207MPD1    C1 3197   1.922   4.346   9.634 -0.6232 -0.1684  0.1906
  207MPD1    C2 3198   2.026   4.342   9.730 -0.3141 -0.1753  0.2294
  207MPD1    C3 3199   2.018   4.255   9.842 -0.2849  0.1315 -1.0646
  207MPD1    C4 3200   1.906   4.179   9.860  0.5636  0.2425  0.5038
  207MPD1    C5 3201   1.806   4.201   9.773  0.2974 -0.6038 -0.1601
  207MPD1     H 3202   2.115   4.402   9.717 -0.0835  0.0409  2.7903
  207MPD1    H1 3203   1.894   4.100   9.933 -2.3665 -0.1223 -0.3950
  207MPD1    H2 3204   1.717   4.274   9.603 -0.9613  0.1163  0.9383
  207MPD1    H3 3205   1.722   4.136   9.792  0.5143 -0.4441  1.3500
  207MPD1     N 3206   2.114   4.232   9.940 -0.3336  0.4580  0.3671
  207MPD1    H5 3207   2.084   4.166  10.012 -1.1534  0.2376 -0.1763
  207MPD1    N1 3208   1.920   4.432   9.524  0.0497  0.4286  0.5365
  207MPD1    H6 3209   2.016   4.456   9.499  0.0863 -0.2996 -0.0301
  207MPD1    H7 3210   1.858   4.417   9.444 -0.2901  2.7113  0.3544
  208MPD1     C 3211   0.093   3.005  16.718  0.0750 -0.0078  0.3351
  208MPD1    C1 3212   4.692   3.014  16.713  0.2718  0.6036  0.2992
  208MPD1    C2 3213   4.621   2.945  16.813  0.5744  0.5511 -0.3082
  208MPD1    C3 3214   4.683   2.839  16.881 -0.1018  0.0439 -0.6472
  208MPD1    C4 3215   0.086   2.828  16.870 -0.6319 -0.5817 -0.3037
  208MPD1    C5 3216   0.151   2.922  16.805  0.4192 -0.3316 -0.6707
  208MPD1     H 3217   4.513   2.956  16.819  0.4215 -0.8369 -0.5641
  208MPD1    H1 3218   0.133   2.762  16.942 -1.9752  1.6070  2.6123
  208MPD1    H2 3219   0.155   3.069  16.658 -2.2703  0.3012 -1.7601
  208MPD1    H3 3220   0.259   2.916  16.808  0.3870 -0.9548 -0.6249
  208MPD1     N 3221   4.596   2.746  16.944 -0.1376  0.0658  0.3189
  208MPD1    H5 3222   4.500   2.778  16.953 -0.4966 -0.3283 -2.0001
  208MPD1    N1 3223   4.633   3.113  16.641  0.4044 -0.6971  0.7213
  208MPD1    H6 3224   4.679   3.134  16.553 -0.8765 -1.3673 -0.1140
  208MPD1    H7 3225   4.541   3.082  16.608  0.2855  0.0688  0.3255
  209MPD1     C 3226   2.087   2.768  10.320 -0.9718  0.7433  0.7754
  209MPD1    C1 3227   2.102   2.891  10.258  0.0894  0.3952 -0.2146
  209MPD1    C2 3228   2.150   2.997  10.329  0.2376 -0.8868  0.1925
  209MPD1    C3 3229   2.207   2.978  10.455  0.2495  1.2452  0.4157
  209MPD1    C4 3230   2.199   2.849  10.506 -0.5838  0.0419  0.2311
  209MPD1    C5 3231   2.143   2.748  10.443 -0.3815 -0.0148  0.5055
  209MPD1     H 3232   2.154   3.096  10.284  1.8210 -1.1596 -0.2534
  209MPD1    H1 3233   2.243   2.829  10.603 -1.2223  2.6396  1.0751
  209MPD1    H2 3234   2.043   2.674  10.288  2.2690  0.2303 -2.1054
  209MPD1    H3 3235   2.159   2.649  10.483 -2.4940 -0.0680  1.2224
  209MPD1     N 3236   2.284   3.085  10.519 -0.6772  0.3887  0.6214
  209MPD1    H5 3237   2.318   3.158  10.457  0.1916  0.8412  1.6476
  209MPD1    N1 3238   2.039   2.909  10.135 -0.2735 -0.1649  0.2021
  209MPD1    H6 3239   2.007   2.828  10.083 -0.4376 -1.6691  2.6313
  209MPD1    H7 3240   2.084   2.985  10.083  1.8878 -1.6490 -0.0652
  210MPD1     C 3241   2.875   3.173  11.363  0.1418  0.3110  0.1817
  210MPD1    C1 3242   2.748   3.119  11.346 -0.0443 -0.4212 -0.4663
  210MPD1    C2 3243   2.688   3.144  11.229 -0.0372  0.5037  0.7886
  210MPD1    C3 3244   2.734   3.229  11.126 -0.0672 -0.2597  0.2482
  210MPD1    C4 3245   2.858   3.293  11.152 -0.1727 -0.1540  0.6277
  210MPD1    C5 3246   2.922   3.263  11.276  0.5136 -0.3853 -0.2353
  210MPD1     H 3247   2.596   3.090  11.204  1.5005 -1.1368 -1.3328
  210MPD1    H1 3248   2.906   3.367  11.089  0.7163 -0.4271  0.9747
  210MPD1    H2 3249   2.929   3.133  11.448 -1.0476  0.5042  1.0315
  210MPD1    H3 3250   3.013   3.317  11.299  1.1224 -1.9979  1.1396
  210MPD1     N 3251   2.654   3.244  11.012 -0.0659  0.3427  0.2385
  210MPD1    H5 3252   2.565   3.196  11.023 -0.0106  0.2965  0.4879
  210MPD1    N1 3253   2.699   3.010  11.425 -0.0679  0.2667  0.3564
  210MPD1    H6 3254   2.598   3.005  11.414 -0.1229  1.3607  0.3801
  210MPD1    H7 3255   2.709   3.026  11.525 -0.6234  0.2102  0.4209
  211MPD1     C 3256   4.566   2.405  16.662 -0.4238 -0.2090 -0.3063
  211MPD1    C1 3257   4.599   2.541  16.660  0.9036 -0.2330 -0.3682
  211MPD1    C2 3258   4.500   2.641  16.647 -0.4144  0.2456 -0.0728
  211MPD1    C3 3259   4.368   2.606  16.634  0.1308 -0.1321 -0.8246
  211MPD1    C4 3260   4.337   2.474  16.652  0.0971  0.0097 -0.2162
  211MPD1    C5 3261   4.429   2.378  16.669  0.1634 -0.1637  0.4739
  211MPD1     H 3262   4.530   2.746  16.646 -1.2305  0.4523 -1.5716
  211MPD1    H1 3263   4.233   2.447  16.650 -0.1932  1.1588 -0.7709
  211MPD1    H2 3264   4.636   2.324  16.677  0.2358  0.0929 -1.7743
  211MPD1    H3 3265   4.395   2.275  16.665 -0.3730 -0.0020  0.7836
  211MPD1     N 3266   4.280   2.711  16.606  0.0509 -0.1894  0.1974
  211MPD1    H5 3267   4.319   2.804  16.598 -2.3386  0.9154  1.4187
  211MPD1    N1 3268   4.734   2.582  16.646  0.0456 -0.1546  0.2245
  211MPD1    H6 3269   0.007   2.680  16.671 -1.1786 -0.1784  0.7447
  211MPD1    H7 3270   0.053   2.526  16.711 -0.2715 -0.5510  0.1519
  212MPD1     C 3271   3.689   1.221  16.370  0.0426  0.4691  0.2211
  212MPD1    C1 3272   3.602   1.279  16.462 -0.4567  0.7387  0.7702
  212MPD1    C2 3273   3.546   1.200  16.560  0.0484  0.4427  0.0292
  212MPD1    C3 3274   3.598   1.073  16.579  0.5766 -0.4464 -0.5742
  212MPD1    C4 3275   3.692   1.016  16.493  0.0682 -0.0608  0.5983
  212MPD1    C5 3276   3.732   1.090  16.384 -1.5742 -0.1525 -0.5599
  212MPD1     H 3277   3.459   1.240  16.611 -0.7787  0.6574 -1.5236
  212MPD1    H1 3278   3.729   0.914  16.496  0.4089  0.0532  0.3332
  212MPD1    H2 3279   3.725   1.272  16.281  0.0257 -0.3849 -0.2770
  212MPD1    H3 3280   3.801   1.052  16.310  0.5237 -0.3646  1.5109
  212MPD1     N 3281   3.552   0.979  16.677 -0.2517  0.1049 -0.0907
  212MPD1    H5 3282   3.588   0.885  16.670  0.2962  0.3831 -0.9299
  212MPD1    N1 3283   3.561   1.407  16.437  0.3473  0.6523  0.8987
  212MPD1    H6 3284   3.632   1.472  16.402  1.7880 -1.8292 -0.8401
  212MPD1    H7 3285   3.511   1.448  16.515 -0.2022  0.5943  0.5723
  213MPD1     C 3286   1.575   1.643  15.627 -0.6618  0.4068 -0.5049
  213MPD1    C1 3287   1.448   1.688  15.581 -0.8700  0.3435  0.8486
  213MPD1    C2 3288   1.435   1.678  15.444  0.2019 -0.1136  0.7121
  213MPD1    C3 3289   1.542   1.680  15.356 -1.0733 -0.3354 -0.5360
  213MPD1    C4 3290   1.671   1.678  15.412 -0.0851 -0.4096  0.3593
  213MPD1    C5 3291   1.691   1.658  15.549  0.2194  0.9410  0.7433
  213MPD1     H 3292   1.329   1.690  15.422  1.0900  0.8482 -3.0696
  213MPD1    H1 3293   1.757   1.678  15.346 -0.7613  2.1031 -0.5365
  213MPD1    H2 3294   1.582   1.644  15.736  1.6524  0.4548 -0.6500
  213MPD1    H3 3295   1.793   1.639  15.581  0.2696 -0.0031  0.0081
  213MPD1     N 3296   1.516   1.693  15.220  0.1940  0.3908  0.0826
  213MPD1    H5 3297   1.418   1.697  15.195  0.4800 -0.7062 -1.2173
  213MPD1    N1 3298   1.343   1.673  15.670  0.2024  0.3162 -0.5784
  213MPD1    H6 3299   1.369   1.709  15.762 -2.3901 -0.8199  0.6016
  213MPD1    H7 3300   1.258   1.719  15.639 -1.1476 -0.4807  1.9474
  214MPD1     C 3301   0.776   1.457  14.911  0.9904  0.2044  0.4964
  214MPD1    C1 3302   0.807   1.577  14.847 -0.4321  0.9311  0.5464
  214MPD1    C2 3303   0.936   1.627  14.847  0.3842 -0.1982  1.1379
  214MPD1    C3 3304   1.040   1.555  14.895 -0.3144 -0.8414 -0.1508
  214MPD1    C4 3305   1.010   1.433  14.959 -0.2872 -0.1286 -0.1456
  214MPD1    C5 3306   0.884   1.388  14.966  0.1444  0.1420 -0.2007
  214MPD1     H 3307   0.955   1.729  14.815 -1.2071 -0.7118 -1.4456
  214MPD1    H1 3308   1.088   1.377  15.008 -0.9747 -0.6005  0.4077
  214MPD1    H2 3309   0.672   1.427  14.920  0.4818  1.9372  0.3813
  214MPD1    H3 3310   0.867   1.302  15.029 -1.0425  0.7066  0.2465
  214MPD1     N 3311   1.175   1.606  14.900 -0.2258 -0.2482  0.0486
  214MPD1    H5 3312   1.244   1.562  14.959  0.3468 -0.5485 -0.8535
  214MPD1    N1 3313   0.699   1.664  14.816 -0.5707  0.0595  0.0645
  214MPD1    H6 3314   0.607   1.619  14.822 -1.0618  1.4325  2.8554
  214MPD1    H7 3315   0.725   1.716  14.732  0.5787 -0.9742 -0.2151
  215MPD1     C 3316   2.219   2.374  10.682 -0.1367 -0.4970 -0.3707
  215MPD1    C1 3317   2.304   2.447  10.766  0.3520  0.7098 -0.3186
  215MPD1    C2 3318   2.257   2.563  10.825 -0.4190 -1.1869 -0.2781
  215MPD1    C3 3319   2.133   2.618  10.792 -0.4803 -0.0092  0.5260
  215MPD1    C4 3320   2.055   2.551  10.694  0.7060  0.3201  0.3460
  215MPD1    C5 3321   2.097   2.428  10.644 -0.8533  0.5436 -0.4393
  215MPD1     H 3322   2.334   2.618  10.878 -0.3803 -1.5403  0.0293
  215MPD1    H1 3323   1.959   2.580  10.653  1.2571  0.4558 -0.8645
  215MPD1    H2 3324   2.253   2.285  10.631  1.5843  0.5978 -1.1596
  215MPD1    H3 3325   2.038   2.382  10.566 -2.2934  2.0542 -0.2544
  215MPD1     N 3326   2.095   2.741  10.855  0.1153 -0.3026  0.0299
  215MPD1    H5 3327   2.155   2.766  10.933  1.1957 -0.3769 -0.7741
  215MPD1    N1 3328   2.431   2.391  10.806  0.0014  0.2927  0.0169
  215MPD1    H6 3329   2.503   2.461  10.815 -1.8842  2.2144  0.2279
  215MPD1    H7 3330   2.476   2.316  10.754 -3.4623 -0.4552 -1.9116
  216MPD1     C 3331   3.703   1.079   0.106 -0.9374 -0.0564  0.0240
  216MPD1    C1 3332   3.578   1.107   0.054 -0.1384  0.3689  0.0096
  216MPD1    C2 3333   3.462   1.032   0.069 -0.4129  0.3969 -0.4396
  216MPD1    C3 3334   3.467   0.919   0.154  0.1581 -0.9476 -0.6870
  216MPD1    C4 3335   3.593   0.903   0.219 -0.5012  0.1219  0.5034
  216MPD1    C5 3336   3.701   0.981   0.196 -0.4844 -0.4830  0.0197
  216MPD1     H 3337   3.372   1.068   0.019  0.1087  0.3136 -1.4475
  216MPD1    H1 3338   3.605   0.818   0.286 -2.2518 -0.9538 -0.5322
  216MPD1    H2 3339   3.792   1.138   0.093 -0.6305 -0.2485  1.2249
  216MPD1    H3 3340   3.784   0.970   0.264 -0.6147  0.3054  0.3040
  216MPD1     N 3341   3.358   0.829   0.163 -0.2339 -0.8044  0.1961
  216MPD1    H5 3342   3.279   0.854   0.105  0.4608  0.3782 -0.2465
  216MPD1    N1 3343   3.574   1.213  17.704  0.1741  0.1706  0.4334
  216MPD1    H6 3344   3.634   1.289  17.733  0.3708  0.1610  0.0426
  216MPD1    H7 3345   3.486   1.241  17.661  0.9815  2.6539  0.4300
  217MPD1     C 3346   3.125   2.242   9.846  0.5476 -0.5185  0.1206
  217MPD1    C1 3347   3.128   2.381   9.843 -0.1128 -0.0362  1.0578
  217MPD1    C2 3348   3.171   2.449   9.729 -0.7987 -0.2212 -0.5357
  217MPD1    C3 3349   3.202   2.380   9.614 -0.6053 -0.1009 -0.1743
  217MPD1    C4 3350   3.209   2.239   9.616  0.8383  0.6605 -0.3847
  217MPD1    C5 3351   3.163   2.176   9.732  0.6189  0.4937  0.5690
  217MPD1     H 3352   3.186   2.556   9.738  0.2812 -0.4909  0.8269
  217MPD1    H1 3353   3.236   2.172   9.535 -1.4194 -2.0759  1.1424
  217MPD1    H2 3354   3.103   2.197   9.942  0.5999  0.4619  0.5947
  217MPD1    H3 3355   3.161   2.068   9.734 -1.4988  0.4765 -1.6612
  217MPD1     N 3356   3.247   2.449   9.497 -0.4525 -0.5290  0.0357
  217MPD1    H5 3357   3.294   2.390   9.429 -0.5377 -0.1213 -0.3760
  217MPD1    N1 3358   3.119   2.451   9.962 -0.1591 -0.5012  0.0805
  217MPD1    H6 3359   3.040   2.423  10.020 -0.3986 -0.4424 -0.2188
  217MPD1    H7 3360   3.111   2.550   9.940 -1.7934 -0.4082  1.1329
  218MPD1     C 3361   1.056   3.785  12.987 -0.5118  0.8728 -0.4727
  218MPD1    C1 3362   1.166   3.849  12.931  0.7414  0.5941  0.7077
  218MPD1    C2 3363   1.278   3.770  12.916 -0.1913  0.7797  0.2397
  218MPD1    C3 3364   1.266   3.628  12.916  0.4260 -0.2329 -0.4580
  218MPD1    C4 3365   1.144   3.570  12.958 -0.2938  0.4274 -0.9368
  218MPD1    C5 3366   1.052   3.650  13.006  0.9770  0.1503 -0.3459
  218MPD1     H 3367   1.367   3.810  12.868  1.0163 -0.9331  1.0160
  218MPD1    H1 3368   1.126   3.464  12.960  0.3927  0.2976 -1.3589
  218MPD1    H2 3369   0.973   3.841  13.028  2.3596  3.5412  1.6460
  218MPD1    H3 3370   0.970   3.606  13.061  0.5451  1.1833 -0.1551
  218MPD1     N 3371   1.372   3.551  12.853 -0.7476  0.8020 -0.3722
  218MPD1    H5 3372   1.446   3.610  12.815  0.5229 -0.2661  0.4659
  218MPD1    N1 3373   1.177   3.995  12.926  0.2094 -0.1124 -0.0992
  218MPD1    H6 3374   1.090   4.044  12.905 -0.0893 -0.5770  0.0603
  218MPD1    H7 3375   1.245   4.032  12.860 -0.4396 -0.3260 -0.8812
  219MPD1     C 3376   1.964   3.578  12.117  0.1387  0.5864  0.2171
  219MPD1    C1 3377   1.943   3.442  12.125  0.1450 -0.2768 -0.7638
  219MPD1    C2 3378   1.897   3.390  12.247  0.4179  0.3793  0.2805
  219MPD1    C3 3379   1.857   3.475  12.346 -0.2443  0.6217 -0.0849
  219MPD1    C4 3380   1.882   3.614  12.338 -0.2896  0.2001  0.5369
  219MPD1    C5 3381   1.942   3.662  12.222 -0.7415 -0.0812 -0.0478
  219MPD1     H 3382   1.886   3.285  12.274  1.1046 -0.5715 -3.0821
  219MPD1    H1 3383   1.874   3.690  12.415 -0.8268 -0.6676  1.3364
  219MPD1    H2 3384   2.008   3.625  12.030  1.2206  1.0934  1.0464
  219MPD1    H3 3385   1.985   3.761  12.217 -2.7224  0.7294 -0.8560
  219MPD1     N 3386   1.809   3.418  12.468  0.4547 -0.1328  0.0298
  219MPD1    H5 3387   1.805   3.317  12.469 -0.9554 -0.0614  1.2119
  219MPD1    N1 3388   1.972   3.361  12.014 -0.0295 -0.4327  0.0876
  219MPD1    H6 3389   1.955   3.410  11.926  3.1705  0.7898  0.1388
  219MPD1    H7 3390   1.928   3.272  12.035  0.4845 -1.2559 -2.3603
  220MPD1     C 3391   2.142   3.666   9.238  0.4929 -0.8388 -0.1569
  220MPD1    C1 3392   2.209   3.667   9.359  0.3952 -0.3957  0.6117
  220MPD1    C2 3393   2.152   3.635   9.478  0.3889  0.2680 -0.2235
  220MPD1    C3 3394   2.020   3.592   9.474  0.3210  0.6713  0.4611
  220MPD1    C4 3395   1.952   3.573   9.358  0.2207 -0.3933  0.0996
  220MPD1    C5 3396   2.018   3.607   9.240 -0.5789  0.7977 -0.1412
  220MPD1     H 3397   2.196   3.644   9.576  0.3973 -0.9313 -0.1178
  220MPD1    H1 3398   1.856   3.524   9.356 -1.0192  2.2387 -3.3915
  220MPD1    H2 3399   2.184   3.688   9.141  0.4077 -4.0816 -0.9239
  220MPD1    H3 3400   1.959   3.577   9.154  0.2520  2.1072 -1.1827
  220MPD1     N 3401   1.966   3.568   9.603  0.0978 -0.3200 -0.5253
  220MPD1    H5 3402   2.016   3.605   9.683 -1.6976  0.0370  0.4426
  220MPD1    N1 3403   2.351   3.686   9.357 -0.3212  0.2667  0.5258
  220MPD1    H6 3404   2.393   3.735   9.436 -1.5346  0.0936  1.2712
  220MPD1    H7 3405   2.383   3.733   9.273  1.7239  0.1227  1.2114
  221MPD1     C 3406   3.484   2.081  16.375 -0.1605  0.0533 -0.5747
  221MPD1    C1 3407   3.550   2.100  16.494  0.6687  0.1867 -0.2768
  221MPD1    C2 3408   3.678   2.053  16.506 -0.2397  0.3679 -0.1164
  221MPD1    C3 3409   3.763   2.020  16.395 -0.1937 -0.5181  0.1754
  221MPD1    C4 3410   3.696   2.012  16.275 -0.4237  0.5413  0.0264
  221MPD1    C5 3411   3.559   2.037  16.266 -0.1719  0.1967 -0.3408
  221MPD1     H 3412   3.736   2.054  16.598  0.1510 -3.5912 -0.3135
  221MPD1    H1 3413   3.743   1.968  16.188  1.5103 -1.0877  1.8694
  221MPD1    H2 3414   3.379   2.101  16.357  0.2377  1.8163 -0.9511
  221MPD1    H3 3415   3.505   2.002  16.179 -1.2158  0.4117  0.2188
  221MPD1     N 3416   3.898   1.976  16.397  0.0439  0.0056 -0.0447
  221MPD1    H5 3417   3.942   1.946  16.310 -1.5562 -1.3687 -0.3817
  221MPD1    N1 3418   3.474   2.143  16.602  0.1333  0.0281 -0.3462
  221MPD1    H6 3419   3.510   2.214  16.665 -1.2107  1.6854 -1.4523
  221MPD1    H7 3420   3.393   2.194  16.567  0.1215  0.3551  0.1657
  222MPD1     C 3421   2.729   1.185   1.087 -0.0881 -0.1775 -0.1356
  222MPD1    C1 3422   2.847   1.174   1.010  0.2899 -0.7159 -0.1465
  222MPD1    C2 3423   2.857   1.263   0.899  0.0057  0.7289 -0.2016
  222MPD1    C3 3424   2.745   1.327   0.853  1.0429  0.1673 -0.6096
  222MPD1    C4 3425   2.623   1.316   0.924  0.1954 -0.4551  1.2790
  222MPD1    C5 3426   2.623   1.253   1.044  0.4894 -0.1968 -0.2821
  222MPD1     H 3427   2.952   1.271   0.848 -0.3078  3.9961 -0.2586
  222MPD1    H1 3428   2.532   1.362   0.889  1.7977 -0.8857 -3.3970
  222MPD1    H2 3429   2.720   1.140   1.185 -1.1863 -0.0929 -0.1980
  222MPD1    H3 3430   2.538   1.264   1.109  0.1463 -1.3446 -0.5327
  222MPD1     N 3431   2.752   1.414   0.739  0.7383  0.4426 -0.7829
  222MPD1    H5 3432   2.660   1.449   0.712 -1.0905 -2.3380  1.7993
  222MPD1    N1 3433   2.960   1.107   1.067  0.0445  0.5901 -0.5364
  222MPD1    H6 3434   2.943   1.028   1.129 -0.9915  0.9808 -0.3233
  222MPD1    H7 3435   3.025   1.078   0.995  1.6009  1.1188  0.6555
  223MPD1     C 3436   2.039   1.534   0.329  0.3385 -0.9159 -0.1452
  223MPD1    C1 3437   2.092   1.435   0.405  0.7612  0.1331 -0.5225
  223MPD1    C2 3438   2.225   1.442   0.429 -0.5047  0.5541 -0.5277
  223MPD1    C3 3439   2.298   1.555   0.394  0.5551  0.0095  0.0825
  223MPD1    C4 3440   2.241   1.652   0.314  0.0369 -0.6418 -0.3698
  223MPD1    C5 3441   2.102   1.649   0.298  0.0661 -0.7691 -0.1805
  223MPD1     H 3442   2.281   1.369   0.486  0.6919  1.6854 -0.2553
  223MPD1    H1 3443   2.300   1.735   0.277 -1.2133  0.2028 -0.4454
  223MPD1    H2 3444   1.936   1.535   0.295 -0.2651  2.7065  1.8037
  223MPD1    H3 3445   2.048   1.714   0.231 -0.6098 -1.0792  0.0627
  223MPD1     N 3446   2.434   1.557   0.427  0.2334 -0.8946  0.2324
  223MPD1    H5 3447   2.460   1.494   0.502 -0.7279 -1.4990  0.0589
  223MPD1    N1 3448   2.026   1.311   0.421  0.0810  0.5821  0.5170
  223MPD1    H6 3449   1.924   1.313   0.417  0.1024  0.7878  0.1367
  223MPD1    H7 3450   2.067   1.268   0.504 -0.8746  1.2792  1.3453
  224MPD1     C 3451   3.786   3.664   9.612  0.3501  0.2949 -0.0178
  224MPD1    C1 3452   3.787   3.594   9.729  0.3228  0.6470  0.5990
  224MPD1    C2 3453   3.885   3.497   9.750  0.2953  0.4120  0.0602
  224MPD1    C3 3454   3.984   3.472   9.661  0.6863  0.1518  0.6301
  224MPD1    C4 3455   3.987   3.555   9.552  0.4301  0.2724  0.3721
  224MPD1    C5 3456   3.892   3.646   9.525 -0.0618 -0.4353 -0.1268
  224MPD1     H 3457   3.877   3.434   9.837  1.7104 -0.3990 -0.3950
  224MPD1    H1 3458   4.057   3.551   9.471  0.8143 -1.0044  0.7707
  224MPD1    H2 3459   3.704   3.731   9.587 -0.0365  0.6022  2.1094
  224MPD1    H3 3460   3.893   3.704   9.434 -1.9223 -0.2118 -0.0039
  224MPD1     N 3461   4.087   3.372   9.675 -0.4681  0.2886 -0.3948
  224MPD1    H5 3462   4.152   3.354   9.600  1.9621 -1.9156  2.2375
  224MPD1    N1 3463   3.674   3.604   9.812 -0.0737 -0.4328 -0.0621
  224MPD1    H6 3464   3.686   3.567   9.906  1.0996 -0.2243 -0.1335
  224MPD1    H7 3465   3.634   3.698   9.811 -2.1271 -1.2928  2.7220
  225MPD1     C 3466   1.991   0.132  12.453 -0.1650  0.4280 -1.3816
  225MPD1    C1 3467   1.938   0.011  12.493  0.6846 -0.5055 -0.3651
  225MPD1    C2 3468   1.846   4.685  12.416  0.2433 -0.5284 -0.8426
  225MPD1    C3 3469   1.792   0.016  12.308  0.4278  0.2514  0.7367
  225MPD1    C4 3470   1.842   0.141  12.276  0.2921 -0.8601 -0.0160
  225MPD1    C5 3471   1.954   0.191  12.337  0.2791 -0.7984  0.5124
  225MPD1     H 3472   1.804   4.591  12.451 -0.7921  0.6780  1.1545
  225MPD1    H1 3473   1.815   0.197  12.188  1.2881  0.9465  0.8252
  225MPD1    H2 3474   2.069   0.189  12.502 -1.8682  1.8387 -0.2662
  225MPD1    H3 3475   1.993   0.285  12.300  1.2801 -1.5760 -0.3866
  225MPD1     N 3476   1.679   4.707  12.232 -0.2074  0.0578 -0.1440
  225MPD1    H5 3477   1.632   0.045  12.180 -0.3545  0.6935  0.8801
  225MPD1    N1 3478   1.972   4.690  12.614 -0.0029 -0.6188  0.2323
  225MPD1    H6 3479   2.058   4.731  12.650 -0.4739 -0.3560  1.0417
  225MPD1    H7 3480   1.993   4.591  12.603 -1.4474 -0.9905  0.7972
  226MPD1     C 3481   3.092   2.427   9.087  0.8301  0.0824  0.5495
  226MPD1    C1 3482   3.022   2.556   9.103  0.5358 -0.2799  0.4547
  226MPD1    C2 3483   3.066   2.656   9.016 -1.2772 -0.4851  0.1592
  226MPD1    C3 3484   3.176   2.650   8.933  0.3018 -0.1874 -0.5565
  226MPD1    C4 3485   3.251   2.533   8.932 -0.7559  0.1782 -0.1795
  226MPD1    C5 3486   3.208   2.426   9.011 -0.2946  0.0179  0.0889
  226MPD1     H 3487   3.011   2.749   9.008  0.1931  0.3259 -0.6814
  226MPD1    H1 3488   3.330   2.521   8.860 -0.5348  4.8916 -0.6854
  226MPD1    H2 3489   3.063   2.334   9.135 -1.1853 -0.0519 -0.9311
  226MPD1    H3 3490   3.267   2.336   9.001 -1.3041 -0.4381 -1.9400
  226MPD1     N 3491   3.217   2.773   8.869 -0.9971  0.2999  0.6115
  226MPD1    H5 3492   3.142   2.841   8.862 -0.7872  0.0609 -3.7499
  226MPD1    N1 3493   2.904   2.558   9.172 -0.4935  0.0356  0.0734
  226MPD1    H6 3494   2.911   2.498   9.254 -0.2951 -0.5755 -0.3959
  226MPD1    H7 3495   2.884   2.651   9.210  0.3285  0.7606 -1.2580
  227MPD1     C 3496   2.975   3.746   8.821 -0.0856  0.1165 -0.2957
  227MPD1    C1 3497   3.083   3.744   8.737  0.1477 -0.3962 -0.1175
  227MPD1    C2 3498   3.156   3.630   8.725  0.2523 -0.2616  0.2156
  227MPD1    C3 3499   3.105   3.512   8.784  1.1132 -0.0645  0.2618
  227MPD1    C4 3500   3.005   3.508   8.872  0.2772  0.6752 -0.1115
  227MPD1    C5 3501   2.934   3.627   8.880 -0.3836  0.8940  0.1827
  227MPD1     H 3502   3.253   3.621   8.678 -0.2585  2.9117 -1.3946
  227MPD1    H1 3503   2.947   3.427   8.915  0.3791  0.2293 -0.8253
  227MPD1    H2 3504   2.910   3.830   8.838  1.2501  1.0896 -0.0063
  227MPD1    H3 3505   2.861   3.627   8.960 -0.0583 -0.3073  0.4784
  227MPD1     N 3506   3.178   3.395   8.760 -0.2772  0.1249  0.2052
  227MPD1    H5 3507   3.251   3.408   8.691 -0.6916 -1.5365 -0.5238
  227MPD1    N1 3508   3.123   3.859   8.659  0.4102 -0.3449 -0.2936
  227MPD1    H6 3509   3.223   3.854   8.638  0.3202 -0.0603 -0.7842
  227MPD1    H7 3510   3.098   3.951   8.696 -1.0229 -0.8257 -0.0991
  228MPD1     C 3511   3.835   1.303  12.184 -0.1823  0.3778 -0.3525
  228MPD1    C1 3512   3.809   1.243  12.301 -0.6292  0.2352  0.4392
  228MPD1    C2 3513   3.734   1.313  12.396  0.5309 -0.1131 -0.5757
  228MPD1    C3 3514   3.681   1.438  12.363  0.5639 -0.3305  0.0878
  228MPD1    C4 3515   3.707   1.497  12.241  0.3056 -0.2791 -0.3104
  228MPD1    C5 3516   3.785   1.425  12.156  0.1030 -0.3527  0.8019
  228MPD1     H 3517   3.707   1.264  12.488  1.9844 -0.2047 -0.1994
  228MPD1    H1 3518   3.665   1.594  12.216 -0.9906 -1.2028 -1.7380
  228MPD1    H2 3519   3.897   1.250  12.113  0.7869 -0.0814  0.8375
  228MPD1    H3 3520   3.798   1.461  12.055  0.8895  0.0997  1.0720
  228MPD1     N 3521   3.597   1.493  12.466  0.3750  0.5311  0.0985
  228MPD1    H5 3522   3.593   1.443  12.554  0.3028 -0.2521 -0.3531
  228MPD1    N1 3523   3.844   1.106  12.316 -0.2879  0.6150  0.1903
  228MPD1    H6 3524   3.858   1.075  12.411  0.3370 -2.9961 -1.1052
  228MPD1    H7 3525   3.927   1.086  12.261 -1.3138  1.8321 -1.8471
  229MPD1     C 3526   2.379   0.832  14.426  0.3272  0.0185  0.1586
  229MPD1    C1 3527   2.494   0.757  14.391  1.0299 -0.4143  0.0797
  229MPD1    C2 3528   2.529   0.647  14.473 -0.1349  0.3760 -0.4453
  229MPD1    C3 3529   2.477   0.635  14.599  0.3832 -0.3079  0.8042
  229MPD1    C4 3530   2.377   0.719  14.640  0.5306  0.3675  0.3272
  229MPD1    C5 3531   2.334   0.823  14.555 -0.1492 -0.3038 -0.5345
  229MPD1     H 3532   2.605   0.581  14.433 -0.0165 -1.1320  2.2846
  229MPD1    H1 3533   2.331   0.725  14.739 -2.8536  0.9974 -1.2805
  229MPD1    H2 3534   2.343   0.908  14.358 -2.1937 -0.9122  0.4717
  229MPD1    H3 3535   2.257   0.892  14.586  0.1785 -0.5153  0.7507
  229MPD1     N 3536   2.514   0.538  14.695  0.5886 -0.4519 -0.3344
  229MPD1    H5 3537   2.457   0.541  14.779  0.9850  0.5705 -0.1111
  229MPD1    N1 3538   2.545   0.755  14.262 -0.3105 -0.1461  0.1684
  229MPD1    H6 3539   2.536   0.844  14.213  2.4062 -0.2146 -0.4704
  229MPD1    H7 3540   2.644   0.731  14.261 -0.2798  0.0830 -1.8042
  230MPD1     C 3541   2.361   0.279  15.623  0.1575  0.1079 -0.3358
  230MPD1    C1 3542   2.449   0.178  15.583 -0.2287 -0.0984 -0.2572
  230MPD1    C2 3543   2.473   0.163  15.448 -0.4182 -0.4269  0.1957
  230MPD1    C3 3544   2.435   0.259  15.358 -0.6768 -0.5514 -0.7103
  230MPD1    C4 3545   2.360   0.367  15.404 -0.7203 -0.0335 -0.4015
  230MPD1    C5 3546   2.315   0.370  15.534 -0.1782 -0.6793  0.0743
  230MPD1     H 3547   2.534   0.081  15.413  0.0798 -0.3920  0.9925
  230MPD1    H1 3548   2.313   0.444  15.344  0.6574 -0.2318 -1.7249
  230MPD1    H2 3549   2.322   0.292  15.723  0.7390  1.1838 -0.2576
  230MPD1    H3 3550   2.252   0.452  15.567  0.5982 -0.0952  0.1145
  230MPD1     N 3551   2.478   0.240  15.222 -0.0378  0.2751  0.0120
  230MPD1    H5 3552   2.545   0.164  15.208 -1.5538 -1.2353  0.9157
  230MPD1    N1 3553   2.497   0.083  15.668  0.4811  0.1400  0.6979
  230MPD1    H6 3554   2.486   0.100  15.768  1.4583  1.3741  0.5900
  230MPD1    H7 3555   2.590   0.060  15.635  0.8978 -0.4882  2.2719
  231MPD1     C 3556   1.241   1.983  15.226  0.0215 -0.1211 -0.6365
  231MPD1    C1 3557   1.181   1.952  15.109 -0.6863  0.2995  0.0317
  231MPD1    C2 3558   1.227   2.033  15.005 -0.1910  0.2746 -0.0421
  231MPD1    C3 3559   1.326   2.128  15.005 -0.0128  0.2225  0.7006
  231MPD1    C4 3560   1.383   2.157  15.125  0.2205 -0.0302 -0.2184
  231MPD1    C5 3561   1.343   2.077  15.232  0.0106 -0.7317  0.0326
  231MPD1     H 3562   1.175   2.015  14.913 -0.1996 -0.3091  0.0790
  231MPD1    H1 3563   1.463   2.231  15.127 -0.9301  1.1941 -0.1003
  231MPD1    H2 3564   1.203   1.932  15.314  0.6144  0.0772 -0.2686
  231MPD1    H3 3565   1.371   2.097  15.335 -0.0339 -1.1395  0.1248
  231MPD1     N 3566   1.353   2.201  14.893  0.1772  0.2988  0.1145
  231MPD1    H5 3567   1.278   2.194  14.824  0.4995 -1.9108 -0.0220
  231MPD1    N1 3568   1.079   1.850  15.092  0.1517  0.3295 -0.1524
  231MPD1    H6 3569   1.101   1.767  15.146  1.4241 -0.5471 -2.0149
  231MPD1    H7 3570   1.081   1.811  14.998  1.5119 -2.3562  1.0193
  232MPD1     C 3571   2.447   0.071   0.283  0.9038  0.4460  0.1383
  232MPD1    C1 3572   2.404   4.706   0.202  0.0315 -0.2320  0.0135
  232MPD1    C2 3573   2.352   0.003   0.078  0.8655 -0.5386  0.0388
  232MPD1    C3 3574   2.329   0.133   0.039  0.2945 -0.1166  0.0931
  232MPD1    C4 3575   2.387   0.233   0.115 -0.3033 -0.1503 -0.1744
  232MPD1    C5 3576   2.438   0.199   0.237 -0.0004 -0.3290  0.4688
  232MPD1     H 3577   2.336   4.652   0.015  3.5499 -2.0514  1.4457
  232MPD1    H1 3578   2.384   0.333   0.074  0.4839  0.0853  0.3388
  232MPD1    H2 3579   2.506   0.069   0.374 -1.8958 -1.5239  1.9027
  232MPD1    H3 3580   2.483   0.271   0.304  0.8277  0.7909 -1.2928
  232MPD1     N 3581   2.238   0.152  17.665 -0.0206  0.1077 -1.3433
  232MPD1    H5 3582   2.208   0.072  17.611 -1.7211  0.3457 -0.7550
  232MPD1    N1 3583   2.431   4.575   0.244 -0.3960  0.5655 -0.1557
  232MPD1    H6 3584   2.380   4.504   0.193 -0.5361  1.6528 -1.5549
  232MPD1    H7 3585   2.419   4.557   0.343  0.6374 -0.4659 -0.2244
  233MPD1     C 3586   3.115   2.272   0.409  0.1204 -0.0414 -0.3089
  233MPD1    C1 3587   3.204   2.228   0.314  0.2373 -0.4275  0.5325
  233MPD1    C2 3588   3.337   2.218   0.352 -0.0022 -0.6357  0.1444
  233MPD1    C3 3589   3.381   2.247   0.482  0.0079 -0.3348  0.7371
  233MPD1    C4 3590   3.284   2.289   0.576  0.2478 -0.5664 -0.3508
  233MPD1    C5 3591   3.153   2.311   0.536 -0.0465  0.9011 -1.0006
  233MPD1     H 3592   3.406   2.186   0.275 -0.6220  0.7311 -0.9846
  233MPD1    H1 3593   3.312   2.339   0.669  0.9524  0.8691 -1.3282
  233MPD1    H2 3594   3.010   2.280   0.383 -0.2433  2.4017  1.8907
  233MPD1    H3 3595   3.076   2.359   0.594  1.7581  2.8862 -0.2471
  233MPD1     N 3596   3.513   2.223   0.529 -0.1228 -0.8402 -0.3712
  233MPD1    H5 3597   3.545   2.249   0.622 -1.8957  1.3917 -0.3962
  233MPD1    N1 3598   3.161   2.217   0.178 -0.7904 -0.5288  0.3415
  233MPD1    H6 3599   3.224   2.156   0.126 -1.2096 -0.0363 -0.7454
  233MPD1    H7 3600   3.076   2.160   0.180  0.4495 -2.4384 -0.7247
  234MPD1     C 3601   4.420   1.758   8.567  0.6815  0.0689 -0.1108
  234MPD1    C1 3602   4.285   1.781   8.598  0.0947  0.2074  0.6546
  234MPD1    C2 3603   4.265   1.904   8.670  0.2184 -0.1886 -0.8391
  234MPD1    C3 3604   4.364   2.001   8.675 -0.2311  0.0322  0.8524
  234MPD1    C4 3605   4.485   1.977   8.612 -0.2976  0.3540 -0.1052
  234MPD1    C5 3606   4.510   1.857   8.552  0.2410 -0.2856  1.0574
  234MPD1     H 3607   4.176   1.923   8.729  1.1189 -2.0245  1.1412
  234MPD1    H1 3608   4.558   2.057   8.609 -2.6142  2.5247  1.1615
  234MPD1    H2 3609   4.455   1.669   8.517  1.7673  0.3808  0.0773
  234MPD1    H3 3610   4.613   1.846   8.520  1.3300  0.5488  4.2563
  234MPD1     N 3611   4.333   2.127   8.735 -0.2440  0.5859 -0.0270
  234MPD1    H5 3612   4.238   2.148   8.766  0.0732  3.0785 -0.7245
  234MPD1    N1 3613   4.186   1.682   8.600 -0.2519 -0.3134 -0.0268
  234MPD1    H6 3614   4.093   1.724   8.600  0.8513  2.1510 -1.2838
  234MPD1    H7 3615   4.211   1.612   8.530 -2.4373 -2.0288  0.9173
  235MPD1     C 3616   2.039   4.070  10.383 -0.8079  0.4615 -0.7759
  235MPD1    C1 3617   2.011   4.182  10.306  0.5925  0.1321 -0.7405
  235MPD1    C2 3618   2.077   4.297  10.331 -0.8538 -0.5165 -0.1794
  235MPD1    C3 3619   2.165   4.300  10.437  0.1930  0.8813 -0.0176
  235MPD1    C4 3620   2.193   4.196  10.517  0.3260 -1.2369 -0.5953
  235MPD1    C5 3621   2.130   4.077  10.485 -0.3805 -0.0770  0.4715
  235MPD1     H 3622   2.065   4.387  10.272 -1.4351 -0.0424  0.6587
  235MPD1    H1 3623   2.252   4.191  10.608 -1.1661 -1.2442  0.3668
  235MPD1    H2 3624   1.980   3.980  10.369 -0.6803  0.1051  1.0057
  235MPD1    H3 3625   2.142   3.994  10.554  2.5648  0.6875  0.8666
  235MPD1     N 3626   2.235   4.419  10.459 -0.0155 -0.0452  0.2242
  235MPD1    H5 3627   2.222   4.492  10.389  2.9715  0.8946  0.6481
  235MPD1    N1 3628   1.944   4.163  10.183 -0.0797 -0.5600 -0.1852
  235MPD1    H6 3629   1.880   4.084  10.175  1.5408 -2.0311  1.4446
  235MPD1    H7 3630   1.903   4.249  10.146  3.4827  1.2873  0.1200
  236MPD1     C 3631   0.870   0.613   9.546  0.0797  0.4015 -0.3541
  236MPD1    C1 3632   0.889   0.521   9.643  0.0117 -0.4036  0.5611
  236MPD1    C2 3633   1.015   0.502   9.699  0.2283  0.0984 -0.4562
  236MPD1    C3 3634   1.125   0.575   9.653  0.0057  0.0865  0.0936
  236MPD1    C4 3635   1.106   0.668   9.546 -0.0575  0.3014  0.3284
  236MPD1    C5 3636   0.982   0.689   9.504 -0.2758 -0.1959 -0.1343
  236MPD1     H 3637   1.035   0.431   9.778 -0.3097 -0.6313 -0.9719
  236MPD1    H1 3638   1.194   0.718   9.507 -0.2986  0.2354 -0.3096
  236MPD1    H2 3639   0.779   0.644   9.497 -0.5143  0.5031  0.8120
  236MPD1    H3 3640   0.972   0.763   9.426 -0.2454 -0.3508 -0.2836
  236MPD1     N 3641   1.252   0.567   9.709 -0.3003 -0.4625  0.5239
  236MPD1    H5 3642   1.322   0.634   9.681 -0.8687  0.0312  0.2778
  236MPD1    N1 3643   0.778   0.462   9.707 -0.2075 -0.1051  0.1500
  236MPD1    H6 3644   0.694   0.444   9.653  0.1366 -4.6595  1.0932
  236MPD1    H7 3645   0.804   0.370   9.743 -1.2975 -0.2694  0.5128
  237MPD1     C 3646   1.586   3.530  15.075  0.6636 -0.4844 -0.3506
  237MPD1    C1 3647   1.495   3.633  15.071  0.4250 -0.1489 -0.7639
  237MPD1    C2 3648   1.365   3.610  15.102 -0.0578  0.4429  0.2139
  237MPD1    C3 3649   1.324   3.484  15.158  0.0036  0.2762  1.0032
  237MPD1    C4 3650   1.418   3.388  15.172 -0.6839 -0.1075 -0.0274
  237MPD1    C5 3651   1.542   3.405  15.115 -0.0072 -0.0615 -0.6259
  237MPD1     H 3652   1.308   3.701  15.097  2.2535  1.9723  1.5437
  237MPD1    H1 3653   1.393   3.288  15.206  0.0783 -0.4014 -0.3069
  237MPD1    H2 3654   1.684   3.536  15.031  0.2725 -0.2051 -1.1793
  237MPD1    H3 3655   1.599   3.313  15.108  0.1601 -0.0605  0.7306
  237MPD1     N 3656   1.189   3.466  15.197 -0.8505 -0.3749 -0.2792
  237MPD1    H5 3657   1.156   3.382  15.243  0.7713 -1.2018 -0.6362
  237MPD1    N1 3658   1.534   3.740  15.004 -0.5149 -0.3367  0.1329
  237MPD1    H6 3659   1.633   3.748  15.025 -0.6642  1.8778  0.0934
  237MPD1    H7 3660   1.487   3.828  15.025  1.3350  0.6654  0.1401
  238MPD1     C 3661   3.361   2.360  14.916  0.4077  0.9201  0.4882
  238MPD1    C1 3662   3.327   2.269  15.012 -0.7817 -0.2834  0.9108
  238MPD1    C2 3663   3.195   2.233  15.016  0.5109  0.1940  0.2367
  238MPD1    C3 3664   3.109   2.266  14.905  0.1504 -0.5187  0.5283
  238MPD1    C4 3665   3.142   2.360  14.816  0.5215 -0.2338  0.0206
  238MPD1    C5 3666   3.270   2.407  14.821 -0.8245 -0.5162  0.0710
  238MPD1     H 3667   3.160   2.164  15.092 -3.5583 -0.1965 -1.9445
  238MPD1    H1 3668   3.072   2.406  14.748  0.2042 -0.2153  0.3632
  238MPD1    H2 3669   3.462   2.398  14.901  1.5277 -2.1834  0.1591
  238MPD1    H3 3670   3.300   2.472  14.739 -0.1355 -2.4337 -1.1950
  238MPD1     N 3671   2.971   2.233  14.900  0.2174 -0.1220 -0.3999
  238MPD1    H5 3672   2.915   2.283  14.832  0.3879 -0.2200 -0.6155
  238MPD1    N1 3673   3.409   2.244  15.117 -0.3802 -0.0473 -0.0658
  238MPD1    H6 3674   3.375   2.163  15.168 -0.1031 -0.3836 -0.4172
  238MPD1    H7 3675   3.499   2.219  15.077 -0.0877  1.2953 -0.2546
  239MPD1     C 3676   3.278   3.653  14.969  0.3296 -0.6180 -0.1086
  239MPD1    C1 3677   3.338   3.619  14.849  1.0260  0.1641  0.7401
  239MPD1    C2 3678   3.293   3.513  14.769 -1.0243  0.0397  0.1509
  239MPD1    C3 3679   3.195   3.432  14.825  0.4992 -0.5103 -0.4524
  239MPD1    C4 3680   3.138   3.465  14.947  0.1733 -0.3086 -0.3112
  239MPD1    C5 3681   3.180   3.576  15.018 -0.0307 -0.0520 -0.5741
  239MPD1     H 3682   3.331   3.501  14.669 -1.7591 -0.2877 -0.0876
  239MPD1    H1 3683   3.054   3.412  14.989 -0.5584  1.6731  0.7537
  239MPD1    H2 3684   3.306   3.734  15.035  0.7562  1.2904 -2.6630
  239MPD1    H3 3685   3.126   3.603  15.108 -0.1612 -0.5929 -0.4885
  239MPD1     N 3686   3.152   3.316  14.761 -0.0391 -0.3520  0.2614
  239MPD1    H5 3687   3.075   3.276  14.815 -1.3073  0.0233 -1.2600
  239MPD1    N1 3688   3.422   3.711  14.801 -0.0443  0.9002 -0.4587
  239MPD1    H6 3689   3.476   3.749  14.878  0.6680  1.3967 -1.2033
  239MPD1    H7 3690   3.481   3.686  14.722 -3.0290 -3.6658 -1.2951
  240MPD1     C 3691   2.513   2.825  13.718 -0.3316 -0.4609  0.2128
  240MPD1    C1 3692   2.478   2.690  13.714  0.4602 -0.5741 -0.4465
  240MPD1    C2 3693   2.442   2.622  13.831 -0.0198  0.5091 -0.6255
  240MPD1    C3 3694   2.423   2.688  13.957 -0.1096 -0.1225  0.3787
  240MPD1    C4 3695   2.457   2.828  13.961 -0.0964  0.9405  0.8040
  240MPD1    C5 3696   2.508   2.889  13.843 -0.2450  0.1045 -0.6524
  240MPD1     H 3697   2.426   2.515  13.827  1.1461  0.3094  0.0626
  240MPD1    H1 3698   2.444   2.889  14.049 -0.9032 -2.6570  3.1438
  240MPD1    H2 3699   2.550   2.886  13.636  1.2112 -0.2892  1.0544
  240MPD1    H3 3700   2.533   2.994  13.837 -1.6952  0.3594 -2.0943
  240MPD1     N 3701   2.383   2.613  14.064 -0.4368  0.3451 -0.5334
  240MPD1    H5 3702   2.351   2.519  14.046 -1.7769  0.4545  1.3615
  240MPD1    N1 3703   2.524   2.617  13.604  0.4700 -0.3369 -0.3585
  240MPD1    H6 3704   2.488   2.523  13.590  1.8825 -0.7117 -1.4545
  240MPD1    H7 3705   2.524   2.675  13.520 -1.1984  0.6299  0.3155
  241MPD1     C 3706   2.334   2.509  15.173  0.3280  0.1665  0.1150
  241MPD1    C1 3707   2.405   2.599  15.105  0.5526 -0.7005 -0.3340
  241MPD1    C2 3708   2.407   2.586  14.972 -0.6437 -0.7538  1.0059
  241MPD1    C3 3709   2.348   2.479  14.905 -0.0929 -0.0071 -0.2587
  241MPD1    C4 3710   2.285   2.385  14.985 -0.3546 -0.5594 -0.1005
  241MPD1    C5 3711   2.272   2.402  15.118 -0.0893 -0.0892  0.1833
  241MPD1     H 3712   2.456   2.663  14.913 -1.5503  0.5553  1.9823
  241MPD1    H1 3713   2.237   2.298  14.941 -2.3783 -0.3351  1.7057
  241MPD1    H2 3714   2.309   2.532  15.276  2.7779 -0.3593  0.8258
  241MPD1    H3 3715   2.226   2.340  15.193 -0.5556 -0.7333 -0.6488
  241MPD1     N 3716   2.353   2.458  14.763  0.4425 -0.1486  0.1973
  241MPD1    H5 3717   2.298   2.378  14.731  0.9803 -0.0484 -0.9946
  241MPD1    N1 3718   2.441   2.722  15.166 -0.1246 -0.2298 -0.2809
  241MPD1    H6 3719   2.508   2.775  15.110  0.3640 -1.5003 -0.8975
  241MPD1    H7 3720   2.466   2.718  15.265 -1.6285 -0.2719  0.0923
  242MPD1     C 3721   1.390   0.955  15.890 -0.3744  0.4435 -0.4110
  242MPD1    C1 3722   1.498   1.046  15.865 -0.4203  0.0480  0.1373
  242MPD1    C2 3723   1.600   0.994  15.780 -0.0300 -0.0205  0.3552
  242MPD1    C3 3724   1.599   0.866  15.721 -0.4961 -0.0067  0.7274
  242MPD1    C4 3725   1.484   0.791  15.744 -0.4502  0.6071  0.5883
  242MPD1    C5 3726   1.383   0.832  15.828  0.1720  0.1671 -0.1300
  242MPD1     H 3727   1.687   1.057  15.765  0.0178 -0.6225 -1.8826
  242MPD1    H1 3728   1.470   0.697  15.692 -0.2738  0.7569  0.2689
  242MPD1    H2 3729   1.306   0.989  15.950  0.3315  2.4373 -0.5756
  242MPD1    H3 3730   1.296   0.768  15.835  0.8084 -0.7211 -0.3294
  242MPD1     N 3731   1.694   0.801  15.648 -0.1719  0.3875  0.5105
  242MPD1    H5 3732   1.679   0.704  15.621  0.8948 -0.5210  3.1876
  242MPD1    N1 3733   1.516   1.163  15.946 -0.3774 -0.3669 -0.2864
  242MPD1    H6 3734   1.436   1.196  15.999  1.4963  2.1729  0.9908
  242MPD1    H7 3735   1.573   1.238  15.907 -2.2981  1.3067  0.1652
  243MPD1     C 3736   2.532   4.031  16.879 -0.0038  0.3295  0.7258
  243MPD1    C1 3737   2.531   4.020  17.018  0.1167 -0.4269 -0.0100
  243MPD1    C2 3738   2.654   4.031  17.088  0.3101 -0.1265 -0.6791
  243MPD1    C3 3739   2.775   4.038  17.025  0.2019 -0.3504 -0.1606
  243MPD1    C4 3740   2.772   4.033  16.886  0.5744  0.1435  0.0394
  243MPD1    C5 3741   2.655   4.032  16.817 -0.3409  0.3358 -0.1165
  243MPD1     H 3742   2.669   4.036  17.195 -2.4164  1.9435 -0.3760
  243MPD1    H1 3743   2.865   4.041  16.830  0.1982 -0.5171 -0.6878
  243MPD1    H2 3744   2.445   4.033  16.815  1.3990  1.0559 -1.1650
  243MPD1    H3 3745   2.664   4.043  16.709  1.9849  0.4743  0.0897
  243MPD1     N 3746   2.894   4.037  17.103 -0.2886 -0.3217 -0.2608
  243MPD1    H5 3747   2.902   4.022  17.203  0.7339  0.7154 -0.1875
  243MPD1    N1 3748   2.408   4.034  17.089  0.4503 -0.2254 -0.2736
  243MPD1    H6 3749   2.329   3.994  17.039  0.8194 -2.4792  0.9574
  243MPD1    H7 3750   2.408   3.988  17.179 -1.0828  0.7861  0.2351
  244MPD1     C 3751   3.529   3.645   0.072  0.3412  0.2061 -0.5684
  244MPD1    C1 3752   3.569   3.775   0.056  0.3356 -0.2779 -0.5608
  244MPD1    C2 3753   3.518   3.852  17.692 -0.0204  0.0566  0.1215
  244MPD1    C3 3754   3.410   3.804  17.617 -0.4351 -0.4011 -0.8276
  244MPD1    C4 3755   3.374   3.672  17.633 -0.2813 -0.0149 -0.0037
  244MPD1    C5 3756   3.435   3.596  17.726  0.2038  0.6696  0.8053
  244MPD1     H 3757   3.550   3.954  17.675  0.3096 -0.1972 -0.7607
  244MPD1    H1 3758   3.302   3.620  17.571  2.0729 -3.4453  0.1138
  244MPD1    H2 3759   3.570   3.573   0.142  2.5655  1.6277 -0.4144
  244MPD1    H3 3760   3.404   3.494   0.004  0.4392  0.4594  0.0152
  244MPD1     N 3761   3.373   3.877  17.499  1.1034  0.5864  0.0888
  244MPD1    H5 3762   3.415   3.968  17.481 -0.2962  1.0807 -0.6873
  244MPD1    N1 3763   3.666   3.816   0.140  0.2398 -0.6619  0.5359
  244MPD1    H6 3764   3.697   3.749   0.210 -0.1773 -2.2313 -0.7975
  244MPD1    H7 3765   3.748   3.839   0.084 -0.8536  0.9792 -0.3965
  245MPD1     C 3766   1.441   4.538  12.670  0.6504 -0.5782  1.0670
  245MPD1    C1 3767   1.327   4.553  12.741  0.8443 -0.0208  0.1259
  245MPD1    C2 3768   1.351   4.633  12.856  0.1244  0.1209  0.3440
  245MPD1    C3 3769   1.478   4.683  12.898  0.2936  0.0534  0.5156
  245MPD1    C4 3770   1.583   4.676  12.810 -0.7043  0.5348 -0.0887
  245MPD1    C5 3771   1.560   4.602  12.695  0.2032  0.3343 -0.3169
  245MPD1     H 3772   1.271   4.649  12.928 -0.1232  2.3560 -0.4341
  245MPD1    H1 3773   1.688   4.702  12.819 -0.7619 -0.0311  2.2627
  245MPD1    H2 3774   1.443   4.469  12.586 -0.6633  0.1170  0.4560
  245MPD1    H3 3775   1.643   4.592  12.626 -0.5118  2.3035 -1.4712
  245MPD1     N 3776   1.482   0.032  13.011 -0.5215  0.2717  0.3765
  245MPD1    H5 3777   1.396   0.034  13.064 -0.7405 -0.9647  0.0765
  245MPD1    N1 3778   1.207   4.482  12.723 -0.3022 -0.0770  0.2240
  245MPD1    H6 3779   1.125   4.538  12.745  0.2794  0.8081  0.1535
  245MPD1    H7 3780   1.193   4.461  12.625  2.4269 -1.1146  0.0631
  246MPD1     C 3781   1.295   4.163   9.969  0.3421 -0.9943  0.2773
  246MPD1    C1 3782   1.284   4.268   9.882 -0.8720  0.0668 -0.0126
  246MPD1    C2 3783   1.401   4.349   9.873  0.6737 -0.1186 -0.1199
  246MPD1    C3 3784   1.511   4.336   9.955 -0.0950 -0.4756 -0.4551
  246MPD1    C4 3785   1.514   4.224  10.041  0.2967 -0.2189  0.1079
  246MPD1    C5 3786   1.408   4.132  10.046 -0.5136  0.0139 -0.4309
  246MPD1     H 3787   1.391   4.439   9.814  0.4014  1.0901  1.7476
  246MPD1    H1 3788   1.601   4.188  10.094 -0.8216 -2.0811  0.7029
  246MPD1    H2 3789   1.209   4.097   9.974  0.0831 -0.8664 -2.7135
  246MPD1    H3 3790   1.400   4.052  10.118  0.1556 -0.1784 -0.5770
  246MPD1     N 3791   1.615   4.431   9.959 -0.1757  0.3273 -0.3251
  246MPD1    H5 3792   1.591   4.514   9.906  0.0651 -0.2677 -1.3748
  246MPD1    N1 3793   1.191   4.274   9.782  0.5792 -0.1400  0.2446
  246MPD1    H6 3794   1.189   4.370   9.747  2.0915  0.3707  1.5742
  246MPD1    H7 3795   1.100   4.235   9.805 -0.0779  0.4167 -1.3745
  247MPD1     C 3796   4.396   0.202  16.332 -0.5831 -0.7010 -0.1038
  247MPD1    C1 3797   4.425   0.195  16.200  0.0323 -0.4924  0.6742
  247MPD1    C2 3798   4.521   0.110  16.151 -0.0856  0.1798  0.7060
  247MPD1    C3 3799   4.590   0.033  16.237 -0.4152 -0.2448 -0.2963
  247MPD1    C4 3800   4.551   0.030  16.368 -0.5899 -0.1900  1.0436
  247MPD1    C5 3801   4.452   0.113  16.419  0.5045 -0.8507  1.0096
  247MPD1     H 3802   4.550   0.107  16.046  0.2973  0.7074  0.7945
  247MPD1    H1 3803   4.595   4.695  16.438  0.3388 -1.2856 -0.6228
  247MPD1    H2 3804   4.305   0.252  16.364  0.3701  0.3902  0.8581
  247MPD1    H3 3805   4.420   0.100  16.521 -0.1711  0.4274  0.9641
  247MPD1     N 3806   4.689   4.676  16.189  0.7080 -0.2021 -0.4291
  247MPD1    H5 3807   0.001   4.620  16.259  0.4308 -0.6094 -0.5699
  247MPD1    N1 3808   4.365   0.288  16.117 -0.8534 -0.5820 -0.1359
  247MPD1    H6 3809   4.275   0.324  16.146 -0.6320 -0.1649  0.0223
  247MPD1    H7 3810   4.370   0.258  16.019 -0.2502  0.0079 -0.2900
  248MPD1     C 3811   0.688   3.562  17.537 -0.0447  0.1426 -0.3710
  248MPD1    C1 3812   0.653   3.697  17.558  0.5697  0.0078 -0.4394
  248MPD1    C2 3813   0.653   3.741  17.685  0.6488  0.0131  0.4664
  248MPD1    C3 3814   0.698   3.658   0.049 -0.2549  0.0608 -0.2433
  248MPD1    C4 3815   0.730   3.528   0.023  0.2084 -0.1551 -0.0979
  248MPD1    C5 3816   0.732   3.483  17.640 -0.3557 -0.2785 -0.1664
  248MPD1     H 3817   0.609   3.836  17.712  1.3076  0.1758  0.9941
  248MPD1    H1 3818   0.767   3.465   0.103 -0.2103  1.2282  1.2047
  248MPD1    H2 3819   0.683   3.519  17.437  1.2633 -1.1576  0.1256
  248MPD1    H3 3820   0.769   3.381  17.630  2.0438  0.4618  0.9658
  248MPD1     N 3821   0.706   3.706   0.185 -0.1381  0.1704 -0.2271
  248MPD1    H5 3822   0.670   3.800   0.197 -2.2108 -0.4905 -1.2995
  248MPD1    N1 3823   0.584   3.770  17.457 -0.3168  0.0990 -0.1569
  248MPD1    H6 3824   0.623   3.743  17.367  0.5647 -1.6639  0.7506
  248MPD1    H7 3825   0.588   3.870  17.475  1.9149 -0.3021  1.6628
  249MPD1     C 3826   1.500   3.766   9.937 -0.2210 -0.2833  0.3799
  249MPD1    C1 3827   1.477   3.817   9.813 -0.3224  0.0629 -0.4567
  249MPD1    C2 3828   1.588   3.851   9.731 -0.6605 -0.4074 -0.2135
  249MPD1    C3 3829   1.719   3.845   9.773 -0.8349  1.3657  0.5454
  249MPD1    C4 3830   1.738   3.810   9.911  0.6207  0.2902 -0.0795
  249MPD1    C5 3831   1.628   3.778   9.989  0.0102 -0.1287  0.2216
  249MPD1     H 3832   1.562   3.902   9.639 -1.3524 -0.8715 -0.2770
  249MPD1    H1 3833   1.838   3.807   9.953  0.9228  2.6098 -0.6047
  249MPD1    H2 3834   1.423   3.719   9.997 -0.4358  0.8724  1.0197
  249MPD1    H3 3835   1.639   3.754  10.094  0.6873  0.5665  0.3116
  249MPD1     N 3836   1.819   3.889   9.685  0.2222  0.7527  0.0169
  249MPD1    H5 3837   1.786   3.940   9.604 -0.4835 -0.1635 -0.2772
  249MPD1    N1 3838   1.356   3.806   9.747  0.0321  0.1408  0.1863
  249MPD1    H6 3839   1.357   3.882   9.679 -2.2357  0.8584  0.9582
  249MPD1    H7 3840   1.283   3.831   9.813  0.4992  2.4120 -0.1752
  250MPD2     C 3841   4.425   3.380  12.899  0.1291 -0.0298 -0.0906
  250MPD2    C1 3842   4.372   3.439  13.016  0.6853 -0.1228 -0.1420
  250MPD2    C2 3843   4.242   3.407  13.054 -0.3604 -0.5244 -0.1689
  250MPD2    C3 3844   4.176   3.301  12.998  0.1425 -0.0472 -0.3025
  250MPD2    C4 3845   4.243   3.225  12.906 -0.3544 -0.4927 -0.7755
  250MPD2    C5 3846   4.365   3.263  12.861  1.0707 -0.3708  0.1449
  250MPD2     H 3847   4.196   3.452  13.141  2.1918 -0.0235  0.8962
  250MPD2    H1 3848   4.199   3.140  12.855  0.0005 -0.5371 -1.0095
  250MPD2    H2 3849   4.517   3.407  12.849  1.5355 -0.8084  2.0815
  250MPD2    H3 3850   4.396   3.208  12.773  2.9382  1.0471 -0.0833
  250MPD2     N 3851   4.052   3.249  13.041 -0.6078 -0.2947  0.1016
  250MPD2    H5 3852   4.016   3.161  13.005 -0.7020  0.4539 -1.6380
  250MPD2    N1 3853   4.449   3.544  13.068  0.2686 -0.3960 -0.0899
  250MPD2    H7 3854   4.546   3.537  13.042 -0.2330 -2.3243 -1.4538
  251TMC3    C1 3855   4.521   3.717  13.214 -0.5630 -1.1380  0.2815
  251TMC3    C2 3856   4.477   3.829  13.287 -0.3171  0.1682  0.7806
  251TMC3    C3 3857   4.561   3.940  13.285 -0.3824  0.0177  0.7075
  251TMC3    C4 3858   4.640   3.720  13.149 -0.6208  0.6602  0.0308
  251TMC3    C5 3859   4.721   3.832  13.154  0.2694 -0.5710 -0.1074
  251TMC3    C6 3860   4.678   3.948  13.214 -0.2053  0.1140  0.4017
  251TMC3     C 3861   4.413   3.626  13.169  0.6031  0.3890  0.3609
  251TMC3     O 3862   4.304   3.637  13.225  0.3222 -0.3784  0.2864
  251TMC3     H 3863   4.387   3.828  13.348  0.3605 -1.2820  1.7595
  251TMC3    H1 3864   4.691   3.630  13.116  0.0458  0.9376  0.3164
  251TMC3    H2 3865   0.019   4.017  13.248  0.8932 -0.7396 -0.3338
  251TMC3    C7 3866   0.133   3.802  13.146 -0.0494 -0.3929  0.2033
  251TMC3    C8 3867   4.521   4.048  13.375 -0.2234  0.4151  0.5259
  251TMC3    O1 3868   0.161   3.687  13.179 -0.2177  0.4182  0.5397
  251TMC3    O2 3869   4.447   4.018  13.467  0.6223 -0.0516  0.2921
  252TMC3    C1 3870   3.882   0.624  10.113 -0.0030  0.0375 -0.0007
  252TMC3    C2 3871   3.989   0.697  10.069  1.3294 -0.1583  0.3528
  252TMC3    C3 3872   4.116   0.655  10.103 -0.4956  0.3934  1.0806
  252TMC3    C4 3873   3.900   0.505  10.179  0.2308  0.4229 -0.2538
  252TMC3    C5 3874   4.027   0.466  10.198 -0.3671 -0.0397  0.1979
  252TMC3    C6 3875   4.131   0.542  10.168 -0.3022  0.0765  0.2406
  252TMC3     C 3876   3.754   0.682  10.133  0.5385 -0.2720 -0.4462
  252TMC3     O 3877   3.682   0.650  10.225  0.4597  0.2242 -0.4953
  252TMC3     H 3878   3.989   0.798  10.030 -0.8085  0.1552  1.1545
  252TMC3    H1 3879   3.818   0.455  10.229  1.6821 -0.1211  1.5794
  252TMC3    H2 3880   4.230   0.506  10.195 -0.2924 -0.9114 -1.0927
  252TMC3    C7 3881   4.041   0.339  10.267  0.0641  0.0211  0.0284
  252TMC3    C8 3882   4.230   0.750  10.075 -0.6424 -0.0980 -0.0112
  252TMC3    O1 3883   3.936   0.298  10.305  0.5908  0.0704  0.0887
  252TMC3    O2 3884   4.220   0.820   9.979  0.3021  0.1550 -0.4506
  253MPD2     C 3885   0.575   3.564  15.284  0.3279 -0.3199 -0.3064
  253MPD2    C1 3886   0.447   3.536  15.258 -0.2146  0.7510  0.2193
  253MPD2    C2 3887   0.369   3.473  15.354 -0.0246 -0.3001 -0.0878
  253MPD2    C3 3888   0.437   3.432  15.467  0.2331  0.4919  0.1573
  253MPD2    C4 3889   0.571   3.455  15.490  0.7497 -0.4076 -0.1462
  253MPD2    C5 3890   0.640   3.522  15.393 -0.3263 -0.0464  0.3025
  253MPD2     H 3891   0.261   3.471  15.345  0.0681 -0.2290 -1.1724
  253MPD2    H1 3892   0.627   3.424  15.577  1.3514  0.7320 -0.1233
  253MPD2    H2 3893   0.635   3.616  15.210  0.5918  1.1877  0.9602
  253MPD2    H3 3894   0.745   3.543  15.414 -0.6825  1.8106  0.1973
  253MPD2     N 3895   0.372   3.376  15.580  0.0518 -0.3219 -0.2517
  253MPD2    H5 3896   0.432   3.334  15.650 -0.6976 -4.3304 -1.9877
  253MPD2    N1 3897   0.380   3.585  15.139 -0.3550 -0.5506  0.5300
  253MPD2    H7 3898   0.286   3.549  15.130 -0.5576  0.0987  0.0888
  254TMC3    C1 3899   0.189   3.293  15.704  0.3480 -0.5925 -0.2255
  254TMC3    C2 3900   0.056   3.314  15.727 -0.1435 -0.3171  0.1984
  254TMC3    C3 3901   0.018   3.286  15.854 -0.7352 -0.7370  0.5807
  254TMC3    C4 3902   0.273   3.234  15.794  1.4023  0.7090 -0.1030
  254TMC3    C5 3903   0.219   3.201  15.917 -0.1089  1.2791  0.4329
  254TMC3    C6 3904   0.092   3.225  15.954 -0.0966 -0.3489  0.0182
  254TMC3     C 3905   0.241   3.367  15.590  0.1143 -0.1814 -0.1013
  254TMC3     O 3906   0.156   3.435  15.534 -0.0724 -0.1692 -0.6585
  254TMC3     H 3907   4.719   3.351  15.655 -0.3246  0.6402  0.8709
  254TMC3    H1 3908   0.370   3.194  15.766  0.9002  0.8845 -2.0881
  254TMC3    H2 3909   0.054   3.197  16.052 -0.4252  0.0431  0.0037
  254TMC3    C7 3910   0.301   3.138  16.022  0.2281  0.3465  0.3289
  254TMC3    C8 3911   4.635   3.353  15.908 -0.8622 -0.9500 -0.3419
  254TMC3    O1 3912   0.244   3.105  16.126  0.3328  0.1321  0.5240
  254TMC3    O2 3913   4.600   3.327  16.018  0.0901  0.3649 -0.5542
  255MPD2     C 3914   3.231   3.422  10.094  0.5566 -0.6320 -0.4580
  255MPD2    C1 3915   3.204   3.291  10.107 -0.0324 -0.2793  0.5951
  255MPD2    C2 3916   3.302   3.207  10.081 -0.1566  0.0469 -0.4655
  255MPD2    C3 3917   3.427   3.251  10.026  0.6937  0.5580 -0.5183
  255MPD2    C4 3918   3.449   3.382   9.998 -0.3223  0.0137 -0.0404
  255MPD2    C5 3919   3.344   3.473  10.031 -0.7625  0.7035 -0.1650
  255MPD2     H 3920   3.287   3.100  10.088  0.0652 -0.2618 -4.7953
  255MPD2    H1 3921   3.534   3.425   9.947 -2.0859  1.4557 -1.7759
  255MPD2    H2 3922   3.157   3.496  10.122  1.1220 -0.1224 -0.3200
  255MPD2    H3 3923   3.352   3.580  10.020  1.0406  0.3606 -2.2505
  255MPD2     N 3924   3.523   3.150   9.993 -0.9948 -0.0114 -0.6260
  255MPD2    H5 3925   3.512   3.056  10.030  0.0237 -0.7213 -2.1719
  255MPD2    N1 3926   3.071   3.247  10.135  0.0709  0.2220 -0.7962
  255MPD2    H7 3927   2.997   3.315  10.119  0.3616  0.7207 -0.0048
  256TMC3    C1 3928   2.903   3.075  10.143  0.0368  0.2379  0.5251
  256TMC3    C2 3929   2.822   3.154  10.062 -0.3216 -0.4251  0.4826
  256TMC3    C3 3930   2.724   3.097   9.988  0.5183 -0.0093  0.0587
  256TMC3    C4 3931   2.898   2.938  10.133 -0.7520  0.2070  0.4902
  256TMC3    C5 3932   2.792   2.885  10.063 -0.4881  0.3009  0.1515
  256TMC3    C6 3933   2.705   2.964   9.991  0.2808 -0.6316  0.2256
  256TMC3     C 3934   3.031   3.115  10.172 -0.2142 -0.0327 -0.3568
  256TMC3     O 3935   3.115   3.036  10.203 -0.1709  0.3807  0.0728
  256TMC3     H 3936   2.848   3.258  10.044 -0.1824 -1.1296 -3.4873
  256TMC3    H1 3937   2.956   2.878  10.202 -0.6453  0.2280  0.4187
  256TMC3    H2 3938   2.616   2.922   9.947 -0.5147  1.6693 -0.3678
  256TMC3    C7 3939   2.781   2.748  10.073  0.0705  0.2141  0.0906
  256TMC3    C8 3940   2.650   3.162   9.880 -0.6103  0.7808 -0.2400
  256TMC3    O1 3941   2.808   2.704  10.182  0.5342 -0.1609  0.1436
  256TMC3    O2 3942   2.531   3.133   9.872 -0.3959  0.1034  0.1380
  257MPD2     C 3943   2.713   3.297  12.838 -0.5852  0.1971  0.1881
  257MPD2    C1 3944   2.752   3.341  12.965 -0.2814 -0.1985 -0.4214
  257MPD2    C2 3945   2.746   3.252  13.074 -0.4076 -0.2420 -0.3712
  257MPD2    C3 3946   2.726   3.114  13.047  0.2490  0.2452 -0.3088
  257MPD2    C4 3947   2.682   3.071  12.924  0.4546  0.7372 -0.4530
  257MPD2    C5 3948   2.672   3.165  12.824  0.0568 -0.0625  0.5561
  257MPD2     H 3949   2.767   3.284  13.175 -0.2639 -0.8579 -0.2059
  257MPD2    H1 3950   2.663   2.966  12.903 -0.6403  0.4748  1.8090
  257MPD2    H2 3951   2.710   3.362  12.752 -1.2490  0.1032  0.1415
  257MPD2    H3 3952   2.649   3.118  12.729  0.5634  1.3657 -0.2762
  257MPD2     N 3953   2.749   3.014  13.144 -0.3585 -0.6337  0.0709
  257MPD2    H5 3954   2.729   2.919  13.114 -2.1912 -0.1894 -0.1197
  257MPD2    N1 3955   2.783   3.483  12.975  0.2559 -0.7479  0.2540
  257MPD2    H7 3956   2.776   3.531  12.886  0.9031  1.3356  1.3389
  258TMC3    C1 3957   2.804   2.912  13.349  0.0179  0.1324  0.2061
  258TMC3    C2 3958   2.830   2.794  13.276  0.6186  0.3827  0.7728
  258TMC3    C3 3959   2.872   2.684  13.352 -0.1557 -0.1653  0.1395
  258TMC3    C4 3960   2.821   2.922  13.482  0.5485  0.4882 -0.6176
  258TMC3    C5 3961   2.861   2.810  13.552  0.0230  1.0207  0.2299
  258TMC3    C6 3962   2.881   2.691  13.491 -0.3444  0.3734  0.1957
  258TMC3     C 3963   2.790   3.034  13.271 -0.3763 -0.6219  0.4580
  258TMC3     O 3964   2.773   3.138  13.333  0.3636  0.8236 -0.4615
  258TMC3     H 3965   2.821   2.775  13.170  1.6351  1.6179  0.4600
  258TMC3    H1 3966   2.808   3.018  13.531  0.1466  0.4200 -0.5880
  258TMC3    H2 3967   2.907   2.601  13.546  0.2779  0.3215 -0.1762
  258TMC3    C7 3968   2.862   2.822  13.697  0.2326  0.0241 -0.1362
  258TMC3    C8 3969   2.897   2.555  13.283 -1.5790  0.0623 -0.0817
  258TMC3    O1 3970   2.811   2.916  13.757 -0.0695  0.4477  0.9745
  258TMC3    O2 3971   2.908   2.456  13.357 -0.5026  0.2643 -0.3107
  259MPD2     C 3972   1.532   0.026   0.974 -0.1786  0.7938  0.1582
  259MPD2    C1 3973   1.532   4.645   0.912 -0.4311 -0.8585  0.1169
  259MPD2    C2 3974   1.484   4.639   0.777  0.6119 -0.0552  0.7935
  259MPD2    C3 3975   1.424   0.013   0.721 -0.4035 -0.2139  0.5480
  259MPD2    C4 3976   1.415   0.135   0.788 -0.3257  0.0872 -0.0993
  259MPD2    C5 3977   1.478   0.140   0.913 -0.4655  0.1022 -0.0393
  259MPD2     H 3978   1.500   4.550   0.717  0.8388  0.6330 -0.1557
  259MPD2    H1 3979   1.384   0.225   0.737  0.9730 -0.6553 -2.2277
  259MPD2    H2 3980   1.567   0.037   1.076  0.0765 -2.4383  0.4080
  259MPD2    H3 3981   1.479   0.231   0.973  1.3050 -0.7640  1.2506
  259MPD2     N 3982   1.387   0.003   0.581  0.5649 -0.2147 -0.3673
  259MPD2    H5 3983   1.420   4.659   0.528  0.5974  0.6975 -1.7104
  259MPD2    N1 3984   1.588   4.531   0.973 -0.3950  0.0250 -0.4587
  259MPD2    H7 3985   1.633   4.534   1.064  0.1733 -0.5393 -0.7183
  260TMC3    C1 3986   1.334   0.095   0.363  0.3993 -0.0799 -0.0686
  260TMC3    C2 3987   1.303   0.213   0.298 -0.4684  0.3104 -0.1108
  260TMC3    C3 3988   1.326   0.213   0.159 -0.9614  0.1780  0.1734
  260TMC3    C4 3989   1.386   4.714   0.299 -0.2428 -0.0425  0.2454
  260TMC3    C5 3990   1.415   4.720   0.167  0.5493  0.2314 -0.1538
  260TMC3    C6 3991   1.397   0.105   0.092  0.5382  0.1044 -0.3682
  260TMC3     C 3992   1.318   0.104   0.510  0.4013  0.1669 -0.0479
  260TMC3     O 3993   1.254   0.198   0.558  0.2839  0.2704 -0.0009
  260TMC3     H 3994   1.272   0.297   0.359 -0.2989 -0.2883  0.8043
  260TMC3    H1 3995   1.409   4.624   0.355 -0.8651 -0.7195 -0.5955
  260TMC3    H2 3996   1.410   0.105  17.724 -0.7600  1.5049 -0.5240
  260TMC3    C7 3997   1.399   4.606   0.082 -0.3575 -0.4180 -0.2071
  260TMC3    C8 3998   1.321   0.347   0.108 -0.1471  0.4281 -0.3776
  260TMC3    O1 3999   1.437   4.605  17.707  0.1845 -0.0061 -0.1259
  260TMC3    O2 4000   1.278   0.436   0.178 -0.0683 -0.0150  0.4941
  261MPD2     C 4001   3.354   3.490  12.860  0.8174  0.2043 -0.2404
  261MPD2    C1 4002   3.444   3.414  12.787  0.2275  0.1904  0.8825
  261MPD2    C2 4003   3.455   3.421  12.649 -0.6743 -0.2181  0.1860
  261MPD2    C3 4004   3.375   3.507  12.573  0.1975  0.2943  0.4201
  261MPD2    C4 4005   3.290   3.584  12.648  1.1406  0.0716 -0.1245
  261MPD2    C5 4006   3.281   3.579  12.787  0.4241 -0.4179 -0.6369
  261MPD2     H 4007   3.519   3.355  12.592  0.2930  0.3605  0.6018
  261MPD2    H1 4008   3.234   3.671  12.614  0.0822 -0.1807  0.9560
  261MPD2    H2 4009   3.336   3.480  12.966 -0.2487  0.0898 -0.4383
  261MPD2    H3 4010   3.205   3.642  12.832  2.4766  0.9131  0.9744
  261MPD2     N 4011   3.392   3.513  12.436 -0.2892  0.4248 -0.2425
  261MPD2    H5 4012   3.461   3.449  12.397 -1.5239 -1.3012  0.4504
  261MPD2    N1 4013   3.530   3.324  12.856  0.4908 -0.7912 -0.8652
  261MPD2    H7 4014   3.606   3.283  12.802  1.6162 -1.1812  1.0199
  262TMC3    C1 4015   3.397   3.639  12.238  0.6837 -0.2029  0.5512
  262TMC3    C2 4016   3.356   3.750  12.178 -0.2348  0.3888 -0.7428
  262TMC3    C3 4017   3.438   3.810  12.084 -0.3170  0.2997 -0.3666
  262TMC3    C4 4018   3.516   3.585  12.208 -0.9932 -0.4737 -0.5591
  262TMC3    C5 4019   3.599   3.646  12.116  0.3079  0.8354 -0.0759
  262TMC3    C6 4020   3.564   3.764  12.051  0.4215  0.0362 -0.0623
  262TMC3     C 4021   3.326   3.610  12.358 -0.3850  0.5828 -2.3876
  262TMC3     O 4022   3.228   3.682  12.382 -0.5350 -0.8759  0.2373
  262TMC3     H 4023   3.253   3.781  12.195 -0.2599  0.6683 -1.4090
  262TMC3    H1 4024   3.554   3.500  12.264  1.0691 -0.5691 -2.0811
  262TMC3    H2 4025   3.618   3.802  11.965  0.9220 -1.3356 -0.3474
  262TMC3    C7 4026   3.698   3.564  12.053 -0.5308  0.2009  0.1667
  262TMC3    C8 4027   3.399   3.940  12.034 -0.1198  0.2944  0.1792
  262TMC3    O1 4028   3.674   3.442  12.054  0.4823  0.0873 -0.4241
  262TMC3    O2 4029   3.492   4.004  11.993  0.3704 -0.1239 -0.4382
  263MPD2     C 4030   4.353   2.929  11.268 -0.0413 -0.2456  0.1443
  263MPD2    C1 4031   4.439   2.983  11.361 -0.2307 -0.0112  0.0771
  263MPD2    C2 4032   4.553   3.045  11.316 -0.1616 -0.3838 -0.1770
  263MPD2    C3 4033   4.583   3.068  11.186 -0.5056 -0.1670  0.0784
  263MPD2    C4 4034   4.496   3.019  11.090 -0.7027 -0.8382  0.4366
  263MPD2    C5 4035   4.389   2.941  11.134 -0.5454 -0.0809  0.5407
  263MPD2     H 4036   4.620   3.087  11.391 -0.8621 -1.2908  0.9526
  263MPD2    H1 4037   4.506   3.036  10.984  0.2135 -2.6181  0.2378
  263MPD2    H2 4038   4.268   2.869  11.295  1.4086 -1.7559  1.3298
  263MPD2    H3 4039   4.313   2.909  11.064 -0.9488  1.0361  0.4617
  263MPD2     N 4040   4.701   3.138  11.134 -0.4410  0.1563  0.0896
  263MPD2    H5 4041   0.025   3.185  11.202  1.9373 -0.7492 -1.3593
  263MPD2    N1 4042   4.422   2.956  11.497 -0.1083  0.0839 -0.4972
  263MPD2    H7 4043   4.356   2.882  11.520 -0.0734  0.1659 -0.1366
  264TMC3    C1 4044   0.108   3.254  10.993  0.2358  0.6437 -0.5620
  264TMC3    C2 4045   0.105   3.346  11.095 -0.1687  0.2697  0.3784
  264TMC3    C3 4046   0.216   3.415  11.122 -0.4338 -0.5054  0.6004
  264TMC3    C4 4047   0.222   3.233  10.921  0.4941  0.4995 -0.4071
  264TMC3    C5 4048   0.335   3.294  10.962 -0.3861 -0.2338 -0.0090
  264TMC3    C6 4049   0.335   3.397  11.053  0.1314  0.3024 -0.3358
  264TMC3     C 4050   0.003   3.149  10.996  0.4708  0.2151  0.8456
  264TMC3     O 4051   4.727   3.072  10.902 -0.3018  0.2582 -0.4868
  264TMC3     H 4052   0.011   3.374  11.141 -0.5662  3.5400 -2.4281
  264TMC3    H1 4053   0.239   3.143  10.863 -1.5577 -0.9652  1.2468
  264TMC3    H2 4054   0.423   3.456  11.074 -0.2209  1.1196 -1.1714
  264TMC3    C7 4055   0.460   3.254  10.886 -0.2371  0.2689  0.2866
  264TMC3    C8 4056   0.213   3.508  11.232  1.0327 -0.4720  0.1015
  264TMC3    O1 4057   0.450   3.171  10.793  0.4942  0.4352  0.1448
  264TMC3    O2 4058   0.100   3.545  11.266  0.5059  0.1008  0.4034
  265MPD2     C 4059   1.380   2.850  15.275 -0.1562  0.3789  0.4618
  265MPD2    C1 4060   1.482   2.943  15.295  0.3157  0.3628  0.1201
  265MPD2    C2 4061   1.599   2.946  15.216  0.2602 -0.4736 -0.0307
  265MPD2    C3 4062   1.600   2.863  15.103 -0.5136  0.2410  0.0127
  265MPD2    C4 4063   1.496   2.779  15.084 -0.1071  0.1479 -1.1433
  265MPD2    C5 4064   1.389   2.770  15.167 -0.2036 -0.4352 -0.5780
  265MPD2     H 4065   1.676   3.018  15.240  1.9404 -2.2664 -0.0558
  265MPD2    H1 4066   1.497   2.722  14.992 -1.0005 -0.8782 -0.5226
  265MPD2    H2 4067   1.286   2.848  15.329 -0.6004 -0.1227 -0.3398
  265MPD2    H3 4068   1.313   2.693  15.157 -0.1272 -0.7118  0.9400
  265MPD2     N 4069   1.709   2.853  15.019 -0.4775 -0.2552 -0.1077
  265MPD2    H5 4070   1.710   2.776  14.953  1.2875  1.5030 -2.1288
  265MPD2    N1 4071   1.477   3.034  15.407 -0.7315  0.0341 -0.0781
  265MPD2    H7 4072   1.555   3.097  15.424  2.1280 -3.2168 -1.0693
  266TMC3    C1 4073   1.365   3.181  15.554  0.2077 -0.5432 -0.0718
  266TMC3    C2 4074   1.478   3.219  15.625 -0.5050 -0.0226 -0.4465
  266TMC3    C3 4075   1.474   3.332  15.700  0.0991  0.2400 -0.0624
  266TMC3    C4 4076   1.249   3.256  15.551  0.2711  0.0137 -0.1431
  266TMC3    C5 4077   1.248   3.377  15.625  0.1593  0.6972  0.0106
  266TMC3    C6 4078   1.356   3.409  15.705  0.4104 -0.1823 -0.1605
  266TMC3     C 4079   1.364   3.046  15.493 -0.0594  0.0046 -0.6375
  266TMC3     O 4080   1.265   2.974  15.510  0.3024 -0.3264 -0.4680
  266TMC3     H 4081   1.567   3.156  15.625 -1.6533 -1.6596 -0.7448
  266TMC3    H1 4082   1.160   3.226  15.497  1.4061 -1.5034 -1.1426
  266TMC3    H2 4083   1.365   3.506  15.753  0.4790  1.7114 -4.0100
  266TMC3    C7 4084   1.154   3.483  15.597 -0.2305  0.1947 -0.1784
  266TMC3    C8 4085   1.603   3.379  15.744 -0.5986 -0.3682  0.0959
  266TMC3    O1 4086   1.044   3.460  15.644 -0.0562 -0.3875 -0.3619
  266TMC3    O2 4087   1.694   3.297  15.747 -0.1106 -0.4059 -0.3860
  267MPD2     C 4088   3.611   0.004   0.484 -0.0560  0.2969  0.5567
  267MPD2    C1 4089   3.601   0.015   0.344 -1.0038 -0.6756 -0.2412
  267MPD2    C2 4090   3.505   0.101   0.302 -0.2875  0.0090 -0.6097
  267MPD2    C3 4091   3.425   0.172   0.389  0.2582 -1.4557 -1.0428
  267MPD2    C4 4092   3.438   0.158   0.526 -0.1671  0.0041  0.4751
  267MPD2    C5 4093   3.536   0.073   0.577  0.6885 -0.6597 -0.3370
  267MPD2     H 4094   3.494   0.123   0.196 -1.6109  1.2706 -0.2242
  267MPD2    H1 4095   3.367   0.203   0.594  1.0634  0.0816  1.6966
  267MPD2    H2 4096   3.675   4.661   0.523 -1.6247 -0.9293  0.6944
  267MPD2    H3 4097   3.542   0.047   0.682  0.3541  1.1079  0.1243
  267MPD2     N 4098   3.318   0.258   0.345  0.3930  0.0448  0.0375
  267MPD2    H5 4099   3.274   0.308   0.422  1.0212 -0.1330  0.5092
  267MPD2    N1 4100   3.695   4.683   0.266 -0.1244  0.0022  0.1931
  267MPD2    H7 4101   3.750   4.614   0.318 -1.8966 -1.2268  0.4505
  268TMC3    C1 4102   3.829   4.636   0.071  0.2627  0.1079  0.1324
  268TMC3    C2 4103   3.914   4.713  17.734  0.7608 -0.0794 -0.1773
  268TMC3    C3 4104   4.047   4.668  17.722 -0.1875  0.0653 -0.4360
  268TMC3    C4 4105   3.865   4.531   0.153 -0.5465  0.2536  0.0813
  268TMC3    C5 4106   3.998   4.503   0.147  0.4288 -0.2264 -0.8127
  268TMC3    C6 4107   4.092   4.561   0.062 -0.3079  0.7996 -0.0371
  268TMC3     C 4108   3.716   4.709   0.132 -0.2125  0.3322  0.0275
  268TMC3     O 4109   3.679   0.070   0.066  0.3484 -0.7848 -0.0307
  268TMC3     H 4110   3.878   0.068  17.687  0.0395 -0.7959 -1.0049
  268TMC3    H1 4111   3.794   4.462   0.199 -2.8489  1.3197 -1.9092
  268TMC3    H2 4112   4.194   4.528   0.047 -0.5045  0.9262 -1.6696
  268TMC3    C7 4113   4.045   4.378   0.208  0.0974 -0.1982 -0.2029
  268TMC3    C8 4114   4.144   4.728  17.629 -0.0491 -0.0033 -0.4012
  268TMC3    O1 4115   4.152   4.335   0.164 -0.6102  0.6047 -0.0907
  268TMC3    O2 4116   4.260   4.702  17.657 -0.2948  0.2286 -0.5002
  269MPD2     C 4117   4.380   3.535  15.525 -0.5524  0.8227 -0.0744
  269MPD2    C1 4118   4.273   3.591  15.590 -0.1645 -0.5704 -0.3286
  269MPD2    C2 4119   4.231   3.721  15.574 -0.4206  0.6652 -0.3610
  269MPD2    C3 4120   4.306   3.799  15.485  0.2543 -0.0998 -1.0446
  269MPD2    C4 4121   4.414   3.751  15.420 -0.0433 -0.0867 -0.1335
  269MPD2    C5 4122   4.447   3.623  15.442  0.0549  0.3057  0.0156
  269MPD2     H 4123   4.145   3.763  15.624 -0.5015  1.4365 -1.1312
  269MPD2    H1 4124   4.462   3.810  15.342  1.4906 -0.0478  0.8537
  269MPD2    H2 4125   4.410   3.431  15.533  0.7535  1.1496 -0.7066
  269MPD2    H3 4126   4.530   3.580  15.389 -1.1118 -2.4141  0.4164
  269MPD2     N 4127   4.277   3.934  15.471  0.0329 -0.3006 -0.1238
  269MPD2    H5 4128   4.202   3.967  15.532  1.4908  1.9087  0.4567
  269MPD2    N1 4129   4.207   3.508  15.678  0.2439 -0.2716  0.0579
  269MPD2    H7 4130   4.246   3.415  15.675  0.9098 -0.0538  1.9544
  270TMC3    C1 4131   4.052   3.421  15.833 -0.0812 -0.1310 -0.0041
  270TMC3    C2 4132   3.927   3.366  15.799  0.1847 -0.2151 -0.6842
  270TMC3    C3 4133   3.885   3.249  15.850 -0.3487 -0.4039  0.3339
  270TMC3    C4 4134   4.131   3.360  15.926  0.1597  0.0246 -0.0424
  270TMC3    C5 4135   4.095   3.239  15.979 -0.2626 -0.1582 -0.0226
  270TMC3    C6 4136   3.972   3.183  15.942  0.3676 -0.0128  0.6774
  270TMC3     C 4137   4.096   3.533  15.757 -0.4084 -0.3848 -0.1856
  270TMC3     O 4138   4.014   3.627  15.758 -0.5452 -0.6030 -0.2476
  270TMC3     H 4139   3.878   3.418  15.717 -0.8846 -1.4811 -0.8353
  270TMC3    H1 4140   4.231   3.402  15.928  0.7129 -1.2849 -0.3232
  270TMC3    H2 4141   3.953   3.078  15.959  2.3337 -0.2496  1.3773
  270TMC3    C7 4142   4.211   3.149  15.991 -0.0141 -0.2446  0.3337
  270TMC3    C8 4143   3.844   3.158  15.749  0.5745 -0.4576 -0.1207
  270TMC3    O1 4144   4.306   3.171  15.918 -1.0343  0.2877 -0.6062
  270TMC3    O2 4145   3.917   3.058  15.738  0.8220  0.3800  0.4632
  271MPD2     C 4146   3.635   3.161  13.967 -0.0489 -0.7642  0.3587
  271MPD2    C1 4147   3.548   3.149  14.073 -0.4381 -0.1350 -0.2142
  271MPD2    C2 4148   3.439   3.236  14.084  0.2018  0.0069 -0.9926
  271MPD2    C3 4149   3.422   3.326  13.978  0.6694  0.5282 -0.2443
  271MPD2    C4 4150   3.505   3.325  13.864  0.3201 -0.0062 -0.3456
  271MPD2    C5 4151   3.615   3.247  13.865  0.0484 -0.7652  0.7593
  271MPD2     H 4152   3.372   3.236  14.168  0.4262 -2.1745 -0.8213
  271MPD2    H1 4153   3.495   3.402  13.788 -0.4723  0.6065  0.3814
  271MPD2    H2 4154   3.730   3.110  13.954  0.1232 -0.0489 -1.2893
  271MPD2    H3 4155   3.693   3.261  13.791 -0.7906  0.6999  0.1597
  271MPD2     N 4156   3.312   3.407  13.975  0.0643 -0.1873 -0.2078
  271MPD2    H5 4157   3.240   3.389  14.045  0.0998  0.6372  0.0481
  271MPD2    N1 4158   3.571   3.052  14.171 -0.6376  0.1380 -0.7805
  271MPD2    H7 4159   3.498   3.039  14.240 -1.3828 -1.3785 -1.8616
  272TMC3    C1 4160   3.692   2.887  14.298 -0.2101 -0.2781  1.1254
  272TMC3    C2 4161   3.803   2.812  14.319 -0.2891 -0.3802  0.1625
  272TMC3    C3 4162   3.830   2.764  14.448  0.7757 -0.2768  0.0424
  272TMC3    C4 4163   3.590   2.892  14.392  0.4133  0.5441 -0.0493
  272TMC3    C5 4164   3.623   2.842  14.515 -0.0420 -0.3695 -0.2047
  272TMC3    C6 4165   3.742   2.788  14.549  0.2085  0.0552 -0.7023
  272TMC3     C 4166   3.684   2.974  14.179  0.1837 -0.3530 -0.5769
  272TMC3     O 4167   3.767   2.947  14.099 -0.0857  0.1486 -0.0206
  272TMC3     H 4168   3.879   2.796  14.243  1.2780  1.7370  1.2850
  272TMC3    H1 4169   3.495   2.942  14.376  0.7982  1.6693  1.1487
  272TMC3    H2 4170   3.767   2.764  14.652  0.2568 -0.6419 -0.8815
  272TMC3    C7 4171   3.521   2.867  14.615 -0.1839  0.0871  0.5247
  272TMC3    C8 4172   3.965   2.725  14.470  0.4577  0.8514 -0.2070
  272TMC3    O1 4173   3.414   2.817  14.587  0.0650  0.1409  0.0630
  272TMC3    O2 4174   4.041   2.749  14.376  0.1514  0.6221  0.1344
  273MPD2     C 4175   0.781   2.266  11.163  0.4231  0.3306  0.1212
  273MPD2    C1 4176   0.696   2.290  11.268  0.2011 -0.4026  0.7160
  273MPD2    C2 4177   0.560   2.249  11.262  0.3391  0.2435 -0.2967
  273MPD2    C3 4178   0.511   2.179  11.161  0.2143 -0.3034  0.2195
  273MPD2    C4 4179   0.597   2.169  11.051 -0.6181 -0.0542  0.2580
  273MPD2    C5 4180   0.725   2.203  11.055  0.6530  0.5180  0.3472
  273MPD2     H 4181   0.501   2.258  11.352  0.7001 -2.4541  0.2098
  273MPD2    H1 4182   0.579   2.112  10.961 -0.4240  1.0196 -0.4614
  273MPD2    H2 4183   0.884   2.298  11.154 -0.3982  2.4262 -1.9285
  273MPD2    H3 4184   0.789   2.195  10.967 -0.4392  0.8674 -0.4814
  273MPD2     N 4185   0.381   2.120  11.157  0.0912  0.0036  0.9465
  273MPD2    H5 4186   0.349   2.070  11.075  2.3262  0.3626 -0.1278
  273MPD2    N1 4187   0.759   2.359  11.377 -0.2948 -0.1491  0.1298
  273MPD2    H7 4188   0.857   2.382  11.364 -1.0762  1.5522 -2.8610
  274TMC3    C1 4189   0.155   2.077  11.230 -0.2540  0.7192 -0.2166
  274TMC3    C2 4190   0.095   2.096  11.109  0.5100 -0.1247  0.9600
  274TMC3    C3 4191   4.694   2.113  11.109 -0.1114  0.3239  0.6697
  274TMC3    C4 4192   0.081   2.070  11.344 -0.3812 -0.6653 -0.8330
  274TMC3    C5 4193   4.684   2.088  11.343 -0.9212  0.6519  0.2548
  274TMC3    C6 4194   4.618   2.108  11.224  0.3722  0.0366  0.6304
  274TMC3     C 4195   0.284   2.140  11.259 -0.2001 -0.2856 -0.5763
  274TMC3     O 4196   0.295   2.196  11.361  0.8904 -0.3220 -0.3994
  274TMC3     H 4197   0.150   2.110  11.017  0.4630 -2.8087  0.5080
  274TMC3    H1 4198   0.133   2.033  11.432 -1.5779  0.5995  0.4004
  274TMC3    H2 4199   4.513   2.130  11.236  0.6179  1.3573  0.2892
  274TMC3    C7 4200   4.619   2.144  11.465  0.1456  0.0725  0.9098
  274TMC3    C8 4201   4.617   2.110  10.988  0.4721  0.0254  0.1695
  274TMC3    O1 4202   4.537   2.235  11.442 -0.0284  0.2394  0.3399
  274TMC3    O2 4203   4.501   2.098  11.005 -0.1877  0.0916  0.5356
  275MPD2     C 4204   0.147   3.919  14.453  0.1807 -0.5820 -0.6957
  275MPD2    C1 4205   0.044   4.010  14.446  0.3090  0.1989 -0.2004
  275MPD2    C2 4206   4.664   3.991  14.510  0.4478  0.5480 -0.5155
  275MPD2    C3 4207   4.635   3.873  14.574  0.7277 -0.3790  0.3168
  275MPD2    C4 4208   4.730   3.776  14.582  0.4424 -0.1681 -0.4357
  275MPD2    C5 4209   0.120   3.804  14.530 -0.1303 -0.2850 -0.5888
  275MPD2     H 4210   4.599   4.077  14.517 -2.6599 -2.0089  2.2464
  275MPD2    H1 4211   4.705   3.675  14.612  1.4005 -0.3304 -0.1789
  275MPD2    H2 4212   0.249   3.925  14.416  0.3627  2.8110  0.3042
  275MPD2    H3 4213   0.198   3.729  14.540 -0.9896 -0.6585  3.1616
  275MPD2     N 4214   4.509   3.845  14.632 -0.0228 -0.4329  0.1639
  275MPD2    H5 4215   4.500   3.756  14.680  1.1295 -1.4015 -1.4216
  275MPD2    N1 4216   0.064   4.139  14.397 -0.5479  0.5789  0.4488
  275MPD2    H7 4217   4.724   4.202  14.422 -0.0342  1.5708 -0.5033
  276TMC3    C1 4218   0.174   4.328  14.309 -0.0279 -0.0647  0.2185
  276TMC3    C2 4219   0.045   4.387  14.318  0.0656  0.2927 -1.1217
  276TMC3    C3 4220   0.025   4.500  14.390  0.5274 -0.2586  0.7070
  276TMC3    C4 4221   0.288   4.390  14.361 -0.2299 -0.0751 -0.6002
  276TMC3    C5 4222   0.257   4.500  14.435 -0.1898  0.0084 -0.4155
  276TMC3    C6 4223   0.136   4.553  14.454  0.4899  0.0326  0.0544
  276TMC3     C 4224   0.177   4.185  14.333 -1.1579 -0.0546  0.5109
  276TMC3     O 4225   0.279   4.128  14.297 -0.2440  0.0110 -0.1572
  276TMC3     H 4226   4.691   4.346  14.272 -1.2667  1.6923  0.1916
  276TMC3    H1 4227   0.382   4.338  14.375  0.3757  0.9840 -0.7502
  276TMC3    H2 4228   0.135   4.627  14.533  0.1091 -1.0468  1.0514
  276TMC3    C7 4229   0.354   4.538  14.529  0.3170 -0.1349 -0.0911
  276TMC3    C8 4230   4.656   4.472  14.479 -0.4620 -0.2189  0.0714
  276TMC3    O1 4231   0.317   4.550  14.644  0.3321  0.4485  0.5194
  276TMC3    O2 4232   4.549   4.449  14.434 -0.0948  0.0669 -0.0283
  277MPD2     C 4233   2.049   3.596  12.814 -0.7142 -0.0399  0.2777
  277MPD2    C1 4234   1.957   3.683  12.868 -0.3694 -0.0399  0.5961
  277MPD2    C2 4235   1.873   3.634  12.969  0.0458 -0.3876 -0.1749
  277MPD2    C3 4236   1.864   3.505  13.004  0.7907 -0.0338  0.3335
  277MPD2    C4 4237   1.967   3.424  12.953 -0.3907  0.0546 -0.3483
  277MPD2    C5 4238   2.058   3.465  12.862  0.3682 -0.4981  0.0663
  277MPD2     H 4239   1.806   3.698  13.025  0.3495  0.3711 -0.6736
  277MPD2    H1 4240   1.969   3.320  12.983  0.2107 -0.1408 -1.0558
  277MPD2    H2 4241   2.116   3.627  12.735 -0.5632 -0.1248  0.3721
  277MPD2    H3 4242   2.140   3.403  12.826 -0.1489 -1.6065  0.8031
  277MPD2     N 4243   1.775   3.457  13.104 -0.2818 -0.3204 -0.8647
  277MPD2    H5 4244   1.697   3.520  13.121 -0.6299 -0.6656 -1.1973
  277MPD2    N1 4245   1.957   3.821  12.832  0.3087  0.4233 -0.7821
  277MPD2    H7 4246   2.032   3.855  12.773  0.9172  0.7909  0.2217
  278TMC3    C1 4247   1.683   3.324  13.272 -0.0476 -0.1431 -0.0806
  278TMC3    C2 4248   1.723   3.286  13.398  0.2794  0.2806  0.5047
  278TMC3    C3 4249   1.653   3.327  13.505 -0.0929 -0.9212 -0.2960
  278TMC3    C4 4250   1.577   3.408  13.256  0.0839 -0.2258 -0.3585
  278TMC3    C5 4251   1.507   3.440  13.370  0.1672  0.5480 -0.3383
  278TMC3    C6 4252   1.546   3.402  13.493 -0.4052 -0.1332 -0.0534
  278TMC3     C 4253   1.794   3.345  13.181 -0.0752  0.3654 -0.2634
  278TMC3     O 4254   1.893   3.272  13.191 -0.4368 -0.1380 -0.1110
  278TMC3     H 4255   1.817   3.233  13.410  1.0778  1.5757  0.0872
  278TMC3    H1 4256   1.538   3.439  13.160 -2.9576 -1.8260  0.3763
  278TMC3    H2 4257   1.510   3.442  13.588  0.2193 -0.8419  0.4794
  278TMC3    C7 4258   1.373   3.500  13.359  0.4965 -0.1842  0.2316
  278TMC3    C8 4259   1.683   3.270  13.635 -0.4757 -0.7385  0.4868
  278TMC3    O1 4260   1.358   3.562  13.256  0.6793  0.0753  0.4823
  278TMC3    O2 4261   1.647   3.339  13.732  0.2335  0.2458 -0.0956
  279MPD2     C 4262   0.514   2.961  17.712  0.3930  0.0027 -0.6233
  279MPD2    C1 4263   0.517   3.094  17.671 -0.3816  0.0512  0.2472
  279MPD2    C2 4264   0.595   3.134  17.565  0.1060 -0.4631 -0.5484
  279MPD2    C3 4265   0.685   3.041  17.513  0.6725 -0.1635  0.3780
  279MPD2    C4 4266   0.694   2.915  17.559  0.2161  0.1955 -0.1986
  279MPD2    C5 4267   0.605   2.870  17.655 -0.4262  0.6934 -0.3072
  279MPD2     H 4268   0.589   3.237  17.534 -1.3781 -0.4267 -0.1486
  279MPD2    H1 4269   0.770   2.851  17.516  1.4654  0.2752  1.9269
  279MPD2    H2 4270   0.452   2.925   0.053 -0.6593  0.1359 -1.3696
  279MPD2    H3 4271   0.604   2.766  17.684  0.3128  0.8152  0.1720
  279MPD2     N 4272   0.781   3.068  17.417  0.2235  0.2332 -0.3664
  279MPD2    H5 4273   0.857   3.003  17.399  0.5366  0.7024 -0.7295
  279MPD2    N1 4274   0.436   3.185   0.005  0.6419 -0.2110 -0.8763
  279MPD2    H7 4275   0.401   3.145   0.091  0.8000  1.9378  0.1693
  280TMC3    C1 4276   0.388   3.400   0.088  0.2750 -0.0872 -0.0444
  280TMC3    C2 4277   0.412   3.352   0.210  0.3255 -0.0389  0.0451
  280TMC3    C3 4278   0.394   3.435   0.321  0.2275  0.8272  0.1938
  280TMC3    C4 4279   0.357   3.530   0.069 -0.7101  0.3537  0.3720
  280TMC3    C5 4280   0.329   3.605   0.177  0.4129  0.4460  0.0151
  280TMC3    C6 4281   0.353   3.564   0.309 -0.4694  0.5907 -0.0675
  280TMC3     C 4282   0.411   3.316  17.711  0.2552  0.9175  0.3459
  280TMC3     O 4283   0.391   3.359  17.599 -0.2916 -0.4592 -0.5583
  280TMC3     H 4284   0.464   3.258   0.225 -0.7381 -0.7116 -0.4649
  280TMC3    H1 4285   0.327   3.557  17.708 -0.4845  0.3622  0.3071
  280TMC3    H2 4286   0.349   3.630   0.394  0.1323 -1.7523  1.7900
  280TMC3    C7 4287   0.308   3.754   0.160 -0.2128  0.6831 -0.3491
  280TMC3    C8 4288   0.470   3.406   0.444 -0.2050  0.1892 -0.0312
  280TMC3    O1 4289   0.363   3.834   0.236  0.1664  0.0443  0.3104
  280TMC3    O2 4290   0.511   3.499   0.515  0.3544 -0.0020 -0.6063
  281TMC3    C1 4291   0.179   3.767  13.543 -0.7043  0.2926  0.5085
  281TMC3    C2 4292   0.317   3.783  13.542 -0.3099 -0.7031  0.0341
  281TMC3    C3 4293   0.387   3.666  13.521 -0.4617  0.5294 -0.1618
  281TMC3    C4 4294   0.111   3.651  13.531 -0.1146  0.1216 -0.1533
  281TMC3    C5 4295   0.181   3.537  13.502  0.0609 -0.9964 -0.1744
  281TMC3    C6 4296   0.319   3.551  13.490 -1.1160  0.1613 -0.4494
  281TMC3     C 4297   0.106   3.882  13.573  0.0216 -0.8789  0.0837
  281TMC3     O 4298   4.735   3.868  13.636 -0.1866  0.3188 -0.2125
  281TMC3     H 4299   0.363   3.876  13.576 -1.5798 -1.0834  2.8038
  281TMC3    H1 4300   0.003   3.650  13.537 -0.2875 -1.3370 -3.1891
  281TMC3    H2 4301   0.378   3.468  13.452 -0.5341  0.1320  0.5314
  281TMC3    C7 4302   0.116   3.413  13.460 -0.4577  0.2156  0.3132
  281TMC3    C8 4303   0.528   3.665  13.486 -0.7279  0.0592  0.2304
  281TMC3    O1 4304   0.184   3.331  13.407  0.3341 -0.2971  0.6850
  281TMC3    O2 4305   0.594   3.574  13.528 -0.8447  0.1737 -0.3441
  282MPD2     C 4306   1.800   0.259  14.987 -0.5136 -0.1645  0.0637
  282MPD2    C1 4307   1.691   0.312  14.929  0.7516  0.4153 -0.0593
  282MPD2    C2 4308   1.686   0.324  14.790 -0.2942 -0.0959  0.0449
  282MPD2    C3 4309   1.793   0.301  14.714 -0.8163  0.1721  0.0939
  282MPD2    C4 4310   1.911   0.268  14.770 -0.7261 -0.0180  0.0160
  282MPD2    C5 4311   1.908   0.240  14.904  0.0564 -0.0704 -0.0706
  282MPD2     H 4312   1.603   0.375  14.743 -1.3340  0.3688  2.3901
  282MPD2    H1 4313   2.002   0.262  14.713 -0.7303  0.8334 -0.0839
  282MPD2    H2 4314   1.818   0.249  15.093  0.4163  1.4280  0.0641
  282MPD2    H3 4315   1.998   0.201  14.952 -0.2786  1.3558  1.7429
  282MPD2     N 4316   1.770   0.333  14.580  0.3378 -0.2027  0.5412
  282MPD2    H5 4317   1.674   0.357  14.559  1.0799  0.4246 -2.1592
  282MPD2    N1 4318   1.586   0.357  15.004  0.1755 -0.2823 -0.4915
  282MPD2    H7 4319   1.516   0.417  14.961  0.7320 -0.1229 -1.1643
  283TMC3    C1 4320   1.422   0.343  15.165  0.1775  0.0097  0.0338
  283TMC3    C2 4321   1.414   0.475  15.197 -0.3905 -0.2867  0.5834
  283TMC3    C3 4322   1.329   0.504  15.305  0.3838 -0.3132  0.6223
  283TMC3    C4 4323   1.339   0.248  15.222 -0.1858  0.6065 -0.0738
  283TMC3    C5 4324   1.263   0.280  15.329  0.1662  0.0015 -0.2523
  283TMC3    C6 4325   1.254   0.414  15.368 -0.4190  0.3035  0.1011
  283TMC3     C 4326   1.558   0.308  15.129  0.4711  0.2352 -0.7866
  283TMC3     O 4327   1.606   0.215  15.194 -0.1243 -0.2557  0.1031
  283TMC3     H 4328   1.472   0.542  15.135 -2.8145 -0.3551 -1.7798
  283TMC3    H1 4329   1.367   0.147  15.192  1.6250  0.9263  0.5283
  283TMC3    H2 4330   1.202   0.437  15.460 -2.9642  1.6300 -1.6691
  283TMC3    C7 4331   1.164   0.187  15.378 -0.0022  0.7200  1.0342
  283TMC3    C8 4332   1.328   0.631  15.377 -0.2933 -0.8220  0.2041
  283TMC3    O1 4333   1.114   0.195  15.487  0.2976  0.4133  0.5234
  283TMC3    O2 4334   1.246   0.644  15.467 -0.0099  0.3447  0.5512
  284MPD2     C 4335   0.105   0.165  11.473  0.1457  0.3430  0.3748
  284MPD2    C1 4336   0.231   0.120  11.485 -0.2372 -1.2963 -0.3525
  284MPD2    C2 4337   0.250   0.033  11.592  0.7296  0.6233  0.0398
  284MPD2    C3 4338   0.160   4.730  11.688 -0.5098 -0.1039  0.2763
  284MPD2    C4 4339   0.031   0.036  11.665  0.1543  0.2144 -0.5191
  284MPD2    C5 4340   0.006   0.113  11.551  0.0653 -0.4109  0.0347
  284MPD2     H 4341   0.351   4.730  11.601  0.6304  0.6633  1.4312
  284MPD2    H1 4342   4.684   0.021  11.733  0.6615 -0.3513 -0.0316
  284MPD2    H2 4343   0.080   0.235  11.394  2.0287 -1.6971 -2.0349
  284MPD2    H3 4344   4.637   0.138  11.536  0.6765  0.2239 -3.0682
  284MPD2     N 4345   0.205   4.645  11.791  0.1528  0.3019 -0.3140
  284MPD2    H5 4346   0.306   4.635  11.799 -0.2592 -1.2890  2.8613
  284MPD2    N1 4347   0.341   0.157  11.400 -0.0888  0.0381  0.4091
  284MPD2    H7 4348   0.424   0.100  11.411  0.7929  1.4281  0.9407
  285TMC3    C1 4349   0.470   0.244  11.230  0.2586  0.1092  0.7626
  285TMC3    C2 4350   0.547   0.133  11.221 -0.0027  0.1067 -0.2543
  285TMC3    C3 4351   0.675   0.136  11.193  0.2008 -0.7022  0.3419
  285TMC3    C4 4352   0.521   0.368  11.190 -0.2595  0.4287  0.5484
  285TMC3    C5 4353   0.656   0.368  11.158  0.0961  0.1624  0.2304
  285TMC3    C6 4354   0.736   0.251  11.143  0.4299 -0.4864 -0.1101
  285TMC3     C 4355   0.346   0.251  11.303 -0.2968  0.3448 -0.2847
  285TMC3     O 4356   0.272   0.349  11.284 -0.2316 -0.0624 -0.8934
  285TMC3     H 4357   0.498   0.040  11.244 -0.0878 -0.2596 -1.8720
  285TMC3    H1 4358   0.453   0.452  11.197 -0.8189 -0.1444  1.8959
  285TMC3    H2 4359   0.837   0.261  11.107  0.4257  1.5479  0.4099
  285TMC3    C7 4360   0.728   0.489  11.185 -0.3631  0.2965  0.0571
  285TMC3    C8 4361   0.755   0.017  11.206 -0.1486 -0.2651 -0.6000
  285TMC3    O1 4362   0.665   0.585  11.150  0.3292  0.1626  0.2470
  285TMC3    O2 4363   0.691   4.649  11.226  0.2539  0.0450 -0.4742
  286MPD2     C 4364   4.636   2.808   1.014 -0.1636 -0.0162  0.4106
  286MPD2    C1 4365   4.690   2.771   0.896 -0.4169  0.4008  0.3368
  286MPD2    C2 4366   0.066   2.691   0.886 -0.0424  0.0372 -0.4726
  286MPD2    C3 4367   0.125   2.641   1.002 -0.4635 -0.5219 -0.9626
  286MPD2    C4 4368   0.078   2.690   1.125  0.2144  0.7201  0.2337
  286MPD2    C5 4369   4.701   2.765   1.125  0.8543  0.2877  0.2607
  286MPD2     H 4370   0.097   2.664   0.786  0.3131  1.4555 -0.7536
  286MPD2    H1 4371   0.123   2.667   1.221  1.9534  0.3676 -0.6595
  286MPD2    H2 4372   4.540   2.859   1.023 -0.2458 -0.0226 -0.5032
  286MPD2    H3 4373   4.662   2.777   1.225 -2.1326  0.7518 -0.9651
  286MPD2     N 4374   0.234   2.553   1.002 -0.3343  0.3636  0.3667
  286MPD2    H5 4375   0.282   2.523   1.086 -1.2678 -2.3942 -0.0886
  286MPD2    N1 4376   4.643   2.822   0.769 -0.6816 -0.0228  0.4622
  286MPD2    H7 4377   4.698   2.799   0.687  2.5045  1.4940  2.1483
  287TMC3    C1 4378   0.405   2.412   0.913  0.4525  0.2023 -0.0951
  287TMC3    C2 4379   0.406   2.296   0.842 -0.2708 -0.1905  0.3628
  287TMC3    C3 4380   0.496   2.202   0.883  0.5472  0.7029 -0.1001
  287TMC3    C4 4381   0.493   2.444   1.012  0.1120 -0.3287 -0.1233
  287TMC3    C5 4382   0.570   2.343   1.054  0.3314 -0.4727  0.3408
  287TMC3    C6 4383   0.578   2.216   0.994  1.0705  0.3033  0.2834
  287TMC3     C 4384   0.281   2.487   0.891  0.4449 -0.5965  0.1238
  287TMC3     O 4385   0.242   2.485   0.773  0.3568  0.1109 -0.6712
  287TMC3     H 4386   0.353   2.277   0.750 -1.2747 -2.2499  1.3758
  287TMC3    H1 4387   0.494   2.544   1.053  0.2469 -0.0115 -0.8939
  287TMC3    H2 4388   0.647   2.138   1.024 -0.1208 -0.8241  0.0945
  287TMC3    C7 4389   0.675   2.392   1.144 -0.0944  0.0829 -0.1960
  287TMC3    C8 4390   0.488   2.077   0.818  0.6865 -0.0425 -1.3096
  287TMC3    O1 4391   0.774   2.327   1.144  0.1671  0.1306 -0.0221
  287TMC3    O2 4392   0.386   2.046   0.762 -0.3050 -0.4397  0.3089
  288TMC3    C1 4393   2.146   3.027  13.909  0.4285 -0.0408 -0.1500
  288TMC3    C2 4394   2.067   3.016  14.015 -0.1303 -0.2672 -0.5915
  288TMC3    C3 4395   2.079   3.120  14.114 -0.2165  0.1515  0.7999
  288TMC3    C4 4396   2.234   3.131  13.898  0.1589  0.7191  0.7762
  288TMC3    C5 4397   2.254   3.225  13.999  0.8719 -0.4960  0.9868
  288TMC3    C6 4398   2.174   3.222  14.105 -0.9017  0.4255 -0.4000
  288TMC3     C 4399   2.122   2.950  13.791 -0.3649  0.0487  0.3223
  288TMC3     O 4400   2.117   3.007  13.683 -0.1437  0.6799 -0.3573
  288TMC3     H 4401   1.994   2.936  14.024  0.1425 -0.5236 -0.6446
  288TMC3    H1 4402   2.295   3.150  13.810  1.7222 -0.4850  1.6033
  288TMC3    H2 4403   2.193   3.288  14.189 -0.7340 -2.7648  2.0721
  288TMC3    C7 4404   2.381   3.284  14.017 -0.0874  0.5310  0.2881
  288TMC3    C8 4405   1.998   3.129  14.229  0.6873  0.7247  0.4168
  288TMC3    O1 4406   2.483   3.224  13.971 -0.5773  0.3385 -0.1249
  288TMC3    O2 4407   1.981   3.239  14.273 -0.3077 -0.0005 -0.5601
  289MPD2     C 4408   2.127   1.942  14.545 -0.0511  0.4443 -0.2165
  289MPD2    C1 4409   2.118   2.030  14.440 -0.0569  0.3111  0.2740
  289MPD2    C2 4410   2.016   2.025  14.348  0.4993  0.2329 -0.7545
  289MPD2    C3 4411   1.925   1.926  14.356 -1.0889  1.6508 -0.4340
  289MPD2    C4 4412   1.934   1.836  14.460 -0.1420 -0.3752  0.2903
  289MPD2    C5 4413   2.033   1.845  14.555  0.5651 -0.9996 -0.3345
  289MPD2     H 4414   2.004   2.103  14.273  1.3131  0.7599 -0.3388
  289MPD2    H1 4415   1.853   1.768  14.484 -1.0913  0.3301 -0.9340
  289MPD2    H2 4416   2.212   1.942  14.612  0.6415  0.7665 -1.0951
  289MPD2    H3 4417   2.053   1.764  14.624 -0.9624 -0.6760  0.4850
  289MPD2     N 4418   1.798   1.934  14.290  0.1276  0.5823 -0.3367
  289MPD2    H5 4419   1.739   1.853  14.306  2.9898 -1.0246  2.0468
  289MPD2    N1 4420   2.213   2.132  14.440  0.4455  0.0659 -0.2886
  289MPD2    H7 4421   2.272   2.129  14.522 -0.2206 -1.7000  0.1145
  290TMC3    C1 4422   1.636   2.027  14.147  0.0701  0.0914  0.6028
  290TMC3    C2 4423   1.583   2.148  14.092 -0.4503  0.1198 -0.0947
  290TMC3    C3 4424   1.484   2.134  13.995  0.0368  0.3669  0.4092
  290TMC3    C4 4425   1.601   1.902  14.088 -0.4463 -0.0049 -0.5924
  290TMC3    C5 4426   1.492   1.896  14.012 -0.7391 -0.5250  0.4790
  290TMC3    C6 4427   1.436   2.010  13.959  0.7869  0.3476  0.0297
  290TMC3     C 4428   1.762   2.046  14.217 -0.3424  0.0488  0.7015
  290TMC3     O 4429   1.801   2.163  14.215 -0.1431  0.6933 -0.6332
  290TMC3     H 4430   1.621   2.243  14.130  0.8475 -0.9056  1.1754
  290TMC3    H1 4431   1.652   1.817  14.132 -0.5149 -0.1723 -0.8400
  290TMC3    H2 4432   1.355   1.981  13.894 -0.3952 -0.6129  1.9222
  290TMC3    C7 4433   1.412   1.776  14.002 -0.3636 -0.7617 -0.0301
  290TMC3    C8 4434   1.414   2.250  13.941 -0.4604  0.7093 -0.4478
  290TMC3    O1 4435   1.299   1.776  13.948  0.0210 -0.4256 -0.2976
  290TMC3    O2 4436   1.368   2.236  13.830 -0.1265 -0.0090  0.0612
  291MPD2     C 4437   1.749   1.898   0.514 -0.5002 -0.2645 -0.3062
  291MPD2    C1 4438   1.742   1.815   0.403 -0.0080  0.5810  0.2642
  291MPD2    C2 4439   1.706   1.870   0.284 -0.0443  0.0124 -0.5578
  291MPD2    C3 4440   1.659   2.000   0.279  0.2872 -0.0890  1.4850
  291MPD2    C4 4441   1.648   2.074   0.392 -0.8166 -0.0017 -0.0625
  291MPD2    C5 4442   1.706   2.028   0.503 -0.0120 -0.3122 -0.2240
  291MPD2     H 4443   1.717   1.796   0.205 -2.6293 -0.9672 -0.0052
  291MPD2    H1 4444   1.603   2.172   0.387  0.3788  0.5664  0.2943
  291MPD2    H2 4445   1.778   1.858   0.610 -0.9307  0.4456  0.1167
  291MPD2    H3 4446   1.697   2.088   0.593 -0.5502  0.1815 -0.6160
  291MPD2     N 4447   1.616   2.057   0.159  1.0536  0.2683  0.3583
  291MPD2    H5 4448   1.584   2.153   0.160 -2.5055 -0.9292  0.1810
  291MPD2    N1 4449   1.756   1.675   0.409  0.3332 -0.3235  0.0397
  291MPD2    H7 4450   1.711   1.626   0.333  1.7823 -0.3521 -0.7883
  292TMC3    C1 4451   1.745   1.473   0.533  0.9205  0.5284 -0.6622
  292TMC3    C2 4452   1.796   1.390   0.635  0.3347 -0.0471  0.2351
  292TMC3    C3 4453   1.764   1.256   0.622  0.6915 -0.2453 -0.5868
  292TMC3    C4 4454   1.677   1.419   0.431  0.2921  0.6229  0.6059
  292TMC3    C5 4455   1.647   1.286   0.431 -0.3467 -0.6587 -0.3512
  292TMC3    C6 4456   1.704   1.200   0.519 -0.1065  0.0186  0.0084
  292TMC3     C 4457   1.797   1.607   0.522 -0.5635  0.1577 -0.7403
  292TMC3     O 4458   1.871   1.644   0.612 -0.2817 -0.0078 -0.3929
  292TMC3     H 4459   1.860   1.429   0.713 -0.1550 -0.2339  0.7325
  292TMC3    H1 4460   1.647   1.480   0.346 -0.2125  2.6981  2.2756
  292TMC3    H2 4461   1.676   1.095   0.516  0.5148 -0.2170  2.4926
  292TMC3    C7 4462   1.591   1.236   0.313 -0.2144 -0.1490 -0.3692
  292TMC3    C8 4463   1.789   1.183   0.745 -0.1248 -0.9177  0.4597
  292TMC3    O1 4464   1.619   1.122   0.287 -0.2090 -0.7368  0.2944
  292TMC3    O2 4465   1.877   1.214   0.822  0.5151  0.2792  0.0916
  293MPD2     C 4466   3.142   3.245  12.564 -0.1420 -0.0196 -0.7346
  293MPD2    C1 4467   3.055   3.322  12.632 -0.4385 -0.5674  0.0362
  293MPD2    C2 4468   3.047   3.319  12.770  0.5203 -0.3012  0.3211
  293MPD2    C3 4469   3.121   3.226  12.843 -0.2977 -0.4232 -0.4113
  293MPD2    C4 4470   3.211   3.147  12.773  0.2224 -0.1266 -0.0473
  293MPD2    C5 4471   3.221   3.164  12.638  0.3787 -0.5120  0.1463
  293MPD2     H 4472   2.990   3.390  12.828  0.2193 -1.1529  1.0570
  293MPD2    H1 4473   3.285   3.081  12.815 -0.3945 -1.1562 -0.5949
  293MPD2    H2 4474   3.155   3.238  12.457 -2.0374 -1.9541 -0.8435
  293MPD2    H3 4475   3.300   3.115  12.583  2.2670  0.5158  1.9026
  293MPD2     N 4476   3.097   3.225  12.983 -0.7891  0.1941  0.2927
  293MPD2    H5 4477   3.042   3.295  13.032 -0.8511  0.3317  0.0248
  293MPD2    N1 4478   2.980   3.416  12.554 -0.6288  0.6549  0.3132
  293MPD2    H7 4479   2.991   3.409  12.454  2.1607  0.0519  0.6401
  294TMC3    C1 4480   2.844   3.604  12.489 -0.2039 -0.5322  0.1365
  294TMC3    C2 4481   2.709   3.634  12.511  1.1355  0.3016 -0.0406
  294TMC3    C3 4482   2.633   3.671  12.411 -1.0719 -0.3870  0.3432
  294TMC3    C4 4483   2.905   3.605  12.367  0.0028 -0.3391 -0.0311
  294TMC3    C5 4484   2.821   3.649  12.265 -0.3105  0.2838  0.3071
  294TMC3    C6 4485   2.689   3.673  12.282 -0.1167 -0.1724 -0.5626
  294TMC3     C 4486   2.893   3.515  12.595 -0.0980  0.2482  0.2070
  294TMC3     O 4487   2.856   3.539  12.712  0.0295 -0.4306  0.3901
  294TMC3     H 4488   2.672   3.638  12.613  1.0783  1.3345 -0.1063
  294TMC3    H1 4489   3.012   3.591  12.363 -0.0427 -0.8964  0.6985
  294TMC3    H2 4490   2.634   3.716  12.199  1.3732 -1.4245 -2.2025
  294TMC3    C7 4491   2.878   3.666  12.135 -0.0352 -0.0371 -0.2789
  294TMC3    C8 4492   2.489   3.657  12.424 -0.0694 -0.2917  0.2382
  294TMC3    O1 4493   2.815   3.725  12.049 -0.1431 -0.4369 -0.4583
  294TMC3    O2 4494   2.431   3.717  12.514 -0.1167  0.5788  0.8278
  295MPD2     C 4495   4.101   1.768   0.448 -0.0623 -0.3124 -0.4171
  295MPD2    C1 4496   3.962   1.764   0.446  0.4558 -0.0160  0.7571
  295MPD2    C2 4497   3.894   1.724   0.558  0.0439  0.4461 -0.5875
  295MPD2    C3 4498   3.965   1.670   0.666 -0.3769  0.1853 -0.0487
  295MPD2    C4 4499   4.100   1.665   0.664 -0.2231 -0.2544  0.0439
  295MPD2    C5 4500   4.167   1.721   0.558 -0.5631 -0.4912 -0.2759
  295MPD2     H 4501   3.786   1.733   0.560 -0.0134 -0.6913  2.4399
  295MPD2    H1 4502   4.148   1.631   0.755  1.1859 -1.1765 -1.0324
  295MPD2    H2 4503   4.166   1.808   0.370  0.4638  0.1804  0.2734
  295MPD2    H3 4504   4.275   1.723   0.555 -0.5316 -1.6645  0.3808
  295MPD2     N 4505   3.905   1.613   0.777  0.1507 -0.1400 -0.5065
  295MPD2    H5 4506   3.964   1.555   0.837 -0.5936  0.4967  0.8487
  295MPD2    N1 4507   3.880   1.794   0.333 -0.1370  0.1097 -0.7404
  295MPD2    H7 4508   3.780   1.799   0.351  0.0503 -0.6056  0.5043
  296TMC3    C1 4509   3.740   1.540   0.923 -0.0470 -0.1555 -0.0651
  296TMC3    C2 4510   3.682   1.605   1.024 -0.1286  0.5824 -0.0382
  296TMC3    C3 4511   3.656   1.530   1.134  0.1869  0.7708  0.3718
  296TMC3    C4 4512   3.781   1.412   0.919 -0.3251  0.1906 -0.0156
  296TMC3    C5 4513   3.744   1.337   1.024 -0.1162  0.1757  0.2465
  296TMC3    C6 4514   3.677   1.393   1.133  0.4956  0.5114  0.7330
  296TMC3     C 4515   3.769   1.609   0.807 -0.0238  0.4121 -0.0523
  296TMC3     O 4516   3.680   1.675   0.762 -0.2400  0.1890  0.2704
  296TMC3     H 4517   3.669   1.713   1.018  0.4502  0.5690 -1.4816
  296TMC3    H1 4518   3.818   1.369   0.827 -1.7947 -0.6117 -0.2312
  296TMC3    H2 4519   3.665   1.338   1.225  0.9721 -0.7668  0.0291
  296TMC3    C7 4520   3.786   1.205   1.034 -0.2012  0.3219  0.0233
  296TMC3    C8 4521   3.606   1.586   1.259  0.6411 -0.0727  0.0601
  296TMC3    O1 4522   3.887   1.170   0.973  0.0009  0.7244 -0.3546
  296TMC3    O2 4523   3.609   1.514   1.358  0.1088 -0.1740  0.0566
  297MPD2     C 4524   0.373   3.540  16.015  0.5228  0.0893  0.4371
  297MPD2    C1 4525   0.430   3.617  15.910 -0.1810  0.0924  0.3935
  297MPD2    C2 4526   0.563   3.650  15.920 -0.3192 -0.8121 -0.1519
  297MPD2    C3 4527   0.639   3.620  16.029  0.0580 -0.0356  0.3069
  297MPD2    C4 4528   0.581   3.544  16.131  0.0579 -0.3825 -0.4834
  297MPD2    C5 4529   0.451   3.512  16.119 -0.1870  0.1697  0.5614
  297MPD2     H 4530   0.608   3.704  15.838  2.1214  0.5640  2.1003
  297MPD2    H1 4531   0.629   3.505  16.220 -1.2696 -0.1823  0.3152
  297MPD2    H2 4532   0.267   3.521  16.014  0.4251  0.5979  0.9377
  297MPD2    H3 4533   0.398   3.453  16.194  3.0260 -1.1469  1.8225
  297MPD2     N 4534   0.770   3.677  16.050  0.9948 -0.7057  0.0344
  297MPD2    H5 4535   0.797   3.673  16.148  1.5123 -0.1293 -0.0827
  297MPD2    N1 4536   0.356   3.666  15.798 -0.1588  0.2525 -0.0478
  297MPD2    H7 4537   0.410   3.735  15.746 -1.6474  2.0628  0.7751
  298TMC3    C1 4538   0.178   3.753  15.681 -0.3764  0.0134  0.6554
  298TMC3    C2 4539   0.249   3.766  15.563 -0.0986 -0.2614 -0.2544
  298TMC3    C3 4540   0.197   3.855  15.470  0.3708  0.2327 -0.2656
  298TMC3    C4 4541   0.062   3.826  15.709 -0.3293 -0.1692  0.2967
  298TMC3    C5 4542   0.028   3.917  15.619 -0.6168 -0.4384 -0.1773
  298TMC3    C6 4543   0.103   3.942  15.503 -0.0445  0.5327 -0.0136
  298TMC3     C 4544   0.221   3.659  15.780  0.4894  0.4524  0.4126
  298TMC3     O 4545   0.139   3.603  15.854 -0.6496  0.2143 -0.1583
  298TMC3     H 4546   0.330   3.698  15.540 -0.0422 -0.8844  1.7589
  298TMC3    H1 4547   0.012   3.807  15.803  1.2935  2.9024  1.7659
  298TMC3    H2 4548   0.078   4.020  15.432 -1.0948 -0.3819 -0.6734
  298TMC3    C7 4549   4.676   4.018  15.677  0.7025  0.1496 -0.0717
  298TMC3    C8 4550   0.268   3.882  15.349  1.2653  0.4150 -0.3643
  298TMC3    O1 4551   4.634   4.000  15.790 -0.0327 -0.5788  0.2739
  298TMC3    O2 4552   0.195   3.944  15.269 -0.3292  0.1790  0.5931
  299MPD2     C 4553   2.299   3.824  11.215  0.2611 -0.2155  0.0223
  299MPD2    C1 4554   2.193   3.905  11.177 -0.0070 -0.7304  0.2670
  299MPD2    C2 4555   2.111   3.860  11.073 -0.5075 -0.4731 -0.4613
  299MPD2    C3 4556   2.132   3.738  11.009  0.1477 -0.5800  0.1768
  299MPD2    C4 4557   2.236   3.661  11.048  0.4425 -0.2135 -0.5581
  299MPD2    C5 4558   2.315   3.701  11.154 -0.0335 -0.9526 -0.2295
  299MPD2     H 4559   2.035   3.928  11.037 -0.0053  0.6573  0.6490
  299MPD2    H1 4560   2.262   3.569  10.998 -0.9070 -0.1931 -1.3125
  299MPD2    H2 4561   2.353   3.856  11.303 -0.3338  0.1700  0.2442
  299MPD2    H3 4562   2.388   3.629  11.191 -0.4402 -0.8785  0.7149
  299MPD2     N 4563   2.044   3.686  10.908 -0.2026  0.4792 -0.2108
  299MPD2    H5 4564   2.055   3.586  10.897 -0.2218  0.4122  0.3855
  299MPD2    N1 4565   2.172   4.021  11.259 -0.2630 -0.1880 -0.7998
  299MPD2    H7 4566   2.242   4.029  11.332 -1.7603 -2.7019  0.9162
  300TMC3    C1 4567   1.878   3.673  10.735  0.6235  0.4217 -0.1394
  300TMC3    C2 4568   1.843   3.710  10.604  0.5644  0.4558  0.7090
  300TMC3    C3 4569   1.748   3.631  10.529  0.1840  0.2573 -0.0567
  300TMC3    C4 4570   1.829   3.560  10.795 -0.1785 -0.4861  0.3774
  300TMC3    C5 4571   1.731   3.495  10.731 -0.7277 -0.3316  0.2477
  300TMC3    C6 4572   1.691   3.529  10.603  0.5235  0.1483  0.3758
  300TMC3     C 4573   1.960   3.759  10.821  0.4585 -0.1622  0.0829
  300TMC3     O 4574   1.981   3.875  10.789 -0.8598  0.8844 -0.2538
  300TMC3     H 4575   1.881   3.799  10.555 -0.8271 -0.0455 -1.3088
  300TMC3    H1 4576   1.840   3.541  10.902 -0.3050 -2.7452 -0.0110
  300TMC3    H2 4577   1.607   3.471  10.566  0.6771  0.9935 -1.3179
  300TMC3    C7 4578   1.634   3.435  10.822 -0.2338 -0.0220  0.0291
  300TMC3    C8 4579   1.682   3.706  10.418 -0.0499  0.3121  0.0234
  300TMC3    O1 4580   1.682   3.346  10.890  0.1231  0.4608 -0.0451
  300TMC3    O2 4581   1.720   3.823  10.407  0.0982 -0.2218 -0.9831
  301MPD2     C 4582   3.493   4.377   1.135 -0.2733  0.0053  0.8124
  301MPD2    C1 4583   3.369   4.354   1.070 -0.5082 -0.8509  0.3274
  301MPD2    C2 4584   3.359   4.238   0.991  0.4294 -0.0834  0.1679
  301MPD2    C3 4585   3.456   4.140   0.990 -0.7670 -0.3488  0.6357
  301MPD2    C4 4586   3.577   4.164   1.057  0.0985 -0.4268  0.0443
  301MPD2    C5 4587   3.591   4.284   1.126 -0.5261 -0.8080  0.3495
  301MPD2     H 4588   3.260   4.230   0.947  0.0280 -0.4220  1.1204
  301MPD2    H1 4589   3.662   4.098   1.056  1.4487  1.3702 -1.7558
  301MPD2    H2 4590   3.507   4.466   1.196 -0.3251  1.6757 -1.5868
  301MPD2    H3 4591   3.681   4.308   1.181  0.5891 -1.8192 -1.0732
  301MPD2     N 4592   3.446   4.021   0.910 -0.0137 -0.5503 -0.2105
  301MPD2    H5 4593   3.522   3.957   0.927  0.7634  0.3326 -0.3700
  301MPD2    N1 4594   3.253   4.440   1.089 -0.6326 -0.1508 -0.6512
  301MPD2    H7 4595   3.161   4.401   1.070  0.0168 -2.0017 -0.0508
  302TMC3    C1 4596   3.319   3.841   0.823 -0.2719 -0.2519 -0.5619
  302TMC3    C2 4597   3.379   3.742   0.904  0.1417 -0.3376 -0.3475
  302TMC3    C3 4598   3.351   3.607   0.874 -0.2870 -0.3702  0.0483
  302TMC3    C4 4599   3.235   3.809   0.722  0.2523  0.3058  0.1571
  302TMC3    C5 4600   3.206   3.673   0.705  0.3294  0.4202  0.6597
  302TMC3    C6 4601   3.266   3.570   0.770 -0.6631  0.0746 -0.4273
  302TMC3     C 4602   3.329   3.983   0.852  0.2136  0.0033  0.4815
  302TMC3     O 4603   3.241   4.048   0.796 -0.5959  0.3601  0.2190
  302TMC3     H 4604   3.434   3.774   0.992  1.3791 -0.9545 -0.8997
  302TMC3    H1 4605   3.191   3.885   0.660  1.6547  1.3301  0.4040
  302TMC3    H2 4606   3.261   3.469   0.733  2.7569 -1.0020  2.0370
  302TMC3    C7 4607   3.110   3.644   0.600 -0.8625 -0.0828 -0.4076
  302TMC3    C8 4608   3.428   3.504   0.938  0.2199 -0.8699 -0.7649
  302TMC3    O1 4609   3.131   3.548   0.524  0.0723 -0.5702 -0.2402
  302TMC3    O2 4610   3.399   3.388   0.916  0.8308 -0.0347 -0.1011
  303MPD2     C 4611   3.778   3.296  10.771  0.6088  0.7672 -0.3425
  303MPD2    C1 4612   3.738   3.385  10.865  0.4327 -0.0088  0.4820
  303MPD2    C2 4613   3.767   3.515  10.855 -0.5262  0.8137 -0.1725
  303MPD2    C3 4614   3.824   3.569  10.745 -0.2897  0.1550 -0.3290
  303MPD2    C4 4615   3.857   3.481  10.646  0.6509 -0.2550 -0.0652
  303MPD2    C5 4616   3.846   3.349  10.662 -0.1633 -0.6105  0.0394
  303MPD2     H 4617   3.758   3.579  10.942 -0.0782  0.0610  0.4342
  303MPD2    H1 4618   3.896   3.513  10.550  0.9959 -0.2137  0.0889
  303MPD2    H2 4619   3.749   3.192  10.778  2.2333  0.4465  1.5835
  303MPD2    H3 4620   3.888   3.289  10.582  2.0782  0.2292  0.6136
  303MPD2     N 4621   3.856   3.707  10.726  0.1827  0.1170  0.6211
  303MPD2    H5 4622   3.900   3.743  10.642 -0.3638 -0.9328 -0.1038
  303MPD2    N1 4623   3.678   3.332  10.979  0.0231 -0.2736 -0.3202
  303MPD2    H7 4624   3.646   3.235  10.978  1.1602 -0.6462  0.0722
  304TMC3    C1 4625   3.545   3.338  11.175  1.2673  0.0221  0.0809
  304TMC3    C2 4626   3.551   3.369  11.309 -0.1654 -0.3625  0.1405
  304TMC3    C3 4627   3.435   3.348  11.380 -0.4370  0.5527  0.0097
  304TMC3    C4 4628   3.426   3.317  11.108  0.1752  0.6203  0.7372
  304TMC3    C5 4629   3.307   3.312  11.176  0.2549  0.2476  0.2286
  304TMC3    C6 4630   3.316   3.317  11.316 -0.5064 -0.5593 -0.1003
  304TMC3     C 4631   3.656   3.399  11.099  0.1440  0.1282 -0.8142
  304TMC3     O 4632   3.707   3.494  11.149 -0.4926  0.2852  0.5212
  304TMC3     H 4633   3.644   3.392  11.359 -0.8406  0.7630  0.8767
  304TMC3    H1 4634   3.422   3.328  11.000 -0.7078  1.5946  0.8649
  304TMC3    H2 4635   3.227   3.306  11.375 -0.2491  2.2156  0.8329
  304TMC3    C7 4636   3.209   3.399  11.120  0.5435 -1.0933 -0.0955
  304TMC3    C8 4637   3.405   3.446  11.478  0.7405 -0.1811  0.1037
  304TMC3    O1 4638   3.188   3.397  10.999 -0.5730 -0.0118  0.1989
  304TMC3    O2 4639   3.297   3.505  11.467  0.8276  0.5475  0.4696
  305MPD2     C 4640   2.556   0.443  13.941  0.0558 -0.8989  0.4229
  305MPD2    C1 4641   2.432   0.505  13.933  0.0547 -0.5424 -0.6587
  305MPD2    C2 4642   2.358   0.504  13.814  0.4552 -0.1103 -0.4362
  305MPD2    C3 4643   2.417   0.441  13.700  0.2367  0.3103 -0.6518
  305MPD2    C4 4644   2.541   0.376  13.718 -0.3254  0.1334  0.1681
  305MPD2    C5 4645   2.612   0.389  13.830  0.5514 -0.1861 -0.2145
  305MPD2     H 4646   2.264   0.557  13.809 -0.3938 -1.5958 -0.0585
  305MPD2    H1 4647   2.593   0.319  13.642 -0.6712  0.7958 -0.5678
  305MPD2    H2 4648   2.627   0.447  14.023 -0.4281  1.6344  0.7065
  305MPD2    H3 4649   2.706   0.337  13.842 -0.0323 -0.8923  1.3165
  305MPD2     N 4650   2.357   0.423  13.572  0.2796 -0.1798 -0.3442
  305MPD2    H5 4651   2.419   0.373  13.509  0.7638 -0.2944  0.2226
  305MPD2    N1 4652   2.384   0.554  14.057  0.4005  0.1157 -0.0050
  305MPD2    H7 4653   2.447   0.524  14.130  0.0615 -0.1510  0.1753
  306TMC3    C1 4654   2.226   0.551  14.232  0.3123  0.3632  0.9624
  306TMC3    C2 4655   2.303   0.458  14.294  0.3262  0.1051  0.2899
  306TMC3    C3 4656   2.273   0.413  14.419 -0.0465  0.1815  0.3639
  306TMC3    C4 4657   2.128   0.607  14.303 -0.3156 -0.1689  0.1621
  306TMC3    C5 4658   2.107   0.577  14.439 -0.2738  0.7644 -0.3259
  306TMC3    C6 4659   2.181   0.473  14.499  0.5207 -0.4735  0.8477
  306TMC3     C 4660   2.257   0.593  14.091 -0.0087 -0.2689  0.0360
  306TMC3     O 4661   2.181   0.659  14.021  0.1918 -0.3090 -0.1420
  306TMC3     H 4662   2.388   0.412  14.245 -0.7515  0.6479 -2.1147
  306TMC3    H1 4663   2.093   0.695  14.250  1.8444  0.4271 -0.2823
  306TMC3    H2 4664   2.130   0.425  14.582 -1.1101  1.1836  0.7760
  306TMC3    C7 4665   1.996   0.640  14.496  0.3923  0.1921 -0.2696
  306TMC3    C8 4666   2.343   0.291  14.455  0.7578  0.0320  0.9423
  306TMC3    O1 4667   1.911   0.678  14.420  0.2268  0.0102 -0.1317
  306TMC3    O2 4668   2.406   0.227  14.371 -0.1834 -0.3038 -0.4829
  307MPD2     C 4669   4.204   3.125  17.641  0.4505 -0.1566 -0.5561
  307MPD2    C1 4670   4.129   3.234  17.686  0.4538  0.1649 -0.0657
  307MPD2    C2 4671   4.019   3.203   0.024 -0.8284  0.1293  0.3022
  307MPD2    C3 4672   3.985   3.079   0.067  0.3318 -0.1337 -0.6236
  307MPD2    C4 4673   4.068   2.973   0.033  0.4548 -0.4503 -0.3387
  307MPD2    C5 4674   4.162   3.000  17.674 -0.7449 -0.4816  0.2927
  307MPD2     H 4675   3.978   3.283   0.085 -0.2569  0.8752 -0.2952
  307MPD2    H1 4676   4.058   2.872   0.069 -1.4629  0.4949  1.7832
  307MPD2    H2 4677   4.286   3.132  17.572 -2.0815 -2.1492 -3.7898
  307MPD2    H3 4678   4.217   2.915  17.636 -0.3674  0.7367 -1.9018
  307MPD2     N 4679   3.872   3.060   0.159  0.6886 -0.1957  0.3573
  307MPD2    H5 4680   3.813   3.137   0.185 -0.2599 -1.0672  0.7600
  307MPD2    N1 4681   4.148   3.367  17.651  0.5277  0.3144 -0.4103
  307MPD2    H7 4682   4.075   3.433  17.676  1.4525  0.0123  3.0772
  308TMC3    C1 4683   3.481   2.985   0.276 -0.1421 -1.3471 -0.3421
  308TMC3    C2 4684   3.491   3.087   0.367 -0.1089 -0.7117  0.3442
  308TMC3    C3 4685   3.606   3.096   0.438  0.3754  0.5322 -1.2927
  308TMC3    C4 4686   3.588   2.911   0.229  0.3020  0.1071  0.3551
  308TMC3    C5 4687   3.709   2.962   0.276 -0.1950 -0.1053  0.0378
  308TMC3    C6 4688   3.722   3.048   0.381 -0.6389 -0.7182 -0.3917
  308TMC3     C 4689   3.346   2.956   0.232 -0.0925  0.9414 -0.5146
  308TMC3     O 4690   3.328   2.841   0.190  0.2840  0.2197 -0.2572
  308TMC3     H 4691   3.402   3.137   0.404  2.2709  3.3518  0.6165
  308TMC3    H1 4692   3.581   2.841   0.147 -1.4188 -0.2972  0.8287
  308TMC3    H2 4693   3.818   3.084   0.417 -0.9006  1.4954 -1.9196
  308TMC3    C7 4694   3.825   2.944   0.200 -0.3029 -0.2165  0.6054
  308TMC3    C8 4695   3.621   3.220   0.518 -0.1213 -0.3189 -0.3210
  308TMC3    O1 4696   3.844   2.832   0.153  0.0354  0.1387  0.1756
  308TMC3    O2 4697   3.704   3.219   0.609 -0.6361 -0.2168  0.2114
  309MPD2     C 4698   3.188   3.722  17.038  0.3467 -0.0015  0.0070
  309MPD2    C1 4699   3.167   3.734  16.902 -0.5801  0.6948 -0.0578
  309MPD2    C2 4700   3.044   3.702  16.853  0.5003  0.4991 -0.0402
  309MPD2    C3 4701   2.941   3.662  16.934 -0.2896  0.7699  0.0991
  309MPD2    C4 4702   2.961   3.656  17.066  0.6036 -0.7643 -0.7004
  309MPD2    C5 4703   3.083   3.682  17.117 -0.0245  0.2277 -0.2880
  309MPD2     H 4704   3.037   3.706  16.745 -1.1933 -1.0792  0.0056
  309MPD2    H1 4705   2.875   3.632  17.128  0.4783 -1.7708 -1.2516
  309MPD2    H2 4706   3.282   3.747  17.087 -0.8190 -0.7490  2.6268
  309MPD2    H3 4707   3.108   3.678  17.223 -1.7554 -1.7909  0.0470
  309MPD2     N 4708   2.810   3.626  16.884  0.5495 -0.4773 -0.5964
  309MPD2    H5 4709   2.740   3.586  16.946  1.5080 -0.2369  0.6440
  309MPD2    N1 4710   3.269   3.777  16.809 -0.1332  0.1080 -0.3907
  309MPD2    H7 4711   3.242   3.790  16.712  1.5124 -0.0783 -0.8693
  310TMC3    C1 4712   3.490   3.829  16.722  0.2826 -0.3152 -0.5733
  310TMC3    C2 4713   3.436   3.861  16.602  0.2280  0.1349 -0.0758
  310TMC3    C3 4714   3.522   3.879  16.501 -0.2917  0.1659  0.6253
  310TMC3    C4 4715   3.623   3.808  16.743  0.2798  0.7624  0.1643
  310TMC3    C5 4716   3.706   3.814  16.635  0.2851 -0.3781  0.2585
  310TMC3    C6 4717   3.665   3.866  16.516 -0.6015 -0.4488 -0.4488
  310TMC3     C 4718   3.403   3.799  16.838 -0.2635 -0.1656  0.4306
  310TMC3     O 4719   3.461   3.769  16.940 -0.1302 -0.3335  0.4101
  310TMC3     H 4720   3.332   3.869  16.573  0.4453  0.8039 -0.6946
  310TMC3    H1 4721   3.650   3.773  16.842 -1.0714 -0.0975  0.2343
  310TMC3    H2 4722   3.728   3.852  16.429  1.9300  0.3733  1.2619
  310TMC3    C7 4723   3.822   3.723  16.625  0.0471  0.8076  0.3193
  310TMC3    C8 4724   3.471   3.910  16.366 -0.3814 -0.6793  0.5659
  310TMC3    O1 4725   3.868   3.678  16.524  0.5899 -0.4173  0.4825
  310TMC3    O2 4726   3.353   3.912  16.347 -1.1173  0.6516  0.8187
  311MPD2     C 4727   1.098   0.652  12.436  0.2004  0.6190 -0.1939
  311MPD2    C1 4728   1.121   0.645  12.573  0.1420 -0.2904 -0.0437
  311MPD2    C2 4729   1.006   0.638  12.650 -0.3788  0.0547 -0.5023
  311MPD2    C3 4730   0.878   0.653  12.599  0.3555  0.6172  0.1945
  311MPD2    C4 4731   0.862   0.655  12.462  0.6567  1.0167 -0.4909
  311MPD2    C5 4732   0.971   0.650  12.387 -0.0441 -0.5065 -0.0085
  311MPD2     H 4733   1.021   0.639  12.757 -1.9519  0.0537 -0.2851
  311MPD2    H1 4734   0.763   0.639  12.421  0.1827  2.5263  0.0412
  311MPD2    H2 4735   1.177   0.640  12.363  0.7322 -1.8663  0.7892
  311MPD2    H3 4736   0.968   0.663  12.279  0.3337 -1.1825 -0.0950
  311MPD2     N 4737   0.771   0.646  12.695 -0.8088 -0.4182  0.7790
  311MPD2    H5 4738   0.785   0.637  12.795  2.3080 -1.5414  0.2559
  311MPD2    N1 4739   1.239   0.643  12.636  0.7230  0.1090  0.0696
  311MPD2    H7 4740   1.246   0.669  12.734  0.9609  0.8019 -0.1345
  312TMC3    C1 4741   0.566   0.591  12.763 -0.0555  0.0753 -0.8564
  312TMC3    C2 4742   0.484   0.489  12.740  0.3050 -0.7754 -0.4355
  312TMC3    C3 4743   0.435   0.421  12.851 -0.3004 -0.4045 -0.1655
  312TMC3    C4 4744   0.605   0.635  12.884  0.2600  0.0086 -0.4783
  312TMC3    C5 4745   0.541   0.574  12.992  0.3026 -0.1814  0.0224
  312TMC3    C6 4746   0.457   0.463  12.977  0.1718  0.2886  0.3482
  312TMC3     C 4747   0.638   0.641  12.654 -0.6877  0.2168 -0.3842
  312TMC3     O 4748   0.582   0.639  12.546 -0.0744 -0.1499 -0.3547
  312TMC3     H 4749   0.463   0.451  12.640  0.1961 -0.9630 -0.3405
  312TMC3    H1 4750   0.668   0.722  12.898 -0.4142 -0.0244  2.7296
  312TMC3    H2 4751   0.405   0.410  13.056  0.8685  0.0389  0.6431
  312TMC3    C7 4752   0.563   0.626  13.126 -0.6032  0.4544 -0.1468
  312TMC3    C8 4753   0.334   0.310  12.836  0.2221 -0.2622  0.3868
  312TMC3    O1 4754   0.574   0.749  13.130  0.2046 -0.2924  0.6455
  312TMC3    O2 4755   0.343   0.215  12.911 -0.1299  0.3452 -0.5038
  313MPD2     C 4756   0.572   4.011  11.108 -0.3513 -0.5864 -0.2902
  313MPD2    C1 4757   0.647   4.115  11.050  0.0978  0.3598 -0.1139
  313MPD2    C2 4758   0.764   4.074  10.985  0.2748 -0.1537  0.1105
  313MPD2    C3 4759   0.798   3.944  10.958 -0.4827  1.0780  0.1665
  313MPD2    C4 4760   0.723   3.847  11.017  0.0144  0.0083 -0.3018
  313MPD2    C5 4761   0.609   3.880  11.086 -0.2037 -0.2770 -1.2070
  313MPD2     H 4762   0.840   4.150  10.970 -0.1907  0.3260  0.1940
  313MPD2    H1 4763   0.753   3.744  11.001  2.3816  0.7379 -0.6071
  313MPD2    H2 4764   0.501   4.041  11.185 -1.0674  0.6297 -1.4291
  313MPD2    H3 4765   0.555   3.801  11.136 -0.8023  0.9369  0.0621
  313MPD2     N 4766   0.914   3.929  10.874 -1.5322  0.4078  0.6925
  313MPD2    H5 4767   0.950   4.008  10.822  0.4781 -0.5381  0.6727
  313MPD2    N1 4768   0.620   4.253  11.065 -0.0938  0.7729  0.2112
  313MPD2    H7 4769   0.681   4.317  11.015 -0.2818 -0.8638 -2.1187
  314TMC3    C1 4770   0.494   4.456  11.094 -0.2709 -0.4286 -0.2774
  314TMC3    C2 4771   0.580   4.508  11.004 -0.2943 -0.3459  0.3514
  314TMC3    C3 4772   0.526   4.603  10.923 -0.0505 -0.1345  0.1539
  314TMC3    C4 4773   0.364   4.498  11.108 -0.2886  0.1219 -0.1260
  314TMC3    C5 4774   0.317   4.592  11.019  0.5028  0.1248  0.5225
  314TMC3    C6 4775   0.399   4.645  10.924  0.2942  0.0813  0.7186
  314TMC3     C 4776   0.520   4.321  11.139 -0.3484 -0.2569 -0.8384
  314TMC3     O 4777   0.437   4.268  11.214 -0.2678  0.8879 -0.3982
  314TMC3     H 4778   0.686   4.491  11.020  0.1238  0.3604 -1.6995
  314TMC3    H1 4779   0.302   4.465  11.190 -0.5533  2.7372  0.6968
  314TMC3    H2 4780   0.368   4.717  10.849 -1.4302  0.2549  1.5885
  314TMC3    C7 4781   0.188   4.659  11.045  0.2720 -0.3502 -0.3094
  314TMC3    C8 4782   0.623   4.703  10.875 -0.5175 -0.0336 -0.6987
  314TMC3    O1 4783   0.090   4.606  11.091 -0.3310 -0.0605  0.1362
  314TMC3    O2 4784   0.573   0.080  10.884 -0.8204 -0.3238  0.1813
  315MPD2     C 4785   4.190   3.467  17.301 -0.5440 -0.4429  0.1438
  315MPD2    C1 4786   4.323   3.457  17.270  0.8018 -0.5015  0.0555
  315MPD2    C2 4787   4.406   3.571  17.254  0.1870  0.7271 -0.8880
  315MPD2    C3 4788   4.346   3.697  17.262 -0.2709  0.6812 -0.1965
  315MPD2    C4 4789   4.212   3.706  17.288  0.5370  0.3695  0.0586
  315MPD2    C5 4790   4.134   3.592  17.301  0.1766  0.0145  0.5074
  315MPD2     H 4791   4.508   3.560  17.220  0.2553  0.6754 -0.6640
  315MPD2    H1 4792   4.166   3.804  17.290  0.8968  0.5388  0.0611
  315MPD2    H2 4793   4.120   3.386  17.312 -0.2323 -0.7989 -0.5158
  315MPD2    H3 4794   4.027   3.596  17.320 -0.2546 -0.8831 -1.7634
  315MPD2     N 4795   4.416   3.814  17.222 -0.2631 -0.2077 -0.2860
  315MPD2    H5 4796   4.517   3.802  17.214 -0.0775  0.8650  0.4504
  315MPD2    N1 4797   4.386   3.337  17.250 -0.6413 -0.0043  0.4153
  315MPD2    H7 4798   4.483   3.350  17.222 -0.4429 -0.9829  0.6368
  316TMC3    C1 4799   4.476   4.019  17.141 -0.5134  0.1597  0.2120
  316TMC3    C2 4800   4.574   4.025  17.233 -0.4029  0.0882 -1.1049
  316TMC3    C3 4801   4.692   4.092  17.202 -0.7314  0.6151  0.8920
  316TMC3    C4 4802   4.491   4.073  17.015 -1.2132 -0.6176 -0.1752
  316TMC3    C5 4803   4.611   4.136  16.982 -0.2908  0.2690 -0.4940
  316TMC3    C6 4804   4.708   4.141  17.076 -0.0353  0.3671  0.2023
  316TMC3     C 4805   4.364   3.933  17.173 -0.1218 -0.5245  0.3017
  316TMC3     O 4806   4.250   3.962  17.141 -0.3266 -0.0568  0.0191
  316TMC3     H 4807   4.548   4.001  17.336  0.6871  1.2315 -0.5530
  316TMC3    H1 4808   4.409   4.062  16.944 -1.9167  0.2863  0.4941
  316TMC3    H2 4809   0.067   4.185  17.043 -0.9118  1.3820 -0.9815
  316TMC3    C7 4810   4.659   4.109  16.850  0.1549 -0.6994  0.1334
  316TMC3    C8 4811   0.067   4.112  17.294  0.1794  0.0840  1.1541
  316TMC3    O1 4812   0.028   4.047  16.840  0.0561 -0.2579  0.1286
  316TMC3    O2 4813   0.144   4.205  17.280  0.1799  0.1632 -0.2364
  317MPD2     C 4814   2.519   2.287  13.037  0.6029  0.2619  0.3219
  317MPD2    C1 4815   2.599   2.219  12.954 -0.6236  0.2225  0.1720
  317MPD2    C2 4816   2.680   2.121  13.004  0.4482  0.4051 -0.0772
  317MPD2    C3 4817   2.669   2.079  13.137  0.0036 -0.8953  0.0725
  317MPD2    C4 4818   2.586   2.140  13.227 -0.7127  0.2685 -0.0650
  317MPD2    C5 4819   2.518   2.254  13.173 -0.0310  0.9359  0.7105
  317MPD2     H 4820   2.741   2.065  12.934  1.1593  2.4379 -1.0797
  317MPD2    H1 4821   2.585   2.112  13.332  0.6264  1.3798  0.2306
  317MPD2    H2 4822   2.460   2.372  13.005  1.6359  0.3566 -1.3091
  317MPD2    H3 4823   2.453   2.311  13.239 -1.6367  0.0206 -0.0681
  317MPD2     N 4824   2.750   1.959  13.162  0.3602 -0.6879  0.2121
  317MPD2    H5 4825   2.804   1.926  13.083  1.5598  2.2530 -0.2021
  317MPD2    N1 4826   2.598   2.249  12.815  0.6974  0.4303  0.6814
  317MPD2    H7 4827   2.656   2.195  12.751  0.7918  0.6610  0.5739
  318TMC3    C1 4828   2.811   1.748  13.225 -0.5625  0.4540 -0.6272
  318TMC3    C2 4829   2.744   1.624  13.232 -0.6660 -0.1272 -0.2020
  318TMC3    C3 4830   2.812   1.514  13.187  0.1626 -0.4130 -0.6353
  318TMC3    C4 4831   2.939   1.771  13.177 -1.4842 -0.2376 -0.0352
  318TMC3    C5 4832   3.007   1.659  13.155  0.3612 -0.0161  0.4137
  318TMC3    C6 4833   2.948   1.537  13.153 -0.1749  0.1148 -0.7502
  318TMC3     C 4834   2.732   1.864  13.259 -0.0647 -0.5196 -0.6068
  318TMC3     O 4835   2.648   1.853  13.344 -0.0281 -0.5221  0.5155
  318TMC3     H 4836   2.644   1.619  13.273 -0.7002  2.0325 -0.0532
  318TMC3    H1 4837   2.980   1.871  13.180 -0.6669 -0.6159  1.1572
  318TMC3    H2 4838   3.010   1.454  13.122  0.4109  0.2465  0.0772
  318TMC3    C7 4839   3.141   1.679  13.105  0.0329 -0.1317  0.8569
  318TMC3    C8 4840   2.750   1.385  13.177  0.2485 -0.3091 -0.4269
  318TMC3    O1 4841   3.159   1.791  13.057 -0.0488  0.2273 -0.7331
  318TMC3    O2 4842   2.820   1.292  13.132  0.4220 -0.4168 -0.1819
  319MPD2     C 4843   2.610   3.068  16.478 -0.2467 -0.5876 -0.3029
  319MPD2    C1 4844   2.544   2.977  16.563 -0.3470 -0.2724 -0.9333
  319MPD2    C2 4845   2.444   2.898  16.513 -0.6986  0.0064  0.0075
  319MPD2    C3 4846   2.405   2.925  16.380  0.4566 -0.3563  1.0120
  319MPD2    C4 4847   2.458   3.027  16.308 -0.4213 -0.2549  0.2423
  319MPD2    C5 4848   2.564   3.097  16.352  0.0375  0.5732  0.0921
  319MPD2     H 4849   2.401   2.815  16.569  2.6376  0.4266  3.1707
  319MPD2    H1 4850   2.408   3.046  16.214  0.6758 -1.1572 -0.5347
  319MPD2    H2 4851   2.689   3.133  16.515  0.7004 -0.5252 -2.4316
  319MPD2    H3 4852   2.611   3.173  16.291 -0.8044  1.1113  0.1102
  319MPD2     N 4853   2.302   2.851  16.317  0.3629 -0.1427  0.1325
  319MPD2    H5 4854   2.273   2.884  16.225  0.8818 -0.3486 -0.1069
  319MPD2    N1 4855   2.567   2.969  16.697 -0.1234  0.1246 -0.0316
  319MPD2    H7 4856   2.513   2.902  16.750 -1.2505  0.0116 -1.3133
  320TMC3    C1 4857   2.131   2.708  16.274 -0.5514 -0.2803  0.6577
  320TMC3    C2 4858   2.085   2.801  16.181 -0.4444 -0.4316 -0.2068
  320TMC3    C3 4859   2.028   2.762  16.064  0.0786 -0.3906 -0.3128
  320TMC3    C4 4860   2.104   2.576  16.256 -0.0766 -0.7038 -1.0850
  320TMC3    C5 4861   2.036   2.534  16.141  0.8742  0.7779 -0.1244
  320TMC3    C6 4862   2.007   2.628  16.045 -0.2398 -0.2229 -0.0759
  320TMC3     C 4863   2.235   2.741  16.369  0.2083  0.3054  1.1023
  320TMC3     O 4864   2.262   2.660  16.455  0.8783  0.0310 -0.1611
  320TMC3     H 4865   2.095   2.907  16.200 -3.2426 -0.7140  2.8701
  320TMC3    H1 4866   2.136   2.505  16.332  2.0921  0.2836 -1.0680
  320TMC3    H2 4867   1.978   2.585  15.950  0.3646 -0.8090  0.0087
  320TMC3    C7 4868   2.017   2.391  16.110  0.0476  0.3960 -0.3986
  320TMC3    C8 4869   2.027   2.850  15.956 -0.7836 -0.5534 -0.3073
  320TMC3    O1 4870   1.971   2.368  15.997 -0.1911 -0.2085  0.7228
  320TMC3    O2 4871   2.055   2.968  15.978 -0.2708 -0.0857  0.2649
  321TMC3    C1 4872   2.652   3.028  16.906  0.3290 -0.1713 -0.5790
  321TMC3    C2 4873   2.678   2.897  16.937  0.0428  1.0255 -0.1708
  321TMC3    C3 4874   2.731   2.874  17.069 -0.2214 -0.0251  0.5085
  321TMC3    C4 4875   2.685   3.132  16.987  0.0830  0.3213 -0.5092
  321TMC3    C5 4876   2.740   3.110  17.106  0.1808  0.6280 -0.0683
  321TMC3    C6 4877   2.745   2.981  17.161 -0.8348 -0.2464 -0.0428
  321TMC3     C 4878   2.643   3.059  16.771 -0.4338 -0.9686 -0.3144
  321TMC3     O 4879   2.681   3.165  16.741  0.2587  0.8127 -0.0657
  321TMC3     H 4880   2.667   2.821  16.860 -1.7594 -1.1900  2.2548
  321TMC3    H1 4881   2.689   3.233  16.948  1.3919  0.5857  0.2971
  321TMC3    H2 4882   2.796   2.971  17.255  0.0555 -1.0429 -0.6194
  321TMC3    C7 4883   2.844   3.205  17.144  0.4431 -0.0668  0.2614
  321TMC3    C8 4884   2.841   2.783  17.080  0.0241  0.2110 -0.5740
  321TMC3    O1 4885   2.827   3.324  17.130 -0.0404  0.1111  0.3187
  321TMC3    O2 4886   2.932   2.844  17.133 -0.7443 -0.6327  0.9492
  322MPD2     C 4887   1.926   4.215  13.265 -0.0060  0.0094 -0.5568
  322MPD2    C1 4888   1.871   4.199  13.393  0.3285 -0.6532  0.6204
  322MPD2    C2 4889   1.841   4.071  13.440 -0.1675  0.4082 -0.5903
  322MPD2    C3 4890   1.862   3.958  13.363  0.0738 -0.3313 -0.1758
  322MPD2    C4 4891   1.921   3.974  13.239  0.4986  0.2271  0.0925
  322MPD2    C5 4892   1.953   4.098  13.192 -0.0136  0.4885 -0.5632
  322MPD2     H 4893   1.796   4.056  13.537  1.5197 -0.4098  0.0670
  322MPD2    H1 4894   1.937   3.893  13.169 -0.1010  0.4603 -0.3201
  322MPD2    H2 4895   1.964   4.313  13.236  1.6104  0.4092  2.9535
  322MPD2    H3 4896   1.991   4.106  13.090  0.8050 -2.0931 -0.4613
  322MPD2     N 4897   1.830   3.831  13.420 -0.0294 -0.6514 -0.6128
  322MPD2    H5 4898   1.769   3.827  13.501  0.1248  1.1567 -0.4103
  322MPD2    N1 4899   1.857   4.307  13.473  0.1632 -0.4258 -0.8205
  322MPD2    H7 4900   1.901   4.394  13.446  0.0608 -0.2790 -0.5092
  323TMC3    C1 4901   1.828   4.419  13.675 -0.7106  0.0295 -0.5893
  323TMC3    C2 4902   1.898   4.521  13.615 -0.0843  0.1863  0.1523
  323TMC3    C3 4903   1.951   4.625  13.695  0.3742 -0.3156  0.4357
  323TMC3    C4 4904   1.812   4.415  13.812  0.3391 -0.5198  0.0796
  323TMC3    C5 4905   1.869   4.520  13.891  0.0651  0.1478  0.2097
  323TMC3    C6 4906   1.929   4.630  13.828  0.9488 -0.5825  0.3897
  323TMC3     C 4907   1.798   4.305  13.599 -0.1923 -0.1451 -0.1919
  323TMC3     O 4908   1.720   4.229  13.652  0.0922  0.7152  0.0717
  323TMC3     H 4909   1.913   4.533  13.509 -0.1479  1.7372  0.3156
  323TMC3    H1 4910   1.760   4.332  13.859 -0.7823 -0.3601 -0.8834
  323TMC3    H2 4911   1.984   4.710  13.877 -0.9199  1.2664 -0.5446
  323TMC3    C7 4912   1.919   4.484  14.025  0.1494 -0.7712 -1.0484
  323TMC3    C8 4913   2.091   4.654  13.669 -0.0098 -0.0762 -0.3017
  323TMC3    O1 4914   1.864   4.399  14.093 -0.2200  0.2207 -0.0032
  323TMC3    O2 4915   2.179   4.643  13.752  0.4743  0.9635 -0.4644
  324MPD2     C 4916   3.826   0.763  14.079 -0.4811 -0.7402 -0.3702
  324MPD2    C1 4917   3.815   0.883  14.143 -0.5952  0.2158 -0.3296
  324MPD2    C2 4918   3.693   0.939  14.169  0.4196  0.1079 -0.3446
  324MPD2    C3 4919   3.576   0.891  14.111  0.3272 -0.2489 -0.3434
  324MPD2    C4 4920   3.592   0.780  14.034  0.8673 -0.4841 -0.6895
  324MPD2    C5 4921   3.710   0.714  14.030 -0.0554  0.0218 -0.4435
  324MPD2     H 4922   3.693   1.034  14.221  1.5589 -1.1710  2.0136
  324MPD2    H1 4923   3.505   0.726  13.999 -0.3203  1.8654 -1.3201
  324MPD2    H2 4924   3.919   0.709  14.069  0.1551  0.3473 -0.3344
  324MPD2    H3 4925   3.717   0.623  13.972  1.1701 -1.5252  2.1386
  324MPD2     N 4926   3.451   0.958  14.104 -0.7811  0.1334  0.2016
  324MPD2    H5 4927   3.371   0.913  14.060  0.1494 -1.1388 -0.2015
  324MPD2    N1 4928   3.939   0.944  14.190  0.3997  0.1706 -0.8203
  324MPD2    H7 4929   3.946   0.993  14.278 -2.8780 -1.2482  0.2370
  325TMC3    C1 4930   3.301   1.135  14.103  0.6434  0.6693 -0.3538
  325TMC3    C2 4931   3.239   1.071  13.999  0.0813  0.0439 -1.0002
  325TMC3    C3 4932   3.106   1.098  13.977 -0.7784 -0.3757  0.4306
  325TMC3    C4 4933   3.232   1.217  14.186  0.1951  0.3624  0.1537
  325TMC3    C5 4934   3.099   1.238  14.159 -0.0371 -0.2434 -0.7334
  325TMC3    C6 4935   3.036   1.179  14.051 -0.2425  0.2468  0.1918
  325TMC3     C 4936   3.427   1.082  14.150  0.0458  0.3399 -0.5070
  325TMC3     O 4937   3.487   1.141  14.241 -0.3135  0.1270  0.4942
  325TMC3     H 4938   3.300   1.021  13.924  1.3802  0.6525 -0.3403
  325TMC3    H1 4939   3.278   1.253  14.278 -0.0281  0.8584  0.0661
  325TMC3    H2 4940   2.943   1.222  14.014 -0.1179  1.5910  1.4604
  325TMC3    C7 4941   3.030   1.342  14.230 -0.6845 -0.2478  0.2187
  325TMC3    C8 4942   3.043   1.023  13.864 -0.2657  0.4062  0.4005
  325TMC3    O1 4943   3.094   1.428  14.286 -0.2271  0.1443 -0.2074
  325TMC3    O2 4944   3.111   0.994  13.769  0.2362  0.1264  0.2906
  326MPD2     C 4945   4.171   2.437  11.033 -0.2158  0.2383 -0.5311
  326MPD2    C1 4946   4.188   2.492  10.907 -0.1296 -0.4343  0.3757
  326MPD2    C2 4947   4.287   2.578  10.882  0.2147 -0.3327 -0.1310
  326MPD2    C3 4948   4.376   2.607  10.981 -0.0039  0.9136 -0.4949
  326MPD2    C4 4949   4.358   2.547  11.113 -0.1818  0.4854 -0.6144
  326MPD2    C5 4950   4.256   2.463  11.139 -1.0511 -0.0559  0.1462
  326MPD2     H 4951   4.291   2.635  10.790 -0.6211  0.8545  0.5648
  326MPD2    H1 4952   4.409   2.582  11.203  0.0780 -0.3081 -0.4505
  326MPD2    H2 4953   4.073   2.393  11.049 -1.3277  2.5825 -0.7621
  326MPD2    H3 4954   4.240   2.413  11.233 -0.2189 -2.6740 -1.0948
  326MPD2     N 4955   4.498   2.689  10.963  0.2576 -0.6463 -0.2237
  326MPD2    H5 4956   4.572   2.676  11.031 -0.1578  0.3415  0.4332
  326MPD2    N1 4957   4.110   2.452  10.797  0.2346 -0.2951 -0.0592
  326MPD2    H7 4958   4.113   2.518  10.720  1.0770 -2.5726 -1.9393
  327TMC3    C1 4959   4.032   2.304  10.645 -0.0500  0.0466 -0.5730
  327TMC3    C2 4960   4.001   2.425  10.580  0.2439 -0.4769  0.2579
  327TMC3    C3 4961   4.047   2.429  10.450  0.6260 -0.0032  0.4536
  327TMC3    C4 4962   4.087   2.192  10.586 -0.0973 -0.3306 -0.2570
  327TMC3    C5 4963   4.128   2.214  10.453  0.8009  0.9663 -0.3439
  327TMC3    C6 4964   4.113   2.331  10.385 -0.2598 -0.6743  0.6358
  327TMC3     C 4965   4.068   2.321  10.784  0.1937 -0.4017 -0.2655
  327TMC3     O 4966   4.096   2.218  10.844  0.4844 -0.0376 -0.1243
  327TMC3     H 4967   3.948   2.509  10.623 -0.0037  0.4646 -1.8807
  327TMC3    H1 4968   4.105   2.105  10.648 -0.9816  0.4118  1.0483
  327TMC3    H2 4969   4.170   2.355  10.295 -0.4855  1.1164  0.9710
  327TMC3    C7 4970   4.262   2.173  10.430  0.2400 -0.5423  0.1631
  327TMC3    C8 4971   4.105   2.558  10.413 -0.1854  0.1956  0.5528
  327TMC3    O1 4972   4.308   2.160  10.319  0.4775 -0.2698 -0.0672
  327TMC3    O2 4973   4.223   2.565  10.389  0.0805  0.1549 -0.1306
  328MPD2     C 4974   2.234   1.633  16.890 -0.3628  0.2272  0.4992
  328MPD2    C1 4975   2.108   1.677  16.911 -0.0160 -0.3553 -0.1314
  328MPD2    C2 4976   2.086   1.807  16.950  0.0442 -0.4814 -0.0723
  328MPD2    C3 4977   2.195   1.895  16.951  0.0658 -0.3173 -0.3693
  328MPD2    C4 4978   2.326   1.844  16.933  0.5816 -0.6853 -0.0850
  328MPD2    C5 4979   2.341   1.713  16.902 -0.0240 -0.0143  0.1711
  328MPD2     H 4980   1.987   1.849  16.936 -0.5832 -1.5890  1.0370
  328MPD2    H1 4981   2.417   1.903  16.929 -0.2152  0.6341  1.6094
  328MPD2    H2 4982   2.250   1.527  16.873  2.4357  0.6761  0.3342
  328MPD2    H3 4983   2.440   1.676  16.875  0.2094  0.3109  0.5740
  328MPD2     N 4984   2.165   2.028  16.974  0.5698 -0.2089 -0.6912
  328MPD2    H5 4985   2.235   2.099  16.957  0.4913 -0.0287 -0.2748
  328MPD2    N1 4986   2.000   1.586  16.895  0.1620 -0.1202 -0.0780
  328MPD2    H7 4987   2.023   1.492  16.864  0.3881 -0.0794 -0.0360
  329TMC3    C1 4988   1.802   1.470  16.950 -0.1507 -0.6760  0.2911
  329TMC3    C2 4989   1.663   1.486  16.969  0.0890  0.0379 -0.1854
  329TMC3    C3 4990   1.585   1.373  17.005  0.7652 -0.9515 -0.0724
  329TMC3    C4 4991   1.870   1.347  16.956  0.5026 -0.3760  0.4013
  329TMC3    C5 4992   1.786   1.242  16.990  0.2318 -0.8122  1.0143
  329TMC3    C6 4993   1.651   1.252  17.022  0.5220  0.0494 -0.3029
  329TMC3     C 4994   1.872   1.595  16.927  0.4123 -0.2527 -0.0999
  329TMC3     O 4995   1.803   1.694  16.932 -0.5630 -0.1502  0.5215
  329TMC3     H 4996   1.621   1.584  16.951 -1.4312 -0.7969 -1.1526
  329TMC3    H1 4997   1.977   1.330  16.951  0.9610  2.7730 -0.8777
  329TMC3    H2 4998   1.600   1.172  17.074  1.2434 -0.6345 -0.6676
  329TMC3    C7 4999   1.848   1.111  16.982 -0.2026 -0.5094 -0.0002
  329TMC3    C8 5000   1.459   1.396  17.076 -0.5506 -0.0174  0.4853
  329TMC3    O1 5001   1.805   1.029  17.057  0.0791 -0.1530 -0.8178
  329TMC3    O2 5002   1.376   1.312  17.103 -0.2705 -0.6761  0.4335
  330TMC3    C1 5003   0.086   1.636   9.370  0.0796 -0.7653 -0.5047
  330TMC3    C2 5004   4.728   1.539   9.390 -0.1586  0.0004 -0.3495
  330TMC3    C3 5005   0.015   1.447   9.490  0.0411  0.6635  0.3501
  330TMC3    C4 5006   0.205   1.633   9.439 -0.2946 -0.0684 -0.4715
  330TMC3    C5 5007   0.222   1.553   9.551  0.2767  0.3526  1.1036
  330TMC3    C6 5008   0.132   1.448   9.565  0.3811 -0.4572 -0.2525
  330TMC3     C 5009   0.057   1.748   9.276 -0.4006  0.4242  0.1979
  330TMC3     O 5010   0.153   1.816   9.241  0.1299  0.1805 -0.2713
  330TMC3     H 5011   4.633   1.541   9.337 -0.1995  0.2191 -0.2683
  330TMC3    H1 5012   0.262   1.725   9.433 -0.1994 -0.0431  0.7275
  330TMC3    H2 5013   0.159   1.361   9.623 -1.2426  0.5326  2.0084
  330TMC3    C7 5014   0.340   1.564   9.618  0.2479 -0.6697  0.0701
  330TMC3    C8 5015   4.659   1.339   9.508 -0.7829  0.2228  0.2418
  330TMC3    O1 5016   0.423   1.632   9.557 -0.2881  1.0202  0.5244
  330TMC3    O2 5017   4.569   1.324   9.426  0.6184  0.0121 -0.3065
  331MPD2     C 5018   3.883   0.243  12.951 -0.6104  0.3594 -0.1435
  331MPD2    C1 5019   3.850   0.134  12.879  0.2332 -0.3054 -0.0026
  331MPD2    C2 5020   3.765   0.039  12.938  0.1491 -0.5205 -0.3178
  331MPD2    C3 5021   3.724   0.063  13.066  0.8038  0.4027  0.0245
  331MPD2    C4 5022   3.745   0.181  13.130  0.1262  0.5837 -0.4769
  331MPD2    C5 5023   3.840   0.266  13.080  0.3081 -0.3763 -0.0007
  331MPD2     H 5024   3.749   4.682  12.883 -0.5607 -0.1258 -0.7856
  331MPD2    H1 5025   3.703   0.197  13.229  0.8970 -1.2052  0.1435
  331MPD2    H2 5026   3.937   0.324  12.903  2.3870 -0.3147  2.0767
  331MPD2    H3 5027   3.860   0.362  13.128  0.1931 -1.5860  2.4998
  331MPD2     N 5028   3.653   4.694  13.129  0.1660 -0.1691 -0.4866
  331MPD2    H5 5029   3.624   4.611  13.079 -0.0544  0.1278 -0.8521
  331MPD2    N1 5030   3.912   0.131  12.747  0.5970 -0.6910  0.3850
  331MPD2    H7 5031   3.972   0.210  12.728 -1.7482  1.2972  1.3172
  332TMC3    C1 5032   3.631   4.538  13.296 -0.3326  0.5135  0.5253
  332TMC3    C2 5033   3.505   4.484  13.262 -0.9673 -0.3363  0.1287
  332TMC3    C3 5034   3.478   4.361  13.295  0.5427  0.3977 -0.8698
  332TMC3    C4 5035   3.731   4.453  13.332  0.6728 -0.1464  0.2178
  332TMC3    C5 5036   3.698   4.322  13.357  0.6814  0.1021 -0.6239
  332TMC3    C6 5037   3.570   4.274  13.352  0.7629  0.2180 -0.3129
  332TMC3     C 5038   3.675   4.670  13.262  0.0519  0.4387  0.2649
  332TMC3     O 5039   3.756   4.722  13.339 -0.0968  0.5938  0.2574
  332TMC3     H 5040   3.433   4.552  13.217  1.5036 -0.2840 -3.7177
  332TMC3    H1 5041   3.834   4.484  13.348  0.3109  1.3980 -0.4567
  332TMC3    H2 5042   3.560   4.167  13.367 -0.3076  0.3399 -0.1684
  332TMC3    C7 5043   3.803   4.222  13.348 -0.0996 -0.4153 -0.4888
  332TMC3    C8 5044   3.387   4.298  13.209 -0.3862  0.2194 -0.4691
  332TMC3    O1 5045   3.774   4.120  13.406  0.2022 -0.2321 -0.2656
  332TMC3    O2 5046   3.421   4.312  13.097 -0.2722  0.0255  0.6039
  333MPD2     C 5047   3.137   0.891  11.139  0.0564 -0.1271  0.4318
  333MPD2    C1 5048   3.149   0.763  11.097 -0.1793 -0.1779  0.3986
  333MPD2    C2 5049   3.107   0.663  11.186  0.4564  0.0753 -0.3299
  333MPD2    C3 5050   3.052   0.696  11.302 -0.1808 -0.2025  0.0310
  333MPD2    C4 5051   3.031   0.825  11.339  0.5757  0.7038  0.5200
  333MPD2    C5 5052   3.069   0.927  11.256  0.0044 -0.2441  0.1300
  333MPD2     H 5053   3.126   0.558  11.168  0.1392 -0.0646  0.1400
  333MPD2    H1 5054   2.992   0.862  11.434  0.0563  1.3561  0.0531
  333MPD2    H2 5055   3.185   0.977  11.094  1.5425 -0.8677  0.5958
  333MPD2    H3 5056   3.054   1.031  11.284  1.6593  0.1076 -0.2706
  333MPD2     N 5057   3.032   0.584  11.388 -0.5293  0.4039 -0.0878
  333MPD2    H5 5058   3.059   0.498  11.341 -0.5919  0.9064 -1.0467
  333MPD2    N1 5059   3.236   0.740  10.986  0.0542  0.2253 -0.6024
  333MPD2    H7 5060   3.297   0.817  10.960  2.7956 -1.0647  1.9222
  334TMC3    C1 5061   3.369   0.618  10.833 -0.1940  0.4496  0.4975
  334TMC3    C2 5062   3.485   0.549  10.855 -0.4719  0.7576 -0.2210
  334TMC3    C3 5063   3.605   0.584  10.794  0.0153  0.5759 -0.1852
  334TMC3    C4 5064   3.374   0.739  10.756 -0.1656  0.8199 -1.4035
  334TMC3    C5 5065   3.497   0.777  10.713  0.3224  0.3952 -0.6999
  334TMC3    C6 5066   3.613   0.707  10.735 -0.3708  0.0194  0.1684
  334TMC3     C 5067   3.263   0.614  10.929  0.3937  0.1435 -0.1340
  334TMC3     O 5068   3.233   0.502  10.968 -0.2546  0.3357  0.0484
  334TMC3     H 5069   3.488   0.467  10.926  0.8650 -0.0592 -1.2225
  334TMC3    H1 5070   3.286   0.803  10.752 -0.2906  0.6759 -1.0204
  334TMC3    H2 5071   3.707   0.738  10.692 -1.1467  1.3904 -0.5472
  334TMC3    C7 5072   3.507   0.904  10.644 -0.4810  1.0847 -0.0607
  334TMC3    C8 5073   3.719   0.516  10.845  0.1252  0.2129 -1.0672
  334TMC3    O1 5074   3.617   0.963  10.648 -0.0123  0.3924 -0.4332
  334TMC3    O2 5075   3.697   0.400  10.888 -0.1213 -0.3517  0.4742
  335TMC3    C1 5076   2.884   1.565  17.545 -0.2144  0.2349  0.6367
  335TMC3    C2 5077   2.776   1.544  17.459  0.2913 -0.5770  0.2600
  335TMC3    C3 5078   2.756   1.631  17.360 -0.3576  0.0893  0.8649
  335TMC3    C4 5079   2.982   1.647  17.510 -0.4262 -0.3028 -0.0059
  335TMC3    C5 5080   2.953   1.735  17.412 -0.0743 -0.4398  0.3286
  335TMC3    C6 5081   2.837   1.736  17.345  0.3751  0.4797 -0.4066
  335TMC3     C 5082   2.881   1.500  17.677 -0.3824  0.0679  0.5743
  335TMC3     O 5083   2.989   1.451  17.709  0.1241 -0.5168 -0.2691
  335TMC3     H 5084   2.718   1.455  17.482  1.4877 -1.4475 -0.1377
  335TMC3    H1 5085   3.074   1.646  17.567 -0.4491  0.3729  0.0541
  335TMC3    H2 5086   2.840   1.788  17.250  1.0428  1.8531  0.3615
  335TMC3    C7 5087   3.060   1.813  17.353  0.7682  0.0477  0.2821
  335TMC3    C8 5088   2.706   1.577  17.237  0.5534  0.2685  0.0945
  335TMC3    O1 5089   3.172   1.767  17.365  0.1030 -0.4312  0.0551
  335TMC3    O2 5090   2.770   1.607  17.137  0.1127  0.2078 -0.1751
  336MPD2     C 5091   2.519   4.633  15.942 -0.1829 -0.6513  0.4800
  336MPD2    C1 5092   2.398   4.571  15.932  0.7000 -0.2255  0.4976
  336MPD2    C2 5093   2.396   4.436  15.925 -0.8116  0.3777  0.3943
  336MPD2    C3 5094   2.514   4.358  15.943  0.2527  0.4255  0.4245
  336MPD2    C4 5095   2.635   4.424  15.956 -0.6795  0.3758 -0.0203
  336MPD2    C5 5096   2.638   4.558  15.950  0.3241 -0.0055  0.2524
  336MPD2     H 5097   2.304   4.385  15.899 -0.2483  0.0224 -0.9087
  336MPD2    H1 5098   2.729   4.370  15.953  0.0864  1.5930  2.9164
  336MPD2    H2 5099   2.530   0.004  15.922 -1.6396 -0.5397  0.2561
  336MPD2    H3 5100   2.726   4.620  15.945  0.3392  0.0057  0.7277
  336MPD2     N 5101   2.516   4.217  15.941 -0.0070 -0.2462  0.5492
  336MPD2    H5 5102   2.606   4.171  15.946  0.2316  0.1029 -0.8073
  336MPD2    N1 5103   2.277   4.644  15.902  0.0432  0.0821 -0.7104
  336MPD2    H7 5104   2.200   4.586  15.872 -1.4041  0.5513  2.1225
  337TMC3    C1 5105   2.116   0.091  15.885  0.2108 -0.0350  0.4405
  337TMC3    C2 5106   2.019   0.001  15.854 -0.0687  0.3403 -0.1597
  337TMC3    C3 5107   1.920   0.040  15.769  0.4958 -0.0096 -0.0771
  337TMC3    C4 5108   2.105   0.223  15.858  0.6071 -0.3078  0.0781
  337TMC3    C5 5109   1.998   0.267  15.783 -1.0478 -0.6912  0.7405
  337TMC3    C6 5110   1.908   0.171  15.729 -0.4218 -0.6030  0.6643
  337TMC3     C 5111   2.254   0.049  15.900 -0.1517  0.3565  0.3947
  337TMC3     O 5112   2.338   0.130  15.931 -0.2873 -0.2374  0.4958
  337TMC3     H 5113   2.031   4.632  15.878  0.7984  0.3498 -0.5415
  337TMC3    H1 5114   2.166   0.295  15.911  1.6415 -0.8963 -0.3135
  337TMC3    H2 5115   1.817   0.208  15.684 -0.3364 -0.0163  0.9805
  337TMC3    C7 5116   1.965   0.406  15.801  0.0896  0.3801  0.1068
  337TMC3    C8 5117   1.813   4.679  15.737  0.3106 -0.6357 -0.1935
  337TMC3    O1 5118   2.061   0.481  15.799 -0.1698  0.3008  0.1386
  337TMC3    O2 5119   1.790   4.597  15.825 -0.1392  0.0214 -0.1388
  338MPD2     C 5120   2.257   3.849   0.460 -0.1257  0.5511  0.1168
  338MPD2    C1 5121   2.246   3.814   0.326  0.1668 -0.4728  0.5924
  338MPD2    C2 5122   2.137   3.864   0.251  0.3973 -0.2248  0.5374
  338MPD2    C3 5123   2.041   3.943   0.303 -0.1964 -0.4831  0.2701
  338MPD2    C4 5124   2.057   3.979   0.437  0.0892  0.5110 -0.2271
  338MPD2    C5 5125   2.157   3.926   0.513  0.2084 -0.6861 -0.7528
  338MPD2     H 5126   2.133   3.833   0.147  3.7092 -0.8420  0.5807
  338MPD2    H1 5127   1.976   4.027   0.491  0.1479  0.0429  0.2793
  338MPD2    H2 5128   2.323   3.796   0.528  1.2510 -1.6453 -2.9142
  338MPD2    H3 5129   2.159   3.950   0.618  2.8970  0.8033 -1.1450
  338MPD2     N 5130   1.930   3.976   0.224  0.2770  0.3372  0.1970
  338MPD2    H5 5131   1.910   3.919   0.142 -1.9318  1.5518 -0.1086
  338MPD2    N1 5132   2.318   3.715   0.262  0.7423  0.7485  0.0286
  338MPD2    H7 5133   2.302   3.700   0.163  0.7377 -2.7124  0.5676
  339TMC3    C1 5134   1.758   4.103   0.140 -0.4316  0.0589 -0.5536
  339TMC3    C2 5135   1.681   4.000   0.107 -0.1624  0.6844  0.6801
  339TMC3    C3 5136   1.665   3.981  17.708 -0.6023  0.3184 -0.2158
  339TMC3    C4 5137   1.792   4.203   0.056  0.9421  0.6563 -0.4081
  339TMC3    C5 5138   1.754   4.188  17.661 -0.4596 -0.2672  0.1773
  339TMC3    C6 5139   1.701   4.073  17.618 -0.1827 -0.2916 -0.3174
  339TMC3     C 5140   1.849   4.084   0.253  0.3593  0.2363 -0.4343
  339TMC3     O 5141   1.860   4.168   0.343 -0.2993  0.1055 -0.3494
  339TMC3     H 5142   1.641   3.938   0.186 -3.8424  1.0918 -0.8607
  339TMC3    H1 5143   1.862   4.273   0.101 -0.2559  0.2508  2.0599
  339TMC3    H2 5144   1.669   4.061  17.515  1.1926 -1.1657 -0.6471
  339TMC3    C7 5145   1.803   4.296  17.571 -0.1378  0.0959 -0.4703
  339TMC3    C8 5146   1.614   3.848  17.659  0.3246 -0.3584 -0.3671
  339TMC3    O1 5147   1.804   4.406  17.622 -0.0188 -0.1737 -0.1024
  339TMC3    O2 5148   1.601   3.828  17.539 -0.4890 -0.0593 -0.0073
  340MPD2     C 5149   2.616   2.296   9.898  0.3083  0.0391 -0.4611
  340MPD2    C1 5150   2.703   2.329   9.997 -0.2757 -0.1985  0.3072
  340MPD2    C2 5151   2.726   2.462  10.018 -0.0625  0.2543  0.1137
  340MPD2    C3 5152   2.688   2.560   9.933  0.3191  0.0450  0.9067
  340MPD2    C4 5153   2.613   2.527   9.827 -0.5060  0.3240  0.9466
  340MPD2    C5 5154   2.579   2.393   9.814 -0.0807 -0.5202  0.0296
  340MPD2     H 5155   2.782   2.483  10.108  0.1923 -0.1105  0.0398
  340MPD2    H1 5156   2.581   2.594   9.749 -0.4815 -0.2085  0.4779
  340MPD2    H2 5157   2.575   2.198   9.879  2.4821 -0.9571 -0.0503
  340MPD2    H3 5158   2.529   2.368   9.721  0.9084  0.4656 -0.7621
  340MPD2     N 5159   2.720   2.698   9.959  0.1506 -0.4004  0.2428
  340MPD2    H5 5160   2.707   2.758   9.878 -1.4085 -1.0194  0.0228
  340MPD2    N1 5161   2.755   2.229  10.079  0.0185  0.1058 -0.3108
  340MPD2    H7 5162   2.713   2.137  10.084 -3.2312  1.6606  1.4427
  341TMC3    C1 5163   2.913   2.118  10.202  0.4146 -0.0200 -0.5296
  341TMC3    C2 5164   2.815   2.019  10.189  0.3608  0.2550 -0.4515
  341TMC3    C3 5165   2.850   1.895  10.134 -0.3461  0.1591  0.0730
  341TMC3    C4 5166   3.042   2.080  10.181 -0.0597  0.1455  0.0362
  341TMC3    C5 5167   3.077   1.959  10.134  0.5829  0.2319 -0.5108
  341TMC3    C6 5168   2.979   1.865  10.097  0.1942 -0.0776  0.5023
  341TMC3     C 5169   2.874   2.245  10.149 -0.3012  0.1283 -0.7331
  341TMC3     O 5170   2.944   2.343  10.155 -0.1537  0.5093  0.1005
  341TMC3     H 5171   2.714   2.021  10.227 -0.2216 -1.9771 -1.8358
  341TMC3    H1 5172   3.122   2.153  10.180  0.4469 -0.4260 -1.5859
  341TMC3    H2 5173   3.013   1.764  10.081  0.3412 -0.1528  1.2746
  341TMC3    C7 5174   3.211   1.943  10.085 -0.2396  0.5556  0.2625
  341TMC3    C8 5175   2.757   1.779  10.135 -0.5861  0.7854 -0.2184
  341TMC3    O1 5176   3.297   2.010  10.140  0.0320 -0.2361 -0.1999
  341TMC3    O2 5177   2.687   1.747  10.230  0.1549  0.4046  0.3838
  342MPD2     C 5178   0.758   0.137  17.569 -0.0159 -1.0815  0.1357
  342MPD2    C1 5179   0.837   0.151  17.457 -0.2742 -0.0672 -0.8936
  342MPD2    C2 5180   0.939   0.247  17.453  0.2261 -0.0239 -0.0102
  342MPD2    C3 5181   0.955   0.337  17.561 -0.1915 -0.6417  0.1625
  342MPD2    C4 5182   0.869   0.322  17.668  0.1744  0.2028  0.2237
  342MPD2    C5 5183   0.775   0.223  17.666 -0.9145 -0.0014  0.3780
  342MPD2     H 5184   0.995   0.258  17.361 -0.5766 -1.0401 -0.6153
  342MPD2    H1 5185   0.861   0.381   0.019  0.3991 -0.6991  0.8345
  342MPD2    H2 5186   0.681   0.061  17.574 -1.8466  0.5753 -2.9558
  342MPD2    H3 5187   0.715   0.206   0.015 -1.0647 -0.5028  0.1765
  342MPD2     N 5188   1.059   0.434  17.560 -0.4582  0.6495 -0.4807
  342MPD2    H5 5189   1.065   0.488  17.646 -0.7759 -0.1426  0.0398
  342MPD2    N1 5190   0.837   0.051  17.355 -0.1117  0.0901  0.2584
  342MPD2    H7 5191   0.907   0.051  17.282 -0.4082 -3.5958 -0.0395
  343TMC3    C1 5192   0.760   4.621  17.207 -0.3483  0.0329 -0.9904
  343TMC3    C2 5193   0.829   4.685  17.109  0.2581 -0.1665  0.3698
  343TMC3    C3 5194   0.853   4.610  16.994 -0.4264 -0.5679 -0.1371
  343TMC3    C4 5195   0.703   4.498  17.189  0.3353 -0.8517 -0.7822
  343TMC3    C5 5196   0.719   4.436  17.070  0.4860 -0.2176 -0.1218
  343TMC3    C6 5197   0.804   4.483  16.975  0.5541  0.5021 -0.8289
  343TMC3     C 5198   0.736   4.700  17.326 -0.5973  0.2673  0.1987
  343TMC3     O 5199   0.628   4.689  17.377 -0.0982  0.0606 -0.1969
  343TMC3     H 5200   0.854   0.055  17.114  2.8691 -0.8967  2.0926
  343TMC3    H1 5201   0.651   4.446  17.269  0.8765 -1.0621 -0.5650
  343TMC3    H2 5202   0.808   4.432  16.880  1.6664  1.1956 -1.1514
  343TMC3    C7 5203   0.681   4.299  17.052  0.2768 -0.1398 -0.1367
  343TMC3    C8 5204   0.972   4.650  16.922  0.3762  0.1129  0.5070
  343TMC3    O1 5205   0.644   4.271  16.939 -0.1759 -0.2722 -0.8162
  343TMC3    O2 5206   0.985   0.036  16.917  0.0982  0.2169 -0.0827
  344MPD2     C 5207   1.833   0.050  11.433 -1.0426  0.0566 -0.5942
  344MPD2    C1 5208   1.932   4.728  11.356 -0.2670  0.5780  0.0166
  344MPD2    C2 5209   1.986   0.064  11.249 -0.0985 -0.4719 -0.8173
  344MPD2    C3 5210   1.962   0.196  11.228  0.2327  0.4776  0.2482
  344MPD2    C4 5211   1.859   0.246  11.309 -0.6413  0.1120 -0.3472
  344MPD2    C5 5212   1.791   0.176  11.406  0.3931  0.1821  0.0276
  344MPD2     H 5213   2.058   0.006  11.192  1.2663  0.3002  0.1102
  344MPD2    H1 5214   1.830   0.349  11.294 -0.1957  0.4208  0.8911
  344MPD2    H2 5215   1.784   4.732  11.514  0.4723  0.2238  0.4368
  344MPD2    H3 5216   1.709   0.220  11.461 -1.1446  0.4488 -2.4691
  344MPD2     N 5217   2.020   0.274  11.124  0.2817 -0.2153 -0.3380
  344MPD2    H5 5218   2.006   0.374  11.133  0.4231 -0.2125 -0.1467
  344MPD2    N1 5219   1.976   4.597  11.380 -0.8416  0.5183 -0.7244
  344MPD2    H7 5220   2.049   4.562  11.318 -0.1772  0.8211 -0.1236
  345TMC3    C1 5221   2.163   0.326  10.933  0.1398  0.6367 -0.1738
  345TMC3    C2 5222   2.163   0.462  10.963  0.3261  0.2669  0.6918
  345TMC3    C3 5223   2.229   0.552  10.881  0.3786  0.4338 -0.3262
  345TMC3    C4 5224   2.236   0.280  10.827 -0.0209  0.0557  0.0291
  345TMC3    C5 5225   2.290   0.370  10.737  0.3844 -0.0563  0.7737
  345TMC3    C6 5226   2.295   0.501  10.770 -0.9708  0.0897  0.3866
  345TMC3     C 5227   2.107   0.228  11.031  0.4023 -0.2880  1.2566
  345TMC3     O 5228   2.140   0.111  11.013 -0.6956 -0.1828 -0.6943
  345TMC3     H 5229   2.103   0.504  11.043  0.6091 -3.1572  2.6765
  345TMC3    H1 5230   2.234   0.176  10.796 -1.0922  0.4347 -1.1974
  345TMC3    H2 5231   2.349   0.570  10.706  0.4368 -0.3232  1.1206
  345TMC3    C7 5232   2.260   0.343  10.592  0.0241  0.0436 -0.4200
  345TMC3    C8 5233   2.192   0.688  10.876 -0.1994 -0.1569  0.0140
  345TMC3    O1 5234   2.260   0.231  10.550 -1.1082  0.1145 -0.4579
  345TMC3    O2 5235   2.201   0.724  10.758  0.8019  0.1319  0.2516
  346MPD2     C 5236   2.280   0.868  13.577 -0.5174 -0.0275  0.4726
  346MPD2    C1 5237   2.368   0.969  13.605 -0.0390  1.2135 -0.8712
  346MPD2    C2 5238   2.333   1.064  13.697 -0.2385 -0.3640  0.0478
  346MPD2    C3 5239   2.209   1.063  13.762 -0.2289  0.0090  0.2588
  346MPD2    C4 5240   2.121   0.967  13.736 -0.0826 -0.0522  0.5668
  346MPD2    C5 5241   2.155   0.871  13.643  0.7075 -0.0315  0.2256
  346MPD2     H 5242   2.403   1.144  13.713 -1.4893  0.8536 -0.5351
  346MPD2    H1 5243   2.022   0.967  13.779 -0.0549 -0.6428  0.6278
  346MPD2    H2 5244   2.304   0.791  13.505  0.0311 -0.3839  1.0386
  346MPD2    H3 5245   2.084   0.791  13.630  0.0513  0.5354  0.3433
  346MPD2     N 5246   2.191   1.167  13.863  0.2482 -0.2216  0.0913
  346MPD2    H5 5247   2.266   1.232  13.884 -1.8547  2.5477 -1.0720
  346MPD2    N1 5248   2.491   0.991  13.543  0.0474  0.2957  0.1714
  346MPD2    H7 5249   2.537   1.081  13.552  0.7463 -0.0944  0.4714
  347TMC3    C1 5250   2.096   1.276  14.046 -0.4213 -0.2636  0.4627
  347TMC3    C2 5251   2.224   1.323  14.086 -0.3984 -0.1580  0.8371
  347TMC3    C3 5252   2.230   1.393  14.199  0.4976  0.5498 -0.2008
  347TMC3    C4 5253   1.992   1.308  14.122 -0.4804 -0.0086  0.8837
  347TMC3    C5 5254   2.005   1.383  14.232  0.0951  0.3235 -0.2469
  347TMC3    C6 5255   2.125   1.431  14.273  0.3181  0.4870 -0.1720
  347TMC3     C 5256   2.070   1.187  13.929  0.6047 -0.2951 -0.3694
  347TMC3     O 5257   1.955   1.158  13.900 -0.2017 -0.2309 -0.3424
  347TMC3     H 5258   2.316   1.293  14.038 -1.1182 -0.4331 -0.3603
  347TMC3    H1 5259   1.892   1.282  14.088  0.2607 -0.5972 -0.8258
  347TMC3    H2 5260   2.141   1.489  14.363 -2.9942 -1.0003  1.3782
  347TMC3    C7 5261   1.887   1.379  14.318  0.3980 -0.2220 -0.1663
  347TMC3    C8 5262   2.363   1.377  14.254 -0.0064  0.1192 -0.5326
  347TMC3    O1 5263   1.782   1.342  14.270 -0.4682 -0.1232 -0.5457
  347TMC3    O2 5264   2.410   1.265  14.243 -0.0814  0.1007  0.2535
  348MPD2     C 5265   0.973   1.326  11.927 -0.2971 -0.2529 -0.4734
  348MPD2    C1 5266   1.085   1.387  11.876  0.1577  0.5362  0.1953
  348MPD2    C2 5267   1.076   1.452  11.751 -0.4840  0.5880 -0.0096
  348MPD2    C3 5268   0.954   1.454  11.681 -0.2308  0.2281 -0.4881
  348MPD2    C4 5269   0.844   1.384  11.732  1.2143 -0.2197  0.3637
  348MPD2    C5 5270   0.858   1.324  11.857  0.0827  0.2066 -0.1306
  348MPD2     H 5271   1.171   1.480  11.708  0.8343  1.0025  3.1142
  348MPD2    H1 5272   0.747   1.384  11.683  0.4033 -1.0695  1.9963
  348MPD2    H2 5273   0.972   1.276  12.023  0.2753  2.7353  1.0819
  348MPD2    H3 5274   0.771   1.275  11.898 -0.0443  1.1478  0.7338
  348MPD2     N 5275   0.955   1.487  11.545  0.4158  0.0279 -0.1429
  348MPD2    H5 5276   1.040   1.522  11.503 -0.1669 -0.0049 -1.3577
  348MPD2    N1 5277   1.213   1.376  11.934  0.2429 -0.3670 -0.4049
  348MPD2    H7 5278   1.291   1.413  11.880 -0.7346  0.1741 -1.4557
  349TMC3    C1 5279   1.386   1.272  12.048  0.1764  0.6858 -0.1154
  349TMC3    C2 5280   1.386   1.142  12.094  0.2869  0.2749  0.5244
  349TMC3    C3 5281   1.434   1.051  12.007 -0.2150  0.4805 -0.3043
  349TMC3    C4 5282   1.449   1.306  11.933  0.2941  0.0885 -0.1332
  349TMC3    C5 5283   1.491   1.210  11.846  0.3980 -0.1033  0.1596
  349TMC3    C6 5284   1.485   1.080  11.887  0.4703  0.4289  0.0957
  349TMC3     C 5285   1.248   1.323  12.058  0.0956  0.4052 -0.1622
  349TMC3     O 5286   1.172   1.288  12.146  0.2892 -0.5622 -0.2997
  349TMC3     H 5287   1.346   1.112  12.190  2.0113 -0.7179  0.9482
  349TMC3    H1 5288   1.478   1.410  11.923 -0.4311  0.2153 -0.9077
  349TMC3    H2 5289   1.500   1.004  11.811  0.5269  0.8494 -0.3169
  349TMC3    C7 5290   1.450   1.246  11.706  0.1782  0.3295  0.2935
  349TMC3    C8 5291   1.438   0.912  12.057  0.5488 -0.3379 -0.1465
  349TMC3    O1 5292   1.406   1.153  11.643 -0.0426  0.2734 -0.3113
  349TMC3    O2 5293   1.354   0.880  12.140  0.4641  0.0389  0.1127
  350MPD2     C 5294   0.324   4.024  10.448  0.4495 -0.1917  0.3235
  350MPD2    C1 5295   0.341   3.889  10.484  0.4801 -0.4766  0.1326
  350MPD2    C2 5296   0.471   3.833  10.471  0.2496  0.1817  0.4725
  350MPD2    C3 5297   0.575   3.918  10.438  0.3876  0.1638 -0.4544
  350MPD2    C4 5298   0.551   4.047  10.394 -0.0756  0.4571 -0.0475
  350MPD2    C5 5299   0.426   4.102  10.403  0.5806 -0.1565  0.2415
  350MPD2     H 5300   0.491   3.729  10.497  0.5329 -0.5146 -2.5237
  350MPD2    H1 5301   0.636   4.097  10.348  0.4588  1.0990  1.6481
  350MPD2    H2 5302   0.227   4.073  10.452  0.4286 -0.1553 -0.6544
  350MPD2    H3 5303   0.400   4.194  10.350 -0.0392 -1.1204 -1.1388
  350MPD2     N 5304   0.704   3.862  10.452  0.2882  0.1610 -0.4743
  350MPD2    H5 5305   0.715   3.761  10.447  0.9937  0.0942  2.2856
  350MPD2    N1 5306   0.232   3.801  10.518 -0.6732 -0.3086 -0.0210
  350MPD2    H7 5307   0.265   3.705  10.523 -1.1970 -0.4976 -0.2400
  351TMC3    C1 5308   0.013   3.739  10.565  0.5109  0.3820  0.1398
  351TMC3    C2 5309   4.734   3.658  10.457 -0.2962 -0.2922  0.8381
  351TMC3    C3 5310   4.618   3.583  10.445  1.5755 -0.7713 -0.2735
  351TMC3    C4 5311   4.650   3.761  10.653  0.0213  0.0795  0.5313
  351TMC3    C5 5312   4.529   3.689  10.637 -0.5820 -0.4402  0.1328
  351TMC3    C6 5313   4.513   3.599  10.530 -0.6555  0.4124 -0.3157
  351TMC3     C 5314   0.106   3.847  10.553 -1.3079 -0.2943  0.5948
  351TMC3     O 5315   0.071   3.964  10.573  0.3043  0.3867  0.0138
  351TMC3     H 5316   0.081   3.660  10.386 -1.3246  0.8808 -0.3179
  351TMC3    H1 5317   4.667   3.827  10.737  0.1547 -0.7269  1.1317
  351TMC3    H2 5318   4.435   3.527  10.507  0.0375  0.2428 -2.1675
  351TMC3    C7 5319   4.422   3.683  10.729 -0.2601  0.5495  0.0325
  351TMC3    C8 5320   4.614   3.487  10.338  0.5304  0.5706 -0.0402
  351TMC3    O1 5321   4.337   3.597  10.716  0.0780  0.5828  0.2098
  351TMC3    O2 5322   4.508   3.453  10.297  0.3314 -0.1917  0.2463
  352MPD2     C 5323   3.087   0.698   0.944  0.7728  0.1114 -0.4040
  352MPD2    C1 5324   2.964   0.636   0.964  0.2950 -0.7406 -0.2515
  352MPD2    C2 5325   2.971   0.507   1.025 -0.1989  0.3305  0.1051
  352MPD2    C3 5326   3.088   0.445   1.060  0.0106  0.0046 -0.4437
  352MPD2    C4 5327   3.210   0.507   1.037  0.0471 -0.1010 -0.4647
  352MPD2    C5 5328   3.205   0.633   0.981  0.3468  0.3351 -0.7284
  352MPD2     H 5329   2.880   0.453   1.048  0.0084  0.5553  1.4476
  352MPD2    H1 5330   3.306   0.473   1.075 -0.9451 -1.5909  0.6765
  352MPD2    H2 5331   3.094   0.797   0.901 -1.0483  0.5071  0.2043
  352MPD2    H3 5332   3.294   0.692   0.963  2.1549 -1.6149  1.7889
  352MPD2     N 5333   3.098   0.309   1.107  0.3434 -0.4332 -0.2446
  352MPD2    H5 5334   3.190   0.266   1.103  0.3974 -0.1016 -2.4468
  352MPD2    N1 5335   2.843   0.708   0.961 -0.3920 -0.0576 -0.2037
  352MPD2    H7 5336   2.769   0.649   0.999  0.4837  0.0008  1.5629
  353TMC3    C1 5337   3.019   0.106   1.186  0.6928  0.7068 -0.3711
  353TMC3    C2 5338   3.138   0.049   1.145  0.2988 -0.5063 -0.9229
  353TMC3    C3 5339   3.139   4.642   1.152  0.6871  0.0064  0.2896
  353TMC3    C4 5340   2.920   0.032   1.247 -0.1833 -1.0961  0.3975
  353TMC3    C5 5341   2.925   4.634   1.247 -0.0818  0.0185 -0.2170
  353TMC3    C6 5342   3.032   4.568   1.200 -0.6061 -0.5012  0.2920
  353TMC3     C 5343   2.995   0.242   1.166  0.1210 -0.6851 -0.1228
  353TMC3     O 5344   2.882   0.286   1.192 -0.1307 -0.3537  0.2929
  353TMC3     H 5345   3.221   0.097   1.093  0.5946  0.5098  0.4915
  353TMC3    H1 5346   2.825   0.082   1.260  0.4290  0.1087  0.2599
  353TMC3    H2 5347   3.042   4.460   1.208 -0.1463 -0.5314 -0.7967
  353TMC3    C7 5348   2.794   4.574   1.258 -0.4739  0.3985 -0.0986
  353TMC3    C8 5349   3.261   4.579   1.123  0.5545  0.5570  0.2638
  353TMC3    O1 5350   2.727   4.628   1.341  0.1143 -0.2425 -0.2254
  353TMC3    O2 5351   3.364   4.644   1.136 -0.1683  0.0914  0.8074
  354TMC3    C1 5352   0.262   2.273  13.434 -0.5183  0.7718 -0.3836
  354TMC3    C2 5353   0.218   2.390  13.396  0.2542  0.9013 -0.2645
  354TMC3    C3 5354   0.293   2.470  13.310  0.0348  0.0390  0.5459
  354TMC3    C4 5355   0.387   2.228  13.399  0.4196  0.6017 -0.9999
  354TMC3    C5 5356   0.459   2.302  13.316 -0.2231  0.1457  0.5323
  354TMC3    C6 5357   0.418   2.431  13.272  0.3400  0.6213  0.1940
  354TMC3     C 5358   0.212   2.214  13.553 -0.7419 -0.1495 -0.1544
  354TMC3     O 5359   0.261   2.106  13.577  0.2229  0.3414  0.1018
  354TMC3     H 5360   0.113   2.413  13.409  0.0667 -0.5983  0.8559
  354TMC3    H1 5361   0.421   2.130  13.430  0.8692  1.7110  2.0643
  354TMC3    H2 5362   0.492   2.496  13.226 -0.3284  1.3802  0.1861
  354TMC3    C7 5363   0.589   2.252  13.279 -0.2516  0.1398 -0.5133
  354TMC3    C8 5364   0.248   2.606  13.266  0.1898  0.4862  0.4567
  354TMC3    O1 5365   0.646   2.182  13.363  0.0040  0.1226 -0.7929
  354TMC3    O2 5366   0.125   2.618  13.271 -0.2393  0.0509 -0.0714
  355MPD2     C 5367   0.136   3.486  12.045  0.2485  0.6286  0.1309
  355MPD2    C1 5368   0.248   3.426  11.992 -0.4670  0.4322 -0.1153
  355MPD2    C2 5369   0.366   3.420  12.069 -0.2266 -0.9525  0.4074
  355MPD2    C3 5370   0.360   3.467  12.198 -1.3281 -0.4681 -0.3275
  355MPD2    C4 5371   0.244   3.522  12.248 -0.0764 -0.6972  0.2748
  355MPD2    C5 5372   0.133   3.523  12.173 -0.3409 -0.2736  0.5124
  355MPD2     H 5373   0.459   3.389  12.024  0.3894  1.1707  0.2108
  355MPD2    H1 5374   0.233   3.567  12.346 -0.8306 -0.1689 -0.0561
  355MPD2    H2 5375   0.045   3.509  11.991 -0.9879 -0.0542  1.9451
  355MPD2    H3 5376   0.048   3.560  12.229 -0.8990 -2.2344  0.9879
  355MPD2     N 5377   0.470   3.491  12.279  0.1844  0.1982 -0.4763
  355MPD2    H5 5378   0.451   3.543  12.365 -0.7651  1.3788 -1.3935
  355MPD2    N1 5379   0.250   3.397  11.860 -0.3516 -1.0263 -0.2823
  355MPD2    H7 5380   0.169   3.429  11.808  1.1186 -1.7117 -2.9565
  356TMC3    C1 5381   0.691   3.509  12.347  0.0463  0.4177 -0.3562
  356TMC3    C2 5382   0.815   3.459  12.310  0.7963  0.0137 -0.0529
  356TMC3    C3 5383   0.922   3.539  12.299 -0.2202  0.2252  0.5244
  356TMC3    C4 5384   0.679   3.644  12.363  0.1826  0.4492  0.2916
  356TMC3    C5 5385   0.791   3.722  12.369  0.0137  0.0288 -0.6006
  356TMC3    C6 5386   0.917   3.668  12.342  0.2962  0.9367 -0.1601
  356TMC3     C 5387   0.600   3.453  12.251 -0.1742  0.2629  0.0126
  356TMC3     O 5388   0.644   3.377  12.166  0.6467 -0.6296 -0.8476
  356TMC3     H 5389   0.823   3.353  12.290  3.8513  0.4185 -0.8494
  356TMC3    H1 5390   0.583   3.670  12.405  0.0049  0.3577 -0.0544
  356TMC3    H2 5391   1.008   3.727  12.340  0.5729  0.6084  1.9360
  356TMC3    C7 5392   0.766   3.857  12.355  0.3448  0.3463 -0.5354
  356TMC3    C8 5393   1.008   3.504  12.194  0.7322  0.5546  0.8046
  356TMC3    O1 5394   0.646   3.880  12.344  0.0613  0.4688 -0.2095
  356TMC3    O2 5395   1.002   3.390  12.150  0.3150  0.4534  0.0683
  357MPD2     C 5396   4.585   1.967   0.567 -0.3879 -0.3536  0.2015
  357MPD2    C1 5397   4.518   1.960   0.446  0.2512  0.7083 -0.4995
  357MPD2    C2 5398   4.389   2.006   0.447 -0.2312  0.5099  0.8592
  357MPD2    C3 5399   4.336   2.078   0.553  0.1697 -0.8666  0.2648
  357MPD2    C4 5400   4.409   2.094   0.666 -0.5407 -0.2387  0.4040
  357MPD2    C5 5401   4.533   2.033   0.670 -0.6446 -0.3762 -0.0091
  357MPD2     H 5402   4.327   1.989   0.359  1.8683  0.5715 -0.6432
  357MPD2    H1 5403   4.364   2.144   0.751  2.3732  1.0708  1.1818
  357MPD2    H2 5404   4.689   1.942   0.583 -0.1776 -0.6705 -1.6354
  357MPD2    H3 5405   4.584   2.039   0.766  1.9554  4.3315 -1.6816
  357MPD2     N 5406   4.203   2.108   0.582 -0.2252 -0.3843  0.0263
  357MPD2    H5 5407   4.183   2.146   0.673  2.3033  1.1938 -0.0513
  357MPD2    N1 5408   4.569   1.898   0.330  0.3909  0.3361 -0.6870
  357MPD2    H7 5409   4.504   1.883   0.254  3.2489  0.2930 -3.1076
  358TMC3    C1 5410   4.708   1.762   0.202  0.6634  0.1083  0.4316
  358TMC3    C2 5411   4.659   1.833   0.099 -0.2711  0.4003 -0.6840
  358TMC3    C3 5412   4.625   1.767  17.725 -0.1771  0.7399  0.1603
  358TMC3    C4 5413   4.724   1.624   0.191  0.2486 -0.1291 -0.5110
  358TMC3    C5 5414   4.664   1.560   0.089 -0.6633  0.2542  0.2138
  358TMC3    C6 5415   4.610   1.632  17.727  0.4605 -0.5967  0.0727
  358TMC3     C 5416   4.678   1.814   0.328 -0.5206  0.4231  0.3779
  358TMC3     O 5417   0.001   1.773   0.429  0.3388  0.6044 -0.1342
  358TMC3     H 5418   4.682   1.939   0.101 -1.3796  0.6485 -1.2521
  358TMC3    H1 5419   0.024   1.570   0.277  0.1457  1.4257  0.5086
  358TMC3    H2 5420   4.592   1.571  17.639 -0.0005  1.4367 -1.2485
  358TMC3    C7 5421   4.667   1.418   0.095  0.4939  0.1311  0.2987
  358TMC3    C8 5422   4.599   1.848  17.611  0.4140 -0.1969 -0.4639
  358TMC3    O1 5423   4.719   1.368   0.193  0.5719  0.3080  0.3106
  358TMC3    O2 5424   4.642   1.961  17.617  0.6976 -0.0821 -0.3304
  359MPD2     C 5425   0.726   2.344  12.212  0.6362  0.3130 -0.1902
  359MPD2    C1 5426   0.748   2.269  12.098 -0.2780  0.1619 -0.2486
  359MPD2    C2 5427   0.746   2.134  12.101  0.2111 -0.1722  0.6331
  359MPD2    C3 5428   0.712   2.073  12.219  0.2265  0.1302 -0.5177
  359MPD2    C4 5429   0.705   2.139  12.340 -0.5541  0.3946  0.1448
  359MPD2    C5 5430   0.707   2.276  12.332 -0.5629 -0.7917  0.6216
  359MPD2     H 5431   0.762   2.079  12.009 -3.6062  1.1124 -0.7810
  359MPD2    H1 5432   0.690   2.080  12.430  1.9016 -0.5615 -0.0762
  359MPD2    H2 5433   0.708   2.450  12.205 -0.6400  0.1608  0.9591
  359MPD2    H3 5434   0.688   2.325  12.427  1.2395  0.0452  0.5452
  359MPD2     N 5435   0.677   1.936  12.236 -0.0472  0.4915 -0.1016
  359MPD2    H5 5436   0.646   1.908  12.328  0.5044 -0.2577 -0.1459
  359MPD2    N1 5437   0.761   2.325  11.973  0.2819 -0.2605 -0.6111
  359MPD2    H7 5438   0.752   2.272  11.887  1.0568 -0.8611 -0.3116
  360TMC3    C1 5439   0.832   2.483  11.821 -0.2971  0.0896  0.2223
  360TMC3    C2 5440   0.924   2.577  11.794  0.2759 -0.2734  0.3244
  360TMC3    C3 5441   0.966   2.577  11.657  0.0938 -0.2576  0.7080
  360TMC3    C4 5442   0.749   2.435  11.722 -0.0832  0.5052 -0.1451
  360TMC3    C5 5443   0.778   2.462  11.590 -0.1907  0.4987  0.3257
  360TMC3    C6 5444   0.894   2.525  11.555  0.0822 -0.7261 -0.2806
  360TMC3     C 5445   0.804   2.450  11.954 -0.6234  1.0088  0.0258
  360TMC3     O 5446   0.861   2.520  12.038  0.3743  0.2527 -0.1059
  360TMC3     H 5447   1.005   2.597  11.863 -0.0712  0.8007  0.4139
  360TMC3    H1 5448   0.671   2.361  11.736  1.6041 -1.7878 -2.9725
  360TMC3    H2 5449   0.926   2.551  11.455  0.7879  0.2333  0.1889
  360TMC3    C7 5450   0.688   2.404  11.492  0.4443  0.5259  0.6682
  360TMC3    C8 5451   1.096   2.620  11.628 -0.1000  0.1370 -0.4744
  360TMC3    O1 5452   0.580   2.367  11.530 -0.7172 -0.4230  0.8164
  360TMC3    O2 5453   1.134   2.731  11.663 -0.0440 -0.1072  0.3020
  361MPD2     C 5454   1.832   0.489  16.437  0.1372 -0.3646 -0.1025
  361MPD2    C1 5455   1.818   0.474  16.572 -0.3981 -0.3597 -0.0769
  361MPD2    C2 5456   1.893   0.384  16.644 -0.1758  0.0868 -0.1475
  361MPD2    C3 5457   1.972   0.290  16.570 -0.1498 -0.4561  0.2049
  361MPD2    C4 5458   1.988   0.309  16.435 -0.2929 -0.1970  0.2321
  361MPD2    C5 5459   1.918   0.407  16.374  0.1339  0.1899 -1.0028
  361MPD2     H 5460   1.871   0.379  16.750 -1.4541 -0.5039 -0.4385
  361MPD2    H1 5461   2.053   0.242  16.381 -3.4260 -2.4464 -0.7634
  361MPD2    H2 5462   1.786   0.566  16.377  2.1660  0.3191 -0.7838
  361MPD2    H3 5463   1.909   0.416  16.266 -0.0129  1.9299 -0.8492
  361MPD2     N 5464   2.044   0.185  16.632 -0.6840 -0.6145 -0.1600
  361MPD2    H5 5465   2.095   0.124  16.569  0.1141 -0.1240  0.0116
  361MPD2    N1 5466   1.729   0.548  16.647 -0.2131 -0.0546  0.0277
  361MPD2    H7 5467   1.730   0.526  16.746  0.2331 -1.3516 -0.2639
  362TMC3    C1 5468   1.610   0.739  16.721  0.9741  0.3874 -0.2569
  362TMC3    C2 5469   1.525   0.685  16.814  0.5745  0.3259  0.6335
  362TMC3    C3 5470   1.459   0.773  16.900 -0.2652 -0.3540  0.5705
  362TMC3    C4 5471   1.633   0.873  16.720  0.1566 -0.3814 -0.3269
  362TMC3    C5 5472   1.584   0.959  16.810  0.4831 -0.0224 -1.0275
  362TMC3    C6 5473   1.500   0.904  16.898  0.0524 -0.0380  0.4098
  362TMC3     C 5474   1.659   0.662  16.606 -0.3779 -0.1259 -0.2762
  362TMC3     O 5475   1.663   0.718  16.497  0.0136 -0.4843 -0.1154
  362TMC3     H 5476   1.503   0.579  16.810  3.1398 -0.2357  1.7394
  362TMC3    H1 5477   1.681   0.920  16.634  2.3433 -1.1720  0.4724
  362TMC3    H2 5478   1.455   0.972  16.969  0.5954 -0.0482  0.7584
  362TMC3    C7 5479   1.534   1.075  16.743  0.3770  0.4803 -0.1849
  362TMC3    C8 5480   1.362   0.714  16.988  0.0179  0.2574  0.0132
  362TMC3    O1 5481   1.609   1.168  16.720  0.1855 -0.7316 -0.4334
  362TMC3    O2 5482   1.370   0.593  16.998  0.5544  0.5509 -0.0198
  363TMC3    C1 5483   4.430   2.587   8.592 -0.6555  0.1919  0.5169
  363TMC3    C2 5484   4.536   2.628   8.665  0.4337 -0.2751 -0.6987
  363TMC3    C3 5485   4.516   2.723   8.759 -1.0000  0.7038 -0.0310
  363TMC3    C4 5486   4.309   2.644   8.598  0.2113 -0.5796  0.2019
  363TMC3    C5 5487   4.295   2.744   8.685  0.0003 -0.5859  0.0032
  363TMC3    C6 5488   4.392   2.784   8.770  0.4666 -0.4509 -0.5460
  363TMC3     C 5489   4.436   2.466   8.515 -0.5678 -0.7596 -0.0266
  363TMC3     O 5490   4.332   2.397   8.507 -0.4001  0.2824 -0.4123
  363TMC3     H 5491   4.634   2.587   8.646 -0.1383 -0.9982 -2.1163
  363TMC3    H1 5492   4.229   2.612   8.531  1.7047 -0.5495 -1.5931
  363TMC3    H2 5493   4.377   2.853   8.852  2.2831  0.5186 -1.0146
  363TMC3    C7 5494   4.178   2.824   8.674  0.0194 -0.4848  0.1429
  363TMC3    C8 5495   4.618   2.763   8.859  0.6677  0.7285 -0.4270
  363TMC3    O1 5496   4.088   2.774   8.609 -0.6957 -0.4572  0.2917
  363TMC3    O2 5497   4.608   2.873   8.909 -0.1400 -0.1401 -0.1526
  364MPD2     C 5498   4.088   3.065  10.403 -0.1806  0.4393 -0.6427
  364MPD2    C1 5499   4.198   2.980  10.402 -0.1618  0.1086 -0.7075
  364MPD2    C2 5500   4.170   2.847  10.403  0.0205  0.6176  0.9315
  364MPD2    C3 5501   4.040   2.800  10.414  0.3299 -0.1614  0.4108
  364MPD2    C4 5502   3.937   2.890  10.421  0.4207  0.1389  0.7181
  364MPD2    C5 5503   3.956   3.024  10.417  0.0739  0.3114 -0.6219
  364MPD2     H 5504   4.256   2.782  10.410 -0.7574 -0.4777  0.2747
  364MPD2    H1 5505   3.837   2.852  10.438  0.2670 -0.7224 -2.0041
  364MPD2    H2 5506   4.104   3.173  10.406 -1.4620  0.5714  1.4631
  364MPD2    H3 5507   3.866   3.080  10.399 -1.0571 -0.9363  1.1411
  364MPD2     N 5508   4.018   2.660  10.432  0.0046  0.0137 -0.4173
  364MPD2    H5 5509   3.921   2.636  10.446 -0.0381  1.5692  2.0165
  364MPD2    N1 5510   4.325   3.042  10.392  0.1496 -0.0874  0.4015
  364MPD2    H7 5511   4.320   3.143  10.383  3.2936  0.0036 -0.2389
  365TMC3    C1 5512   4.560   3.068  10.408  0.2037  0.0108 -0.1682
  365TMC3    C2 5513   4.687   3.016  10.369  0.7978 -0.3013 -0.1897
  365TMC3    C3 5514   0.061   3.085  10.414 -0.6571  0.4128  0.5937
  365TMC3    C4 5515   4.548   3.170  10.496 -0.3216 -0.0835  0.2994
  365TMC3    C5 5516   4.662   3.216  10.557 -1.3486 -0.5668  0.2358
  365TMC3    C6 5517   0.051   3.175  10.519 -0.0428  0.4691  0.2447
  365TMC3     C 5518   4.446   2.976  10.380 -0.3558 -0.3541 -0.4124
  365TMC3     O 5519   4.469   2.859  10.365 -0.4534 -0.3059  0.2449
  365TMC3     H 5520   4.688   2.931  10.301  0.3652 -0.4968  0.0432
  365TMC3    H1 5521   4.450   3.207  10.524  0.9425  3.4391  0.0643
  365TMC3    H2 5522   0.144   3.211  10.561  0.0797  0.0554  0.3369
  365TMC3    C7 5523   4.661   3.317  10.660 -0.4092 -0.3795  0.6835
  365TMC3    C8 5524   0.196   3.067  10.360  0.2684  0.2835  0.3696
  365TMC3    O1 5525   0.026   3.382  10.673 -0.1539  0.1496 -0.0758
  365TMC3    O2 5526   0.298   3.104  10.420  0.2115  0.1646 -0.4724
  366MPD2     C 5527   1.940   3.468  15.111  0.2662 -0.6980  0.5090
  366MPD2    C1 5528   2.051   3.521  15.059  0.5121 -0.0163  0.3566
  366MPD2    C2 5529   2.157   3.434  15.043 -0.2852 -0.1608 -0.4809
  366MPD2    C3 5530   2.150   3.305  15.093  0.0054 -0.0090 -0.0061
  366MPD2    C4 5531   2.035   3.263  15.144  0.1917  0.1276 -0.4931
  366MPD2    C5 5532   1.929   3.343  15.150 -0.2485 -0.0089  0.4545
  366MPD2     H 5533   2.250   3.483  15.017 -0.5568  0.9176  0.5675
  366MPD2    H1 5534   2.005   3.166  15.184  0.0280  0.3303 -0.1257
  366MPD2    H2 5535   1.849   3.524  15.132 -1.0047 -2.3192 -0.6604
  366MPD2    H3 5536   1.831   3.302  15.170 -0.1052 -0.7539 -0.3464
  366MPD2     N 5537   2.263   3.227  15.074 -0.7015  0.3799  0.1212
  366MPD2    H5 5538   2.338   3.266  15.019  1.7492 -1.7370  1.9852
  366MPD2    N1 5539   2.078   3.659  15.043 -0.2750 -0.2404  0.0035
  366MPD2    H7 5540   2.167   3.696  15.012  0.2719 -1.2229  0.4033
  367TMC3    C1 5541   2.046   3.888  15.062 -0.8177 -0.0243  0.0415
  367TMC3    C2 5542   2.163   3.892  15.135 -0.3705 -0.0814  0.3148
  367TMC3    C3 5543   2.221   4.013  15.154  0.6124 -0.8646  0.0572
  367TMC3    C4 5544   1.988   4.005  15.012 -0.5642  0.0246  0.8491
  367TMC3    C5 5545   2.056   4.121  15.029 -0.7054 -0.0594 -0.3618
  367TMC3    C6 5546   2.168   4.131  15.107  0.8380 -1.0333  0.2087
  367TMC3     C 5547   1.983   3.758  15.053  0.2416 -0.0225 -0.2792
  367TMC3     O 5548   1.862   3.752  15.040  0.1041  0.0087  0.5640
  367TMC3     H 5549   2.207   3.807  15.187 -0.4675  0.3131  1.0373
  367TMC3    H1 5550   1.891   3.994  14.963 -0.5809  0.6322  0.7527
  367TMC3    H2 5551   2.229   4.221  15.104 -0.2736 -0.3199 -0.9250
  367TMC3    C7 5552   2.005   4.241  14.963 -0.6410  0.8189  0.3342
  367TMC3    C8 5553   2.318   4.018  15.258 -0.1238 -0.3329 -0.3172
  367TMC3    O1 5554   1.887   4.255  14.975 -0.1836 -0.1333 -0.3397
  367TMC3    O2 5555   2.379   3.912  15.277 -0.2799 -0.1668 -0.3050
  368MPD2     C 5556   4.339   0.584  13.063  0.5147  0.3375 -0.0564
  368MPD2    C1 5557   4.304   0.695  12.991  0.3632 -0.1960  0.2470
  368MPD2    C2 5558   4.388   0.805  12.985 -0.1828 -0.4142  0.0080
  368MPD2    C3 5559   4.509   0.803  13.055  0.4691 -0.5091  0.6343
  368MPD2    C4 5560   4.536   0.691  13.131  1.4649  0.1772 -0.0907
  368MPD2    C5 5561   4.456   0.583  13.140 -0.7028  0.7046 -0.9622
  368MPD2     H 5562   4.363   0.896  12.931  0.4221 -1.7697 -2.5693
  368MPD2    H1 5563   4.621   0.695  13.198  0.5311 -1.3412  1.2149
  368MPD2    H2 5564   4.278   0.498  13.087  2.1378 -0.8267 -0.0709
  368MPD2    H3 5565   4.488   0.500  13.202  0.7957  0.7521 -1.6784
  368MPD2     N 5566   4.597   0.912  13.046  0.2524 -0.1793  0.4991
  368MPD2    H5 5567   4.692   0.892  13.077  0.1336  0.2317  1.1272
  368MPD2    N1 5568   4.180   0.707  12.929  0.0061 -0.9749  0.2368
  368MPD2    H7 5569   4.156   0.787  12.872 -0.1314 -1.8053 -0.8927
  369TMC3    C1 5570   3.982   0.646  12.850 -0.0415  0.5074  0.1415
  369TMC3    C2 5571   4.021   0.691  12.726  0.5095  0.0418  0.0404
  369TMC3    C3 5572   3.917   0.735  12.645 -0.1513 -0.2105 -0.0707
  369TMC3    C4 5573   3.851   0.633  12.889 -0.2697 -0.2552 -0.3988
  369TMC3    C5 5574   3.749   0.688  12.809  0.1728 -0.3351  0.6525
  369TMC3    C6 5575   3.784   0.741  12.687 -0.3141  0.3549 -0.8364
  369TMC3     C 5576   4.088   0.610  12.942 -0.1983  0.0333 -0.4890
  369TMC3     O 5577   4.063   0.516  13.015 -0.0559  0.2922 -0.1071
  369TMC3     H 5578   4.124   0.691  12.692  1.1381  1.4834  1.9061
  369TMC3    H1 5579   3.830   0.613  12.993  2.0178 -1.8617 -0.2564
  369TMC3    H2 5580   3.702   0.785  12.632 -1.0399 -1.1360 -0.9425
  369TMC3    C7 5581   3.612   0.669  12.850  0.0100  0.4675 -0.2365
  369TMC3    C8 5582   3.954   0.822  12.539 -0.0242 -0.0612 -0.5186
  369TMC3    O1 5583   3.586   0.663  12.968 -0.4004 -0.1758  0.7346
  369TMC3    O2 5584   3.931   0.938  12.565 -0.3567  0.4281  0.0146
  370TMC3    C1 5585   2.882   1.247  16.179 -0.3732  0.2905  0.4875
  370TMC3    C2 5586   2.834   1.166  16.283  0.3812 -0.3081 -0.1938
  370TMC3    C3 5587   2.830   1.031  16.263  0.7687  0.6155  0.5845
  370TMC3    C4 5588   2.943   1.190  16.067 -0.3037 -0.1188  0.0901
  370TMC3    C5 5589   2.945   1.054  16.055  0.3227 -0.3898  0.0836
  370TMC3    C6 5590   2.885   0.972  16.150  0.3093 -0.2901 -0.3293
  370TMC3     C 5591   2.964   1.355  16.234  0.2733 -0.1583 -0.6052
  370TMC3     O 5592   2.992   1.341  16.352 -0.8509 -0.1709  0.1387
  370TMC3     H 5593   2.780   1.211  16.366  0.0304 -0.2476 -0.4527
  370TMC3    H1 5594   2.990   1.252  15.992  0.2650 -0.9743 -0.2560
  370TMC3    H2 5595   2.892   0.864  16.145 -0.6351 -0.2765 -2.0412
  370TMC3    C7 5596   2.998   1.002  15.931 -0.6766 -0.4484  0.0369
  370TMC3    C8 5597   2.810   0.937  16.375  0.8080 -0.2802 -0.1049
  370TMC3    O1 5598   2.951   1.034  15.821 -0.5863 -0.0131  0.2512
  370TMC3    O2 5599   2.847   0.821  16.355 -0.4718 -0.0828 -0.1961
  371TMC3    C1 5600   4.299   4.168  15.480 -0.5757  0.4759  0.1137
  371TMC3    C2 5601   4.237   4.165  15.605  0.3034 -0.1229  0.8414
  371TMC3    C3 5602   4.184   4.284  15.640 -0.4396 -0.7663  0.4342
  371TMC3    C4 5603   4.313   4.280  15.403  0.4801  0.6680 -0.1634
  371TMC3    C5 5604   4.264   4.395  15.454 -0.2979 -0.5348 -0.1617
  371TMC3    C6 5605   4.193   4.399  15.567  0.5024 -0.5376 -0.7714
  371TMC3     C 5606   4.347   4.039  15.419 -0.1709  0.6394  0.0565
  371TMC3     O 5607   4.439   4.038  15.341 -0.2449  0.4902  0.3017
  371TMC3     H 5608   4.246   4.084  15.676  0.0879 -0.5782  0.3495
  371TMC3    H1 5609   4.354   4.266  15.304 -2.6417 -1.1248 -1.2103
  371TMC3    H2 5610   4.152   4.488  15.613 -2.0233 -1.6717 -0.8225
  371TMC3    C7 5611   4.286   4.524  15.390  0.7816 -0.6968  0.7342
  371TMC3    C8 5612   4.123   4.290  15.780 -0.3825 -0.1057 -0.8375
  371TMC3    O1 5613   4.204   4.608  15.421  0.3145 -0.2462  0.1155
  371TMC3    O2 5614   4.156   4.201  15.864  0.0173 -0.3782 -0.3039
  372MPD2     C 5615   3.975   1.074  12.993  0.1287 -0.9883  0.3083
  372MPD2    C1 5616   4.077   1.065  13.080  0.0160  0.1766  0.3005
  372MPD2    C2 5617   4.077   0.944  13.146  0.6054  0.1909 -0.2363
  372MPD2    C3 5618   3.970   0.854  13.151 -0.4557  0.6256  0.5270
  372MPD2    C4 5619   3.862   0.878  13.077  0.2146  0.4855  0.7137
  372MPD2    C5 5620   3.869   0.985  12.990 -0.2210  0.5085  0.0720
  372MPD2     H 5621   4.160   0.912  13.207 -0.2440 -0.5100  0.5555
  372MPD2    H1 5622   3.778   0.810  13.082  0.3121  0.1735 -2.1040
  372MPD2    H2 5623   3.967   1.168  12.939  0.8770 -2.4050 -2.2140
  372MPD2    H3 5624   3.779   1.007  12.935  0.0983  1.5365 -0.0452
  372MPD2     N 5625   3.980   0.751  13.254  0.5536  0.3556  0.2766
  372MPD2    H5 5626   4.069   0.747  13.303 -0.4901  1.0356  2.2162
  372MPD2    N1 5627   4.193   1.152  13.099  0.2590 -0.2953  0.1504
  372MPD2    H7 5628   4.257   1.127  13.173 -0.4941 -3.5369 -0.3014
  373TMC3    C1 5629   3.917   0.541  13.366 -0.0488 -0.3882 -0.2765
  373TMC3    C2 5630   3.817   0.479  13.438  0.1343  0.4513  0.0264
  373TMC3    C3 5631   3.852   0.357  13.489 -0.1689 -0.2131 -0.1134
  373TMC3    C4 5632   4.040   0.481  13.348  0.5971 -0.4738  0.4692
  373TMC3    C5 5633   4.062   0.355  13.402  0.4938  0.4945  0.4477
  373TMC3    C6 5634   3.967   0.289  13.465  0.4938  0.2896 -0.3953
  373TMC3     C 5635   3.880   0.663  13.283 -0.1746  0.1743 -0.2269
  373TMC3     O 5636   3.759   0.667  13.257 -0.1200 -0.0654 -0.0886
  373TMC3     H 5637   3.716   0.519  13.445  0.4113  1.3686 -1.1662
  373TMC3    H1 5638   4.115   0.537  13.292 -3.1147 -0.9813 -5.0770
  373TMC3    H2 5639   3.973   0.182  13.484 -1.8323  0.4313  1.0765
  373TMC3    C7 5640   4.192   0.298  13.387  0.7531 -0.1577  0.2779
  373TMC3    C8 5641   3.741   0.282  13.556 -0.4406  0.2682 -0.2397
  373TMC3    O1 5642   4.263   0.346  13.303 -0.7038 -0.0256  0.8277
  373TMC3    O2 5643   3.625   0.303  13.524  0.0268  0.0211 -0.3254
  374TMC3    C1 5644   4.227   1.456   9.782 -0.1454  0.4850  0.2048
  374TMC3    C2 5645   4.347   1.526   9.780  0.1037  0.7719 -0.0851
  374TMC3    C3 5646   4.389   1.537   9.648  0.3141 -1.0185  0.6331
  374TMC3    C4 5647   4.164   1.395   9.671  0.2138  0.4935  0.2500
  374TMC3    C5 5648   4.219   1.411   9.545  0.7515  0.3304 -0.2606
  374TMC3    C6 5649   4.334   1.482   9.533  1.1127 -0.0163 -0.1157
  374TMC3     C 5650   4.175   1.412   9.904 -0.3203 -0.2669  0.5830
  374TMC3     O 5651   4.064   1.358   9.910 -0.0482  0.4421  0.3210
  374TMC3     H 5652   4.392   1.572   9.867  0.6363  1.0299 -0.4963
  374TMC3    H1 5653   4.070   1.341   9.679 -1.1130  2.9710  1.2133
  374TMC3    H2 5654   4.381   1.504   9.437  0.5179  1.1330 -0.1453
  374TMC3    C7 5655   4.178   1.323   9.441  0.3357 -0.1206 -0.0285
  374TMC3    C8 5656   4.489   1.640   9.627  0.2778 -0.3202  0.0940
  374TMC3    O1 5657   4.080   1.256   9.469 -0.5885  0.6966 -0.1871
  374TMC3    O2 5658   4.486   1.687   9.513  0.1169 -0.2753  0.2700
  375MPD2     C 5659   4.269   2.067  16.937 -0.1272  0.2717 -0.6070
  375MPD2    C1 5660   4.205   1.948  16.933  0.2999 -1.0540 -0.0833
  375MPD2    C2 5661   4.279   1.840  16.895 -0.2570  0.3822  0.0229
  375MPD2    C3 5662   4.421   1.853  16.879  0.2426  0.7772  0.4909
  375MPD2    C4 5663   4.478   1.978  16.877 -0.0512  0.2034  0.3927
  375MPD2    C5 5664   4.408   2.084  16.918  0.5757  0.1781 -0.0368
  375MPD2     H 5665   4.226   1.746  16.886  0.1611  0.0399  1.0208
  375MPD2    H1 5666   4.580   1.992  16.844 -0.6191  2.9284 -0.2066
  375MPD2    H2 5667   4.214   2.160  16.949  1.8233  1.4731 -0.9463
  375MPD2    H3 5668   4.451   2.182  16.932  1.2294 -0.3069  1.3420
  375MPD2     N 5669   4.505   1.751  16.820 -0.0001 -0.0472  0.5295
  375MPD2    H5 5670   4.602   1.774  16.800 -0.5751  0.7129 -1.3811
  375MPD2    N1 5671   4.065   1.931  16.948  0.1700 -0.7668  0.3682
  375MPD2    H7 5672   4.020   1.841  16.936 -0.0943 -0.4920 -0.7067
  376TMC3    C1 5673   4.542   1.535  16.701 -0.6513  0.4867  1.0020
  376TMC3    C2 5674   4.654   1.493  16.769 -0.6041 -0.7590 -0.5163
  376TMC3    C3 5675   4.709   1.371  16.739 -0.4561 -0.1214 -0.0681
  376TMC3    C4 5676   4.473   1.448  16.619  0.9350 -0.5294  0.4734
  376TMC3    C5 5677   4.508   1.316  16.627 -0.3982  0.1387 -0.2119
  376TMC3    C6 5678   4.630   1.272  16.687 -0.1876 -0.5733 -0.1275
  376TMC3     C 5679   4.451   1.635  16.765 -0.6000  0.2967  0.3533
  376TMC3     O 5680   4.342   1.589  16.782 -0.0600  0.2529  0.0819
  376TMC3     H 5681   4.705   1.577  16.815  2.8471 -2.4822 -1.2129
  376TMC3    H1 5682   4.386   1.487  16.568 -0.4188 -2.4544  1.3037
  376TMC3    H2 5683   4.674   1.187  16.636  0.7409  0.1663 -0.5602
  376TMC3    C7 5684   4.472   1.246  16.508  0.1302  0.6171 -0.5752
  376TMC3    C8 5685   0.108   1.384  16.699  0.0996 -0.0770  1.0855
  376TMC3    O1 5686   4.437   1.130  16.529 -0.0839  0.5235 -0.2188
  376TMC3    O2 5687   0.147   1.501  16.678  0.0774 -0.1754  0.0451
  377MPD2     C 5688   3.500   1.025  12.322 -0.2766 -0.2142  0.8750
  377MPD2    C1 5689   3.422   1.133  12.296  0.3123  0.7790 -0.3606
  377MPD2    C2 5690   3.296   1.143  12.369 -0.2085 -0.9184  0.2453
  377MPD2    C3 5691   3.270   1.046  12.465 -0.6413 -0.0021 -0.2840
  377MPD2    C4 5692   3.352   0.944  12.491  0.5049  0.8700 -0.2407
  377MPD2    C5 5693   3.467   0.932  12.416 -0.3521  0.0757  0.3926
  377MPD2     H 5694   3.233   1.227  12.343  1.1785 -0.4626 -1.6704
  377MPD2    H1 5695   3.327   0.877  12.572 -0.3508 -0.1915 -1.3931
  377MPD2    H2 5696   3.594   1.014  12.270 -0.0146  1.2457  1.0554
  377MPD2    H3 5697   3.541   0.855  12.435 -1.6195 -1.2624 -0.0852
  377MPD2     N 5698   3.158   1.073  12.551 -0.3721 -0.3690  0.2276
  377MPD2    H5 5699   3.131   1.004  12.620 -0.5176  0.2305  0.7662
  377MPD2    N1 5700   3.459   1.223  12.204  0.1255 -0.7468 -0.5409
  377MPD2    H7 5701   3.539   1.189  12.151  0.9629 -0.9246  0.8249
  378TMC3    C1 5702   3.461   1.574  11.886 -0.2375 -0.1240 -0.0001
  378TMC3    C2 5703   3.404   1.524  12.001  0.1734  0.3868 -0.0211
  378TMC3    C3 5704   3.441   1.393  12.038 -0.2853 -0.1609 -0.2528
  378TMC3    C4 5705   3.568   1.514  11.826  0.2902  0.1593  0.2241
  378TMC3    C5 5706   3.609   1.391  11.871  0.8095  0.4020  0.2473
  378TMC3    C6 5707   3.538   1.321  11.965 -0.1754  0.1615 -0.1573
  378TMC3     C 5708   3.411   1.699  11.850  0.6894  0.5395 -0.7655
  378TMC3     O 5709   3.327   1.750  11.918  0.3602 -0.5410 -0.0134
  378TMC3     H 5710   3.328   1.568  12.064  1.0882 -0.8349  1.9520
  378TMC3    H1 5711   3.628   1.560  11.748  2.0474 -0.9905  0.8863
  378TMC3    H2 5712   3.558   1.215  11.976 -0.8217  0.0671  0.1238
  378TMC3    C7 5713   3.693   1.313  11.782 -0.7666 -0.5276  0.1336
  378TMC3    C8 5714   3.393   1.333  12.164  0.1596 -0.0770  0.2668
  378TMC3    O1 5715   3.751   1.215  11.832  0.3306  0.2189 -0.3139
  378TMC3    O2 5716   3.305   1.399  12.221  0.2425  0.4102  0.3827
  379MPD2     C 5717   3.526   4.130  15.903  0.7175  0.5630  0.5469
  379MPD2    C1 5718   3.427   4.045  15.948 -0.1264  0.7185 -0.2053
  379MPD2    C2 5719   3.433   3.992  16.074  0.3342  0.3104  0.6392
  379MPD2    C3 5720   3.546   4.017  16.157 -0.0429 -0.4858 -0.2512
  379MPD2    C4 5721   3.647   4.090  16.104 -0.1696 -0.4916 -0.0208
  379MPD2    C5 5722   3.640   4.142  15.979 -0.0564 -0.4050  0.1664
  379MPD2     H 5723   3.357   3.920  16.105 -0.1775  0.5106 -0.1462
  379MPD2    H1 5724   3.727   4.135  16.162  0.4445  1.5681 -2.4429
  379MPD2    H2 5725   3.512   4.173  15.804  0.0580 -0.1406  0.3304
  379MPD2    H3 5726   3.723   4.201  15.941 -0.5875  0.4052  0.2675
  379MPD2     N 5727   3.568   3.962  16.283  0.3815  0.4182 -0.5948
  379MPD2    H5 5728   3.655   3.983  16.331  1.0469  1.5524 -2.3023
  379MPD2    N1 5729   3.313   4.021  15.863  0.1272  0.1947  0.7100
  379MPD2    H7 5730   3.304   4.083  15.783 -2.6496  0.7727  1.4748
  380TMC3    C1 5731   3.133   3.934  15.763  0.3787  1.1290  0.1115
  380TMC3    C2 5732   3.202   3.922  15.644 -0.9899  0.4678 -0.2373
  380TMC3    C3 5733   3.129   3.941  15.526  0.1670 -0.0236 -0.1094
  380TMC3    C4 5734   2.996   3.960  15.765  0.4020  0.2487  0.5228
  380TMC3    C5 5735   2.926   3.976  15.651  0.2140 -0.1472  0.6807
  380TMC3    C6 5736   2.996   3.960  15.532  0.3955  0.6150 -0.1208
  380TMC3     C 5737   3.206   3.939  15.880  0.2098  0.6615  0.9847
  380TMC3     O 5738   3.176   3.861  15.970 -0.6775 -0.1220 -0.0874
  380TMC3     H 5739   3.307   3.903  15.631 -1.5585 -2.2212 -0.8889
  380TMC3    H1 5740   2.944   3.957  15.860 -0.2831 -1.8170  0.0803
  380TMC3    H2 5741   2.948   3.984  15.438 -0.3903 -2.2371 -0.4504
  380TMC3    C7 5742   2.813   4.066  15.665  0.3209  0.5353 -0.1363
  380TMC3    C8 5743   3.205   3.993  15.409 -0.5165  1.0583  0.1680
  380TMC3    O1 5744   2.800   4.131  15.767 -0.1649 -0.1037 -0.3953
  380TMC3    O2 5745   3.319   4.029  15.431  0.3056  0.1905  0.4839
  381TMC3    C1 5746   2.753   0.518  16.286 -0.4882  1.1610  0.1545
  381TMC3    C2 5747   2.875   0.557  16.243 -1.4274 -0.2714 -0.1118
  381TMC3    C3 5748   2.986   0.538  16.319  0.0547  0.1546  0.4595
  381TMC3    C4 5749   2.745   0.466  16.410 -0.1119 -0.2221  0.1816
  381TMC3    C5 5750   2.860   0.449  16.483  0.3761  0.0804  0.1317
  381TMC3    C6 5751   2.982   0.481  16.445  0.2522  0.3578  0.2411
  381TMC3     C 5752   2.633   0.550  16.206  0.1049  0.0576 -0.0422
  381TMC3     O 5753   2.631   0.645  16.126  0.5544 -0.2552  0.5701
  381TMC3     H 5754   2.874   0.628  16.160  2.0989  0.1239  0.1701
  381TMC3    H1 5755   2.649   0.441  16.454 -0.6315  0.4364 -0.5846
  381TMC3    H2 5756   3.065   0.468  16.514 -0.6939  0.0555  1.3309
  381TMC3    C7 5757   2.847   0.374  16.609 -0.1884  0.0970 -0.6003
  381TMC3    C8 5758   3.080   0.641  16.293  0.3255  0.2894  0.3833
  381TMC3    O1 5759   2.936   0.297  16.646 -0.3289 -0.0615  0.2265
  381TMC3    O2 5760   3.107   0.664  16.176 -0.2615  0.6542 -0.7075
  382MPD2     C 5761   2.470   2.855  17.324  0.1160  0.1335  0.0840
  382MPD2    C1 5762   2.329   2.873  17.342  0.0872 -0.6501  0.3836
  382MPD2    C2 5763   2.252   2.756  17.330  0.0582  0.6833  0.5511
  382MPD2    C3 5764   2.306   2.623  17.324 -0.2836 -0.0369 -0.5401
  382MPD2    C4 5765   2.443   2.614  17.327 -0.8180 -0.6646  0.6413
  382MPD2    C5 5766   2.524   2.727  17.319  0.3662 -0.1324  0.4382
  382MPD2     H 5767   2.144   2.760  17.339 -0.0700  0.4916 -0.9232
  382MPD2    H1 5768   2.488   2.517  17.312  0.9995  0.1044  1.1419
  382MPD2    H2 5769   2.540   2.938  17.324 -0.4739  0.6255 -0.8587
  382MPD2    H3 5770   2.632   2.718  17.312  0.6389 -0.0548  4.0889
  382MPD2     N 5771   2.230   2.502  17.329 -0.0037 -0.5500 -0.6955
  382MPD2    H5 5772   2.283   2.415  17.335  0.5031 -0.1627  0.3684
  382MPD2    N1 5773   2.268   2.996  17.345  0.0919 -0.6410  0.2117
  382MPD2    H7 5774   2.167   3.002  17.342  0.1472 -0.0443 -0.6281
  383TMC3    C1 5775   2.034   2.370  17.372 -0.5812 -0.6652  0.2026
  383TMC3    C2 5776   1.902   2.359  17.342 -0.0060  0.4782 -0.5577
  383TMC3    C3 5777   1.844   2.236  17.337 -0.2634  0.9625 -0.1189
  383TMC3    C4 5778   2.115   2.260  17.389  0.7575 -0.8160 -0.4176
  383TMC3    C5 5779   2.051   2.139  17.391 -0.3430 -0.2024 -0.7396
  383TMC3    C6 5780   1.917   2.118  17.363  0.4458 -0.3471 -0.0304
  383TMC3     C 5781   2.092   2.502  17.356 -0.0342  0.2286  0.2476
  383TMC3     O 5782   2.008   2.592  17.344  0.4188  0.0396 -0.3881
  383TMC3     H 5783   1.843   2.445  17.314 -2.6082 -1.1018  0.0428
  383TMC3    H1 5784   2.214   2.267  17.433  0.0822  0.7915  0.8376
  383TMC3    H2 5785   1.876   2.018  17.354 -0.6246  0.1512 -0.6739
  383TMC3    C7 5786   2.140   2.027  17.424 -0.0646  0.8363 -0.0575
  383TMC3    C8 5787   1.708   2.233  17.278  0.2925  0.3150  0.8124
  383TMC3    O1 5788   2.215   2.046  17.518 -0.0354 -0.2252 -0.3308
  383TMC3    O2 5789   1.649   2.338  17.269 -0.0523 -0.1629 -0.1742
  384MPD2     C 5790   3.837   3.671  12.452  0.2293  0.2492  0.0353
  384MPD2    C1 5791   3.928   3.775  12.460 -0.3550 -0.0569  0.1941
  384MPD2    C2 5792   4.041   3.760  12.383  0.2692  0.4217  0.0703
  384MPD2    C3 5793   4.054   3.647  12.301 -0.5583 -0.1717  0.1898
  384MPD2    C4 5794   3.953   3.558  12.284 -0.5681 -0.4590 -0.1460
  384MPD2    C5 5795   3.848   3.562  12.372  0.7127  0.1598 -0.0447
  384MPD2     H 5796   4.129   3.823  12.397  1.2613 -0.2421 -3.1857
  384MPD2    H1 5797   3.957   3.476  12.214  0.7994 -0.2948 -0.2602
  384MPD2    H2 5798   3.751   3.668  12.517 -0.4386 -2.8362 -1.0198
  384MPD2    H3 5799   3.770   3.486  12.369  1.8692 -0.9981 -0.7165
  384MPD2     N 5800   4.160   3.618  12.217  0.2731  0.0984  0.5530
  384MPD2    H5 5801   4.145   3.522  12.188 -2.1427  0.1686  1.5398
  384MPD2    N1 5802   3.918   3.869  12.562  0.2244 -0.7876 -0.1573
  384MPD2    H7 5803   3.848   3.849  12.633  0.1354 -1.8127 -0.5311
  385TMC3    C1 5804   4.381   3.567  12.201  0.4412 -0.3142  0.1522
  385TMC3    C2 5805   4.335   3.465  12.123 -0.2034 -0.0911 -0.4433
  385TMC3    C3 5806   4.371   3.341  12.165 -0.1424 -0.3843  0.8554
  385TMC3    C4 5807   4.452   3.551  12.314 -0.2939  0.3826 -0.0467
  385TMC3    C5 5808   4.469   3.430  12.363 -0.0151  0.0119  0.1842
  385TMC3    C6 5809   4.431   3.324  12.285 -0.0418  0.2520 -0.0503
  385TMC3     C 5810   4.281   3.671  12.213  0.2186 -0.2749  0.2244
  385TMC3     O 5811   4.324   3.781  12.250 -0.4229  0.0880 -0.0365
  385TMC3     H 5812   4.279   3.481  12.031 -0.6162  0.1826 -0.1413
  385TMC3    H1 5813   4.467   3.641  12.373  1.6774  0.4332 -0.6067
  385TMC3    H2 5814   4.427   3.223  12.325  0.8521  0.1578 -0.2006
  385TMC3    C7 5815   4.421   3.425  12.497  0.3956  0.4223 -0.2353
  385TMC3    C8 5816   4.286   3.229  12.132 -0.3662  0.2274 -0.1213
  385TMC3    O1 5817   4.480   3.497  12.579 -0.5982 -0.4438  0.5004
  385TMC3    O2 5818   4.243   3.162  12.227 -0.6288  0.2150  0.3824
  386TMC3    C1 5819   4.599   1.760  11.144 -0.0354  0.4094  0.5177
  386TMC3    C2 5820   4.501   1.793  11.051 -0.3524  0.4504 -0.3687
  386TMC3    C3 5821   4.375   1.773  11.087  0.4820  0.5141 -0.0039
  386TMC3    C4 5822   4.573   1.726  11.271 -0.3647 -0.1734 -0.4685
  386TMC3    C5 5823   4.441   1.708  11.299  0.2162  0.8751 -0.0755
  386TMC3    C6 5824   4.342   1.726  11.202 -0.3731 -0.3939  0.0420
  386TMC3     C 5825   4.734   1.754  11.103  0.2552  0.3302 -0.5147
  386TMC3     O 5826   0.044   1.816  11.005  0.2684 -0.1904 -0.2266
  386TMC3     H 5827   4.538   1.812  10.951  1.4490  4.1107  1.0097
  386TMC3    H1 5828   4.643   1.716  11.354 -0.6147  3.1943  0.1488
  386TMC3    H2 5829   4.238   1.718  11.234 -0.2247 -0.7565  0.4392
  386TMC3    C7 5830   4.407   1.640  11.417 -0.1005  0.1878 -0.0728
  386TMC3    C8 5831   4.271   1.751  10.989  0.4738  0.6973  0.1888
  386TMC3    O1 5832   4.470   1.668  11.516  0.2053 -0.2940  0.0659
  386TMC3    O2 5833   4.175   1.698  11.033 -0.5168  0.8081 -0.0951
  387MPD2     C 5834   1.689   1.660   9.708  0.9752 -0.6295 -0.2095
  387MPD2    C1 5835   1.755   1.665   9.824 -0.3993  0.1798 -0.7498
  387MPD2    C2 5836   1.770   1.547   9.896  0.4807  0.0525 -0.5779
  387MPD2    C3 5837   1.734   1.425   9.847  0.9580 -0.2288 -0.1563
  387MPD2    C4 5838   1.678   1.414   9.724 -0.0397  0.1799  0.7260
  387MPD2    C5 5839   1.652   1.534   9.663 -0.4490  0.1671  0.6334
  387MPD2     H 5840   1.815   1.553   9.995  1.6538 -0.4481 -1.0697
  387MPD2    H1 5841   1.658   1.323   9.669 -4.5140  0.4002  1.9693
  387MPD2    H2 5842   1.658   1.751   9.657 -0.3106  0.2662  2.1188
  387MPD2    H3 5843   1.604   1.521   9.566 -0.1191  1.6308  0.2705
  387MPD2     N 5844   1.769   1.313   9.928 -0.5274 -0.1747  0.1851
  387MPD2    H5 5845   1.811   1.344  10.015  2.5275 -4.2026  0.1365
  387MPD2    N1 5846   1.823   1.774   9.880 -0.0613 -0.7768 -0.1651
  387MPD2    H7 5847   1.888   1.747   9.952 -0.0630  2.3942  1.0234
  388TMC3    C1 5848   1.935   1.978   9.904  0.9955  0.6624 -0.1797
  388TMC3    C2 5849   1.923   2.114   9.925  0.1584 -0.7672  0.2555
  388TMC3    C3 5850   2.035   2.175   9.974  0.5421  0.3558  1.0209
  388TMC3    C4 5851   2.049   1.902   9.936  0.7607 -0.1016 -0.2041
  388TMC3    C5 5852   2.160   1.973   9.974 -0.3368 -0.0439 -0.1568
  388TMC3    C6 5853   2.152   2.107  10.016  0.6705 -0.0124 -0.1457
  388TMC3     C 5854   1.826   1.903   9.843  0.5200  0.3444 -0.6888
  388TMC3     O 5855   1.754   1.962   9.766 -0.0586 -1.0857 -0.4505
  388TMC3     H 5856   1.834   2.163   9.886  0.3102 -0.2644  0.5517
  388TMC3    H1 5857   2.061   1.808   9.884  3.3235  1.3557 -2.2376
  388TMC3    H2 5858   2.238   2.165  10.047 -0.2595  1.0663  0.4020
  388TMC3    C7 5859   2.250   1.900  10.051 -0.1257 -0.0724 -0.4241
  388TMC3    C8 5860   2.026   2.315  10.001 -0.2508  0.0595  0.2323
  388TMC3    O1 5861   2.262   1.952  10.161  0.3485  0.1962  0.3120
  388TMC3    O2 5862   2.129   2.372  10.021  0.3458  0.0037  0.1893
  389MPD2     C 5863   1.666   4.502  10.974 -0.3870 -0.2677 -0.3684
  389MPD2    C1 5864   1.569   4.409  10.958 -0.1654  0.3630  0.2029
  389MPD2    C2 5865   1.514   4.341  11.065 -0.3194  0.1359  0.1552
  389MPD2    C3 5866   1.551   4.367  11.190  0.4430  0.4266 -0.4179
  389MPD2    C4 5867   1.648   4.462  11.207 -0.4482  0.1544  0.1322
  389MPD2    C5 5868   1.715   4.523  11.102  0.1041 -0.3192 -0.7732
  389MPD2     H 5869   1.423   4.283  11.054 -0.5367  0.2841  1.1857
  389MPD2    H1 5870   1.689   4.475  11.306 -2.9023 -0.0199  1.1858
  389MPD2    H2 5871   1.711   4.547  10.887 -0.2618  0.4575  0.0679
  389MPD2    H3 5872   1.807   4.575  11.124 -0.8583  1.5955 -1.2792
  389MPD2     N 5873   1.482   4.319  11.307  0.0061 -0.3661  0.0767
  389MPD2    H5 5874   1.495   4.365  11.396  0.8343  1.3594 -0.9479
  389MPD2    N1 5875   1.532   4.405  10.825 -0.5726  0.1414  0.1274
  389MPD2    H7 5876   1.583   4.452  10.751  1.7352 -1.0651  0.9536
  390TMC3    C1 5877   1.320   4.216  11.430  0.5744 -0.6875  0.8168
  390TMC3    C2 5878   1.276   4.098  11.483  0.6738 -0.2604  0.2151
  390TMC3    C3 5879   1.198   4.098  11.597  0.0885  0.3293 -0.2349
  390TMC3    C4 5880   1.274   4.341  11.478 -0.7723 -0.3600  0.1305
  390TMC3    C5 5881   1.190   4.335  11.587 -0.3726 -0.0068  0.2498
  390TMC3    C6 5882   1.159   4.221  11.653 -0.0577  0.2529 -0.3290
  390TMC3     C 5883   1.386   4.221  11.303 -0.1930 -0.1466  0.1804
  390TMC3     O 5884   1.341   4.147  11.218  0.6122 -0.0048 -0.3155
  390TMC3     H 5885   1.317   4.006  11.444  1.4391 -0.4895  1.5497
  390TMC3    H1 5886   1.292   4.435  11.428 -0.4367 -0.6183 -0.2385
  390TMC3    H2 5887   1.088   4.220  11.735  0.2845  0.6734 -0.0249
  390TMC3    C7 5888   1.145   4.463  11.647 -0.7512 -0.1104  0.4863
  390TMC3    C8 5889   1.114   3.979  11.619 -0.0942 -0.0391 -0.1832
  390TMC3    O1 5890   1.218   4.556  11.624 -0.0832 -0.0485  0.2908
  390TMC3    O2 5891   1.098   3.911  11.520  0.3985  0.2822  0.5051
  391MPD2     C 5892   0.394   1.410  10.951 -0.4064  0.1304 -0.4150
  391MPD2    C1 5893   0.507   1.482  10.911  0.3672  0.4021 -0.4544
  391MPD2    C2 5894   0.521   1.523  10.784  0.3802 -0.5213  0.5791
  391MPD2    C3 5895   0.428   1.499  10.685  0.0220  0.0742  0.4680
  391MPD2    C4 5896   0.325   1.420  10.722 -0.5911 -0.3036  1.6095
  391MPD2    C5 5897   0.309   1.381  10.853 -0.2141 -0.1433  0.3515
  391MPD2     H 5898   0.612   1.579  10.763 -0.3655 -0.3272 -2.1970
  391MPD2    H1 5899   0.248   1.391  10.652  0.2400  0.5728  0.3222
  391MPD2    H2 5900   0.372   1.391  11.055  1.9811  1.9138  0.4213
  391MPD2    H3 5901   0.216   1.330  10.878  0.2748 -0.3770  1.6375
  391MPD2     N 5902   0.463   1.545  10.554 -0.3155 -0.4235  0.1939
  391MPD2    H5 5903   0.543   1.606  10.541 -1.6771  1.2131 -0.4559
  391MPD2    N1 5904   0.608   1.505  11.010 -0.3309  0.9262  0.1715
  391MPD2    H7 5905   0.610   1.437  11.085 -0.9381  1.5266  0.7369
  392TMC3    C1 5906   0.432   1.580  10.317  0.3368 -0.0350  0.0776
  392TMC3    C2 5907   0.340   1.580  10.213 -0.0215 -0.1163  0.0580
  392TMC3    C3 5908   0.370   1.658  10.103  0.4099 -0.2339  0.2558
  392TMC3    C4 5909   0.550   1.659  10.310  0.0917 -0.8788  0.7705
  392TMC3    C5 5910   0.573   1.722  10.195  0.0426 -0.0154 -0.3798
  392TMC3    C6 5911   0.480   1.728  10.090  0.0141  0.9033  0.2611
  392TMC3     C 5912   0.381   1.528  10.444  0.4514  0.0270  0.6802
  392TMC3     O 5913   0.267   1.483  10.449 -0.7917 -0.5612  0.1684
  392TMC3     H 5914   0.248   1.530  10.242  1.1723 -1.7170  1.0444
  392TMC3    H1 5915   0.629   1.639  10.381  2.6135  2.4683 -1.0862
  392TMC3    H2 5916   0.497   1.757   9.986  3.4401  0.4762  0.7132
  392TMC3    C7 5917   0.706   1.774  10.176  0.5064 -0.4115 -0.8740
  392TMC3    C8 5918   0.256   1.664  10.016  0.1355  0.0113  0.8389
  392TMC3    O1 5919   0.785   1.779  10.273  0.3978  0.3947  0.1125
  392TMC3    O2 5920   0.171   1.581  10.047  0.1946 -0.5970  0.1695
  393TMC3    C1 5921   0.249   4.089  11.047 -0.2149  0.4069  0.4864
  393TMC3    C2 5922   0.164   4.068  11.157 -0.0056 -1.2506  0.3035
  393TMC3    C3 5923   0.109   3.942  11.172  0.0750 -0.2250 -0.2268
  393TMC3    C4 5924   0.276   3.989  10.960  0.2214 -0.6918 -0.7179
  393TMC3    C5 5925   0.214   3.864  10.983  0.4150  0.2663 -0.1713
  393TMC3    C6 5926   0.127   3.838  11.081 -0.1676  0.4916  0.0728
  393TMC3     C 5927   0.214   4.217  10.981 -0.4801 -0.5011 -0.3834
  393TMC3     O 5928   0.134   4.293  11.034 -0.4614 -0.0908  0.2471
  393TMC3     H 5929   0.137   4.141  11.233  1.6316 -0.2773 -0.0624
  393TMC3    H1 5930   0.330   4.012  10.869 -0.2873  0.4572 -0.7239
  393TMC3    H2 5931   0.067   3.748  11.082 -1.5097  1.3713 -1.2777
  393TMC3    C7 5932   0.237   3.751  10.897  0.7371 -0.3131 -0.0465
  393TMC3    C8 5933   4.709   3.948  11.238 -0.3900 -0.2207 -0.4565
  393TMC3    O1 5934   0.154   3.659  10.896 -0.3822 -0.2284 -0.5891
  393TMC3    O2 5935   4.650   4.058  11.235 -0.0123 -0.4255  0.1337
  394TMC3    C1 5936   1.380   4.354  10.654  0.4198  0.6573  0.0629
  394TMC3    C2 5937   1.282   4.263  10.603 -0.5269 -0.2087 -0.2175
  394TMC3    C3 5938   1.253   4.266  10.465 -0.2140  0.1829  0.4854
  394TMC3    C4 5939   1.444   4.443  10.573  0.3798 -0.1451  0.2222
  394TMC3    C5 5940   1.407   4.448  10.439 -0.4550 -0.6703  0.0507
  394TMC3    C6 5941   1.324   4.357  10.384  0.1179  0.3581 -0.8452
  394TMC3     C 5942   1.422   4.334  10.789  0.0627  0.1423  0.0005
  394TMC3     O 5943   1.347   4.259  10.849  0.2167 -0.5397 -0.2681
  394TMC3     H 5944   1.237   4.187  10.666 -0.1208  3.1966  4.2449
  394TMC3    H1 5945   1.513   4.514  10.617  0.5624 -0.0145 -0.2863
  394TMC3    H2 5946   1.303   4.351  10.278  0.2233 -0.9541 -0.7945
  394TMC3    C7 5947   1.462   4.538  10.339 -0.6293  0.6972 -0.0442
  394TMC3    C8 5948   1.211   4.145  10.397 -0.3198  0.4841 -0.5903
  394TMC3    O1 5949   1.398   4.546  10.236 -0.6399 -0.4227  0.0593
  394TMC3    O2 5950   1.100   4.131  10.349  0.1936  0.2402  0.6402
  395TMC3    C1 5951   1.080   1.364  14.592  0.0352 -0.6219 -0.0285
  395TMC3    C2 5952   0.946   1.391  14.573 -0.4835  0.2156 -0.1052
  395TMC3    C3 5953   0.920   1.506  14.502 -0.4298 -0.2885  0.3510
  395TMC3    C4 5954   1.179   1.444  14.541 -1.2321  0.3301 -0.4276
  395TMC3    C5 5955   1.152   1.554  14.461  0.2224 -0.2623 -0.0419
  395TMC3    C6 5956   1.016   1.588  14.443  0.3270 -0.3109 -0.1546
  395TMC3     C 5957   1.119   1.242  14.657  1.3123 -0.0658  0.4082
  395TMC3     O 5958   1.222   1.189  14.627 -0.3317 -0.0006  0.5187
  395TMC3     H 5959   0.868   1.324  14.607  0.7154 -1.1121 -0.0030
  395TMC3    H1 5960   1.281   1.413  14.564 -1.7289 -2.4672 -1.9914
  395TMC3    H2 5961   0.988   1.677  14.388  1.3572 -0.1262 -0.3614
  395TMC3    C7 5962   1.255   1.643  14.427  0.1846  1.0239 -0.0596
  395TMC3    C8 5963   0.784   1.544  14.484  0.5094 -0.1647 -0.1732
  395TMC3    O1 5964   1.353   1.664  14.502  0.0445  0.9562  0.7508
  395TMC3    O2 5965   0.747   1.663  14.473  0.0930 -0.1248 -0.0046
  396MPD2     C 5966   0.058   2.202  17.027  0.2208  0.1365  0.5427
  396MPD2    C1 5967   0.128   2.278  17.121 -0.4817 -0.1227  0.4697
  396MPD2    C2 5968   0.224   2.368  17.078  0.2820  0.6769 -0.1830
  396MPD2    C3 5969   0.236   2.403  16.938  0.0941 -0.6378 -0.0124
  396MPD2    C4 5970   0.163   2.327  16.848 -0.4305  0.1594  0.0241
  396MPD2    C5 5971   0.076   2.231  16.896  0.2863  0.1096  0.6017
  396MPD2     H 5972   0.291   2.427  17.140  0.7750  0.8459 -0.8761
  396MPD2    H1 5973   0.160   2.333  16.740  0.1127  1.5142  0.0895
  396MPD2    H2 5974   4.719   2.127  17.056  0.4769 -0.0315  0.7644
  396MPD2    H3 5975   0.016   2.183  16.819  0.6013  1.8697 -0.7433
  396MPD2     N 5976   0.318   2.512  16.908 -0.0682 -0.1424 -0.0180
  396MPD2    H5 5977   0.353   2.566  16.986  0.3870 -1.7251  0.8761
  396MPD2    N1 5978   0.101   2.262  17.258  0.1198  0.0274 -0.3407
  396MPD2    H7 5979   0.030   2.194  17.284  0.5823 -0.1050  0.5602
  397TMC3    C1 5980   0.148   2.251  17.487  0.2894 -0.2848 -0.6670
  397TMC3    C2 5981   0.265   2.283  17.552  0.7032  0.0202  0.3082
  397TMC3    C3 5982   0.358   2.178  17.564  0.1964  0.1853  0.0468
  397TMC3    C4 5983   0.113   2.122  17.459  0.3588  0.1690 -0.3917
  397TMC3    C5 5984   0.202   2.024  17.484  0.1107 -0.4886 -0.3949
  397TMC3    C6 5985   0.331   2.053  17.526  0.3033 -0.8311  0.2193
  397TMC3     C 5986   0.153   2.329  17.365  0.2672  0.6052 -0.0357
  397TMC3     O 5987   0.217   2.430  17.363 -0.0614 -0.1084  0.2801
  397TMC3     H 5988   0.292   2.388  17.561  4.5161 -1.0202  1.2973
  397TMC3    H1 5989   0.017   2.094  17.417  0.1524  1.6167 -0.8907
  397TMC3    H2 5990   0.412   1.983  17.510  0.8078 -0.2567  0.2812
  397TMC3    C7 5991   0.170   1.883  17.441 -0.1701 -0.4266 -0.6032
  397TMC3    C8 5992   0.475   2.231  17.517 -0.4148  0.0648  0.0556
  397TMC3    O1 5993   0.124   1.855  17.331 -0.4044  0.6074 -0.0849
  397TMC3    O2 5994   0.518   2.333  17.569  0.4123  0.3799 -0.2855
  398MPD2     C 5995   2.827   3.870  17.475 -0.1405 -0.1171 -0.1380
  398MPD2    C1 5996   2.904   3.778  17.546 -0.4055  0.0541  0.3655
  398MPD2    C2 5997   2.967   3.823  17.660 -0.1384 -0.7146 -0.0550
  398MPD2    C3 5998   2.962   3.953  17.694  0.1540  0.9015  0.4126
  398MPD2    C4 5999   2.885   4.046  17.624  0.4485 -0.0321  0.5433
  398MPD2    C5 6000   2.813   3.997  17.521 -0.4701 -0.2284  0.8527
  398MPD2     H 6001   3.031   3.760  17.721 -0.3279  1.4945  2.4326
  398MPD2    H1 6002   2.880   4.150  17.652 -1.6803 -0.6562  2.4622
  398MPD2    H2 6003   2.770   3.836  17.389 -1.2706 -0.9844  0.9440
  398MPD2    H3 6004   2.748   4.059  17.460 -0.7549 -0.0919  1.2883
  398MPD2     N 6005   3.055   3.985   0.055  0.3681 -1.0146  0.3472
  398MPD2    H5 6006   3.101   3.909   0.104  0.6028 -0.3919  1.0905
  398MPD2    N1 6007   2.916   3.643  17.517  0.8051 -0.3113 -0.2066
  398MPD2    H7 6008   2.975   3.588  17.578  0.3017  1.7565  2.1900
  399TMC3    C1 6009   2.877   3.438  17.422 -0.0088 -0.1215 -0.5251
  399TMC3    C2 6010   3.004   3.407  17.456 -0.1890  0.7590 -0.7924
  399TMC3    C3 6011   3.030   3.281  17.500 -0.8448 -0.0505  0.7959
  399TMC3    C4 6012   2.779   3.349  17.427  0.2410  0.3562 -0.1809
  399TMC3    C5 6013   2.809   3.223  17.474 -0.0030 -0.2396 -0.2028
  399TMC3    C6 6014   2.932   3.189  17.517 -0.5331 -0.0873 -0.4346
  399TMC3     C 6015   2.836   3.574  17.425  0.5469 -0.1834  0.3404
  399TMC3     O 6016   2.760   3.614  17.344 -0.2949  0.2135 -0.0545
  399TMC3     H 6017   3.081   3.481  17.438 -1.5871  1.9006 -2.0744
  399TMC3    H1 6018   2.679   3.375  17.395  0.2228  1.5729  0.8629
  399TMC3    H2 6019   2.949   3.099  17.574 -0.6701 -0.2888 -0.7084
  399TMC3    C7 6020   2.709   3.130  17.523 -0.0037  0.0319  0.0417
  399TMC3    C8 6021   3.161   3.265  17.544 -0.5227  0.6178  0.5947
  399TMC3    O1 6022   2.760   3.014  17.538  0.0886 -0.1977 -0.0201
  399TMC3    O2 6023   3.214   3.370  17.585 -0.6400 -0.3279  0.0862
  400TMC3    C1 6024   2.010   2.219  17.011  0.0688 -0.2085 -0.6527
  400TMC3    C2 6025   1.879   2.228  16.979 -0.1787 -0.4880 -0.3111
  400TMC3    C3 6026   1.832   2.356  16.969 -0.4122  0.1565 -0.5708
  400TMC3    C4 6027   2.100   2.323  17.038  0.0870  0.1223  0.5395
  400TMC3    C5 6028   2.043   2.448  17.024  0.0183 -0.0136  0.4168
  400TMC3    C6 6029   1.908   2.468  16.997  0.1546  0.0381 -0.4005
  400TMC3     C 6030   2.050   2.076  17.034  0.3860  0.0476  0.1620
  400TMC3     O 6031   1.966   2.013  17.093 -0.3677  0.3942  0.2717
  400TMC3     H 6032   1.816   2.140  16.972 -1.3025  0.1253  1.9216
  400TMC3    H1 6033   2.203   2.307  17.065 -0.0963 -0.6894  0.7716
  400TMC3    H2 6034   1.868   2.568  16.988  0.0599  0.0899  0.6028
  400TMC3    C7 6035   2.128   2.568  17.022  0.6536 -0.5007  0.2565
  400TMC3    C8 6036   1.694   2.371  16.907 -0.1670 -0.6104 -0.0967
  400TMC3    O1 6037   2.222   2.574  16.942 -0.2855  0.3256 -0.3272
  400TMC3    O2 6038   1.649   2.484  16.924 -0.9154  0.1267  0.9933
  401MPD2     C 6039   0.553   0.662   0.974 -0.1156 -0.3462 -0.1461
  401MPD2    C1 6040   0.638   0.558   0.984 -1.1050  0.3807  1.0057
  401MPD2    C2 6041   0.589   0.434   0.978 -0.2685 -0.0294 -0.4294
  401MPD2    C3 6042   0.460   0.410   0.938  0.8478 -0.1480 -0.3311
  401MPD2    C4 6043   0.370   0.519   0.933 -0.3531 -0.1490 -0.1759
  401MPD2    C5 6044   0.417   0.645   0.950 -0.0378  1.3597  0.6515
  401MPD2     H 6045   0.654   0.349   1.000  1.2615  1.2110 -0.1647
  401MPD2    H1 6046   0.264   0.509   0.911 -0.1414  0.1146 -1.3569
  401MPD2    H2 6047   0.603   0.757   0.991  1.7531 -1.6024  1.4214
  401MPD2    H3 6048   0.353   0.733   0.949 -1.9495 -0.0183  0.7047
  401MPD2     N 6049   0.420   0.278   0.928 -0.5141  0.5129  0.1235
  401MPD2    H5 6050   0.489   0.211   0.963 -1.8652 -1.8824 -1.8154
  401MPD2    N1 6051   0.775   0.559   1.003 -0.1406  0.1751 -0.6734
  401MPD2    H7 6052   0.816   0.468   1.018 -2.3964 -0.7826 -0.3237
  402TMC3    C1 6053   0.286   0.091   0.868 -0.5680  0.1247 -0.2758
  402TMC3    C2 6054   0.325   0.029   0.985  0.3678 -0.3336  0.1671
  402TMC3    C3 6055   0.328   4.631   0.978  0.2389  0.1133 -0.2256
  402TMC3    C4 6056   0.243   0.032   0.756  0.6264 -0.3665 -0.4506
  402TMC3    C5 6057   0.239   4.631   0.762  0.0033  0.3658  0.8763
  402TMC3    C6 6058   0.292   4.557   0.869 -0.0096 -0.1682 -0.6268
  402TMC3     C 6059   0.311   0.232   0.852 -0.4293 -0.2085  0.2121
  402TMC3     O 6060   0.252   0.301   0.770 -0.1694 -0.2684 -0.3149
  402TMC3     H 6061   0.351   0.089   1.071  0.9443  0.0066 -0.2391
  402TMC3    H1 6062   0.231   0.086   0.662  0.4394 -0.2902 -0.3838
  402TMC3    H2 6063   0.286   4.449   0.877  0.7716 -0.3543 -2.4808
  402TMC3    C7 6064   0.226   4.561   0.633  0.2526  0.3766 -0.0772
  402TMC3    C8 6065   0.396   4.547   1.076 -0.1034 -0.3005 -0.2067
  402TMC3    O1 6066   0.150   4.617   0.556 -0.2799 -0.9110 -0.3858
  402TMC3    O2 6067   0.424   4.436   1.032 -0.1659 -0.5229  0.2136
  403MPD2     C 6068   3.568   3.468  13.334 -0.2799  0.2365 -0.7184
  403MPD2    C1 6069   3.452   3.482  13.411 -0.1278 -0.3848 -0.1856
  403MPD2    C2 6070   3.464   3.550  13.533 -0.0370  0.5336 -0.4849
  403MPD2    C3 6071   3.596   3.591  13.577 -0.6217 -0.4408 -0.1744
  403MPD2    C4 6072   3.707   3.562  13.500 -0.3437 -0.1709  0.0182
  403MPD2    C5 6073   3.691   3.497  13.383  0.4019 -0.2340  0.1043
  403MPD2     H 6074   3.375   3.562  13.594  1.4134  1.3431  1.4762
  403MPD2    H1 6075   3.807   3.592  13.527  0.0250  0.2195 -1.7512
  403MPD2    H2 6076   3.572   3.409  13.244 -1.6069 -3.3246  1.5236
  403MPD2    H3 6077   3.777   3.453  13.334 -0.1050 -0.2911 -0.7208
  403MPD2     N 6078   3.611   3.632  13.712 -0.3570  0.7499  0.4501
  403MPD2    H5 6079   3.521   3.646  13.755  0.6923 -0.0250  2.9030
  403MPD2    N1 6080   3.336   3.427  13.352  0.4957 -0.0672  0.0727
  403MPD2    H7 6081   3.345   3.374  13.265  1.5166  1.5237 -0.7923
  404TMC3    C1 6082   3.129   3.343  13.360  0.7949  0.1762  0.1543
  404TMC3    C2 6083   3.108   3.256  13.468  0.2720  0.2504 -0.0530
  404TMC3    C3 6084   3.109   3.115  13.429 -0.2972  0.0813 -0.2655
  404TMC3    C4 6085   3.136   3.302  13.233 -0.2395 -0.2175 -0.4814
  404TMC3    C5 6086   3.137   3.167  13.205 -0.4344 -0.9284 -0.0142
  404TMC3    C6 6087   3.122   3.068  13.300  0.2247  0.5919  0.3135
  404TMC3     C 6088   3.218   3.450  13.398 -0.0510  0.0941  0.1030
  404TMC3     O 6089   3.189   3.511  13.502  0.1832  0.4026 -0.2058
  404TMC3     H 6090   3.139   3.291  13.565 -1.4764 -2.6514  1.5338
  404TMC3    H1 6091   3.148   3.375  13.154 -0.4847 -0.1205 -0.4308
  404TMC3    H2 6092   3.130   2.964  13.270 -0.1069  1.0186 -1.2742
  404TMC3    C7 6093   3.146   3.128  13.061  0.6756  0.1903  0.0470
  404TMC3    C8 6094   3.150   3.025  13.539 -0.6349  0.3485  0.2697
  404TMC3    O1 6095   3.178   3.012  13.032  0.5191 -0.6151 -0.3544
  404TMC3    O2 6096   3.183   2.912  13.504 -0.3606 -0.1481 -0.2913
  405MPD2     C 6097   3.586   0.372  15.106  0.2645 -0.3767  0.2974
  405MPD2    C1 6098   3.686   0.279  15.090 -0.5193 -0.3294  0.1729
  405MPD2    C2 6099   3.722   0.249  14.961  0.5850  0.3577  0.2574
  405MPD2    C3 6100   3.663   0.310  14.847  0.3516 -0.1695 -0.1120
  405MPD2    C4 6101   3.554   0.393  14.871  0.0685 -0.0480 -0.5599
  405MPD2    C5 6102   3.521   0.425  15.001 -0.1794  0.4295  0.0353
  405MPD2     H 6103   3.790   0.166  14.948  1.6950  1.0599  1.5498
  405MPD2    H1 6104   3.508   0.441  14.786 -2.1168  2.1170  1.8367
  405MPD2    H2 6105   3.550   0.407  15.202  0.5606 -1.3438  0.7637
  405MPD2    H3 6106   3.447   0.501  15.023 -0.1453  1.2277 -2.6054
  405MPD2     N 6107   3.702   0.268  14.718 -0.2620 -0.2291 -0.2441
  405MPD2    H5 6108   3.777   0.199  14.720 -2.0906 -2.2694 -1.6553
  405MPD2    N1 6109   3.737   0.221  15.206  0.2196  0.1032  0.0661
  405MPD2    H7 6110   3.680   0.243  15.287 -1.2278 -1.4785 -0.5325
  406TMC3    C1 6111   3.544   0.096  14.351  0.9037 -0.1761 -0.0682
  406TMC3    C2 6112   3.599   4.714  14.392 -0.3549 -0.8415 -0.0707
  406TMC3    C3 6113   3.704   4.718  14.481 -0.5308  0.3365  0.3586
  406TMC3    C4 6114   3.603   0.216  14.382  0.5937  0.3484  0.5981
  406TMC3    C5 6115   3.695   0.218  14.485 -0.2863  0.0352 -0.1450
  406TMC3    C6 6116   3.753   0.101  14.525 -0.4716  0.0852 -0.3947
  406TMC3     C 6117   3.425   0.102  14.262  0.1537 -0.1179  0.0631
  406TMC3     O 6118   3.427   0.194  14.184  0.9457  0.0800 -0.1514
  406TMC3     H 6119   3.544   4.623  14.368 -0.0158 -0.9444 -0.4597
  406TMC3    H1 6120   3.576   0.318  14.355  1.6797  0.2634 -0.8259
  406TMC3    H2 6121   3.845   0.105  14.583  0.1532  0.4144 -1.4096
  406TMC3    C7 6122   3.644   0.298  14.595 -0.7187  0.3381 -0.0546
  406TMC3    C8 6123   3.724   4.594  14.558  0.1701 -0.5419 -0.6741
  406TMC3    O1 6124   3.544   0.364  14.572 -0.3463 -0.4612  0.1328
  406TMC3    O2 6125   3.683   4.486  14.514  0.0935 -0.5627  0.0198
  407MPD2     C 6126   1.306   0.933   9.716 -0.1916  0.5978  0.0108
  407MPD2    C1 6127   1.418   0.995   9.698  0.0553  0.0852 -0.0620
  407MPD2    C2 6128   1.430   1.132   9.718  0.3825 -0.3868  0.4621
  407MPD2    C3 6129   1.319   1.206   9.743 -0.0743 -0.4643 -0.6065
  407MPD2    C4 6130   1.194   1.141   9.747 -0.8980  0.0958  0.1577
  407MPD2    C5 6131   1.188   1.005   9.735 -0.7399  0.1203  0.0912
  407MPD2     H 6132   1.527   1.179   9.717  0.4070 -0.4434  0.2181
  407MPD2    H1 6133   1.097   1.185   9.765  0.5857  3.3025  0.3484
  407MPD2    H2 6134   1.289   0.827   9.701 -1.2203  0.6216  0.9948
  407MPD2    H3 6135   1.091   0.959   9.746  0.7869 -2.7702  1.5216
  407MPD2     N 6136   1.330   1.349   9.763 -0.1372 -0.4345  0.1678
  407MPD2    H5 6137   1.425   1.381   9.779  0.2473 -0.9527 -1.0707
  407MPD2    N1 6138   1.531   0.922   9.650  0.1384  0.0475  0.3645
  407MPD2    H7 6139   1.614   0.974   9.626  1.2137 -2.2344 -0.8191
  408TMC3    C1 6140   1.680   0.744   9.594 -0.5439 -0.1715  0.1762
  408TMC3    C2 6141   1.782   0.833   9.630 -0.5221 -0.0300 -0.2059
  408TMC3    C3 6142   1.902   0.802   9.577 -0.2869  0.5269  0.5217
  408TMC3    C4 6143   1.695   0.638   9.509  0.5422 -0.6226  0.1217
  408TMC3    C5 6144   1.824   0.600   9.482  0.2869 -0.0786  0.4372
  408TMC3    C6 6145   1.932   0.683   9.506 -0.3670  0.5769  0.1270
  408TMC3     C 6146   1.545   0.787   9.615 -0.6328 -0.4621  0.0602
  408TMC3     O 6147   1.464   0.695   9.615 -0.0814  0.2914 -0.0636
  408TMC3     H 6148   1.758   0.928   9.678  1.5453 -0.1002  0.9605
  408TMC3    H1 6149   1.625   0.556   9.506 -1.9175  1.4368  0.9423
  408TMC3    H2 6150   2.033   0.657   9.477 -1.0610 -0.7894 -1.0336
  408TMC3    C7 6151   1.853   0.462   9.465  0.0752 -0.0406 -0.2845
  408TMC3    C8 6152   2.014   0.893   9.604  0.1472  0.1583  0.1335
  408TMC3    O1 6153   1.758   0.384   9.490  0.2508 -0.3555 -0.4720
  408TMC3    O2 6154   2.128   0.849   9.593  0.1110 -0.3056  0.6576
  409MPD2     C 6155   0.505   1.547  17.194  0.4346 -0.3832 -0.2707
  409MPD2    C1 6156   0.621   1.584  17.261  0.1561  0.6194  0.2079
  409MPD2    C2 6157   0.683   1.706  17.240 -0.2793 -0.0895 -0.3442
  409MPD2    C3 6158   0.643   1.790  17.139  0.7435 -0.2609 -0.1697
  409MPD2    C4 6159   0.532   1.746  17.069  0.0812 -0.1032 -0.9086
  409MPD2    C5 6160   0.458   1.632  17.103  0.4202  0.0702 -0.2649
  409MPD2     H 6161   0.756   1.734  17.315 -0.4144  0.2291 -0.3351
  409MPD2    H1 6162   0.486   1.814  16.999 -1.6299  0.8308  1.1730
  409MPD2    H2 6163   0.458   1.450  17.208 -2.4430  0.9260 -0.7205
  409MPD2    H3 6164   0.364   1.610  17.054  1.4518 -1.1450 -1.7073
  409MPD2     N 6165   0.702   1.910  17.104 -0.1976  0.0056 -0.7157
  409MPD2    H5 6166   0.671   1.961  17.022 -0.2396 -0.3959 -0.9484
  409MPD2    N1 6167   0.676   1.489  17.354  0.4580  0.2284  0.6566
  409MPD2    H7 6168   0.752   1.520  17.414 -0.0737 -0.9001  1.9069
  410TMC3    C1 6169   0.888   2.064  17.090 -0.7096  0.3760 -0.2652
  410TMC3    C2 6170   0.983   2.145  17.142 -0.0921 -0.3807 -0.1475
  410TMC3    C3 6171   1.052   2.245  17.076 -0.5015  0.0918 -0.4052
  410TMC3    C4 6172   0.857   2.073  16.960  0.5063 -0.2462  0.2556
  410TMC3    C5 6173   0.915   2.176  16.893  0.1568 -0.4026  0.1012
  410TMC3    C6 6174   1.023   2.248  16.942  0.2222 -0.4291 -0.2765
  410TMC3     C 6175   0.820   1.958  17.168  0.6542 -0.6008  0.1560
  410TMC3     O 6176   0.882   1.923  17.265 -0.0667 -0.2924 -0.5357
  410TMC3     H 6177   1.006   2.134  17.247  2.0256  0.2222 -0.5405
  410TMC3    H1 6178   0.774   2.024  16.912  0.1980  0.2604  0.2671
  410TMC3    H2 6179   1.098   2.295  16.879 -0.1208  2.5506  1.5232
  410TMC3    C7 6180   0.882   2.191  16.757  0.0102 -0.1906  0.0654
  410TMC3    C8 6181   1.186   2.236  17.110 -0.2326  0.3603 -0.0783
  410TMC3    O1 6182   0.813   2.099  16.714  0.4628 -0.1525 -0.3957
  410TMC3    O2 6183   1.222   2.287  17.216 -0.3849  0.1438 -0.3946
  411MPD2     C 6184   1.074   2.612  14.326  1.0919  0.2865 -0.3228
  411MPD2    C1 6185   1.096   2.612  14.459 -0.1355  0.2273  0.2392
  411MPD2    C2 6186   1.085   2.490  14.531 -0.5091 -0.5852 -0.1939
  411MPD2    C3 6187   1.060   2.372  14.463  0.3900 -0.3170 -0.2560
  411MPD2    C4 6188   1.038   2.373  14.327 -0.0891 -0.0239  0.2135
  411MPD2    C5 6189   1.049   2.493  14.264  0.1618 -0.4781 -0.4823
  411MPD2     H 6190   1.068   2.487  14.638 -0.3670  1.1195 -0.1234
  411MPD2    H1 6191   1.024   2.278  14.277  1.2779 -0.8976  1.4661
  411MPD2    H2 6192   1.087   2.705  14.272 -0.8737  1.2792  0.9221
  411MPD2    H3 6193   1.027   2.492  14.157  0.7538 -0.4351 -0.6024
  411MPD2     N 6194   1.052   2.244  14.517  0.5185  0.3672 -0.4396
  411MPD2    H5 6195   1.023   2.173  14.451  0.7706  1.1680 -1.4218
  411MPD2    N1 6196   1.094   2.744  14.519 -0.0345  0.0848 -0.1205
  411MPD2    H7 6197   1.088   2.823  14.454  2.0132 -0.5738 -1.1129
  412TMC3    C1 6198   1.018   2.073  14.679 -0.3170  0.3500  0.3853
  412TMC3    C2 6199   0.903   2.072  14.766 -1.0727 -0.1469  0.3542
  412TMC3    C3 6200   0.788   2.019  14.712  0.1268  0.7866 -0.8124
  412TMC3    C4 6201   1.028   2.004  14.563  0.4420 -0.0512  0.0987
  412TMC3    C5 6202   0.912   1.954  14.520  0.3327 -0.3350  0.3034
  412TMC3    C6 6203   0.796   1.953  14.592 -1.0573 -0.0768  0.1385
  412TMC3     C 6204   1.069   2.208  14.649 -0.4150  0.0696  0.0153
  412TMC3     O 6205   1.120   2.270  14.746 -0.8987  0.0463  0.6982
  412TMC3     H 6206   0.900   2.099  14.871 -2.4894 -0.6252  0.4466
  412TMC3    H1 6207   1.118   2.015  14.504 -0.6741 -1.4261 -1.8641
  412TMC3    H2 6208   0.708   1.911  14.544 -0.0927 -0.2126 -1.5106
  412TMC3    C7 6209   0.895   1.971  14.378 -0.9889 -0.1513 -0.0902
  412TMC3    C8 6210   0.698   2.132  14.683  0.6170  0.2707  0.6135
  412TMC3    O1 6211   0.958   2.061  14.335  0.2806  0.4827 -0.1252
  412TMC3    O2 6212   0.603   2.107  14.609  0.3691 -0.1864 -0.6235
  413MPD2     C 6213   2.492   0.828  15.527  0.0357 -0.4615  0.1881
  413MPD2    C1 6214   2.430   0.761  15.431 -0.4806 -0.0028  0.1210
  413MPD2    C2 6215   2.495   0.748  15.306 -0.5057  0.2565  0.3644
  413MPD2    C3 6216   2.617   0.806  15.287  0.4020 -0.8008  0.3699
  413MPD2    C4 6217   2.682   0.877  15.385 -0.8095 -0.9078  0.3193
  413MPD2    C5 6218   2.615   0.892  15.511  0.0153 -0.0868 -0.3050
  413MPD2     H 6219   2.450   0.689  15.228 -0.1713 -1.5210  1.5135
  413MPD2    H1 6220   2.781   0.920  15.377 -0.8402 -1.2900 -2.0452
  413MPD2    H2 6221   2.435   0.843  15.618  0.0708  1.9927 -0.1882
  413MPD2    H3 6222   2.675   0.933  15.591 -0.1042 -1.9899  0.7440
  413MPD2     N 6223   2.677   0.788  15.162  0.1422 -0.2055  0.1019
  413MPD2    H5 6224   2.618   0.743  15.092  1.2743  1.4186 -1.9141
  413MPD2    N1 6225   2.291   0.741  15.450 -0.8464 -0.0253 -0.4388
  413MPD2    H7 6226   2.248   0.783  15.532 -1.6840 -1.1906 -0.2899
  414TMC3    C1 6227   2.830   0.764  14.994  0.1900  0.2360 -0.1005
  414TMC3    C2 6228   2.811   0.627  15.007 -0.1111 -0.6847  0.5306
  414TMC3    C3 6229   2.852   0.553  14.902 -1.1249 -0.4239 -0.0246
  414TMC3    C4 6230   2.895   0.824  14.893  0.2867 -0.8786  1.1171
  414TMC3    C5 6231   2.923   0.743  14.789  0.4262 -0.3361  0.2749
  414TMC3    C6 6232   2.901   0.614  14.787 -0.1440  0.5212 -0.0980
  414TMC3     C 6233   2.790   0.836  15.110 -0.1329  0.6732  0.2839
  414TMC3     O 6234   2.864   0.919  15.159 -0.1338 -0.1202 -0.4269
  414TMC3     H 6235   2.764   0.577  15.091  0.6256  0.0816  1.3996
  414TMC3    H1 6236   2.929   0.926  14.902  0.2018 -0.6354 -1.3300
  414TMC3    H2 6237   2.918   0.558  14.695  0.2345 -1.9687  1.4950
  414TMC3    C7 6238   3.055   0.771  14.745 -0.2734  0.4171 -0.2762
  414TMC3    C8 6239   2.934   0.442  14.944 -0.7392  0.2759  0.4158
  414TMC3    O1 6240   3.125   0.847  14.809  0.3567 -0.9830  0.0090
  414TMC3    O2 6241   2.962   0.360  14.855  0.2236  0.4477  0.7584
  415TMC3    C1 6242   3.861   3.934  10.787  0.1206 -0.9067 -0.1164
  415TMC3    C2 6243   3.980   3.946  10.713 -0.6191  0.3756 -0.6025
  415TMC3    C3 6244   4.043   4.070  10.721 -0.0933  0.4010  0.3865
  415TMC3    C4 6245   3.803   4.045  10.850  0.0806 -0.6980  0.3123
  415TMC3    C5 6246   3.869   4.165  10.849 -0.0804 -0.6149 -0.5948
  415TMC3    C6 6247   3.991   4.176  10.792  0.0335  0.4486  0.6965
  415TMC3     C 6248   3.802   3.806  10.811  0.0716 -1.0658 -0.3445
  415TMC3     O 6249   3.735   3.790  10.907 -0.1188 -0.3938  0.3974
  415TMC3     H 6250   4.020   3.858  10.664 -0.4211  0.1646 -0.0637
  415TMC3    H1 6251   3.726   4.027  10.924 -0.5969 -0.7161 -0.3938
  415TMC3    H2 6252   4.038   4.273  10.787  1.3494 -0.2288 -0.1975
  415TMC3    C7 6253   3.840   4.258  10.960  0.1771 -0.6181  0.1820
  415TMC3    C8 6254   4.167   4.096  10.646  0.0264  0.3231 -0.2633
  415TMC3    O1 6255   3.919   4.347  10.974  0.7930  1.0792 -0.4307
  415TMC3    O2 6256   4.201   4.214  10.643 -0.0647  0.3612  0.0848
  416MPD2     C 6257   4.619   2.269  11.954  0.3120 -0.1502  0.1993
  416MPD2    C1 6258   4.593   2.342  11.847 -0.4712  0.6840 -0.1309
  416MPD2    C2 6259   4.614   2.291  11.721 -0.6681 -0.4728 -0.3742
  416MPD2    C3 6260   4.657   2.159  11.714 -0.6377 -0.0409  0.4789
  416MPD2    C4 6261   4.681   2.084  11.824 -0.3611 -0.4099  0.3650
  416MPD2    C5 6262   4.671   2.140  11.945 -0.3205 -0.1549 -0.1925
  416MPD2     H 6263   4.607   2.353  11.632 -0.8894  0.8064  0.5265
  416MPD2    H1 6264   4.702   1.978  11.819 -0.5663 -0.4566  0.4657
  416MPD2    H2 6265   4.599   2.312  12.052  1.8206  1.0029 -0.0071
  416MPD2    H3 6266   4.674   2.069  12.028  1.1069 -0.4626 -0.5085
  416MPD2     N 6267   4.675   2.096  11.585  0.1594  0.2363 -0.3250
  416MPD2    H5 6268   4.728   2.010  11.580 -0.2987 -0.0738  0.1701
  416MPD2    N1 6269   4.536   2.475  11.863  1.0995  0.3164 -0.3487
  416MPD2    H7 6270   4.545   2.517  11.955  0.2813 -0.7758  0.2386
  417TMC3    C1 6271   4.460   2.695  11.796 -0.2396 -0.2306  1.1423
  417TMC3    C2 6272   4.475   2.742  11.924  0.5771  0.4193 -0.4151
  417TMC3    C3 6273   4.514   2.874  11.942  0.8772 -0.3722  0.2440
  417TMC3    C4 6274   4.470   2.784  11.692 -0.2327  0.2995  0.4660
  417TMC3    C5 6275   4.501   2.915  11.712 -0.1098  0.0835 -0.3703
  417TMC3    C6 6276   4.538   2.958  11.840  0.1570 -1.5249 -0.0466
  417TMC3     C 6277   4.481   2.550  11.762  0.1251 -0.0581  0.0025
  417TMC3     O 6278   4.456   2.523  11.644  0.0575  0.2327  0.2430
  417TMC3     H 6279   4.459   2.671  12.004 -0.4014  1.7696  0.5632
  417TMC3    H1 6280   4.452   2.743  11.593 -1.0434 -2.0279  1.5605
  417TMC3    H2 6281   4.566   3.061  11.858 -2.6852 -0.6616 -0.5342
  417TMC3    C7 6282   4.500   3.002  11.601 -0.2009 -0.4047  0.4594
  417TMC3    C8 6283   4.540   2.914  12.086 -0.4928 -0.1701 -0.4118
  417TMC3    O1 6284   4.567   3.103  11.614  0.1034 -0.1835 -0.1159
  417TMC3    O2 6285   4.600   3.022  12.099  0.2124  0.0311  0.9800
  418TMC3    C1 6286   3.425   4.147   0.213  0.2457 -0.9069 -0.3739
  418TMC3    C2 6287   3.301   4.187   0.176  0.4750 -0.0685  0.3260
  418TMC3    C3 6288   3.200   4.097   0.188 -0.4201  0.0565 -0.1451
  418TMC3    C4 6289   3.446   4.030   0.277  0.8929 -0.1088  0.2507
  418TMC3    C5 6290   3.341   3.952   0.305 -0.3468  0.4068  0.7846
  418TMC3    C6 6291   3.217   3.976   0.250 -0.6986  0.2892 -0.1649
  418TMC3     C 6292   3.536   4.212   0.145 -0.1362  0.5409  0.4240
  418TMC3     O 6293   3.521   4.331   0.123  0.0937 -0.5150  0.2119
  418TMC3     H 6294   3.285   4.279   0.120 -0.3510 -0.0910  0.5225
  418TMC3    H1 6295   3.547   4.015   0.313 -0.0448 -1.6935  2.2123
  418TMC3    H2 6296   3.131   3.918   0.280  0.6224 -2.1800 -1.1892
  418TMC3    C7 6297   3.368   3.814   0.348 -0.1640 -0.9243 -0.8778
  418TMC3    C8 6298   3.096   4.110   0.089  0.1184 -0.3543  0.2550
  418TMC3    O1 6299   3.308   3.719   0.296 -0.2069 -0.1263  0.4103
  418TMC3    O2 6300   3.050   4.217   0.051 -0.4580  0.0721  0.5759
  419MPD2     C 6301   2.726   2.665  12.620  0.3940 -0.0263 -0.1952
  419MPD2    C1 6302   2.592   2.707  12.603  0.4441 -0.3328  0.4186
  419MPD2    C2 6303   2.517   2.720  12.721 -0.0397  0.3050 -0.3118
  419MPD2    C3 6304   2.569   2.682  12.848 -0.2044  0.4436 -0.2431
  419MPD2    C4 6305   2.699   2.645  12.852 -0.3805  0.1551 -0.3241
  419MPD2    C5 6306   2.777   2.643  12.746 -0.5425 -0.4449 -0.1698
  419MPD2     H 6307   2.411   2.741  12.718 -0.0397  0.3890  0.2807
  419MPD2    H1 6308   2.755   2.601  12.934 -0.4210 -0.7883 -0.8120
  419MPD2    H2 6309   2.790   2.656  12.533  1.3169  2.2295  0.2520
  419MPD2    H3 6310   2.881   2.612  12.745 -0.0955  1.0015  1.7085
  419MPD2     N 6311   2.473   2.676  12.953 -0.0493  0.3612 -0.1789
  419MPD2    H5 6312   2.377   2.699  12.933 -0.2112  0.5171  0.7811
  419MPD2    N1 6313   2.530   2.730  12.476 -0.2268 -0.0606 -0.2786
  419MPD2    H7 6314   2.442   2.780  12.481  0.2723  1.0031 -2.2492
  420TMC3    C1 6315   2.407   2.681  13.176 -0.4243  0.6572 -0.2166
  420TMC3    C2 6316   2.294   2.749  13.128 -0.6437  0.2996 -0.5033
  420TMC3    C3 6317   2.177   2.717  13.184  0.2046 -0.1424  0.2350
  420TMC3    C4 6318   2.396   2.597  13.280  0.2131  0.8630 -0.0409
  420TMC3    C5 6319   2.271   2.562  13.332 -0.0723 -0.3205  0.7895
  420TMC3    C6 6320   2.158   2.621  13.286 -0.6948 -0.3347  0.2242
  420TMC3     C 6321   2.511   2.657  13.080  0.6228  0.5034 -0.4310
  420TMC3     O 6322   2.620   2.617  13.124  0.0647 -1.0257 -0.7696
  420TMC3     H 6323   2.309   2.816  13.044  2.6716 -1.7992 -1.5742
  420TMC3    H1 6324   2.484   2.541  13.311 -1.6259 -0.7852  2.2278
  420TMC3    H2 6325   2.065   2.600  13.338 -1.0810  1.4982  0.2592
  420TMC3    C7 6326   2.262   2.453  13.426 -0.3359  0.3082  0.2693
  420TMC3    C8 6327   2.059   2.778  13.115 -0.0535  0.2964 -0.1830
  420TMC3    O1 6328   2.352   2.435  13.509 -0.0853  0.2475 -0.0063
  420TMC3    O2 6329   2.080   2.871  13.041 -0.3041  0.0302  0.4717
  421TMC3    C1 6330   3.690   3.669  13.932 -0.5159  0.2990  0.2182
  421TMC3    C2 6331   3.608   3.785  13.951  0.6708 -0.0987  0.6425
  421TMC3    C3 6332   3.643   3.878  14.038 -0.1601 -0.3162  1.0234
  421TMC3    C4 6333   3.798   3.653  14.020 -0.0374 -0.1767  0.0076
  421TMC3    C5 6334   3.823   3.746  14.114  0.3729  0.1150  0.0392
  421TMC3    C6 6335   3.747   3.857  14.128 -0.2158 -1.3280  0.2672
  421TMC3     C 6336   3.726   3.642  13.792  1.0128  0.1695  0.3725
  421TMC3     O 6337   3.844   3.627  13.762 -0.0721  0.5726 -0.0278
  421TMC3     H 6338   3.551   3.825  13.868 -0.6253 -0.0562  1.5628
  421TMC3    H1 6339   3.878   3.583  13.996  0.2830 -0.1113  0.8852
  421TMC3    H2 6340   3.765   3.942  14.192 -0.2950 -1.6340  0.6951
  421TMC3    C7 6341   3.935   3.723  14.205 -0.7383 -0.1213  0.2740
  421TMC3    C8 6342   3.574   4.007  14.040  0.4737  0.1860 -0.1236
  421TMC3    O1 6343   3.985   3.819  14.264 -0.5202  0.0209  0.4645
  421TMC3    O2 6344   3.456   3.995  14.002  0.2440  0.0190  0.2036
  422TMC3    C1 6345   1.696   0.735  12.636 -0.3324  0.7566  0.1769
  422TMC3    C2 6346   1.669   0.825  12.737 -0.1442  0.0827  0.2448
  422TMC3    C3 6347   1.546   0.835  12.791 -0.0644  0.3645  0.1220
  422TMC3    C4 6348   1.597   0.655  12.596 -0.2764 -0.5907 -0.2025
  422TMC3    C5 6349   1.468   0.669  12.655  0.3112  0.3312 -0.5065
  422TMC3    C6 6350   1.437   0.763  12.749  1.0525  0.6310 -0.7251
  422TMC3     C 6351   1.772   0.795  12.529 -0.0892 -0.4119 -0.7179
  422TMC3     O 6352   1.775   0.916  12.542  0.2034 -0.9307  0.3381
  422TMC3     H 6353   1.753   0.884  12.771 -0.8571  0.9642  0.4814
  422TMC3    H1 6354   1.606   0.589  12.511 -2.1100  1.1581 -1.7376
  422TMC3    H2 6355   1.340   0.794  12.788  1.5321 -1.2307  1.9308
  422TMC3    C7 6356   1.363   0.623  12.568  0.6926  0.1130 -0.4641
  422TMC3    C8 6357   1.541   0.909  12.919 -0.0786 -0.4209 -0.1097
  422TMC3    O1 6358   1.391   0.602  12.450 -0.3900 -0.1222  0.0992
  422TMC3    O2 6359   1.625   0.999  12.943  0.3845  0.1562  0.1597
  423MPD2     C 6360   2.283   1.010   0.421 -0.0473 -0.5726 -1.4406
  423MPD2    C1 6361   2.392   0.935   0.448 -0.6997  0.0330  0.2433
  423MPD2    C2 6362   2.451   0.868   0.343  0.4948 -0.1048  0.2738
  423MPD2    C3 6363   2.409   0.869   0.216  0.3228 -0.0464 -0.0595
  423MPD2    C4 6364   2.304   0.948   0.182 -0.1117  0.1124  0.2096
  423MPD2    C5 6365   2.246   1.024   0.289 -0.4361 -0.1762 -0.3016
  423MPD2     H 6366   2.534   0.802   0.364  2.2040  1.7445 -0.6292
  423MPD2    H1 6367   2.264   0.958   0.082 -0.4748  1.4097  0.4767
  423MPD2    H2 6368   2.227   1.065   0.496  0.5504 -0.4507 -1.0791
  423MPD2    H3 6369   2.155   1.082   0.280 -0.4894 -0.7678 -3.2501
  423MPD2     N 6370   2.469   0.800   0.102  0.2609 -0.3509  0.1682
  423MPD2    H5 6371   2.435   0.818   0.008  0.4686 -1.0269 -0.0310
  423MPD2    N1 6372   2.453   0.923   0.577 -0.8673 -0.6248  0.2738
  423MPD2    H7 6373   2.522   0.848   0.577 -0.3840 -0.1922 -1.7442
  424TMC3    C1 6374   2.484   0.957   0.806 -1.2501 -0.6730  0.3899
  424TMC3    C2 6375   2.615   0.914   0.795  0.0810 -0.6773 -0.5179
  424TMC3    C3 6376   2.676   0.862   0.909 -0.7764 -1.0788  0.0156
  424TMC3    C4 6377   2.421   0.945   0.922 -0.0187  0.7525  0.6180
  424TMC3    C5 6378   2.482   0.885   1.027 -0.0390 -0.6587 -0.0447
  424TMC3    C6 6379   2.611   0.841   1.028 -0.0606 -0.3937 -0.8209
  424TMC3     C 6380   2.403   0.979   0.691  0.1195  0.8245 -0.0370
  424TMC3     O 6381   2.305   1.051   0.702  0.2917  0.0088 -0.0093
  424TMC3     H 6382   2.672   0.927   0.704 -1.1077 -2.3176 -1.4831
  424TMC3    H1 6383   2.323   0.990   0.927 -1.0363 -1.1265 -2.3375
  424TMC3    H2 6384   2.667   0.820   1.118  1.9025  2.9111 -1.2727
  424TMC3    C7 6385   2.432   0.907   1.160 -0.0474 -0.1935 -1.0702
  424TMC3    C8 6386   2.813   0.830   0.892  0.2751 -0.6141  0.2709
  424TMC3    O1 6387   2.516   0.918   1.243 -0.6816 -0.1819 -0.1325
  424TMC3    O2 6388   2.878   0.884   0.814 -0.3400  0.2000  0.0997
  425MPD2     C 6389   1.871   0.474  17.031  0.0971 -1.2202  0.5701
  425MPD2    C1 6390   1.751   0.407  17.024  0.5134  0.6673 -0.8251
  425MPD2    C2 6391   1.650   0.465  17.102  0.1909 -0.0322  0.0488
  425MPD2    C3 6392   1.661   0.575  17.171  1.0041  0.6887 -0.3021
  425MPD2    C4 6393   1.781   0.640  17.178  0.6891  0.1692 -0.7719
  425MPD2    C5 6394   1.880   0.595  17.102  0.2135  0.3136 -0.5923
  425MPD2     H 6395   1.550   0.423  17.093 -0.4905  0.9595  3.1247
  425MPD2    H1 6396   1.794   0.730  17.237 -2.3279 -0.2055  0.4655
  425MPD2    H2 6397   1.957   0.431  16.981 -0.0817 -1.5516  0.5429
  425MPD2    H3 6398   1.981   0.635  17.108  0.0139  0.5175  1.2491
  425MPD2     N 6399   1.561   0.601  17.262  1.0318 -0.9088  0.0927
  425MPD2    H5 6400   1.487   0.532  17.271 -0.3512  0.3330 -1.8235
  425MPD2    N1 6401   1.732   0.286  16.957  0.4300 -0.7219  0.5027
  425MPD2    H7 6402   1.813   0.249  16.910 -0.0010 -1.0691  0.0347
  426TMC3    C1 6403   1.660   0.061  16.936 -0.4029  0.7184  0.0811
  426TMC3    C2 6404   1.715   0.053  16.805  0.6755  0.1756 -0.2482
  426TMC3    C3 6405   1.733   4.661  16.754 -0.1380  0.1715  0.6053
  426TMC3    C4 6406   1.602   4.684  16.998  0.6650  0.2537  0.4975
  426TMC3    C5 6407   1.609   4.563  16.929  0.0233  0.7657 -0.3982
  426TMC3    C6 6408   1.677   4.553  16.811  0.1026 -0.6844 -0.9599
  426TMC3     C 6409   1.626   0.196  16.986  0.0243 -0.1315  0.5167
  426TMC3     O 6410   1.536   0.216  17.065  0.2064 -0.4977 -0.0809
  426TMC3     H 6411   1.758   0.142  16.760 -0.6039  0.2617 -1.3058
  426TMC3    H1 6412   1.555   4.693  17.095  1.3109  1.6069  0.6900
  426TMC3    H2 6413   1.684   4.456  16.762  0.8627 -0.8826 -0.4526
  426TMC3    C7 6414   1.508   4.461  16.956  0.7993  0.5860 -0.4908
  426TMC3    C8 6415   1.765   4.644  16.616 -0.5816 -0.0923  0.7021
  426TMC3    O1 6416   1.499   4.377  16.869  0.5111  0.4670 -0.3285
  426TMC3    O2 6417   1.834   4.547  16.596 -0.4682  0.3489  0.0567
  427MPD2     C 6418   0.263   1.985  15.068  0.1101 -0.1553  0.1213
  427MPD2    C1 6419   0.283   2.065  15.174  0.2211  0.4173  0.3700
  427MPD2    C2 6420   0.176   2.146  15.209 -0.0021 -0.6808 -0.5020
  427MPD2    C3 6421   0.059   2.148  15.131 -0.3258  0.1866  0.2750
  427MPD2    C4 6422   0.053   2.085  15.006 -0.4236 -0.3675  0.4640
  427MPD2    C5 6423   0.160   2.011  14.979 -0.7861  0.0841  0.6093
  427MPD2     H 6424   0.175   2.196  15.306 -2.4939 -0.5593 -0.5791
  427MPD2    H1 6425   4.704   2.087  14.938 -0.5067  3.4708  0.6550
  427MPD2    H2 6426   0.339   1.919  15.027  2.0078  0.9987  1.7805
  427MPD2    H3 6427   0.154   1.960  14.883  2.9680  1.0863 -0.1663
  427MPD2     N 6428   4.681   2.217  15.181 -0.2428  0.6180 -0.0735
  427MPD2    H5 6429   4.692   2.264  15.270 -1.7540  0.1949  0.3333
  427MPD2    N1 6430   0.406   2.062  15.238 -0.2661  0.1928 -0.5573
  427MPD2    H7 6431   0.423   2.148  15.290  1.0527 -1.2538  1.4612
  428TMC3    C1 6432   0.577   1.961  15.370 -0.7447  0.7284  0.4029
  428TMC3    C2 6433   0.585   1.853  15.451 -0.1459  0.0501 -0.7890
  428TMC3    C3 6434   0.661   1.867  15.560  0.2675  0.5041 -0.0812
  428TMC3    C4 6435   0.628   2.086  15.403  0.2566  0.2037 -0.2820
  428TMC3    C5 6436   0.700   2.094  15.515  0.7195  0.0337 -0.0121
  428TMC3    C6 6437   0.717   1.984  15.599 -0.8074  0.4420  0.0880
  428TMC3     C 6438   0.476   1.944  15.270  0.1632 -0.3952 -0.2951
  428TMC3     O 6439   0.434   1.835  15.249 -0.0517 -0.6000 -0.0579
  428TMC3     H 6440   0.536   1.759  15.428 -0.4471  0.4441 -1.7898
  428TMC3    H1 6441   0.613   2.168  15.334  0.3626  0.0242 -0.5174
  428TMC3    H2 6442   0.789   1.982  15.680 -1.1484 -0.1338  0.3805
  428TMC3    C7 6443   0.804   2.194  15.528  0.0297  0.0650  0.9240
  428TMC3    C8 6444   0.660   1.764  15.665 -0.3827 -0.3035 -0.7394
  428TMC3    O1 6445   0.838   2.227  15.643 -0.7179  0.6712 -0.0233
  428TMC3    O2 6446   0.671   1.799  15.780 -0.7709  0.1916 -0.3046
  429MPD2     C 6447   0.990   2.850  17.723  1.0432 -0.2857  0.2832
  429MPD2    C1 6448   1.076   2.758  17.668  0.4293  0.6672 -0.8396
  429MPD2    C2 6449   1.177   2.806  17.591  0.3258  0.0170 -0.8007
  429MPD2    C3 6450   1.199   2.947  17.576  0.1480  0.0865 -0.4753
  429MPD2    C4 6451   1.112   3.034  17.638  0.3913  0.2144  0.7935
  429MPD2    C5 6452   1.005   2.985  17.710 -0.0059 -0.2564  0.1069
  429MPD2     H 6453   1.249   2.735  17.553  0.8173  0.2678 -0.3277
  429MPD2    H1 6454   1.121   3.142  17.640 -0.2822  0.3351 -2.0720
  429MPD2    H2 6455   0.895   2.817   0.024  0.1571  0.1774 -1.3561
  429MPD2    H3 6456   0.948   3.055   0.030  1.2113  1.3893 -0.6693
  429MPD2     N 6457   1.309   2.988  17.488  0.5197  0.8449  0.2155
  429MPD2    H5 6458   1.371   2.916  17.454 -2.1798 -1.0732 -0.5735
  429MPD2    N1 6459   1.053   2.619  17.668 -0.2066  0.1055 -0.3549
  429MPD2    H7 6460   1.136   2.565  17.646 -0.4926 -0.1049 -0.9008
  430TMC3    C1 6461   1.435   3.136  17.339 -0.2952  0.7124 -0.7955
  430TMC3    C2 6462   1.407   3.232  17.245 -0.7882  0.3061  0.0324
  430TMC3    C3 6463   1.492   3.242  17.136  0.0296 -0.1599 -0.8239
  430TMC3    C4 6464   1.544   3.051  17.334 -0.3778  0.2759 -0.1707
  430TMC3    C5 6465   1.627   3.078  17.228  0.2916 -0.3238  0.0633
  430TMC3    C6 6466   1.605   3.165  17.119  0.3418 -0.8992 -0.4895
  430TMC3     C 6467   1.325   3.117  17.436 -0.4642  0.0595 -0.3663
  430TMC3     O 6468   1.249   3.212  17.444  0.6637 -0.0809 -0.1304
  430TMC3     H 6469   1.332   3.308  17.264  1.2048  2.2164  0.3350
  430TMC3    H1 6470   1.571   2.983  17.414 -0.5192 -0.6363 -0.8942
  430TMC3    H2 6471   1.665   3.168  17.029 -0.2389 -0.1291 -0.8441
  430TMC3    C7 6472   1.755   3.026  17.237  0.1773 -0.4813  0.3356
  430TMC3    C8 6473   1.423   3.309  17.025  0.0552 -0.1475  0.5973
  430TMC3    O1 6474   1.770   2.925  17.306  0.1504 -0.6285 -0.0203
  430TMC3    O2 6475   1.366   3.411  17.058 -0.0847  0.6854  0.4776
  431MPD2     C 6476   2.248   3.474  12.477  0.4656 -0.8883 -0.6169
  431MPD2    C1 6477   2.332   3.458  12.369  0.1826  0.1173 -0.0630
  431MPD2    C2 6478   2.330   3.337  12.300 -1.0944 -0.5627 -0.4630
  431MPD2    C3 6479   2.239   3.234  12.328  0.0499  0.6053  0.7731
  431MPD2    C4 6480   2.155   3.252  12.436  0.6334 -0.6222  0.2244
  431MPD2    C5 6481   2.161   3.364  12.509  0.0251 -0.5953 -0.0398
  431MPD2     H 6482   2.405   3.322  12.224  3.4757  0.6600  3.7919
  431MPD2    H1 6483   2.087   3.172  12.462 -2.7925  1.7671 -1.2946
  431MPD2    H2 6484   2.253   3.565  12.536  0.3595 -2.9441  2.5847
  431MPD2    H3 6485   2.103   3.369  12.601 -1.7487  1.9793 -1.2956
  431MPD2     N 6486   2.246   3.102  12.260 -0.7691  0.3614  0.3392
  431MPD2    H5 6487   2.188   3.031  12.303 -0.4924  0.6184  1.1263
  431MPD2    N1 6488   2.446   3.543  12.345 -0.2287  0.2525 -0.1173
  431MPD2    H7 6489   2.514   3.514  12.276 -1.2520 -2.1119 -0.1511
  432TMC3    C1 6490   2.374   2.927  12.151  0.1586  0.0909 -0.1262
  432TMC3    C2 6491   2.425   2.905  12.028  0.4076  0.0404  0.2165
  432TMC3    C3 6492   2.519   2.809  12.013  0.4146  0.4330  0.6462
  432TMC3    C4 6493   2.428   2.868  12.263 -0.1988  0.5688 -0.1233
  432TMC3    C5 6494   2.513   2.767  12.248  0.0168 -0.7285  0.3082
  432TMC3    C6 6495   2.569   2.743  12.127  0.0895 -0.0310 -0.3897
  432TMC3     C 6496   2.338   3.070  12.165  0.3270 -0.3140  0.1556
  432TMC3     O 6497   2.367   3.147  12.075  0.2175  0.2828 -0.3174
  432TMC3     H 6498   2.386   2.955  11.940 -1.1832  0.8919  1.4059
  432TMC3    H1 6499   2.411   2.925  12.353  2.0615  0.3022  0.4848
  432TMC3    H2 6500   2.639   2.661  12.116 -0.8797 -0.9070 -0.0995
  432TMC3    C7 6501   2.592   2.722  12.357 -0.2510  0.8690  0.4205
  432TMC3    C8 6502   2.602   2.819  11.892  0.5004  0.7739  0.3346
  432TMC3    O1 6503   2.702   2.685  12.318 -0.4406  0.6546  0.0174
  432TMC3    O2 6504   2.546   2.843  11.785  0.1520  0.1850  0.3872
  433MPD2     C 6505   1.316   1.751  10.355 -0.2896  0.2335 -0.0482
  433MPD2    C1 6506   1.297   1.689  10.477 -0.1679  0.4639 -0.1749
  433MPD2    C2 6507   1.342   1.746  10.594 -0.1262  0.5602 -0.1375
  433MPD2    C3 6508   1.407   1.867  10.592 -0.0139 -0.0767 -0.6252
  433MPD2    C4 6509   1.426   1.928  10.469 -0.2715 -0.7386  0.0837
  433MPD2    C5 6510   1.379   1.872  10.354 -0.5438  0.9236  0.2055
  433MPD2     H 6511   1.331   1.692  10.688 -1.0218  0.4178 -0.3231
  433MPD2    H1 6512   1.488   2.016  10.456 -1.0903 -0.1391  0.2876
  433MPD2    H2 6513   1.248   1.726  10.275  0.8130 -1.7069 -0.3771
  433MPD2    H3 6514   1.387   1.931  10.263  1.9862  0.9905  0.4523
  433MPD2     N 6515   1.463   1.909  10.712 -0.0088 -0.3618 -0.2610
  433MPD2    H5 6516   1.451   1.841  10.786 -2.8946  0.4272  0.0000
  433MPD2    N1 6517   1.226   1.563  10.475 -0.4585 -0.5960  0.3343
  433MPD2    H7 6518   1.199   1.518  10.388  0.8139 -1.8230  0.5638
  434TMC3    C1 6519   1.233   1.334  10.547 -0.3161 -0.2945 -0.2721
  434TMC3    C2 6520   1.325   1.268  10.619 -0.3569 -0.4109 -0.3019
  434TMC3    C3 6521   1.388   1.160  10.568  1.0103 -0.0714 -0.0521
  434TMC3    C4 6522   1.203   1.291  10.420  0.3322  0.4520  0.2475
  434TMC3    C5 6523   1.264   1.184  10.371 -0.1933  0.3138  0.2497
  434TMC3    C6 6524   1.362   1.116  10.438 -0.2442  0.1715  0.6750
  434TMC3     C 6525   1.214   1.477  10.584 -0.3662 -0.7755  0.3661
  434TMC3     O 6526   1.227   1.494  10.706 -0.0509  0.3186 -0.7748
  434TMC3     H 6527   1.351   1.303  10.719  0.6955  0.8411 -1.0077
  434TMC3    H1 6528   1.128   1.347  10.365 -1.2299 -0.1215  1.7664
  434TMC3    H2 6529   1.434   1.052  10.389 -0.2316 -0.2885  1.2939
  434TMC3    C7 6530   1.200   1.119  10.266 -0.3888 -0.0748 -0.4759
  434TMC3    C8 6531   1.514   1.131  10.622  0.6802  0.0679  0.1569
  434TMC3    O1 6532   1.126   1.183  10.191  0.3322  0.4517  0.1786
  434TMC3    O2 6533   1.568   1.216  10.694 -0.3620  0.3284  0.0927
  435MPD2     C 6534   3.142   1.212  15.383  0.9280  0.1195 -0.3643
  435MPD2    C1 6535   3.104   1.198  15.514  0.3444  0.4226 -0.6751
  435MPD2    C2 6536   3.201   1.169  15.611 -0.2362  0.2045  1.0409
  435MPD2    C3 6537   3.336   1.167  15.577 -0.0945  0.6735  0.8100
  435MPD2    C4 6538   3.372   1.187  15.441 -0.5892 -0.3550  0.1084
  435MPD2    C5 6539   3.273   1.200  15.351  0.5393  0.0490  0.1503
  435MPD2     H 6540   3.185   1.152  15.717 -0.6131 -0.7769  0.8270
  435MPD2    H1 6541   3.474   1.167  15.410 -0.9489 -0.7769 -0.7896
  435MPD2    H2 6542   3.072   1.233  15.303 -0.3483 -0.3576  0.6310
  435MPD2    H3 6543   3.306   1.203  15.248  0.8969  0.5550  0.2853
  435MPD2     N 6544   3.425   1.129  15.679  0.2871  0.6956 -0.0322
  435MPD2    H5 6545   3.393   1.110  15.773  1.5540  1.8156  0.6183
  435MPD2    N1 6546   2.967   1.207  15.562 -0.2833  0.6424 -0.0840
  435MPD2    H7 6547   2.952   1.209  15.662  0.0468 -0.2515 -0.0154
  436TMC3    C1 6548   2.623   1.297  15.774 -0.4066  0.8199  0.1153
  436TMC3    C2 6549   2.740   1.272  15.701  0.1516  0.2423 -0.0813
  436TMC3    C3 6550   2.733   1.226  15.571 -0.0694 -0.1044  0.0573
  436TMC3    C4 6551   2.502   1.268  15.718 -0.3293  0.5898 -0.8714
  436TMC3    C5 6552   2.498   1.234  15.581  0.4482  0.2811 -1.0781
  436TMC3    C6 6553   2.611   1.217  15.509  0.1620 -0.4811 -0.8339
  436TMC3     C 6554   2.640   1.347  15.909 -0.0689  0.1373 -0.0171
  436TMC3     O 6555   2.750   1.404  15.926  0.2306 -0.0509  0.2481
  436TMC3     H 6556   2.833   1.262  15.755 -0.9720 -2.9690  1.2716
  436TMC3    H1 6557   2.413   1.258  15.780 -1.2906  0.6961 -2.2241
  436TMC3    H2 6558   2.617   1.185  15.406 -0.7125 -0.9397 -0.7468
  436TMC3    C7 6559   2.364   1.211  15.524 -0.0443 -0.2300 -0.0952
  436TMC3    C8 6560   2.854   1.227  15.490 -0.1024  0.5150 -0.3273
  436TMC3    O1 6561   2.270   1.240  15.596  0.0108  0.6690  0.4830
  436TMC3    O2 6562   2.835   1.232  15.372 -0.7706  0.1842  0.4047
  437TMC3    C1 6563   2.221   4.131  12.251  0.1031  0.3055  0.0326
  437TMC3    C2 6564   2.181   4.229  12.160  0.3439 -0.2621  1.0553
  437TMC3    C3 6565   2.282   4.286  12.096 -0.0488 -0.4870  0.4437
  437TMC3    C4 6566   2.346   4.077  12.259  0.6123  0.4794 -0.8195
  437TMC3    C5 6567   2.438   4.121  12.163 -0.3912 -0.5801  0.1783
  437TMC3    C6 6568   2.408   4.231  12.087  0.2970  0.5561  0.3303
  437TMC3     C 6569   2.119   4.058  12.328 -0.2715  0.9022  0.8344
  437TMC3     O 6570   2.152   3.946  12.361  0.0380 -0.0423  0.5109
  437TMC3     H 6571   2.084   4.276  12.165 -0.5739 -2.3818  3.5878
  437TMC3    H1 6572   2.371   3.998  12.328  1.0199  1.8125  0.5602
  437TMC3    H2 6573   2.483   4.272  12.020  1.3566 -0.6779  0.7700
  437TMC3    C7 6574   2.577   4.099  12.179  0.6271 -0.0931  0.8114
  437TMC3    C8 6575   2.247   4.384  12.001 -0.4383 -0.1792 -0.0545
  437TMC3    O1 6576   2.647   4.138  12.082  0.6370 -0.1527  0.7632
  437TMC3    O2 6577   2.144   4.454  12.014  0.1921 -0.6487 -0.1136
  438MPD2     C 6578   4.167   4.191  16.698 -0.5382  0.2536  0.3490
  438MPD2    C1 6579   4.156   4.064  16.751 -0.3207  0.2520  0.1564
  438MPD2    C2 6580   4.103   4.050  16.882  0.4328  0.6805 -0.5158
  438MPD2    C3 6581   4.052   4.159  16.952  0.3708 -0.6491  0.2163
  438MPD2    C4 6582   4.056   4.279  16.886  0.3131  0.3526  0.0452
  438MPD2    C5 6583   4.102   4.296  16.757  0.4455 -0.1676  0.0487
  438MPD2     H 6584   4.108   3.952  16.929 -1.6827  0.7940 -0.0137
  438MPD2    H1 6585   4.020   4.371  16.931  3.6170  2.3219 -1.3947
  438MPD2    H2 6586   4.199   4.205  16.595  1.3412  1.5756  1.1176
  438MPD2    H3 6587   4.099   4.395  16.712  1.2337 -0.6035 -0.9477
  438MPD2     N 6588   4.016   4.143  17.084 -0.4193 -0.3402 -0.1194
  438MPD2    H5 6589   4.037   4.054  17.128 -3.0234 -1.1288 -0.4235
  438MPD2    N1 6590   4.201   3.948  16.691 -0.4172 -0.0539  0.7386
  438MPD2    H7 6591   4.228   3.867  16.745  2.7212  1.4627  1.4162
  439TMC3    C1 6592   4.269   3.801  16.516  0.1299 -0.1802  0.4799
  439TMC3    C2 6593   4.206   3.738  16.406 -0.2687 -0.3542  0.8616
  439TMC3    C3 6594   4.224   3.606  16.390 -0.6713  0.2472  0.7556
  439TMC3    C4 6595   4.353   3.737  16.605  0.3247  1.1281 -0.1734
  439TMC3    C5 6596   4.363   3.597  16.591 -0.3592  0.1423  0.2445
  439TMC3    C6 6597   4.294   3.534  16.489  0.0082 -0.8239 -0.0772
  439TMC3     C 6598   4.213   3.936  16.556 -0.4310 -0.3685 -0.3591
  439TMC3     O 6599   4.173   4.012  16.468 -0.7585  0.6805 -0.0512
  439TMC3     H 6600   4.142   3.792  16.338 -0.2222 -1.5647 -0.1407
  439TMC3    H1 6601   4.393   3.794  16.688 -0.8584  0.3210  0.9429
  439TMC3    H2 6602   4.289   3.426  16.476  0.6943 -0.9496  0.7392
  439TMC3    C7 6603   4.505   3.569  16.580  0.6066 -0.6599  0.3845
  439TMC3    C8 6604   4.286   3.565  16.264  0.0090  0.2815 -0.6336
  439TMC3    O1 6605   4.578   3.617  16.671  0.4421  0.6774  1.0168
  439TMC3    O2 6606   4.329   3.450  16.248  0.0200 -0.3070  0.4296
  440MPD2     C 6607   2.865   4.489  14.812 -0.5912  0.2378  0.3268
  440MPD2    C1 6608   2.914   4.617  14.796 -0.9254 -0.7461  0.1939
  440MPD2    C2 6609   3.043   4.640  14.765 -0.6262 -0.1280  0.7632
  440MPD2    C3 6610   3.124   4.524  14.754  0.4837  0.4627 -0.2292
  440MPD2    C4 6611   3.075   4.399  14.747  0.2567  0.1542  0.3011
  440MPD2    C5 6612   2.945   4.375  14.784 -0.4133 -0.0451  0.5545
  440MPD2     H 6613   3.082   0.006  14.772  0.8666 -0.4692 -2.5230
  440MPD2    H1 6614   3.140   4.313  14.742 -0.0588 -0.0926  0.4673
  440MPD2    H2 6615   2.769   4.464  14.856 -0.3913 -2.2764 -0.6801
  440MPD2    H3 6616   2.909   4.274  14.795 -0.0116 -0.2140  0.3407
  440MPD2     N 6617   3.266   4.535  14.738 -0.3775 -0.4413 -0.3568
  440MPD2    H5 6618   3.314   4.446  14.732 -0.8585 -0.9147  3.1298
  440MPD2    N1 6619   2.833   4.735  14.808 -0.8009 -0.3802  0.4262
  440MPD2    H7 6620   2.868   0.089  14.775  2.4221 -2.1896 -1.0025
  441TMC3    C1 6621   3.459   4.617  14.844 -0.1175 -0.4340 -0.0201
  441TMC3    C2 6622   3.491   4.719  14.926 -0.0332  0.4862  0.1477
  441TMC3    C3 6623   3.513   4.697  15.056 -0.1219  0.5043  0.5377
  441TMC3    C4 6624   3.463   4.490  14.889 -1.0120 -0.4493  0.2278
  441TMC3    C5 6625   3.491   4.466  15.023 -0.2952  0.7203  0.1477
  441TMC3    C6 6626   3.518   4.569  15.108  0.6847  0.1754 -1.2077
  441TMC3     C 6627   3.342   4.650  14.763  0.9712  0.3796 -0.0207
  441TMC3     O 6628   3.320   0.035  14.747 -0.1148  0.2282  0.6616
  441TMC3     H 6629   3.512   0.085  14.891  3.1534 -0.6869 -1.3301
  441TMC3    H1 6630   3.469   4.408  14.818  0.6296 -1.7654  1.8874
  441TMC3    H2 6631   3.518   4.544  15.213 -0.1982 -0.0812 -1.2755
  441TMC3    C7 6632   3.449   4.345  15.077 -0.4352 -0.5691  0.0709
  441TMC3    C8 6633   3.449   0.055  15.147 -0.0620 -0.3261 -0.2503
  441TMC3    O1 6634   3.471   4.329  15.193  0.4190 -0.3455  0.2255
  441TMC3    O2 6635   3.496   0.056  15.260 -0.1736  0.3584  0.1827
  442MPD2     C 6636   1.327   4.570  16.250  0.8227 -0.6753  0.0078
  442MPD2    C1 6637   1.196   4.526  16.285 -0.0992  0.1591 -0.0578
  442MPD2    C2 6638   1.154   4.397  16.258  0.9711  0.6513 -0.1529
  442MPD2    C3 6639   1.231   4.315  16.183 -0.0820 -0.0312 -0.6460
  442MPD2    C4 6640   1.350   4.365  16.138 -0.3731 -0.1738  0.0347
  442MPD2    C5 6641   1.399   4.487  16.170 -0.0487  0.3300  0.3048
  442MPD2     H 6642   1.057   4.358  16.287  1.0633  1.1277  0.8134
  442MPD2    H1 6643   1.413   4.297  16.082  2.3204  1.5288  1.0137
  442MPD2    H2 6644   1.361   4.673  16.257  0.4975 -0.6371  0.9417
  442MPD2    H3 6645   1.500   4.512  16.138 -0.3317  1.9682  0.7268
  442MPD2     N 6646   1.185   4.189  16.133  0.3468  0.7191 -0.0024
  442MPD2    H5 6647   1.239   4.149  16.057 -0.6011 -1.6226  0.5590
  442MPD2    N1 6648   1.111   4.619  16.354 -0.3379 -0.3644 -0.5797
  442MPD2    H7 6649   1.024   4.583  16.392  0.0027 -1.3021 -0.6768
  443TMC3    C1 6650   1.042   0.090  16.455 -0.4127  0.1467  0.4097
  443TMC3    C2 6651   1.017   0.216  16.416 -0.1739 -0.6895 -0.5106
  443TMC3    C3 6652   0.914   0.282  16.475  0.7639  0.2305 -0.0977
  443TMC3    C4 6653   0.964   0.017  16.542  1.0111 -0.4850 -0.3874
  443TMC3    C5 6654   0.863   0.084  16.595 -0.4617 -0.2901  0.3415
  443TMC3    C6 6655   0.834   0.215  16.563  0.4374  0.1219 -0.4340
  443TMC3     C 6656   1.140   0.017  16.381 -0.2889  0.1771 -0.2298
  443TMC3     O 6657   1.222   0.102  16.338 -0.2744  0.1884  0.4720
  443TMC3     H 6658   1.075   0.268  16.341 -1.4715  0.1100 -0.9653
  443TMC3    H1 6659   0.987   4.652  16.574  3.1368 -0.1741 -0.8845
  443TMC3    H2 6660   0.743   0.262  16.597  1.8680  2.3358  0.2866
  443TMC3    C7 6661   0.764   0.004  16.672 -0.7291 -0.0957  0.0073
  443TMC3    C8 6662   0.853   0.377  16.390 -0.3085  0.0826  0.2036
  443TMC3    O1 6663   0.776   4.619  16.659 -0.6951 -0.2934 -0.0115
  443TMC3    O2 6664   0.905   0.488  16.362 -0.0883  0.1119  0.8163
  444MPD2     C 6665   1.225   4.686  16.762 -1.3866  0.4896  0.4645
  444MPD2    C1 6666   1.150   4.566  16.784  0.2429 -0.0568  0.8299
  444MPD2    C2 6667   1.195   4.458  16.717  0.3314 -0.3150 -1.0350
  444MPD2    C3 6668   1.301   4.461  16.631 -0.7928 -0.1955  0.6059
  444MPD2    C4 6669   1.372   4.581  16.617 -0.1430 -0.6968  0.1315
  444MPD2    C5 6670   1.331   4.694  16.678  0.6284 -0.3765  0.0795
  444MPD2     H 6671   1.138   4.369  16.742  1.7083 -0.6796  0.8624
  444MPD2    H1 6672   1.458   4.587  16.552  0.1851  0.5984  0.6854
  444MPD2    H2 6673   1.209   0.042  16.819  0.9851  1.2738 -0.0910
  444MPD2    H3 6674   1.388   0.051  16.668 -0.6464  0.3217 -0.6857
  444MPD2     N 6675   1.339   4.345  16.569 -0.5274  0.3588 -0.6445
  444MPD2    H5 6676   1.278   4.267  16.589 -0.3126  0.3112 -0.1737
  444MPD2    N1 6677   1.038   4.546  16.860 -0.0612 -0.3163 -0.2204
  444MPD2    H7 6678   1.008   4.450  16.869  0.1536 -0.1014  2.7653
  445TMC3    C1 6679   1.471   4.188  16.448  0.2712  0.3354  0.3298
  445TMC3    C2 6680   1.359   4.111  16.450  0.0712  0.3045 -0.8316
  445TMC3    C3 6681   1.380   3.975  16.466 -0.2820 -0.3339  0.0670
  445TMC3    C4 6682   1.594   4.140  16.448  0.2465 -0.5522 -0.3538
  445TMC3    C5 6683   1.610   4.003  16.430 -0.0827  0.0583 -0.0095
  445TMC3    C6 6684   1.507   3.915  16.453  0.8194 -0.0281 -0.3779
  445TMC3     C 6685   1.456   4.327  16.495 -0.0298  0.3150 -0.1452
  445TMC3     O 6686   1.557   4.396  16.490  0.2093  0.4745  0.8738
  445TMC3     H 6687   1.259   4.154  16.444  0.6680  1.8515  0.3983
  445TMC3    H1 6688   1.676   4.211  16.445 -0.6016  0.4759  0.6252
  445TMC3    H2 6689   1.514   3.807  16.455 -0.3846 -0.1338 -2.3082
  445TMC3    C7 6690   1.744   3.954  16.412  0.1678 -0.1268 -0.2737
  445TMC3    C8 6691   1.275   3.900  16.412 -0.1132  0.7142  0.2902
  445TMC3    O1 6692   1.827   4.040  16.382 -0.0497  0.1712  0.5884
  445TMC3    O2 6693   1.306   3.817  16.330  0.1084  0.0954  0.0066
  446MPD2     C 6694   1.336   0.926  11.113  0.6726  0.4426 -0.4774
  446MPD2    C1 6695   1.309   0.965  10.983  0.5290 -0.3992  0.1324
  446MPD2    C2 6696   1.348   1.093  10.951  0.0839 -0.1297 -0.0004
  446MPD2    C3 6697   1.431   1.164  11.037 -0.4042  0.1764 -0.1783
  446MPD2    C4 6698   1.453   1.125  11.165  1.1115  0.5644 -0.3206
  446MPD2    C5 6699   1.402   1.003  11.203 -0.8508 -0.6875  0.0442
  446MPD2     H 6700   1.331   1.125  10.849  0.3505  0.0213  0.0033
  446MPD2    H1 6701   1.525   1.175  11.229  3.4744 -0.1889 -2.4132
  446MPD2    H2 6702   1.289   0.836  11.148  0.2328  0.4391 -1.0830
  446MPD2    H3 6703   1.426   0.978  11.305  0.0370 -1.6302 -0.3950
  446MPD2     N 6704   1.495   1.278  10.975  0.0227 -0.1187  0.1889
  446MPD2    H5 6705   1.465   1.301  10.880  1.0374  1.0655  0.1488
  446MPD2    N1 6706   1.225   0.892  10.896  0.1351 -0.0880 -0.2415
  446MPD2    H7 6707   1.193   0.941  10.814  2.5392  1.2223 -0.3996
  447TMC3    C1 6708   1.637   1.466  10.950  0.0444 -0.1918  0.4419
  447TMC3    C2 6709   1.592   1.485  10.824  0.3614 -0.4353  0.2911
  447TMC3    C3 6710   1.681   1.543  10.740 -0.0455  0.4348 -1.0808
  447TMC3    C4 6711   1.754   1.518  11.001  0.0960  0.1097  0.4866
  447TMC3    C5 6712   1.837   1.581  10.906  0.1098 -0.3638  0.0255
  447TMC3    C6 6713   1.800   1.598  10.777  0.0749  0.2541 -0.0405
  447TMC3     C 6714   1.584   1.361  11.039  0.3890  1.0293  0.7491
  447TMC3     O 6715   1.638   1.343  11.150  0.5275  0.1400 -0.3318
  447TMC3     H 6716   1.497   1.457  10.781  1.3701  0.8413 -2.7164
  447TMC3    H1 6717   1.783   1.504  11.104 -2.3952 -0.2508  1.1227
  447TMC3    H2 6718   1.871   1.638  10.706 -2.7928  0.4017 -2.8440
  447TMC3    C7 6719   1.977   1.563  10.919  0.1010  0.3471  0.6650
  447TMC3    C8 6720   1.645   1.551  10.593 -0.4519 -0.2580  0.1197
  447TMC3    O1 6721   2.035   1.476  10.854  0.1366  0.4771 -0.0644
  447TMC3    O2 6722   1.566   1.470  10.552 -0.5529 -0.6143  0.2032
  448TMC3    C1 6723   3.940   0.660  16.840 -0.6564 -0.5064  0.8256
  448TMC3    C2 6724   3.930   0.582  16.729  0.9482 -0.3301  0.4636
  448TMC3    C3 6725   3.965   0.449  16.731  0.2274  0.0814  0.3222
  448TMC3    C4 6726   3.993   0.612  16.953 -0.3108  0.7131 -0.0584
  448TMC3    C5 6727   4.027   0.482  16.959 -0.5187  0.1341 -0.1323
  448TMC3    C6 6728   4.009   0.396  16.850 -0.4788  0.1459 -0.5788
  448TMC3     C 6729   3.878   0.789  16.825  0.1334 -0.8820 -0.3320
  448TMC3     O 6730   3.820   0.815  16.722 -0.4575  0.4476  0.0469
  448TMC3     H 6731   3.876   0.621  16.643 -0.1019  0.4263  1.4634
  448TMC3    H1 6732   4.006   0.668  17.044  0.3994 -0.8867  0.8332
  448TMC3    H2 6733   4.028   0.290  16.861  1.7959  0.6528  0.2861
  448TMC3    C7 6734   4.128   0.454  17.059  0.2121  0.0122  0.1294
  448TMC3    C8 6735   3.979   0.375  16.607 -0.3583  0.5262 -0.2705
  448TMC3    O1 6736   4.215   0.537  17.069  0.3821  0.3222  0.7801
  448TMC3    O2 6737   4.007   0.255  16.614 -0.6971  0.3657 -0.1174
  449MPD2     C 6738   1.163   3.800  13.858 -0.0156 -0.3993 -0.6132
  449MPD2    C1 6739   1.070   3.863  13.778  0.7468  0.0714 -0.2403
  449MPD2    C2 6740   0.936   3.848  13.801  0.3462  1.0030 -0.4578
  449MPD2    C3 6741   0.886   3.781  13.914  0.2468 -0.0363  0.2431
  449MPD2    C4 6742   0.982   3.716  13.995  0.3365  0.0458 -0.2494
  449MPD2    C5 6743   1.118   3.721  13.962  0.5522  0.7940  0.1692
  449MPD2     H 6744   0.871   3.903  13.734  2.2159  1.9157 -1.5143
  449MPD2    H1 6745   0.962   3.661  14.086 -2.2557  3.8278  1.4638
  449MPD2    H2 6746   1.269   3.799  13.836 -0.1192 -1.4055 -1.0506
  449MPD2    H3 6747   1.190   3.656  14.010  1.1319  0.7083 -0.7975
  449MPD2     N 6748   0.745   3.788  13.933  0.1213 -0.7423  0.6906
  449MPD2    H5 6749   0.693   3.834  13.859  0.7221 -2.3601 -0.7284
  449MPD2    N1 6750   1.102   3.933  13.661  0.4040  0.2232  0.3229
  449MPD2    H7 6751   1.020   3.958  13.608  0.1210 -0.5438  0.4073
  450TMC3    C1 6752   1.229   4.015  13.477 -0.2246  0.2527 -0.8311
  450TMC3    C2 6753   1.299   4.129  13.480 -1.3581 -0.3824  0.3488
  450TMC3    C3 6754   1.220   4.243  13.474  0.3887  0.7537  0.2389
  450TMC3    C4 6755   1.096   4.020  13.436  0.9021 -0.1887  0.0573
  450TMC3    C5 6756   1.025   4.132  13.423 -0.4363  0.2447 -1.2681
  450TMC3    C6 6757   1.089   4.251  13.446  0.0304  0.2000 -0.8855
  450TMC3     C 6758   1.225   3.959  13.608 -0.0984 -0.5453 -0.4358
  450TMC3     O 6759   1.338   3.938  13.660  0.2452 -0.3513  0.1227
  450TMC3     H 6760   1.401   4.130  13.515 -1.4189  0.2637  0.5105
  450TMC3    H1 6761   1.042   3.928  13.419 -0.4789  1.1232 -2.5571
  450TMC3    H2 6762   1.034   4.344  13.443  0.6477  0.6666  1.6227
  450TMC3    C7 6763   0.891   4.122  13.469  0.2878  0.2387  0.1362
  450TMC3    C8 6764   1.291   4.361  13.436  0.4495 -0.3571  0.7380
  450TMC3    O1 6765   0.857   4.018  13.522  0.1241 -0.2062  0.1581
  450TMC3    O2 6766   1.248   4.476  13.436 -0.8026  0.0417  0.9058
  451MPD2     C 6767   2.823   2.257   1.440 -0.1671  0.1959  0.2751
  451MPD2    C1 6768   2.807   2.293   1.303  0.1171  0.1430  0.4424
  451MPD2    C2 6769   2.874   2.226   1.201  0.2770  0.6177  0.2728
  451MPD2    C3 6770   2.959   2.129   1.233 -0.1705  0.0505  0.1153
  451MPD2    C4 6771   2.974   2.089   1.365 -0.3423  0.0684  0.9070
  451MPD2    C5 6772   2.906   2.152   1.466 -0.9980 -0.1488  0.3307
  451MPD2     H 6773   2.852   2.258   1.099  1.1472 -0.1792 -0.1660
  451MPD2    H1 6774   3.023   1.995   1.385 -2.0194 -0.2212  3.6368
  451MPD2    H2 6775   2.770   2.296   1.526 -0.8196 -0.0554 -0.0126
  451MPD2    H3 6776   2.901   2.110   1.566 -1.8676  1.0835  0.8067
  451MPD2     N 6777   3.026   2.057   1.130 -0.0878  0.2005 -0.1297
  451MPD2    H5 6778   3.067   1.967   1.153  0.2111  0.5885  0.8717
  451MPD2    N1 6779   2.722   2.402   1.276 -0.4983  0.0656 -0.2871
  451MPD2    H7 6780   2.688   2.444   1.362  0.5770 -3.9386  2.0996
  452TMC3    C1 6781   3.048   1.985   0.902  0.6165 -0.0880 -0.1297
  452TMC3    C2 6782   2.980   1.876   0.939 -0.0681  0.3107  0.7706
  452TMC3    C3 6783   2.903   1.818   0.847 -0.1569  0.2787 -0.3071
  452TMC3    C4 6784   3.043   2.030   0.775  0.1289  0.1842 -0.3226
  452TMC3    C5 6785   2.975   1.957   0.681  0.7299  0.3778  0.4966
  452TMC3    C6 6786   2.912   1.847   0.719  0.3234 -0.1278  0.2843
  452TMC3     C 6787   3.031   2.094   0.995  0.0458 -0.7630 -0.7708
  452TMC3     O 6788   3.011   2.208   0.950  0.1524 -0.3141  0.1521
  452TMC3     H 6789   2.980   1.854   1.045  0.7800 -0.5077  0.5912
  452TMC3    H1 6790   3.097   2.120   0.747 -1.1846  1.1512  0.2068
  452TMC3    H2 6791   2.849   1.811   0.638  1.2390  0.0140 -0.4975
  452TMC3    C7 6792   2.883   2.051   0.610 -0.0137  0.5640 -0.1548
  452TMC3    C8 6793   2.768   1.820   0.890 -0.2901 -0.3222 -0.1271
  452TMC3    O1 6794   2.846   2.022   0.497 -0.3835  0.1860  0.0168
  452TMC3    O2 6795   2.693   1.874   0.810 -0.2101  0.4461 -0.8264
  453TMC3    C1 6796   3.603   4.695  11.943 -0.0424 -0.1981 -0.0207
  453TMC3    C2 6797   3.500   4.604  11.963  0.0909 -0.1785  0.3455
  453TMC3    C3 6798   3.370   4.655  11.945 -0.3720  0.6591  0.2008
  453TMC3    C4 6799   3.586   0.091  11.923  0.6557  0.2930  1.0444
  453TMC3    C5 6800   3.451   0.131  11.930 -0.2559  1.3798  0.4315
  453TMC3    C6 6801   3.348   0.049  11.924 -0.0255  0.3001 -0.8645
  453TMC3     C 6802   3.738   4.640  11.955  0.7104 -0.0553 -0.6793
  453TMC3     O 6803   3.831   4.713  11.996  0.0236  0.3547  0.2348
  453TMC3     H 6804   3.515   4.505  12.006 -1.4053 -0.7249 -0.3739
  453TMC3    H1 6805   3.672   0.156  11.931 -0.0642  1.5146 -1.3171
  453TMC3    H2 6806   3.245   0.076  11.904 -0.2106 -0.8469 -1.4849
  453TMC3    C7 6807   3.423   0.271  11.928  0.7069 -0.3728  0.1615
  453TMC3    C8 6808   3.260   4.561  11.940 -0.1618  0.0418  0.0328
  453TMC3    O1 6809   3.531   0.333  11.927  0.1547 -0.0916 -0.1324
  453TMC3    O2 6810   3.145   4.598  11.919  0.2560 -0.1092  0.4191
  454MPD2     C 6811   2.213   3.869  15.589  0.4207 -0.3425  0.4611
  454MPD2    C1 6812   2.079   3.877  15.583  0.3836  0.5881 -0.3815
  454MPD2    C2 6813   2.009   3.993  15.625 -0.5838  0.0903 -0.3580
  454MPD2    C3 6814   2.082   4.102  15.674 -0.1046  0.7532  0.7686
  454MPD2    C4 6815   2.216   4.093  15.674 -0.3977 -0.8697  0.2871
  454MPD2    C5 6816   2.279   3.986  15.629  0.5127 -0.2023  0.1671
  454MPD2     H 6817   1.900   3.997  15.624 -0.6711 -2.4541  1.4403
  454MPD2    H1 6818   2.269   4.183  15.704 -1.4999  0.3452 -1.3432
  454MPD2    H2 6819   2.266   3.783  15.550 -1.4122  0.1589 -3.1477
  454MPD2    H3 6820   2.387   3.984  15.633  0.5331 -0.7643 -0.5914
  454MPD2     N 6821   2.016   4.214  15.723  0.7299 -0.1119 -0.1645
  454MPD2    H5 6822   2.066   4.287  15.772  0.6840  0.0547 -0.3679
  454MPD2    N1 6823   2.002   3.765  15.539 -0.1469  0.1374  0.0847
  454MPD2    H7 6824   1.908   3.799  15.525  0.1821 -0.3678 -3.2905
  455TMC3    C1 6825   1.807   4.263  15.823  0.3999  0.2401 -0.1817
  455TMC3    C2 6826   1.858   4.327  15.928 -0.2219  0.8303 -0.6127
  455TMC3    C3 6827   1.809   4.297  16.053  0.5791 -0.5202 -0.6578
  455TMC3    C4 6828   1.705   4.169  15.830 -0.6473  0.2317 -0.1763
  455TMC3    C5 6829   1.662   4.137  15.955  0.3204 -0.3742  0.5316
  455TMC3    C6 6830   1.717   4.195  16.062  0.0246 -0.3539  0.5195
  455TMC3     C 6831   1.881   4.245  15.698  0.3651  1.0655  0.2290
  455TMC3     O 6832   1.812   4.209  15.606  0.2484 -1.1284  0.8286
  455TMC3     H 6833   1.935   4.402  15.915  0.4916  0.4057  1.1467
  455TMC3    H1 6834   1.662   4.109  15.750 -1.0130  0.4270 -0.1238
  455TMC3    H2 6835   1.700   4.155  16.162  1.1733 -1.5784  0.2278
  455TMC3    C7 6836   1.658   3.995  15.975 -0.0935  0.0685  0.4958
  455TMC3    C8 6837   1.811   4.396  16.155 -0.1209 -0.7236  0.2473
  455TMC3    O1 6838   1.547   3.950  15.990 -0.2275  0.2048 -0.1955
  455TMC3    O2 6839   1.814   4.354  16.269  0.1312  0.2535  0.3288
  456MPD2     C 6840   4.663   4.350  15.526  0.1017  0.8292 -0.2543
  456MPD2    C1 6841   4.624   4.257  15.618  0.2256  0.6738  0.4179
  456MPD2    C2 6842   4.545   4.277  15.730 -0.2660  0.5646 -0.4565
  456MPD2    C3 6843   4.499   4.405  15.746 -0.5721  0.9286 -0.6335
  456MPD2    C4 6844   4.534   4.503  15.650  0.5396 -0.3306 -0.6153
  456MPD2    C5 6845   4.614   4.474  15.542 -0.3674 -0.6585 -0.6061
  456MPD2     H 6846   4.509   4.193  15.788  0.2435  0.2205 -0.6349
  456MPD2    H1 6847   4.513   4.609  15.663  0.9315 -0.2549 -0.6169
  456MPD2    H2 6848   4.717   4.335  15.434 -0.3885  0.5391 -0.4946
  456MPD2    H3 6849   4.627   4.555  15.471 -0.2535 -2.2359 -2.3733
  456MPD2     N 6850   4.432   4.431  15.870 -0.2890  0.4628 -0.4108
  456MPD2    H5 6851   4.441   4.358  15.940 -1.1040  0.6935 -0.0633
  456MPD2    N1 6852   4.678   4.128  15.593  0.4601  0.0137  1.0349
  456MPD2    H7 6853   4.728   4.134  15.505  1.0816  0.1408  1.3919
  457TMC3    C1 6854   4.314   4.563  16.035 -0.0672  0.8668  0.2746
  457TMC3    C2 6855   4.208   4.655  16.053 -0.5804  0.4602 -0.5328
  457TMC3    C3 6856   4.148   4.647  16.173 -0.5091  0.6063 -0.6082
  457TMC3    C4 6857   4.355   4.464  16.127  0.2772  0.4887  0.7934
  457TMC3    C5 6858   4.289   4.469  16.247  0.2036  0.6849 -0.2849
  457TMC3    C6 6859   4.185   4.560  16.266 -0.0076 -0.2337 -0.0310
  457TMC3     C 6860   4.357   4.544  15.895 -0.7589  0.2184  0.2553
  457TMC3     O 6861   4.313   4.615  15.806  0.4501  0.7942 -0.3322
  457TMC3     H 6862   4.181   4.727  15.977 -1.5885 -1.0650 -1.6411
  457TMC3    H1 6863   4.444   4.410  16.097 -0.9902 -1.6698  0.9143
  457TMC3    H2 6864   4.128   4.547  16.357  0.4352  0.0218  0.2772
  457TMC3    C7 6865   4.331   4.397  16.354  0.4101 -0.2290  0.1614
  457TMC3    C8 6866   4.066   0.020  16.220 -0.1894 -0.9050  0.5761
  457TMC3    O1 6867   4.321   4.437  16.466 -0.3585 -0.3710  0.3644
  457TMC3    O2 6868   3.990   0.005  16.316 -0.0778  0.3364  0.4583
  458MPD2     C 6869   2.982   3.947  12.442 -0.1784 -0.1536  0.0450
  458MPD2    C1 6870   2.878   3.944  12.527  0.3213 -0.3384  0.3288
  458MPD2    C2 6871   2.754   3.969  12.476  0.1449 -0.0030 -0.1339
  458MPD2    C3 6872   2.735   4.002  12.344  0.4813 -0.7565 -0.3690
  458MPD2    C4 6873   2.840   4.013  12.257 -0.4326  0.4039 -0.0899
  458MPD2    C5 6874   2.965   3.976  12.308  0.0907  0.0115  0.3046
  458MPD2     H 6875   2.672   3.981  12.546  0.1554  0.2175 -0.1582
  458MPD2    H1 6876   2.842   4.017  12.149 -3.2457  0.2799 -0.1257
  458MPD2    H2 6877   3.084   3.936  12.475 -0.0465 -0.6700 -0.5180
  458MPD2    H3 6878   3.052   3.976  12.244 -0.5236  0.1880 -0.5273
  458MPD2     N 6879   2.609   4.037  12.302  0.4426  0.2617 -0.4971
  458MPD2    H5 6880   2.530   4.018  12.362  1.5393 -0.3759  0.7295
  458MPD2    N1 6881   2.907   3.914  12.662  0.2344 -0.1450  0.1432
  458MPD2    H7 6882   3.003   3.889  12.684  0.5588  1.1321  0.2223
  459TMC3    C1 6883   2.871   3.844  12.889 -0.5355  0.0614  1.1071
  459TMC3    C2 6884   2.997   3.895  12.927 -0.1392 -0.3878 -0.4798
  459TMC3    C3 6885   3.061   3.845  13.037 -0.0665 -0.6895  0.0660
  459TMC3    C4 6886   2.807   3.740  12.950  0.2713 -0.7435 -0.5964
  459TMC3    C5 6887   2.889   3.678  13.041 -0.2851  0.3251  0.0511
  459TMC3    C6 6888   3.007   3.733  13.088 -0.4311 -0.5007 -0.0650
  459TMC3     C 6889   2.814   3.889  12.759 -0.2607  0.5346  0.0182
  459TMC3     O 6890   2.696   3.869  12.737  0.0144  0.1373  0.2049
  459TMC3     H 6891   3.031   3.987  12.881 -0.0408 -0.8275 -1.2940
  459TMC3    H1 6892   2.719   3.692  12.910  0.7212 -2.2190  0.2001
  459TMC3    H2 6893   3.060   3.678  13.165 -1.7913 -1.2815  0.3226
  459TMC3    C7 6894   2.845   3.543  13.083 -0.1781  0.1725 -0.5229
  459TMC3    C8 6895   3.202   3.875  13.058  0.3887  0.0671  0.3340
  459TMC3    O1 6896   2.892   3.490  13.180  0.0159 -0.4919  0.6440
  459TMC3    O2 6897   3.260   3.893  12.949 -0.2114  0.5440  0.3035
  460MPD2     C 6898   1.775   1.827  10.388 -0.2412 -0.5577  0.8455
  460MPD2    C1 6899   1.695   1.716  10.410 -0.5930 -0.1556  0.4122
  460MPD2    C2 6900   1.618   1.666  10.312  0.3796 -0.1673 -0.5447
  460MPD2    C3 6901   1.610   1.736  10.188  0.4140 -0.6962 -0.1572
  460MPD2    C4 6902   1.704   1.837  10.168 -0.4399 -0.1562  0.4102
  460MPD2    C5 6903   1.792   1.870  10.262  0.7745  0.2627 -0.1870
  460MPD2     H 6904   1.560   1.576  10.327 -0.1362  0.8205  3.3810
  460MPD2    H1 6905   1.708   1.905  10.085  0.9847  1.1729  1.5854
  460MPD2    H2 6906   1.841   1.851  10.471  0.7070 -0.5758  0.0982
  460MPD2    H3 6907   1.866   1.949  10.251 -0.4955  1.5223  0.3360
  460MPD2     N 6908   1.517   1.701  10.087  0.3652 -0.4639  0.8010
  460MPD2    H5 6909   1.472   1.614  10.113 -0.0744 -0.0937  1.3026
  460MPD2    N1 6910   1.702   1.669  10.541  0.2009  0.1813 -0.2649
  460MPD2    H7 6911   1.750   1.726  10.610 -1.0092 -0.7085  1.3253
  461TMC3    C1 6912   1.386   1.733   9.883  0.2090  0.0366 -0.2417
  461TMC3    C2 6913   1.353   1.605   9.878  1.1794 -0.9892  0.0786
  461TMC3    C3 6914   1.272   1.576   9.769 -0.3257  0.2088  0.3507
  461TMC3    C4 6915   1.352   1.828   9.788 -0.6580  0.0564  0.3981
  461TMC3    C5 6916   1.295   1.781   9.674  0.3328  0.0268  0.0043
  461TMC3    C6 6917   1.252   1.653   9.661  0.1807 -0.4967  0.1288
  461TMC3     C 6918   1.482   1.783   9.982  0.1776  0.2089 -0.5807
  461TMC3     O 6919   1.518   1.898   9.970 -0.0732 -0.3063 -0.2213
  461TMC3     H 6920   1.366   1.540   9.963  0.7866  0.9430  1.6192
  461TMC3    H1 6921   1.383   1.932   9.795 -0.4751 -0.0217  0.7805
  461TMC3    H2 6922   1.223   1.617   9.562 -0.6044  1.9869 -0.5268
  461TMC3    C7 6923   1.239   1.882   9.584 -0.3062  0.0779 -0.0452
  461TMC3    C8 6924   1.230   1.439   9.751  0.1623  0.2147 -0.0378
  461TMC3    O1 6925   1.168   1.838   9.497  0.3756  0.4903 -0.6701
  461TMC3    O2 6926   1.125   1.418   9.687  0.1402  0.5381 -0.0065
  462TMC3    C1 6927   1.435   2.276  17.631  0.0507 -0.2623 -1.0084
  462TMC3    C2 6928   1.353   2.205  17.553 -0.7721  0.6015  0.1868
  462TMC3    C3 6929   1.385   2.074  17.533  0.5709 -0.8857 -0.7382
  462TMC3    C4 6930   1.544   2.216  17.695 -0.0329  0.4238  0.4840
  462TMC3    C5 6931   1.571   2.082  17.667  0.1628 -0.2092  0.0896
  462TMC3    C6 6932   1.495   2.015  17.577  0.1751  0.3820 -0.6318
  462TMC3     C 6933   1.420   2.414  17.621  0.3220 -0.6380 -0.5494
  462TMC3     O 6934   1.315   2.469  17.595 -0.7537  0.2308 -0.4939
  462TMC3     H 6935   1.270   2.252  17.501  0.0251  0.5206 -1.1651
  462TMC3    H1 6936   1.596   2.273   0.032  1.5819 -0.1600 -0.1662
  462TMC3    H2 6937   1.491   1.907  17.588 -0.0405  0.5998  1.4564
  462TMC3    C7 6938   1.624   1.997   0.039  0.3305 -0.1073  0.7916
  462TMC3    C8 6939   1.302   2.000  17.441 -0.4354 -0.0180 -0.0332
  462TMC3    O1 6940   1.661   1.887   0.003  0.3186  0.1451  0.1198
  462TMC3    O2 6941   1.185   2.030  17.424 -0.1578  0.2254 -0.1630
  463MPD2     C 6942   3.151   4.579   1.526 -1.0846 -0.3812  0.0924
  463MPD2    C1 6943   3.038   4.652   1.560  0.3213  0.2689 -0.1163
  463MPD2    C2 6944   3.051   0.055   1.548 -0.4819  0.2265  0.2043
  463MPD2    C3 6945   3.163   0.118   1.504  0.2414 -0.1775 -0.9545
  463MPD2    C4 6946   3.272   0.040   1.480  0.2960  0.4025  0.7165
  463MPD2    C5 6947   3.267   4.641   1.483  0.5122 -0.2204  0.2462
  463MPD2     H 6948   2.961   0.109   1.575 -1.3888 -1.1258 -0.1038
  463MPD2    H1 6949   3.367   0.085   1.452  0.3790 -0.2906 -0.1386
  463MPD2    H2 6950   3.156   4.470   1.531 -0.0862 -0.2424  2.3989
  463MPD2    H3 6951   3.351   4.581   1.450 -0.2821 -2.4315  2.2538
  463MPD2     N 6952   3.171   0.257   1.471  0.8847  0.1417 -0.1034
  463MPD2    H5 6953   3.255   0.277   1.417 -0.3558  0.7704 -1.7856
  463MPD2    N1 6954   2.917   4.593   1.600  0.1272 -0.0786 -0.1841
  463MPD2    H7 6955   2.839   4.652   1.626  0.7625  0.7508 -0.1467
  464TMC3    C1 6956   2.750   4.433   1.624 -0.2713  0.1061 -0.0394
  464TMC3    C2 6957   2.665   4.537   1.656  0.3886 -0.7835  0.2789
  464TMC3    C3 6958   2.534   4.520   1.605  0.2309 -0.1377 -0.0959
  464TMC3    C4 6959   2.705   4.316   1.564 -0.7660 -0.3749  0.1050
  464TMC3    C5 6960   2.571   4.307   1.517 -0.0501  0.6073 -0.1218
  464TMC3    C6 6961   2.483   4.416   1.534  0.0679 -0.2835  0.5443
  464TMC3     C 6962   2.896   4.464   1.615  0.0762 -0.3104 -0.0241
  464TMC3     O 6963   2.968   4.366   1.595 -0.1939 -0.2551 -0.3805
  464TMC3     H 6964   2.689   4.624   1.716  1.3562  1.0038 -2.6988
  464TMC3    H1 6965   2.777   4.235   1.549  2.1947  1.8368  2.4836
  464TMC3    H2 6966   2.378   4.410   1.509  0.1180  0.7589  0.0557
  464TMC3    C7 6967   2.541   4.196   1.427 -0.2941  0.1515 -0.5334
  464TMC3    C8 6968   2.447   4.637   1.615  0.3096  0.0700  0.2220
  464TMC3    O1 6969   2.624   4.107   1.420 -0.5148 -0.2248  0.3147
  464TMC3    O2 6970   2.367   4.650   1.523 -0.3465  0.4918 -0.0675
  465MPD2     C 6971   3.663   4.188  16.831 -0.1786 -0.3546 -0.4495
  465MPD2    C1 6972   3.528   4.173  16.824 -0.1914 -0.1982 -1.0208
  465MPD2    C2 6973   3.466   4.200  16.706  0.5051  0.4768 -0.0702
  465MPD2    C3 6974   3.529   4.240  16.594  0.5227  0.1373 -0.6769
  465MPD2    C4 6975   3.665   4.248  16.601 -0.6921 -0.2843  0.3370
  465MPD2    C5 6976   3.726   4.226  16.716 -0.4645  0.0195 -0.7253
  465MPD2     H 6977   3.358   4.197  16.696  0.5429  0.0108 -0.3490
  465MPD2    H1 6978   3.734   4.277  16.522 -1.7539 -0.9857 -0.8399
  465MPD2    H2 6979   3.717   4.175  16.924  0.8184  1.3322 -0.7928
  465MPD2    H3 6980   3.834   4.229  16.720 -0.5910  1.8810  1.0927
  465MPD2     N 6981   3.454   4.264  16.481  0.7821  0.2736  0.5467
  465MPD2    H5 6982   3.354   4.255  16.491  0.8731  0.7374  1.7876
  465MPD2    N1 6983   3.448   4.133  16.931 -0.5093  0.1676  0.0576
  465MPD2    H7 6984   3.349   4.132  16.908 -1.0215 -1.1990  2.3002
  466TMC3    C1 6985   3.182   4.314  16.290  0.4693  0.5574  0.3286
  466TMC3    C2 6986   3.188   4.449  16.261 -0.0126  0.4407  0.0171
  466TMC3    C3 6987   3.313   4.496  16.216  0.0369 -0.3703 -0.2832
  466TMC3    C4 6988   3.303   4.246  16.287  0.1278 -0.2953  0.9376
  466TMC3    C5 6989   3.418   4.299  16.248 -0.2089  0.2243  0.0383
  466TMC3    C6 6990   3.427   4.425  16.212  0.0342 -0.2139  0.3542
  466TMC3     C 6991   3.105   4.288  16.404  0.6909  0.2247  0.2242
  466TMC3     O 6992   3.164   4.231  16.496 -0.2500 -0.7675 -0.3538
  466TMC3     H 6993   3.104   4.514  16.281  0.5805  1.3025 -0.3049
  466TMC3    H1 6994   3.307   4.147  16.330  0.6521  0.3110  2.3019
  466TMC3    H2 6995   3.524   4.458  16.178  0.0656 -0.3077  0.3509
  466TMC3    C7 6996   3.516   4.286  16.353  0.1278 -0.5295  0.5429
  466TMC3    C8 6997   3.337   4.632  16.218 -0.2430  0.0717 -0.3151
  466TMC3    O1 6998   3.633   4.305  16.323 -0.1753  0.0919  0.0572
  466TMC3    O2 6999   3.433   4.669  16.146 -0.3551 -0.1418 -0.3586
  467TMC3    C1 7000   4.448   3.166  14.081  0.2913  0.0098 -0.0597
  467TMC3    C2 7001   4.356   3.249  14.011 -0.0085  0.3435 -0.5359
  467TMC3    C3 7002   4.280   3.195  13.912 -0.3112 -0.5703 -0.0789
  467TMC3    C4 7003   4.446   3.025  14.081 -0.1698  0.4819  0.0484
  467TMC3    C5 7004   4.346   2.972  14.000 -0.4801 -0.1920  0.3848
  467TMC3    C6 7005   4.261   3.057  13.919  0.5217 -0.0250 -0.4635
  467TMC3     C 7006   4.574   3.224  14.100  0.1609 -0.3936 -0.2093
  467TMC3     O 7007   4.665   3.162  14.154 -0.6421  0.5678  0.0346
  467TMC3     H 7008   4.345   3.356  14.028  2.4094  0.2251  1.7594
  467TMC3    H1 7009   4.518   2.967  14.138 -0.1616  1.7685  1.3543
  467TMC3    H2 7010   4.196   3.007  13.848  0.2989  0.7004 -0.7658
  467TMC3    C7 7011   4.332   2.829  14.006 -0.2346 -0.4074 -0.2995
  467TMC3    C8 7012   4.323   3.246  13.788 -0.1424  0.3201 -0.5228
  467TMC3    O1 7013   4.442   2.775  13.999  0.1942  0.7649  0.1938
  467TMC3    O2 7014   4.353   3.362  13.782 -0.1910 -0.1780  0.3381
  468MPD2     C 7015   3.276   1.277  10.388 -0.0128 -0.3904  0.2368
  468MPD2    C1 7016   3.382   1.283  10.479  0.0903 -0.4673 -0.2014
  468MPD2    C2 7017   3.436   1.168  10.525 -0.0378 -0.7583  0.4297
  468MPD2    C3 7018   3.374   1.047  10.497 -0.2702 -0.5129 -0.0169
  468MPD2    C4 7019   3.257   1.036  10.424  0.2815 -0.5755 -0.2558
  468MPD2    C5 7020   3.214   1.155  10.362 -0.3260 -0.7511 -0.2330
  468MPD2     H 7021   3.520   1.181  10.593  0.1169 -2.2091  0.5057
  468MPD2    H1 7022   3.203   0.944  10.404  0.1623 -0.0811 -2.1471
  468MPD2    H2 7023   3.246   1.364  10.331  0.3740 -0.8956 -0.7184
  468MPD2    H3 7024   3.123   1.155  10.303  0.1490 -1.2605 -0.9720
  468MPD2     N 7025   3.402   0.929  10.559 -0.2152  0.4041  1.0323
  468MPD2    H5 7026   3.342   0.851  10.533  0.6947  0.1622 -0.3150
  468MPD2    N1 7027   3.426   1.403  10.530  0.3320  0.6783 -0.2244
  468MPD2    H7 7028   3.511   1.410  10.586 -0.0047  1.3847  0.1918
  469TMC3    C1 7029   3.425   1.628  10.586  0.9612  0.1665  0.5132
  469TMC3    C2 7030   3.555   1.639  10.564  0.6392  0.1555  0.2024
  469TMC3    C3 7031   3.626   1.746  10.625  0.4397 -0.7853 -0.2315
  469TMC3    C4 7032   3.362   1.718  10.668 -0.2773 -0.3594  0.3517
  469TMC3    C5 7033   3.436   1.814  10.729 -0.4854  0.1066  0.1329
  469TMC3    C6 7034   3.569   1.833  10.713 -0.4784  0.5683  0.7406
  469TMC3     C 7035   3.351   1.519  10.525 -0.1511  0.1051 -0.0926
  469TMC3     O 7036   3.231   1.542  10.503 -0.2027  0.0478  0.3763
  469TMC3     H 7037   3.611   1.567  10.506  1.6896 -0.6328  2.1821
  469TMC3    H1 7038   3.255   1.707  10.678 -0.8530  4.2915 -0.8771
  469TMC3    H2 7039   3.623   1.903  10.775 -1.9895 -0.3013  3.0088
  469TMC3    C7 7040   3.360   1.909  10.798 -0.2446  0.2142  0.1388
  469TMC3    C8 7041   3.758   1.773  10.573  0.7685  0.6886  0.2674
  469TMC3    O1 7042   3.246   1.922  10.760 -0.1684 -0.5313  0.1668
  469TMC3    O2 7043   3.767   1.816  10.458  0.4425 -0.3649 -0.5376
  470TMC3    C1 7044   1.162   0.926   1.674 -0.0484 -0.0968 -0.0053
  470TMC3    C2 7045   1.188   1.040   1.602  0.5977 -0.1758  0.6141
  470TMC3    C3 7046   1.083   1.095   1.528 -0.1778  0.0497 -0.4073
  470TMC3    C4 7047   1.033   0.866   1.673  0.2607 -0.3424 -0.1225
  470TMC3    C5 7048   0.940   0.929   1.595  0.1379  0.8275 -0.4565
  470TMC3    C6 7049   0.958   1.049   1.529  0.0281 -0.0386 -0.1225
  470TMC3     C 7050   1.281   0.854   1.716 -0.4763 -0.1586 -0.4310
  470TMC3     O 7051   1.380   0.922   1.736  0.1529 -0.0720  0.2043
  470TMC3     H 7052   1.283   1.092   1.609  0.6055 -0.1319  0.1910
  470TMC3    H1 7053   1.004   0.776   1.726 -0.4028  0.0938  0.2485
  470TMC3    H2 7054   0.870   1.086   1.477  0.1872  1.7176  0.8618
  470TMC3    C7 7055   0.805   0.885   1.619  0.3308 -0.3715 -0.3611
  470TMC3    C8 7056   1.125   1.209   1.445  0.4087 -0.6332  0.0993
  470TMC3    O1 7057   0.786   0.762   1.640 -0.4425 -0.6730 -0.0046
  470TMC3    O2 7058   1.220   1.275   1.486  0.0576  0.5573 -0.5206
  471MPD2     C 7059   1.220   3.336  16.565 -0.1783  0.2805 -0.2037
  471MPD2    C1 7060   1.277   3.213  16.573  0.0736  0.1868  0.4279
  471MPD2    C2 7061   1.356   3.183  16.679  0.1929  0.1550 -0.2125
  471MPD2    C3 7062   1.362   3.273  16.780  0.1986 -0.0043  0.5039
  471MPD2    C4 7063   1.311   3.393  16.771 -0.3518 -0.0193 -0.1942
  471MPD2    C5 7064   1.242   3.430  16.663 -0.5610 -0.0549 -0.5039
  471MPD2     H 7065   1.392   3.081  16.690  0.5137  0.4557  1.5550
  471MPD2    H1 7066   1.323   3.472  16.845 -1.4631  0.9696 -1.0495
  471MPD2    H2 7067   1.147   3.367  16.491  0.0409 -0.6505 -0.8146
  471MPD2    H3 7068   1.189   3.524  16.660  0.7203  0.7101  0.4613
  471MPD2     N 7069   1.423   3.234  16.905 -0.4838 -0.0373  0.1503
  471MPD2    H5 7070   1.468   3.143  16.903  1.3049  0.9147 -2.0732
  471MPD2    N1 7071   1.259   3.115  16.477  0.1233  0.0997 -0.3811
  471MPD2    H7 7072   1.325   3.038  16.472 -0.2927 -0.2663 -0.2516
  472TMC3    C1 7073   1.171   3.002  16.299 -0.3492  0.4562  0.1506
  472TMC3    C2 7074   1.096   3.007  16.184 -0.3783 -0.7947  0.0077
  472TMC3    C3 7075   1.071   2.882  16.124  0.5308 -0.1622  0.1164
  472TMC3    C4 7076   1.221   2.883  16.356 -0.0308 -0.0047  0.2641
  472TMC3    C5 7077   1.184   2.772  16.300 -0.0480  0.1458 -0.1050
  472TMC3    C6 7078   1.116   2.767  16.177  0.7188 -0.1595 -0.0785
  472TMC3     C 7079   1.160   3.116  16.380 -0.2260 -0.4367 -0.2562
  472TMC3     O 7080   1.072   3.201  16.356 -0.5461  0.4500 -0.0199
  472TMC3     H 7081   1.051   3.099  16.149  1.1818  0.6904  1.9641
  472TMC3    H1 7082   1.259   2.880  16.457  1.6952  0.7308 -0.3602
  472TMC3    H2 7083   1.100   2.673  16.126 -1.5810 -0.2381  0.7882
  472TMC3    C7 7084   1.158   2.661  16.398  0.5719 -0.6436 -0.8439
  472TMC3    C8 7085   0.941   2.854  16.064 -0.1532  0.0645  0.3667
  472TMC3    O1 7086   1.169   2.684  16.520 -0.1030  0.1995  0.3903
  472TMC3    O2 7087   0.906   2.933  15.977 -0.2246  0.0367  0.2839
  473MPD2     C 7088   1.979   0.287  13.706 -0.1622  0.5026 -0.3232
  473MPD2    C1 7089   1.864   0.357  13.676  0.1801  0.0803  0.6216
  473MPD2    C2 7090   1.839   0.472  13.744  0.3205 -0.1501 -0.3089
  473MPD2    C3 7091   1.908   0.514  13.852  0.8638 -0.1710 -0.2384
  473MPD2    C4 7092   2.024   0.439  13.883 -0.9876  0.1535 -0.1425
  473MPD2    C5 7093   2.058   0.335  13.806  0.2056  0.1007  0.5190
  473MPD2     H 7094   1.745   0.520  13.722 -0.4867 -0.5040  2.3337
  473MPD2    H1 7095   2.097   0.466  13.958 -1.0153  0.5218 -0.2472
  473MPD2    H2 7096   2.010   0.198  13.653 -0.0120  0.2239  0.2326
  473MPD2    H3 7097   2.146   0.280  13.837  0.7847  0.3034 -0.7675
  473MPD2     N 7098   1.901   0.639  13.918  0.7393 -0.3983  0.1048
  473MPD2    H5 7099   1.965   0.659  13.995  1.3243  2.1945 -1.0371
  473MPD2    N1 7100   1.784   0.325  13.560  0.6860  0.7821 -0.7294
  473MPD2    H7 7101   1.698   0.376  13.541 -0.2078 -0.1543  0.7775
  474TMC3    C1 7102   1.817   0.853  13.980  0.6869 -0.5242  0.1451
  474TMC3    C2 7103   1.697   0.924  13.980  0.1644 -0.3197 -0.3510
  474TMC3    C3 7104   1.669   1.004  14.086  0.6827 -0.2843 -0.0258
  474TMC3    C4 7105   1.912   0.860  14.081 -0.2348  0.4230 -0.5276
  474TMC3    C5 7106   1.875   0.945  14.184 -0.0764  0.2421 -0.1502
  474TMC3    C6 7107   1.756   1.015  14.189 -0.3120 -0.0566 -0.4407
  474TMC3     C 7108   1.813   0.744  13.885  0.0557 -0.1049 -0.1579
  474TMC3     O 7109   1.744   0.748  13.784 -0.2978 -0.3669  0.7570
  474TMC3     H 7110   1.634   0.913  13.893  0.6319 -0.5897 -0.6551
  474TMC3    H1 7111   2.010   0.815  14.072  0.7745  2.1295  1.8659
  474TMC3    H2 7112   1.745   1.073  14.280 -2.0636  0.4567 -0.9962
  474TMC3    C7 7113   1.994   0.987  14.263  0.4985 -0.2888 -0.4769
  474TMC3    C8 7114   1.546   1.072  14.084  0.6146 -0.3442 -0.2277
  474TMC3    O1 7115   2.107   0.966  14.213 -0.1956  0.1412  0.0562
  474TMC3    O2 7116   1.461   1.020  14.014 -0.6972  0.0902 -0.5356
  475MPD2     C 7117   0.570   3.478  10.610  0.4195  0.1205  0.2977
  475MPD2    C1 7118   0.636   3.582  10.667 -0.5536 -0.3526  0.5211
  475MPD2    C2 7119   0.563   3.670  10.752 -0.1650  0.1133  0.5277
  475MPD2    C3 7120   0.422   3.665  10.761  0.7443 -0.3436 -0.4100
  475MPD2    C4 7121   0.363   3.550  10.711  0.2646  0.0488 -0.1622
  475MPD2    C5 7122   0.434   3.457  10.636 -0.1656  0.1999 -0.1219
  475MPD2     H 7123   0.610   3.757  10.794 -1.7515  0.3401  1.8035
  475MPD2    H1 7124   0.257   3.526  10.719  0.2938 -0.8949 -2.7328
  475MPD2    H2 7125   0.629   3.400  10.563 -0.5018 -0.6667  0.4306
  475MPD2    H3 7126   0.376   3.371  10.605 -0.2152  0.6986 -1.4208
  475MPD2     N 7127   0.356   3.764  10.842  0.7107 -0.3657  0.2843
  475MPD2    H5 7128   0.421   3.840  10.858 -0.1764  0.3669  0.3982
  475MPD2    N1 7129   0.778   3.595  10.654 -0.0118 -0.1784 -0.6795
  475MPD2    H7 7130   0.829   3.648  10.724 -0.1891  0.7324 -1.2295
  476TMC3    C1 7131   0.969   3.627  10.537 -0.5216  0.3622  0.1207
  476TMC3    C2 7132   0.930   3.722  10.450 -0.2609 -0.8520 -0.5345
  476TMC3    C3 7133   0.926   3.854  10.492  0.6844 -0.1024 -0.6728
  476TMC3    C4 7134   1.020   3.664  10.660  0.1714 -0.1024 -0.2513
  476TMC3    C5 7135   1.013   3.793  10.705 -0.3230 -0.7882 -0.3271
  476TMC3    C6 7136   0.975   3.891  10.615  0.3497 -0.3414  0.4059
  476TMC3     C 7137   0.857   3.541  10.550  0.4302 -0.0286  0.0445
  476TMC3     O 7138   0.812   3.494  10.448  0.1255  0.4303  0.0586
  476TMC3     H 7139   0.895   3.696  10.351 -1.4463  2.6151 -1.0363
  476TMC3    H1 7140   1.064   3.584  10.718  0.8918  1.8714  1.9314
  476TMC3    H2 7141   0.973   3.995  10.647 -1.9122 -0.2191 -0.1291
  476TMC3    C7 7142   0.953   3.799  10.832 -0.1532  0.1137  0.3691
  476TMC3    C8 7143   0.815   3.939  10.451 -0.2313 -0.6152 -0.3845
  476TMC3    O1 7144   0.907   3.694  10.873 -0.3177 -0.2379 -0.6736
  476TMC3    O2 7145   0.824   4.061  10.464  0.3485 -0.5838  0.4531
  477MPD2     C 7146   2.216   1.238  11.752  0.5409 -0.4158  0.2312
  477MPD2    C1 7147   2.168   1.107  11.731  0.4128  0.0891  0.2294
  477MPD2    C2 7148   2.192   1.010  11.826  0.5264  0.1655 -0.5776
  477MPD2    C3 7149   2.250   1.047  11.946  0.8258 -0.5392 -0.3836
  477MPD2    C4 7150   2.294   1.174  11.961 -0.0157 -0.0176 -0.1572
  477MPD2    C5 7151   2.282   1.267  11.866  0.0698 -0.0172  0.0991
  477MPD2     H 7152   2.159   0.907  11.829  2.1333 -0.3613 -0.9839
  477MPD2    H1 7153   2.337   1.202  12.057 -0.7703 -3.3572  1.1674
  477MPD2    H2 7154   2.198   1.320  11.684  1.1211  1.5750  2.4583
  477MPD2    H3 7155   2.324   1.365  11.886 -1.3617  0.1768  2.0940
  477MPD2     N 7156   2.256   0.954  12.050 -0.0553 -0.3735  0.1948
  477MPD2    H5 7157   2.226   0.860  12.026 -0.4782  0.4246 -2.3236
  477MPD2    N1 7158   2.074   1.092  11.629 -0.0265 -0.6382  0.1041
  477MPD2    H7 7159   2.039   1.175  11.584 -2.7438 -1.1508  1.3142
  478TMC3    C1 7160   1.920   0.986  11.486  0.6929  0.5596 -0.1048
  478TMC3    C2 7161   1.869   1.110  11.497  0.1292  0.0519  0.2027
  478TMC3    C3 7162   1.846   1.189  11.384 -0.1619  0.1661 -0.0594
  478TMC3    C4 7163   1.934   0.929  11.366  0.0814 -0.0169 -0.3145
  478TMC3    C5 7164   1.889   1.000  11.257 -0.1113  0.0031 -0.0391
  478TMC3    C6 7165   1.866   1.133  11.262 -0.9820  0.1995  0.4495
  478TMC3     C 7166   2.027   0.967  11.583 -0.2248 -0.1284  0.4508
  478TMC3     O 7167   2.089   0.858  11.582 -0.3007 -0.4921 -0.5288
  478TMC3     H 7168   1.855   1.164  11.590 -0.2865  0.0253  0.1576
  478TMC3    H1 7169   1.972   0.828  11.365 -2.3797 -0.9574 -0.5766
  478TMC3    H2 7170   1.842   1.182  11.169 -1.3883 -0.2413  0.3243
  478TMC3    C7 7171   1.870   0.917  11.137 -0.7057  0.9201  0.5095
  478TMC3    C8 7172   1.899   1.316  11.411 -0.2039  0.0031 -0.6755
  478TMC3    O1 7173   1.914   0.803  11.144  0.1208 -0.6010 -0.1372
  478TMC3    O2 7174   1.994   1.327  11.486  0.0066 -0.3401 -0.2257
  479MPD2     C 7175   1.071   2.296  15.304 -0.0426 -0.0940 -0.4346
  479MPD2    C1 7176   0.990   2.297  15.416  0.4768  0.0437  0.3161
  479MPD2    C2 7177   1.023   2.394  15.511  0.5586 -0.2933  0.1328
  479MPD2    C3 7178   1.112   2.497  15.487  0.0617  0.4269 -0.6803
  479MPD2    C4 7179   1.188   2.492  15.375 -0.1248 -0.4331 -0.3276
  479MPD2    C5 7180   1.167   2.393  15.287  0.1549 -0.4291  0.0341
  479MPD2     H 7181   0.976   2.390  15.609 -0.9221  1.4454 -0.5152
  479MPD2    H1 7182   1.257   2.573  15.359  0.4882 -0.8265  0.3380
  479MPD2    H2 7183   1.060   2.223  15.224  0.6066 -1.1483  0.4329
  479MPD2    H3 7184   1.224   2.393  15.194 -0.3009  0.7094 -0.2421
  479MPD2     N 7185   1.144   2.599  15.585 -0.0041  0.1749  0.1788
  479MPD2    H5 7186   1.226   2.657  15.571  1.6519 -1.4042  3.3712
  479MPD2    N1 7187   0.883   2.209  15.418 -0.2743 -0.3388  0.2408
  479MPD2    H7 7188   0.863   2.147  15.341  2.6788  0.5623 -1.2447
  480TMC3    C1 7189   0.749   2.554  15.818 -0.8476 -0.9496 -0.5167
  480TMC3    C2 7190   0.666   2.582  15.710 -0.1085 -0.3684  0.2059
  480TMC3    C3 7191   0.730   2.625  15.598  1.2562  0.3152  0.4107
  480TMC3    C4 7192   0.886   2.579  15.819 -0.2856  0.2170  0.5286
  480TMC3    C5 7193   0.937   2.619  15.701  0.0605  0.0708  0.1302
  480TMC3    C6 7194   0.864   2.645  15.589 -0.2810 -0.3928 -0.1010
  480TMC3     C 7195   0.715   2.440  15.908 -0.0702  0.1068  0.0116
  480TMC3     O 7196   0.816   2.400  15.970 -0.3584  0.1283  0.0689
  480TMC3     H 7197   0.559   2.566  15.707 -0.1534  0.0640 -0.4321
  480TMC3    H1 7198   0.951   2.568  15.904  1.6373  1.4707 -0.7898
  480TMC3    H2 7199   0.909   2.692  15.503 -1.3421  2.6143  1.0015
  480TMC3    C7 7200   1.079   2.641  15.696  0.5974  0.3068 -0.4576
  480TMC3    C8 7201   0.638   2.640  15.483 -0.1126 -0.5142 -0.0394
  480TMC3    O1 7202   1.140   2.699  15.784 -0.2456 -0.3500 -0.3748
  480TMC3    O2 7203   0.536   2.575  15.478 -0.5001  0.0873  0.1338
  481MPD2     C 7204   2.665   2.341  14.184  0.6674 -0.4505 -0.0914
  481MPD2    C1 7205   2.596   2.233  14.225 -0.4129 -0.4335 -0.0942
  481MPD2    C2 7206   2.578   2.201  14.360 -0.1654 -1.5806  0.2769
  481MPD2    C3 7207   2.634   2.292  14.446 -0.0164 -0.1348  0.6441
  481MPD2    C4 7208   2.700   2.399  14.398 -0.0045 -0.6023 -0.0494
  481MPD2    C5 7209   2.708   2.430  14.265  0.1807 -0.3489 -0.0081
  481MPD2     H 7210   2.524   2.116  14.401 -3.4254  0.6272  0.5730
  481MPD2    H1 7211   2.735   2.478  14.463  1.1995 -0.7745 -0.4749
  481MPD2    H2 7212   2.682   2.365  14.080 -1.2274  0.4073 -0.2019
  481MPD2    H3 7213   2.756   2.518  14.226 -0.5647 -0.0609 -0.2651
  481MPD2     N 7214   2.621   2.273  14.585 -0.5610 -0.2218 -0.2912
  481MPD2    H5 7215   2.672   2.334  14.648 -1.7536  0.2568  0.2149
  481MPD2    N1 7216   2.553   2.140  14.127  0.1223 -0.6156  0.6933
  481MPD2    H7 7217   2.576   2.165  14.031  0.0988 -3.4650 -0.0661
  482TMC3    C1 7218   2.467   1.941  14.036  0.6036 -0.0241  0.4139
  482TMC3    C2 7219   2.504   1.809  14.057 -0.8414 -0.7349 -0.1465
  482TMC3    C3 7220   2.447   1.712  13.982 -0.1187  0.0478 -0.0448
  482TMC3    C4 7221   2.364   1.970  13.961 -0.0410 -1.3330 -0.2454
  482TMC3    C5 7222   2.311   1.868  13.880 -0.5072 -0.1146  0.3539
  482TMC3    C6 7223   2.344   1.735  13.897  0.4124 -0.1674 -0.5933
  482TMC3     C 7224   2.488   2.023  14.155 -0.3483 -0.2633  0.4979
  482TMC3     O 7225   2.458   1.969  14.258 -0.5783  0.1611 -0.5756
  482TMC3     H 7226   2.590   1.789  14.119 -1.7395 -0.4700  1.1920
  482TMC3    H1 7227   2.341   2.076  13.955  1.7132 -0.9605 -0.2909
  482TMC3    H2 7228   2.304   1.654  13.837 -1.2359 -0.5989  1.1055
  482TMC3    C7 7229   2.223   1.896  13.772 -0.2401  0.4283 -0.0760
  482TMC3    C8 7230   2.526   1.598  13.944 -0.4254 -0.1899 -0.2138
  482TMC3    O1 7231   2.170   1.800  13.723  0.0764  0.3272 -0.2979
  482TMC3    O2 7232   2.461   1.503  13.901 -0.1733  0.2318 -0.1403
  483TMC3    C1 7233   0.982   0.639   1.042  0.7205 -0.5018  0.8030
  483TMC3    C2 7234   1.083   0.723   0.984  0.7867  0.2777  0.4892
  483TMC3    C3 7235   1.212   0.677   0.987 -0.5262 -0.9323 -0.3556
  483TMC3    C4 7236   1.011   0.516   1.096 -0.0898  0.0485  0.0462
  483TMC3    C5 7237   1.143   0.475   1.091  0.0560  0.1422  0.2151
  483TMC3    C6 7238   1.240   0.546   1.032  0.3072 -0.7742 -0.3611
  483TMC3     C 7239   0.850   0.677   1.010  0.4124 -0.4158  0.3464
  483TMC3     O 7240   0.828   0.794   0.967  0.1706 -0.3778  0.0435
  483TMC3     H 7241   1.064   0.823   0.945  1.3604  1.3826  3.0756
  483TMC3    H1 7242   0.935   0.464   1.154 -0.4204  0.3212 -0.1452
  483TMC3    H2 7243   1.339   0.510   1.008 -0.4752 -1.4691 -2.5291
  483TMC3    C7 7244   1.172   0.347   1.147  0.3177  0.3658  0.5089
  483TMC3    C8 7245   1.319   0.766   0.940 -0.4765 -0.2892 -0.1418
  483TMC3    O1 7246   1.078   0.268   1.133 -0.1131  0.3199 -0.2395
  483TMC3    O2 7247   1.277   0.872   0.892 -0.6036 -0.0017 -0.1304
  484MPD2     C 7248   3.415   3.877  13.355  0.1612  0.5372 -0.6706
  484MPD2    C1 7249   3.385   3.879  13.221 -0.3230 -0.3914  0.4676
  484MPD2    C2 7250   3.489   3.891  13.134 -0.1102 -0.3935  0.5409
  484MPD2    C3 7251   3.625   3.886  13.181  0.3898  0.6561  1.0104
  484MPD2    C4 7252   3.644   3.870  13.312 -0.0337  0.3097  0.7436
  484MPD2    C5 7253   3.543   3.873  13.404  0.4231 -0.1768  0.2430
  484MPD2     H 7254   3.470   3.907  13.029 -1.4658  0.6782  0.9596
  484MPD2    H1 7255   3.747   3.876  13.344  0.0801 -0.1528  0.4747
  484MPD2    H2 7256   3.334   3.870  13.427  0.9341  1.9837  0.3494
  484MPD2    H3 7257   3.563   3.860  13.510  0.5564 -0.6702  0.1560
  484MPD2     N 7258   3.740   3.888  13.095 -0.0439 -0.3819  0.1712
  484MPD2    H5 7259   3.826   3.849  13.133 -0.1539  0.6782  1.5024
  484MPD2    N1 7260   3.250   3.874  13.189 -0.3543 -0.1141 -0.4245
  484MPD2    H7 7261   3.188   3.863  13.269  0.4418  0.5644  0.2914
  485TMC3    C1 7262   3.874   3.939  12.888 -0.1830  0.0676  0.3246
  485TMC3    C2 7263   3.981   3.864  12.937 -0.6576 -0.2325  0.3295
  485TMC3    C3 7264   4.098   3.873  12.870  0.3340  0.3146  1.0988
  485TMC3    C4 7265   3.884   4.006  12.767  0.2072  0.8910 -0.6061
  485TMC3    C5 7266   4.008   4.018  12.708 -0.2335  0.5253  0.0900
  485TMC3    C6 7267   4.119   3.962  12.769 -0.5572  0.2533  0.6290
  485TMC3     C 7268   3.741   3.945  12.966  0.2943  0.1895  0.3640
  485TMC3     O 7269   3.653   4.004  12.904  0.4378  0.2416  0.1692
  485TMC3     H 7270   3.962   3.807  13.028  0.6723  0.5869  1.1316
  485TMC3    H1 7271   3.800   4.061  12.727  0.1398  1.1656 -0.0807
  485TMC3    H2 7272   4.214   3.965  12.717 -0.1763 -1.2798  1.2237
  485TMC3    C7 7273   4.010   3.974  12.574 -0.3343 -0.8382  0.4667
  485TMC3    C8 7274   4.160   3.751  12.839 -0.7669 -0.4012  0.0909
  485TMC3    O1 7275   4.101   4.011  12.508 -0.0343  0.1260  0.3253
  485TMC3    O2 7276   4.279   3.764  12.814 -0.4575 -0.5062 -0.8004
  486MPD2     C 7277   0.698   3.303  13.215  0.6038 -0.3148 -0.1066
  486MPD2    C1 7278   0.746   3.275  13.091 -0.2083  0.0055 -0.1779
  486MPD2    C2 7279   0.729   3.363  12.993  0.6873 -0.1474 -0.5173
  486MPD2    C3 7280   0.666   3.487  13.021 -0.0319  0.6206  0.3093
  486MPD2    C4 7281   0.617   3.513  13.148  0.6598  0.5223  0.2448
  486MPD2    C5 7282   0.638   3.420  13.244  0.1049 -0.3560 -0.2938
  486MPD2     H 7283   0.761   3.346  12.891  2.0401 -0.4075 -0.0507
  486MPD2    H1 7284   0.549   3.594  13.174  1.2620  1.2063 -0.3074
  486MPD2    H2 7285   0.721   3.243  13.303  0.6243  0.4767  0.4328
  486MPD2    H3 7286   0.605   3.434  13.346  1.6533  0.0392  0.1583
  486MPD2     N 7287   0.658   3.585  12.924  0.0400 -0.1549  0.6761
  486MPD2    H5 7288   0.680   3.554  12.830 -1.9451 -1.7288  0.7336
  486MPD2    N1 7289   0.831   3.166  13.080 -0.4950 -0.2375 -0.2486
  486MPD2    H7 7290   0.854   3.113  13.163 -0.7563 -0.6624 -0.4461
  487TMC3    C1 7291   0.968   2.996  13.013 -0.8462  0.7781  0.0337
  487TMC3    C2 7292   0.960   2.890  12.934  0.5151  0.4931  0.4139
  487TMC3    C3 7293   1.006   2.768  12.975  0.1256  0.1441  0.2422
  487TMC3    C4 7294   1.021   2.981  13.139 -0.6469  0.1413  0.2768
  487TMC3    C5 7295   1.065   2.860  13.178 -0.3854 -0.5361  0.1651
  487TMC3    C6 7296   1.067   2.752  13.091  0.4688 -0.2477  0.9634
  487TMC3     C 7297   0.883   3.103  12.973 -0.4190 -1.1375  0.0137
  487TMC3     O 7298   0.855   3.128  12.856  0.1385 -0.2549 -0.0211
  487TMC3     H 7299   0.914   2.897  12.836 -2.0987  0.0547  1.5963
  487TMC3    H1 7300   1.020   3.067  13.206  2.0958  1.3092 -1.1908
  487TMC3    H2 7301   1.083   2.652  13.128 -1.6488 -0.5269  1.0734
  487TMC3    C7 7302   1.069   2.822  13.318 -0.3900 -0.3040 -0.0788
  487TMC3    C8 7303   0.925   2.661  12.925 -0.4347  0.3943 -0.4347
  487TMC3    O1 7304   1.036   2.707  13.335 -0.4960 -0.4192  0.8964
  487TMC3    O2 7305   0.810   2.664  12.877 -0.0525  0.7320  0.0189
  488MPD2     C 7306   0.542   4.107  16.071 -0.3204 -0.4562 -0.0299
  488MPD2    C1 7307   0.511   4.228  16.126  0.1165  0.9792 -0.0420
  488MPD2    C2 7308   0.465   4.232  16.256 -0.5838  0.6091 -1.2046
  488MPD2    C3 7309   0.460   4.120  16.338  0.4218  0.2686  0.3661
  488MPD2    C4 7310   0.495   3.995  16.281  0.6927 -0.5762 -1.2222
  488MPD2    C5 7311   0.541   3.996  16.151 -0.1740  0.4695 -0.8584
  488MPD2     H 7312   0.442   4.332  16.292 -1.9867 -0.6851  1.5281
  488MPD2    H1 7313   0.475   3.901  16.330 -1.6673  0.0557 -0.9890
  488MPD2    H2 7314   0.569   4.098  15.967  1.7776 -1.5678  0.6129
  488MPD2    H3 7315   0.572   3.904  16.103  0.4329 -0.6734  1.7440
  488MPD2     N 7316   0.408   4.128  16.471 -0.9038 -0.2306  0.1185
  488MPD2    H5 7317   0.388   4.223  16.502  0.7392  0.0811  0.2309
  488MPD2    N1 7318   0.519   4.350  16.056  0.4649  1.3013  0.2745
  488MPD2    H7 7319   0.477   4.430  16.102 -0.3716  1.1995 -0.3005
  489TMC3    C1 7320   0.297   4.072  16.659  1.0028 -0.4359  0.0226
  489TMC3    C2 7321   0.307   4.207  16.676 -0.1152 -0.0796  0.5277
  489TMC3    C3 7322   0.335   4.253  16.798 -0.3805  0.6740  0.0088
  489TMC3    C4 7323   0.315   3.992  16.762 -0.8732 -0.3194  0.6474
  489TMC3    C5 7324   0.347   4.040  16.884  0.2544 -0.8739 -0.2604
  489TMC3    C6 7325   0.351   4.174  16.906 -0.1696  1.5455  0.3310
  489TMC3     C 7326   0.369   4.026  16.548 -0.5382  0.4869  0.3325
  489TMC3     O 7327   0.366   3.907  16.525  0.2836 -0.0696  0.0526
  489TMC3     H 7328   0.281   4.271  16.593  0.9772  1.3476  1.2849
  489TMC3    H1 7329   0.297   3.886  16.744  0.2643 -0.3807 -0.1464
  489TMC3    H2 7330   0.367   4.212  17.006  1.8813  2.2638 -0.2797
  489TMC3    C7 7331   0.354   3.955  17.002  0.2588 -0.9086 -1.4308
  489TMC3    C8 7332   0.399   4.381  16.784  0.3668 -0.6081  1.2772
  489TMC3    O1 7333   0.375   4.015  17.111  0.1695 -0.6370 -0.0005
  489TMC3    O2 7334   0.440   4.409  16.674  0.1346 -0.2556 -0.0353
  490MPD2     C 7335   0.975   3.607  16.814 -0.2678  0.6880  0.2064
  490MPD2    C1 7336   1.011   3.602  16.944  0.1095  0.5805  0.0322
  490MPD2    C2 7337   1.071   3.708  17.010  0.4624  0.2276  0.2650
  490MPD2    C3 7338   1.113   3.817  16.929  0.4823  0.4957 -0.0613
  490MPD2    C4 7339   1.084   3.821  16.797 -0.2818 -0.4676  0.1384
  490MPD2    C5 7340   1.010   3.722  16.744  0.0443  0.2953 -0.2249
  490MPD2     H 7341   1.111   3.696  17.110 -2.2265 -1.5171  1.1280
  490MPD2    H1 7342   1.121   3.893  16.725  2.8064 -2.4140 -0.2363
  490MPD2    H2 7343   0.914   3.535  16.761  0.2479  3.1288 -3.6993
  490MPD2    H3 7344   0.980   3.721  16.640  2.4430 -2.3758 -0.8833
  490MPD2     N 7345   1.181   3.930  16.987  0.3611  0.0519 -0.1313
  490MPD2    H5 7346   1.212   4.008  16.931 -1.1050 -0.9528 -2.3743
  490MPD2    N1 7347   1.011   3.482  17.014  0.1460 -0.2172  0.2498
  490MPD2    H7 7348   1.014   3.499  17.114  0.2728 -0.2440  0.2507
  491TMC3    C1 7349   0.994   3.258  17.056 -0.3462 -0.0547 -0.3855
  491TMC3    C2 7350   0.914   3.289  17.162 -0.0216  0.2953  0.4426
  491TMC3    C3 7351   0.915   3.192  17.263  0.2034 -0.5650 -0.2225
  491TMC3    C4 7352   1.075   3.153  17.039 -0.5778 -0.2974 -0.3104
  491TMC3    C5 7353   1.090   3.071  17.150  0.1825 -0.2286  0.7157
  491TMC3    C6 7354   1.008   3.089  17.263  0.6884  0.6083 -0.0871
  491TMC3     C 7355   0.993   3.359  16.958  0.7841 -0.9292  0.3019
  491TMC3     O 7356   0.995   3.318  16.847 -0.3721 -0.0327  0.0348
  491TMC3     H 7357   0.842   3.370  17.160  0.5231  0.6933 -2.6034
  491TMC3    H1 7358   1.145   3.140  16.958  0.0939 -0.8067  0.3536
  491TMC3    H2 7359   1.015   3.022  17.347 -2.0971 -0.0780 -0.3887
  491TMC3    C7 7360   1.171   2.946  17.139  0.3665  0.2763 -0.1099
  491TMC3    C8 7361   0.794   3.185  17.342  0.5757  0.1909 -0.3437
  491TMC3    O1 7362   1.275   2.954  17.075  0.1740 -0.4555  0.3228
  491TMC3    O2 7363   0.719   3.283  17.333  0.1045 -0.1328 -0.0558
  492MPD2     C 7364   1.883   4.256  12.001  0.5545 -0.2372  0.3301
  492MPD2    C1 7365   1.931   4.155  11.925 -0.7234  0.0161  0.4671
  492MPD2    C2 7366   1.878   4.028  11.935 -0.0447 -0.1037  0.1929
  492MPD2    C3 7367   1.777   4.011  12.030  0.0331  0.0517 -0.1551
  492MPD2    C4 7368   1.730   4.115  12.109 -0.2631  0.2514 -0.0424
  492MPD2    C5 7369   1.790   4.237  12.096 -0.0226 -0.3422 -0.5787
  492MPD2     H 7370   1.919   3.946  11.877  1.6202  0.4152  0.6356
  492MPD2    H1 7371   1.652   4.099  12.183 -0.9473  1.1580 -0.5704
  492MPD2    H2 7372   1.932   4.352  11.999  0.1770 -0.0708 -1.6572
  492MPD2    H3 7373   1.756   4.313  12.165  1.6949  0.2734 -0.4005
  492MPD2     N 7374   1.719   3.884  12.057 -0.2041 -0.1908  1.5838
  492MPD2    H5 7375   1.655   3.879  12.136 -0.1052 -0.1406  1.6661
  492MPD2    N1 7376   2.023   4.197  11.823  0.1719  0.1729  0.3262
  492MPD2    H7 7377   2.045   4.296  11.811 -1.9320  1.0459  3.6090
  493TMC3    C1 7378   2.094   4.210  11.600 -0.0790  0.2402 -0.1817
  493TMC3    C2 7379   2.031   4.335  11.602  0.0775 -0.2708  0.4199
  493TMC3    C3 7380   2.005   4.389  11.478  0.4053 -0.0524 -0.0734
  493TMC3    C4 7381   2.112   4.141  11.484 -0.2103 -0.1784  0.4246
  493TMC3    C5 7382   2.080   4.201  11.365  0.3573  0.2976 -0.1174
  493TMC3    C6 7383   2.018   4.327  11.362 -0.1219 -0.4511  0.2606
  493TMC3     C 7384   2.071   4.126  11.718  0.3294  0.3754  0.9530
  493TMC3     O 7385   2.061   4.004  11.697 -0.1155  0.2591  0.2396
  493TMC3     H 7386   2.000   4.386  11.693  1.4799  1.3965 -0.0286
  493TMC3    H1 7387   2.159   4.043  11.482  0.6129  0.1611  3.7766
  493TMC3    H2 7388   1.998   4.361  11.261 -3.8573  0.9979  1.4760
  493TMC3    C7 7389   2.076   4.111  11.250  0.3177 -0.3314  0.2030
  493TMC3    C8 7390   1.932   4.511  11.478  0.1320 -0.3993 -0.2265
  493TMC3    O1 7391   1.999   4.146  11.159 -0.1587  0.0354  0.2432
  493TMC3    O2 7392   1.863   4.534  11.578 -0.3164  0.1679 -0.3802
  494TMC3    C1 7393   2.149   0.589   0.490  0.2833  0.4079  0.4886
  494TMC3    C2 7394   2.147   0.453   0.487 -0.4040  0.0262  0.0906
  494TMC3    C3 7395   2.099   0.386   0.373  0.4959 -0.3519 -0.9373
  494TMC3    C4 7396   2.089   0.665   0.392  0.6145  0.0133 -1.0428
  494TMC3    C5 7397   2.039   0.602   0.285  0.3045 -0.2661  0.2822
  494TMC3    C6 7398   2.046   0.459   0.275  0.2956  0.4684  0.4128
  494TMC3     C 7399   2.200   0.645   0.615 -0.5831 -0.0670  0.5547
  494TMC3     O 7400   2.127   0.713   0.685 -0.3304 -0.3700  0.0510
  494TMC3     H 7401   2.194   0.398   0.568  0.0318  1.1880  0.6221
  494TMC3    H1 7402   2.103   0.773   0.391 -1.6203  0.3001  1.8615
  494TMC3    H2 7403   2.017   0.417   0.179  2.4341  1.3913 -0.6651
  494TMC3    C7 7404   2.004   0.670   0.165 -0.5835 -0.2581  0.6298
  494TMC3    C8 7405   2.107   0.246   0.375  0.3284  0.5386  0.1549
  494TMC3    O1 7406   1.994   0.598   0.067  0.0812 -0.6059  0.6394
  494TMC3    O2 7407   2.130   0.189   0.481  0.3229 -0.3746  0.2146
  495TMC3    C1 7408   1.023   2.900  14.681  0.9146  0.2018 -1.0399
  495TMC3    C2 7409   0.930   2.940  14.596 -0.0426  0.1732 -0.2539
  495TMC3    C3 7410   0.834   3.023  14.638 -0.3175 -0.1140  0.6264
  495TMC3    C4 7411   1.014   2.936  14.812  0.1166 -0.5898  0.1471
  495TMC3    C5 7412   0.923   3.029  14.852 -0.2988 -0.0322 -0.3202
  495TMC3    C6 7413   0.832   3.075  14.763 -0.1621  0.5335  0.0304
  495TMC3     C 7414   1.071   2.768  14.653 -0.4192 -0.5419  1.1683
  495TMC3     O 7415   1.081   2.695  14.748 -0.5605 -0.0663 -0.0555
  495TMC3     H 7416   0.919   2.898  14.496  0.9611 -3.3240  1.1252
  495TMC3    H1 7417   1.063   2.872  14.885 -0.6238 -1.4875 -0.1464
  495TMC3    H2 7418   0.752   3.138  14.799 -0.7767 -0.3594  0.2294
  495TMC3    C7 7419   0.874   2.993  14.982 -0.5015 -0.0536  0.3836
  495TMC3    C8 7420   0.700   2.980  14.608 -0.5803  0.2332 -0.1195
  495TMC3    O1 7421   0.944   2.979  15.080  0.0704 -0.2172  0.1167
  495TMC3    O2 7422   0.631   2.963  14.707 -0.1546 -0.7579  0.1349
  496MPD2     C 7423   2.960   2.978  15.517 -0.2136 -0.1826 -0.9108
  496MPD2    C1 7424   2.900   2.876  15.444  0.5969 -0.1310 -0.2773
  496MPD2    C2 7425   2.774   2.839  15.477  0.4721 -0.2154  0.0671
  496MPD2    C3 7426   2.701   2.902  15.572 -0.2447  0.0574 -0.4084
  496MPD2    C4 7427   2.761   3.001  15.644  0.3571  0.3136 -0.5228
  496MPD2    C5 7428   2.889   3.037  15.619  0.1038 -0.3495  0.6415
  496MPD2     H 7429   2.736   2.748  15.430  0.6078  1.8030 -3.9873
  496MPD2    H1 7430   2.710   3.049  15.726  1.1040  1.3890 -0.6858
  496MPD2    H2 7431   3.066   3.000  15.520 -0.6157  2.0048 -2.4065
  496MPD2    H3 7432   2.936   3.107  15.687  0.6385 -0.9232  0.8709
  496MPD2     N 7433   2.574   2.861  15.619 -0.3516 -0.2920 -0.1247
  496MPD2    H5 7434   2.551   2.890  15.714 -2.4332 -1.9842 -0.1317
  496MPD2    N1 7435   2.983   2.788  15.365  0.3358 -0.1968 -0.6490
  496MPD2    H7 7436   3.082   2.809  15.360  0.8541 -2.8881 -1.5547
  497TMC3    C1 7437   2.376   2.723  15.628  0.1046 -0.9409  0.1863
  497TMC3    C2 7438   2.272   2.667  15.557 -0.8775  0.5918  0.0435
  497TMC3    C3 7439   2.181   2.594  15.619  0.6588 -0.4885  0.2323
  497TMC3    C4 7440   2.383   2.709  15.760  0.3515  0.1409  0.4154
  497TMC3    C5 7441   2.294   2.628  15.821 -0.0965 -0.2198  0.2678
  497TMC3    C6 7442   2.193   2.570  15.754 -0.4146 -0.0662  0.0383
  497TMC3     C 7443   2.489   2.777  15.546  0.1876 -0.5229 -1.0129
  497TMC3     O 7444   2.492   2.765  15.427  0.3539  0.3253  0.2402
  497TMC3     H 7445   2.269   2.688  15.451 -0.4676 -0.2734 -0.1404
  497TMC3    H1 7446   2.475   2.739  15.808  0.0355  0.1603  1.0045
  497TMC3    H2 7447   2.127   2.495  15.795  0.6670  0.3385  2.5014
  497TMC3    C7 7448   2.337   2.560  15.941  0.3095  0.0399  0.4459
  497TMC3    C8 7449   2.112   2.493  15.543  0.5834  0.2045 -0.0233
  497TMC3    O1 7450   2.270   2.464  15.970  0.9158  0.2349 -0.5341
  497TMC3    O2 7451   2.085   2.392  15.605 -0.0011 -0.5784 -0.8792
  498MPD2     C 7452   4.522   3.978  10.285 -0.0371 -0.3882  0.3862
  498MPD2    C1 7453   4.508   4.082  10.373  0.4349  0.0984 -0.5823
  498MPD2    C2 7454   4.405   4.086  10.463  0.1088  0.5555 -0.4425
  498MPD2    C3 7455   4.310   3.986  10.473  0.5363  0.5537 -0.2658
  498MPD2    C4 7456   4.316   3.883  10.383  0.1892 -0.3217  1.2406
  498MPD2    C5 7457   4.422   3.880  10.293  0.5723  0.1242 -0.8935
  498MPD2     H 7458   4.401   4.171  10.531 -0.8780  0.0975  0.0789
  498MPD2    H1 7459   4.242   3.804  10.382 -0.1029 -0.0641  2.7200
  498MPD2    H2 7460   4.599   3.967  10.209 -0.9401 -1.8997 -0.3138
  498MPD2    H3 7461   4.427   3.798  10.222  0.1562 -0.3719 -0.3471
  498MPD2     N 7462   4.207   3.987  10.563 -0.1247  0.5960 -0.5315
  498MPD2    H5 7463   4.165   3.896  10.576 -2.3809  1.6586 -0.4451
  498MPD2    N1 7464   4.591   4.194  10.381  0.5286 -0.3382 -0.1759
  498MPD2    H7 7465   4.592   4.249  10.466  1.6378 -0.4762 -0.0968
  499TMC3    C1 7466   0.011   4.356  10.319  0.3560  0.3551 -0.3262
  499TMC3    C2 7467   0.142   4.387  10.282 -0.7755 -0.0165 -0.5950
  499TMC3    C3 7468   0.178   4.515  10.269 -0.3054 -0.3965 -0.0255
  499TMC3    C4 7469   4.653   4.451  10.335  0.5619  0.2942 -0.2630
  499TMC3    C5 7470   4.696   4.579  10.316  0.0657 -0.1745 -0.1102
  499TMC3    C6 7471   0.087   4.614  10.281 -0.1889  0.5228 -0.6144
  499TMC3     C 7472   4.705   4.215  10.301 -0.7988 -0.1612 -0.8480
  499TMC3     O 7473   0.010   4.156  10.199  0.1932  0.0599  0.0956
  499TMC3     H 7474   0.215   4.308  10.264 -0.7974 -0.3466  0.7562
  499TMC3    H1 7475   4.548   4.424  10.335  0.8322 -0.7382 -2.0504
  499TMC3    H2 7476   0.107   4.720  10.292 -1.5318  0.6039  0.9550
  499TMC3    C7 7477   4.589   4.680  10.312  0.3331 -0.5455  0.3671
  499TMC3    C8 7478   0.318   4.541  10.262  0.2381 -0.9455 -0.2518
  499TMC3    O1 7479   4.614   0.042  10.247  0.2132 -0.0393  0.0423
  499TMC3    O2 7480   0.390   4.446  10.282 -0.4204  0.3679 -0.0566
  500MPD2     C 7481   0.751   0.105  10.498 -0.2612  0.5926 -0.2064
  500MPD2    C1 7482   0.811   0.227  10.470 -0.6469 -0.3628  0.1554
  500MPD2    C2 7483   0.732   0.342  10.469  0.3277 -0.0239 -0.4383
  500MPD2    C3 7484   0.597   0.331  10.501  0.3343  0.4379  0.3061
  500MPD2    C4 7485   0.543   0.215  10.531 -0.8353 -0.6563  0.3061
  500MPD2    C5 7486   0.617   0.100  10.533  1.0716 -0.1224  1.0142
  500MPD2     H 7487   0.774   0.436  10.437  1.9859 -1.0443 -1.2658
  500MPD2    H1 7488   0.439   0.216  10.560 -1.4826  1.5222 -2.0324
  500MPD2    H2 7489   0.802   0.009  10.502  0.9676  1.3099  1.7154
  500MPD2    H3 7490   0.575   0.006  10.566 -0.2012  0.2672  0.4903
  500MPD2     N 7491   0.503   0.433  10.519 -0.2113 -0.1457  0.5785
  500MPD2    H5 7492   0.419   0.400  10.566 -0.8701  1.3894  0.4750
  500MPD2    N1 7493   0.943   0.239  10.425  0.1722  0.1931 -0.1964
  500MPD2    H7 7494   0.980   0.333  10.420 -2.3831  1.2589  0.8265
  501TMC3    C1 7495   1.156   0.172  10.367  0.5158 -0.6548  0.3350
  501TMC3    C2 7496   1.165   0.282  10.296 -0.2980 -0.0596  0.0940
  501TMC3    C3 7497   1.289   0.335  10.281  0.5128  0.6943 -0.3480
  501TMC3    C4 7498   1.258   0.112  10.433  0.4740  0.3158 -0.0333
  501TMC3    C5 7499   1.371   0.187  10.442 -0.3285  0.0039  0.0488
  501TMC3    C6 7500   1.392   0.296  10.363  0.2436 -0.2591 -0.3645
  501TMC3     C 7501   1.026   0.127  10.401  0.3392  0.8723  0.2179
  501TMC3     O 7502   1.010   0.005  10.404  0.4698 -0.3217  0.3932
  501TMC3     H 7503   1.080   0.312  10.236 -0.0297 -2.5404 -1.4820
  501TMC3    H1 7504   1.246   0.023  10.495  2.5415 -0.0650 -0.1642
  501TMC3    H2 7505   1.494   0.331  10.354 -0.1372  0.4728 -1.8628
  501TMC3    C7 7506   1.477   0.142  10.537  0.3062  0.1468  0.3670
  501TMC3    C8 7507   1.301   0.475  10.236 -0.2220  0.5187 -0.4719
  501TMC3    O1 7508   1.453   0.030  10.586 -0.4875  0.3369 -0.2661
  501TMC3    O2 7509   1.400   0.537  10.272 -0.2710 -0.0085  0.5703
  502TMC3    C1 7510   0.323   3.694  14.952 -0.0664 -0.4014 -0.6884
  502TMC3    C2 7511   0.275   3.822  14.938  0.7070 -0.0163 -0.2624
  502TMC3    C3 7512   0.140   3.850  14.925 -1.2050 -0.6981  0.4182
  502TMC3    C4 7513   0.238   3.592  14.948 -0.2217  0.0077 -0.0965
  502TMC3    C5 7514   0.102   3.621  14.945 -0.4748  0.4789  0.7215
  502TMC3    C6 7515   0.046   3.748  14.926  0.4303 -0.6113 -0.2644
  502TMC3     C 7516   0.432   3.667  15.041  0.4617  0.1076 -0.7802
  502TMC3     O 7517   0.538   3.720  15.016  0.6884  0.2798 -0.5225
  502TMC3     H 7518   0.344   3.904  14.952 -0.8443  1.1037  0.7976
  502TMC3    H1 7519   0.272   3.490  14.935 -1.3135 -0.7343  2.8620
  502TMC3    H2 7520   4.675   3.768  14.918  0.7468  0.0707 -2.9317
  502TMC3    C7 7521   0.035   3.520  15.026 -0.3181  0.3428  0.3510
  502TMC3    C8 7522   0.112   3.987  14.874 -0.5611  0.2571  0.2412
  502TMC3    O1 7523   0.117   3.466  15.096 -0.1695 -0.4278  0.3464
  502TMC3    O2 7524   0.207   4.053  14.833 -0.1265 -0.3814 -0.1361
  503MPD2     C 7525   2.356   4.277  16.406  0.1846 -0.4482 -0.1381
  503MPD2    C1 7526   2.296   4.250  16.524 -0.5123  0.7840  0.1889
  503MPD2    C2 7527   2.294   4.127  16.571  0.2535 -0.4266 -0.0619
  503MPD2    C3 7528   2.341   4.020  16.504  0.1852  0.5957 -0.2309
  503MPD2    C4 7529   2.407   4.039  16.389  0.4283 -0.4373 -0.0863
  503MPD2    C5 7530   2.408   4.170  16.342 -0.0562  0.3380  0.2685
  503MPD2     H 7531   2.238   4.112  16.663 -0.6936 -0.1642 -0.5960
  503MPD2    H1 7532   2.452   3.967  16.323  2.1695 -1.2360  1.9918
  503MPD2    H2 7533   2.368   4.377  16.365  1.9809  0.1545  1.8339
  503MPD2    H3 7534   2.446   4.179  16.241 -0.5402  0.7152  0.1208
  503MPD2     N 7535   2.321   3.896  16.564  0.5072 -0.8598 -0.0639
  503MPD2    H5 7536   2.289   3.895  16.660 -1.0420 -1.6144 -0.5952
  503MPD2    N1 7537   2.234   4.347  16.603 -0.5134  0.1191 -0.2337
  503MPD2    H7 7538   2.181   4.310  16.681 -0.5777  2.1292  0.6792
  504TMC3    C1 7539   2.413   3.701  16.649  0.3269 -0.0887  0.4303
  504TMC3    C2 7540   2.334   3.705  16.760 -0.0107 -0.0038  0.1613
  504TMC3    C3 7541   2.404   3.669  16.877 -0.7402 -0.0705  0.3469
  504TMC3    C4 7542   2.548   3.679  16.652  0.0981  0.2854  0.1297
  504TMC3    C5 7543   2.611   3.652  16.769 -0.3087 -0.1522 -0.6576
  504TMC3    C6 7544   2.541   3.653  16.884  0.1836 -0.1258  0.1903
  504TMC3     C 7545   2.390   3.782  16.534 -0.1088  0.3724  0.2431
  504TMC3     O 7546   2.458   3.755  16.431 -0.1012  0.0551 -0.3428
  504TMC3     H 7547   2.228   3.728  16.754  0.4243  1.7335 -0.8555
  504TMC3    H1 7548   2.603   3.694  16.560 -0.9952  0.7037 -0.4549
  504TMC3    H2 7549   2.590   3.665  16.980  0.0234 -0.7159  0.3458
  504TMC3    C7 7550   2.751   3.677  16.779 -0.7395 -0.8258 -0.0904
  504TMC3    C8 7551   2.351   3.724  16.992  0.0348 -0.1674  1.0279
  504TMC3    O1 7552   2.800   3.734  16.682 -0.7510  0.1156  0.2429
  504TMC3    O2 7553   2.267   3.808  16.971  0.2228 -0.1395 -0.1555
  505MPD2     C 7554   3.597   3.849  11.726  0.2939  0.4316 -0.4470
  505MPD2    C1 7555   3.471   3.832  11.669 -0.3633  0.4235 -0.2268
  505MPD2    C2 7556   3.444   3.705  11.620 -0.1664  0.3857  0.3898
  505MPD2    C3 7557   3.538   3.602  11.616 -0.8970  0.4198  0.1878
  505MPD2    C4 7558   3.660   3.626  11.669  0.3454 -0.3596  0.4774
  505MPD2    C5 7559   3.690   3.747  11.719  0.5374  0.4398  0.2198
  505MPD2     H 7560   3.345   3.689  11.580  1.2478 -3.3856 -1.5905
  505MPD2    H1 7561   3.733   3.546  11.682  2.2059  1.3150  0.3142
  505MPD2    H2 7562   3.640   3.939  11.770 -0.5845  0.8083 -0.3631
  505MPD2    H3 7563   3.792   3.764  11.754  0.7315 -0.6532  0.1747
  505MPD2     N 7564   3.514   3.478  11.559 -0.2268  0.7516  0.4379
  505MPD2    H5 7565   3.588   3.409  11.563 -1.9079 -1.0495  0.2736
  505MPD2    N1 7566   3.374   3.939  11.675 -0.1584  0.5654 -0.0583
  505MPD2    H7 7567   3.403   4.033  11.703 -0.6912 -0.0517  2.5184
  506TMC3    C1 7568   3.165   4.050  11.633 -0.1916 -0.3589 -0.3332
  506TMC3    C2 7569   3.251   4.156  11.610 -0.0681 -0.3909 -0.5331
  506TMC3    C3 7570   3.213   4.249  11.516  0.8214  0.3502 -0.1666
  506TMC3    C4 7571   3.051   4.029  11.557  0.2764 -0.1534 -0.1353
  506TMC3    C5 7572   3.020   4.123  11.461  0.1430 -0.6872 -0.7528
  506TMC3    C6 7573   3.113   4.227  11.436 -0.4408 -0.7754 -0.3606
  506TMC3     C 7574   3.241   3.929  11.653 -0.2672  0.5662 -0.5620
  506TMC3     O 7575   3.172   3.834  11.623 -0.2827  0.2277 -0.0435
  506TMC3     H 7576   3.334   4.178  11.676  1.6914  1.5006 -3.3630
  506TMC3    H1 7577   2.975   3.956  11.584 -1.8886  2.6723  1.4606
  506TMC3    H2 7578   3.084   4.297  11.359 -2.0164 -2.2263 -1.0923
  506TMC3    C7 7579   2.998   4.052  11.337 -0.3048 -0.1651 -0.5578
  506TMC3    C8 7580   3.335   4.316  11.477  0.2189 -0.5648  0.3727
  506TMC3    O1 7581   2.993   4.119  11.238  0.0960  0.6361 -0.0733
  506TMC3    O2 7582   3.380   4.397  11.554  0.3440  0.0520 -0.3638
  507TMC3    C1 7583   3.711   4.714  15.478 -0.0089 -0.4027 -0.0790
  507TMC3    C2 7584   3.756   4.586  15.443  0.1202 -0.1763  0.2356
  507TMC3    C3 7585   3.869   4.575  15.366  0.5679 -0.1068 -0.8590
  507TMC3    C4 7586   3.759   0.092  15.426 -0.0946 -0.0651 -0.2524
  507TMC3    C5 7587   3.865   0.078  15.332 -0.0483 -0.3222 -0.5095
  507TMC3    C6 7588   3.920   4.691  15.314  0.6090 -0.3453 -0.5596
  507TMC3     C 7589   3.611   4.716  15.586  0.4265 -0.8550 -0.0883
  507TMC3     O 7590   3.589   4.609  15.643  0.0544 -0.6315 -0.1975
  507TMC3     H 7591   3.711   4.492  15.474  1.4104 -0.1355  2.2260
  507TMC3    H1 7592   3.724   0.190  15.453  0.0507 -0.1628  0.2953
  507TMC3    H2 7593   4.010   4.679  15.256  1.8513 -1.6132  1.6486
  507TMC3    C7 7594   3.834   0.132  15.208 -0.1379 -0.3950 -0.0926
  507TMC3    C8 7595   3.861   4.467  15.266 -0.2061 -0.3519  0.1353
  507TMC3    O1 7596   3.892   0.073  15.120  0.1128  0.0653 -0.1727
  507TMC3    O2 7597   3.846   4.357  15.310 -0.2185 -0.0855  0.5724
  508MPD2     C 7598   4.438   1.144  16.224 -0.7042  0.2349  0.3754
  508MPD2    C1 7599   4.503   1.259  16.263  0.6161  0.0946 -0.5895
  508MPD2    C2 7600   4.581   1.327  16.170  0.0825  0.3816 -0.7455
  508MPD2    C3 7601   4.575   1.292  16.039 -0.1248 -0.3215 -0.1259
  508MPD2    C4 7602   4.512   1.176  15.998  0.7576  0.1769  0.3132
  508MPD2    C5 7603   4.439   1.104  16.092 -0.0385  1.0321  0.4204
  508MPD2     H 7604   4.645   1.406  16.208  1.0296 -1.0021  0.5503
  508MPD2    H1 7605   4.512   1.151  15.893 -1.5121 -1.9629  0.8198
  508MPD2    H2 7606   4.384   1.085  16.298 -0.2645 -0.6359  0.0065
  508MPD2    H3 7607   4.392   1.011  16.064  2.1512 -0.0717  0.4395
  508MPD2     N 7608   4.637   1.372  15.946 -0.1084 -0.0234  0.4336
  508MPD2    H5 7609   4.604   1.346  15.854  1.5906  0.0306 -0.1807
  508MPD2    N1 7610   4.519   1.307  16.395 -0.4811  0.2583 -0.2861
  508MPD2    H7 7611   4.573   1.392  16.404  0.8481 -0.6223  0.0467
  509TMC3    C1 7612   4.619   1.669  15.668  0.3728  0.5420 -0.1896
  509TMC3    C2 7613   0.014   1.681  15.607 -0.3464  0.4641  0.0177
  509TMC3    C3 7614   0.123   1.640  15.683  0.2193 -0.6699  1.0363
  509TMC3    C4 7615   4.614   1.607  15.789 -0.3084  0.2262  0.6576
  509TMC3    C5 7616   4.725   1.558  15.846 -0.4770  0.2864  0.1788
  509TMC3    C6 7617   0.111   1.580  15.801  0.0887 -0.0549 -0.2225
  509TMC3     C 7618   4.512   1.760  15.626  0.8834 -0.1494  0.4869
  509TMC3     O 7619   4.518   1.803  15.512 -0.1180  0.5491  0.0119
  509TMC3     H 7620   0.012   1.721  15.506 -0.2655  0.6396  0.0856
  509TMC3    H1 7621   4.516   1.574  15.820 -0.7190  2.4194  1.6688
  509TMC3    H2 7622   0.189   1.545  15.868  1.4970  1.9816 -0.7992
  509TMC3    C7 7623   4.712   1.484  15.967 -0.1155 -0.8174  0.1946
  509TMC3    C8 7624   0.240   1.718  15.674  0.4146 -0.7870  0.4078
  509TMC3    O1 7625   0.047   1.516  16.061 -0.2587 -0.3294  0.0056
  509TMC3    O2 7626   0.339   1.682  15.739  0.5378 -0.3022  0.4502
  510MPD2     C 7627   2.259   3.220  14.547  0.5588 -0.5008 -0.5187
  510MPD2    C1 7628   2.317   3.139  14.645  0.3585 -0.1739 -0.2378
  510MPD2    C2 7629   2.461   3.127  14.648 -0.5203  0.3370 -0.6547
  510MPD2    C3 7630   2.541   3.185  14.547  0.1460  0.1786 -0.1531
  510MPD2    C4 7631   2.479   3.279  14.467  0.1109 -0.1474 -0.3557
  510MPD2    C5 7632   2.346   3.285  14.464  0.1451 -0.3040  0.2119
  510MPD2     H 7633   2.507   3.069  14.726  1.5259  0.5863 -1.6624
  510MPD2    H1 7634   2.533   3.336  14.392 -2.1359  1.1713 -0.9606
  510MPD2    H2 7635   2.153   3.244  14.540  0.5803 -0.0095  0.7720
  510MPD2    H3 7636   2.302   3.344  14.384  0.9672 -1.3084 -0.9925
  510MPD2     N 7637   2.674   3.152  14.536 -0.5441 -0.5585 -0.6977
  510MPD2    H5 7638   2.707   3.082  14.602  0.6885  0.5150 -0.1603
  510MPD2    N1 7639   2.230   3.076  14.736 -0.3023  0.0583 -0.5190
  510MPD2    H7 7640   2.131   3.094  14.724  0.0094  2.0772 -0.0283
  511TMC3    C1 7641   2.155   2.891  14.856 -0.4073  0.4008 -0.3315
  511TMC3    C2 7642   2.051   2.945  14.922 -0.0260  0.5143  0.1987
  511TMC3    C3 7643   1.944   2.861  14.960 -0.3248  0.1831 -0.2024
  511TMC3    C4 7644   2.148   2.765  14.812  0.4590  0.6982 -0.2879
  511TMC3    C5 7645   2.046   2.688  14.840 -0.8281 -0.0979 -0.0957
  511TMC3    C6 7646   1.944   2.735  14.916  0.7380 -0.1241 -0.0835
  511TMC3     C 7647   2.272   2.974  14.821  0.8558  0.1851 -0.4862
  511TMC3     O 7648   2.379   2.917  14.824 -0.5531 -0.0063  0.4628
  511TMC3     H 7649   2.064   3.046  14.960  1.4549  0.8972 -1.3049
  511TMC3    H1 7650   2.237   2.725  14.764  1.9133  1.1464  2.0452
  511TMC3    H2 7651   1.855   2.674  14.924  1.4870 -1.3792 -1.3103
  511TMC3    C7 7652   2.021   2.569  14.758  0.0736  0.0018 -0.6575
  511TMC3    C8 7653   1.837   2.913  15.043 -0.3193  0.1930  0.4488
  511TMC3    O1 7654   2.089   2.563  14.661  0.1112  0.6227 -0.1242
  511TMC3    O2 7655   1.874   3.006  15.116 -0.2046  0.9756  0.6334
  512TMC3    C1 7656   1.652   2.339  13.650 -0.7551 -0.4707 -0.3174
  512TMC3    C2 7657   1.625   2.449  13.729  0.2777  0.0949 -0.7677
  512TMC3    C3 7658   1.692   2.462  13.849  0.0948  1.3189 -0.7808
  512TMC3    C4 7659   1.723   2.233  13.695  0.0328  0.4744  0.2622
  512TMC3    C5 7660   1.772   2.237  13.822  0.5843 -1.0068 -1.2903
  512TMC3    C6 7661   1.761   2.352  13.898 -0.2422  0.1848 -0.1109
  512TMC3     C 7662   1.641   2.355  13.509 -0.2615 -0.6390  0.3428
  512TMC3     O 7663   1.636   2.468  13.460 -0.0440  0.5107 -0.7405
  512TMC3     H 7664   1.571   2.531  13.682  0.5879  0.7344 -0.0039
  512TMC3    H1 7665   1.740   2.148  13.630 -0.1025 -0.0926  0.9656
  512TMC3    H2 7666   1.808   2.359  13.995 -1.0544  1.9309  0.1625
  512TMC3    C7 7667   1.855   2.128  13.869 -0.1165  0.1839 -0.3402
  512TMC3    C8 7668   1.726   2.593  13.896 -0.7745 -0.6058  0.2436
  512TMC3    O1 7669   1.945   2.156  13.951  0.4912  0.0053  0.4362
  512TMC3    O2 7670   1.782   2.600  14.008 -1.1589 -0.4535 -0.3031
  513MPD2     C 7671   3.453   3.013  13.305  0.6669 -0.2228  0.6001
  513MPD2    C1 7672   3.457   2.882  13.342  0.2686  0.2146  0.1910
  513MPD2    C2 7673   3.512   2.852  13.464 -0.4174 -0.0438 -0.2582
  513MPD2    C3 7674   3.583   2.954  13.533  0.2414  0.5380  0.3994
  513MPD2    C4 7675   3.597   3.084  13.479 -0.1454  0.3286 -0.2417
  513MPD2    C5 7676   3.528   3.113  13.367  0.1242 -0.4809  0.5902
  513MPD2     H 7677   3.515   2.750  13.502 -0.4605 -0.0876 -0.3741
  513MPD2    H1 7678   3.662   3.163  13.517 -1.3230  1.7518 -1.1854
  513MPD2    H2 7679   3.399   3.052  13.219  0.3114  1.1816  1.4541
  513MPD2    H3 7680   3.533   3.211  13.321  0.7687 -0.7324  0.1231
  513MPD2     N 7681   3.668   2.895  13.628  0.4436  0.4004  0.0338
  513MPD2    H5 7682   3.672   2.793  13.628  0.1919  0.3896 -2.7227
  513MPD2    N1 7683   3.395   2.784  13.265 -0.1493 -0.2442 -0.8348
  513MPD2    H7 7684   3.385   2.698  13.319 -3.3381  0.3525 -0.4944
  514TMC3    C1 7685   3.303   2.664  13.094  0.1916  0.6269  0.1960
  514TMC3    C2 7686   3.377   2.605  12.997  0.2799  0.7181 -0.6965
  514TMC3    C3 7687   3.394   2.466  13.006 -0.6226 -0.1141  0.3764
  514TMC3    C4 7688   3.258   2.593  13.199  0.1965 -0.0068 -0.2297
  514TMC3    C5 7689   3.289   2.457  13.209 -0.1333 -0.3765  0.1787
  514TMC3    C6 7690   3.359   2.392  13.116 -0.3170  0.7335 -0.0266
  514TMC3     C 7691   3.359   2.793  13.132  0.9044  0.2542 -0.1933
  514TMC3     O 7692   3.416   2.855  13.046  0.0749 -0.8067  0.4938
  514TMC3     H 7693   3.432   2.662  12.923  2.0651 -0.1257 -0.0051
  514TMC3    H1 7694   3.205   2.635  13.283 -1.4009 -1.5849 -0.4407
  514TMC3    H2 7695   3.399   2.292  13.122 -3.4433 -0.5940 -1.6179
  514TMC3    C7 7696   3.343   2.440  13.342 -0.2187 -0.4388  0.5589
  514TMC3    C8 7697   3.476   2.397  12.912 -0.1059 -0.3472 -0.2776
  514TMC3    O1 7698   3.369   2.546  13.401 -0.1379 -0.7738  0.3046
  514TMC3    O2 7699   3.524   2.294  12.946 -0.0195 -0.0020 -0.3024
  515MPD2     C 7700   1.584   4.106  14.367  0.1667 -0.2273 -0.5048
  515MPD2    C1 7701   1.450   4.146  14.396  0.8962  0.5454  0.4153
  515MPD2    C2 7702   1.428   4.264  14.469  0.9135  0.3381  0.2691
  515MPD2    C3 7703   1.535   4.338  14.512 -0.3078  0.0875  0.0384
  515MPD2    C4 7704   1.666   4.297  14.490 -0.2081  0.1303 -0.0683
  515MPD2    C5 7705   1.683   4.182  14.416 -0.3343 -0.1002  0.2645
  515MPD2     H 7706   1.330   4.307  14.483  1.6887  2.1909  0.0951
  515MPD2    H1 7707   1.758   4.351  14.510 -0.3673 -0.0692  1.1813
  515MPD2    H2 7708   1.621   4.019  14.314  2.9105  0.1933  0.7160
  515MPD2    H3 7709   1.788   4.165  14.396 -0.5929  0.9590 -2.0036
  515MPD2     N 7710   1.516   4.448  14.607  0.4600 -0.0418 -0.0931
  515MPD2    H5 7711   1.597   4.498  14.642  0.5736  0.0770 -0.5330
  515MPD2    N1 7712   1.347   4.071  14.346  0.2100 -0.3472  0.0863
  515MPD2    H7 7713   1.251   4.104  14.349  0.8133  1.3307  0.9237
  516TMC3    C1 7714   1.234   3.896  14.255 -0.0414  0.3744 -0.0437
  516TMC3    C2 7715   1.163   3.994  14.195 -0.2988  0.7417 -0.3577
  516TMC3    C3 7716   1.023   3.993  14.200  0.7726 -0.2804 -0.0808
  516TMC3    C4 7717   1.181   3.803  14.336  0.6747  0.4223 -0.5097
  516TMC3    C5 7718   1.045   3.799  14.332  0.4430  0.0629 -0.1946
  516TMC3    C6 7719   0.973   3.898  14.280 -0.0637  0.7161  0.7131
  516TMC3     C 7720   1.364   3.938  14.316 -0.4851  0.3466 -0.2020
  516TMC3     O 7721   1.441   3.853  14.365 -0.1630  0.0491  0.0271
  516TMC3     H 7722   1.224   4.068  14.143  1.6919 -0.6979 -0.0588
  516TMC3    H1 7723   1.237   3.721  14.379 -0.3872  0.3339  0.7246
  516TMC3    H2 7724   0.867   3.896  14.300 -0.2586  0.7467 -0.3143
  516TMC3    C7 7725   0.976   3.725  14.436  0.8263  0.4166  0.3129
  516TMC3    C8 7726   0.942   4.081  14.119 -0.0251 -1.0347 -0.1901
  516TMC3    O1 7727   1.055   3.702  14.531  0.2999 -1.0066 -0.0834
  516TMC3    O2 7728   0.832   4.113  14.158 -0.4995  0.2843  0.4742
  517MPD2     C 7729   1.160   1.137   0.072  0.2970  0.2106  0.1744
  517MPD2    C1 7730   1.287   1.084   0.053 -0.5122  0.1357  0.4754
  517MPD2    C2 7731   1.397   1.152   0.102  0.1700 -0.2059  0.1964
  517MPD2    C3 7732   1.375   1.250   0.203  0.8817 -0.0596 -0.0918
  517MPD2    C4 7733   1.250   1.308   0.218 -0.1982  0.6433  1.0065
  517MPD2    C5 7734   1.148   1.250   0.154 -0.5859  0.7978  0.1538
  517MPD2     H 7735   1.498   1.115   0.093 -0.0794 -1.1749  1.2543
  517MPD2    H1 7736   1.230   1.386   0.292 -1.2378  1.2569  0.0810
  517MPD2    H2 7737   1.067   1.092   0.040 -0.0378 -0.2776  1.7963
  517MPD2    H3 7738   1.047   1.274   0.185 -1.6074 -3.0089 -0.1948
  517MPD2     N 7739   1.483   1.307   0.279  0.5329 -0.1325  0.3918
  517MPD2    H5 7740   1.449   1.384   0.336 -0.2677  0.3865 -0.7910
  517MPD2    N1 7741   1.307   0.974  17.703 -0.2837  0.2841 -0.2040
  517MPD2    H7 7742   1.403   0.941  17.694 -0.2712  0.9692 -2.6047
  518TMC3    C1 7743   1.263   0.786  17.565 -0.2087 -0.4153  0.0708
  518TMC3    C2 7744   1.190   0.669  17.558  0.2642 -0.2566  0.0569
  518TMC3    C3 7745   1.223   0.572  17.468 -0.7444  0.2356  0.1290
  518TMC3    C4 7746   1.382   0.797  17.500 -0.6098  0.2251  0.1206
  518TMC3    C5 7747   1.410   0.704  17.408  0.9798  0.6958 -0.1779
  518TMC3    C6 7748   1.331   0.595  17.389  0.6558  0.6972  0.0944
  518TMC3     C 7749   1.209   0.882  17.659 -0.1539 -1.3631  0.3445
  518TMC3     O 7750   1.086   0.890  17.657  0.0120 -0.1256  0.0986
  518TMC3     H 7751   1.095   0.673  17.610 -0.9197 -1.4772 -2.0301
  518TMC3    H1 7752   1.442   0.887  17.486  1.4404 -0.8368  2.0741
  518TMC3    H2 7753   1.333   0.550  17.290  0.4771 -0.7380  0.7464
  518TMC3    C7 7754   1.527   0.720  17.323  0.1512  0.4164  0.5064
  518TMC3    C8 7755   1.147   0.454  17.457 -0.0214  0.0926  0.3348
  518TMC3    O1 7756   1.564   0.838  17.301  0.5481 -0.5131  0.0364
  518TMC3    O2 7757   1.174   0.376  17.365  0.3764 -0.2314  0.0050
  519MPD2     C 7758   2.914   4.342  13.964 -0.5003  0.1341 -0.9543
  519MPD2    C1 7759   2.814   4.252  13.925 -0.1603  0.5044 -1.0641
  519MPD2    C2 7760   2.852   4.128  13.880 -0.5242  0.1804 -0.0103
  519MPD2    C3 7761   2.976   4.079  13.890  0.0767 -0.6618 -0.6273
  519MPD2    C4 7762   3.071   4.165  13.942  0.7166  0.2610  0.7713
  519MPD2    C5 7763   3.042   4.298  13.971 -0.2282  0.4251  0.7980
  519MPD2     H 7764   2.780   4.058  13.838  2.5893 -2.2219 -1.3535
  519MPD2    H1 7765   3.174   4.135  13.955  1.1494  1.0330 -0.8169
  519MPD2    H2 7766   2.884   4.442  13.995 -0.3105 -0.6151  1.6467
  519MPD2    H3 7767   3.122   4.359  14.011 -0.5721  1.3484  0.0914
  519MPD2     N 7768   3.004   3.942  13.858  0.6643  0.4854  0.5269
  519MPD2    H5 7769   3.088   3.907  13.903  1.6051 -0.4259 -1.9460
  519MPD2    N1 7770   2.682   4.287  13.940 -0.2903 -0.2536  0.2647
  519MPD2    H7 7771   2.658   4.385  13.953 -0.6322 -0.3464  0.3294
  520TMC3    C1 7772   2.981   3.707  13.816 -0.1114 -0.0327  0.5559
  520TMC3    C2 7773   2.896   3.605  13.796  0.7765 -0.6124  0.6394
  520TMC3    C3 7774   2.922   3.482  13.838  0.5961  0.5219  0.1715
  520TMC3    C4 7775   3.103   3.680  13.881  0.1861  0.1106 -0.3680
  520TMC3    C5 7776   3.143   3.550  13.906  0.1269 -0.0100  0.0316
  520TMC3    C6 7777   3.045   3.456  13.890 -0.0312  0.8080  0.0444
  520TMC3     C 7778   2.928   3.843  13.796  0.3154  0.1688 -0.4329
  520TMC3     O 7779   2.841   3.859  13.711  0.3404  0.1877  0.2326
  520TMC3     H 7780   2.809   3.623  13.734  0.5624 -3.0206  0.2427
  520TMC3    H1 7781   3.174   3.761  13.889 -0.3074  0.4346  0.9113
  520TMC3    H2 7782   3.074   3.353  13.902  1.6358  1.2636 -0.1245
  520TMC3    C7 7783   3.284   3.517  13.901 -0.1265  0.4285  0.0732
  520TMC3    C8 7784   2.841   3.378  13.783 -0.0753 -0.0368  0.0478
  520TMC3    O1 7785   3.361   3.586  13.834 -0.1761 -0.4281 -0.0551
  520TMC3    O2 7786   2.899   3.274  13.752  0.1850  0.0628 -0.0994
  521MPD2     C 7787   3.062   2.170  17.272  0.1823 -0.5694  0.7298
  521MPD2    C1 7788   3.104   2.035  17.268 -0.2586 -0.8686 -0.6119
  521MPD2    C2 7789   3.224   2.007  17.212 -0.3545  0.2716 -0.1687
  521MPD2    C3 7790   3.311   2.107  17.170 -0.4391  0.4294  0.4163
  521MPD2    C4 7791   3.274   2.241  17.181 -0.9677 -0.1154 -0.4599
  521MPD2    C5 7792   3.150   2.266  17.233  1.1089  0.3899  0.1946
  521MPD2     H 7793   3.255   1.903  17.210  0.0832  0.3808  0.6154
  521MPD2    H1 7794   3.337   2.325  17.154 -0.2139  0.1278  2.0896
  521MPD2    H2 7795   2.964   2.198  17.309  0.4155  2.0233 -0.6152
  521MPD2    H3 7796   3.120   2.370  17.236 -0.0147  0.1283 -1.9472
  521MPD2     N 7797   3.426   2.066  17.107 -0.4025 -0.7460  0.5152
  521MPD2    H5 7798   3.443   1.967  17.096  0.4723 -0.3251 -1.9922
  521MPD2    N1 7799   3.016   1.937  17.327  0.1153 -0.8263 -0.4492
  521MPD2    H7 7800   2.920   1.960  17.352  0.8166  1.6001  0.0312
  522TMC3    C1 7801   3.618   2.064  16.997 -0.5854 -0.1016 -1.2187
  522TMC3    C2 7802   3.751   2.083  17.027  0.8060 -0.2793 -0.7718
  522TMC3    C3 7803   3.837   1.997  16.966  0.0289  0.5456 -0.5067
  522TMC3    C4 7804   3.571   1.984  16.898  0.1846  0.3125  0.1781
  522TMC3    C5 7805   3.664   1.908  16.831  0.1134  0.9430  0.1963
  522TMC3    C6 7806   3.804   1.910  16.865 -0.4242  0.5688 -0.3411
  522TMC3     C 7807   3.519   2.150  17.063 -0.5381  0.1178 -0.2396
  522TMC3     O 7808   3.542   2.270  17.085 -0.6355 -0.3990  0.4507
  522TMC3     H 7809   3.778   2.160  17.099 -2.0139 -1.1125  1.1819
  522TMC3    H1 7810   3.465   1.979  16.877 -0.1049 -0.3068  1.7401
  522TMC3    H2 7811   3.877   1.849  16.812 -2.8720 -0.5867 -2.3843
  522TMC3    C7 7812   3.612   1.784  16.784  0.4159 -0.0887  0.1799
  522TMC3    C8 7813   3.977   2.026  16.995 -0.0762  0.8051  0.2835
  522TMC3    O1 7814   3.670   1.680  16.802 -0.1481 -0.0568  0.2951
  522TMC3    O2 7815   3.998   2.136  17.044  0.3026 -0.5279  0.1160
  523MPD2     C 7816   1.242   2.246   9.571 -0.1868  0.2218 -0.0618
  523MPD2    C1 7817   1.194   2.122   9.539 -0.4064  0.1585  0.2220
  523MPD2    C2 7818   1.085   2.107   9.449  0.6703  0.2313 -0.5196
  523MPD2    C3 7819   1.040   2.218   9.383  0.1788  0.6181 -0.0537
  523MPD2    C4 7820   1.106   2.335   9.408  0.2231 -0.3344 -0.0504
  523MPD2    C5 7821   1.205   2.353   9.499 -0.2963  0.7347  0.0432
  523MPD2     H 7822   1.041   2.013   9.418  0.3846  0.0796  0.3432
  523MPD2    H1 7823   1.074   2.424   9.353 -2.3087 -0.0816  1.8340
  523MPD2    H2 7824   1.321   2.246   9.646 -2.0619  1.5508  1.9199
  523MPD2    H3 7825   1.248   2.449   9.523  0.3998 -0.5437  3.8948
  523MPD2     N 7826   0.931   2.224   9.292  0.1496 -0.2462 -0.7940
  523MPD2    H5 7827   0.905   2.308   9.241 -0.4414 -0.6421 -1.1485
  523MPD2    N1 7828   1.266   2.015   9.605 -0.2316  0.4471  0.2746
  523MPD2    H7 7829   1.337   2.040   9.673  1.6359  2.4932 -2.4035
  524TMC3    C1 7830   0.716   2.163   9.200  0.0811 -1.0358 -0.1097
  524TMC3    C2 7831   0.646   2.058   9.145  0.4184 -0.0176 -0.0548
  524TMC3    C3 7832   0.530   2.088   9.073  0.0297  0.3232 -0.1357
  524TMC3    C4 7833   0.688   2.295   9.170  0.5656  0.3192 -0.8256
  524TMC3    C5 7834   0.584   2.320   9.088 -0.0076  0.6202  0.2702
  524TMC3    C6 7835   0.507   2.220   9.036 -0.1179 -0.2536 -0.5228
  524TMC3     C 7836   0.838   2.128   9.277 -0.5557  0.4039  0.4672
  524TMC3     O 7837   0.840   2.012   9.318  0.3492 -0.3272 -0.0601
  524TMC3     H 7838   0.663   1.957   9.181  1.7877  0.1138 -0.3341
  524TMC3    H1 7839   0.740   2.380   9.213 -0.0263  0.4949 -0.4567
  524TMC3    H2 7840   0.433   2.241   8.960 -1.7936 -1.8755  0.6546
  524TMC3    C7 7841   0.521   2.453   9.096  0.1076 -0.1174  0.0580
  524TMC3    C8 7842   0.460   1.983   9.011  0.0915  0.2463  0.1841
  524TMC3    O1 7843   0.576   2.528   9.180 -0.7993 -0.2713 -0.4072
  524TMC3    O2 7844   0.514   1.875   9.024  0.7573 -0.4364  0.4709
  525MPD2     C 7845   3.856   3.108  14.627 -0.3832  0.1268  0.2824
  525MPD2    C1 7846   3.952   3.157  14.713  0.2444 -0.5044  0.1856
  525MPD2    C2 7847   4.009   3.286  14.695 -0.0981  0.5899  0.8940
  525MPD2    C3 7848   3.966   3.361  14.593  0.0212  0.2051 -0.8449
  525MPD2    C4 7849   3.870   3.314  14.504 -0.0609 -0.8751 -0.6241
  525MPD2    C5 7850   3.834   3.181  14.517 -0.1097 -0.2438  0.5485
  525MPD2     H 7851   4.090   3.313  14.761  1.4893 -0.6670 -0.5164
  525MPD2    H1 7852   3.826   3.365  14.420  0.2832  0.7297  0.1782
  525MPD2    H2 7853   3.823   3.005  14.631  0.1787 -0.0358  0.7883
  525MPD2    H3 7854   3.770   3.149  14.436  1.3276  1.7182 -1.3700
  525MPD2     N 7855   4.021   3.484  14.560  0.3152  0.2383  0.6182
  525MPD2    H5 7856   3.980   3.537  14.483 -0.2650 -0.9606  0.1012
  525MPD2    N1 7857   4.003   3.081  14.823 -0.2285  0.6271 -0.2460
  525MPD2    H7 7858   4.073   3.120  14.886 -0.1160  0.0306 -0.0021
  526TMC3    C1 7859   3.998   2.921  14.997 -0.4693 -0.1807 -0.5506
  526TMC3    C2 7860   3.926   2.868  15.095 -0.4065  0.7200  0.1084
  526TMC3    C3 7861   3.978   2.832  15.216 -0.1005 -0.8362  0.1460
  526TMC3    C4 7862   4.123   2.959  15.020 -0.8700 -0.0655  0.2838
  526TMC3    C5 7863   4.177   2.922  15.144 -0.5623 -0.1203 -0.1617
  526TMC3    C6 7864   4.106   2.852  15.239  0.0619  0.2381  0.3454
  526TMC3     C 7865   3.938   2.964  14.872 -0.2032  0.1348  0.0628
  526TMC3     O 7866   3.830   2.916  14.846  0.4356  0.5175 -0.2734
  526TMC3     H 7867   3.825   2.836  15.075 -0.2830  0.3455  0.0859
  526TMC3    H1 7868   4.191   2.973  14.936 -0.4671 -0.3685  0.5586
  526TMC3    H2 7869   4.163   2.822  15.327  3.1132  3.6835 -0.4268
  526TMC3    C7 7870   4.321   2.904  15.146 -0.0736  0.1515  0.2871
  526TMC3    C8 7871   3.896   2.841  15.335 -0.6784  0.5273  0.0799
  526TMC3    O1 7872   4.372   2.820  15.216  0.0462  0.2341 -0.1617
  526TMC3    O2 7873   3.933   2.799  15.443  0.8470 -0.1183 -0.5551
  527MPD2     C 7874   2.036   0.995   1.459 -0.0499  0.1932 -0.2299
  527MPD2    C1 7875   1.990   1.018   1.333  0.0962  0.5847  0.7601
  527MPD2    C2 7876   2.082   0.997   1.229  0.4487 -0.0395 -0.5199
  527MPD2    C3 7877   2.208   0.942   1.260  0.5031 -0.1559  0.5604
  527MPD2    C4 7878   2.244   0.918   1.390  0.1351 -0.2252  0.1685
  527MPD2    C5 7879   2.154   0.942   1.491  0.3166  0.2490 -0.1615
  527MPD2     H 7880   2.046   0.995   1.127 -0.6502  1.7647 -0.1473
  527MPD2    H1 7881   2.338   0.874   1.424  0.1614  0.2871  0.7676
  527MPD2    H2 7882   1.979   1.031   1.545 -1.4376  3.3423 -2.4680
  527MPD2    H3 7883   2.173   0.911   1.593  1.0481  1.6938  0.1315
  527MPD2     N 7884   2.292   0.915   1.154  0.4471  0.5730  0.5471
  527MPD2    H5 7885   2.253   0.925   1.061 -0.6294 -2.2919  0.6828
  527MPD2    N1 7886   1.856   1.056   1.302 -0.1606 -0.1518 -0.4163
  527MPD2    H7 7887   1.841   1.084   1.205  1.0709  0.5696 -0.4067
  528TMC3    C1 7888   1.624   1.054   1.308 -0.7859  0.1360 -0.0236
  528TMC3    C2 7889   1.611   1.144   1.199 -0.4522 -0.4764  0.0564
  528TMC3    C3 7890   1.500   1.146   1.126 -0.6747  0.0203  0.5648
  528TMC3    C4 7891   1.512   0.992   1.350  0.2263  0.4345 -0.3489
  528TMC3    C5 7892   1.403   0.995   1.260  0.6182  0.0143 -0.1640
  528TMC3    C6 7893   1.394   1.071   1.155  0.8758  0.1524 -0.9276
  528TMC3     C 7894   1.748   1.038   1.383 -0.6980 -0.1207  0.2011
  528TMC3     O 7895   1.739   1.000   1.500 -0.1269 -0.1482 -0.4568
  528TMC3     H 7896   1.700   1.192   1.158 -0.6277  3.6477  4.5447
  528TMC3    H1 7897   1.518   0.937   1.444 -0.6432  1.4083  0.2852
  528TMC3    H2 7898   1.305   1.072   1.092  0.7767 -1.6398 -0.8089
  528TMC3    C7 7899   1.295   0.901   1.283 -0.2142 -0.1878 -0.6885
  528TMC3    C8 7900   1.474   1.255   1.024  0.8123  0.0142  0.0061
  528TMC3    O1 7901   1.185   0.918   1.234  0.2288 -0.1252 -0.0920
  528TMC3    O2 7902   1.389   1.239   0.934 -0.0635 -0.2283 -0.0570
  529MPD2     C 7903   3.970   3.935   0.439  0.2648 -0.2490  0.6498
  529MPD2    C1 7904   4.070   3.970   0.359 -0.6065  0.0514  0.2602
  529MPD2    C2 7905   4.070   4.102   0.323 -0.1708 -0.2119 -0.0386
  529MPD2    C3 7906   3.965   4.190   0.349  0.0710  0.2200 -0.6176
  529MPD2    C4 7907   3.861   4.142   0.427  0.2163 -0.7564 -0.8805
  529MPD2    C5 7908   3.873   4.017   0.477 -0.4647  0.1929  0.3577
  529MPD2     H 7909   4.155   4.130   0.262 -0.0960 -2.1361 -0.8285
  529MPD2    H1 7910   3.773   4.201   0.451  1.4507  0.2060  1.2805
  529MPD2    H2 7911   3.946   3.834   0.471 -4.5730  0.7683  0.3537
  529MPD2    H3 7912   3.801   3.979   0.549 -0.4837  2.5249  1.5657
  529MPD2     N 7913   3.956   4.328   0.301 -1.2104 -0.2172  0.4505
  529MPD2    H5 7914   3.863   4.367   0.315 -1.1123  0.7097 -1.3756
  529MPD2    N1 7915   4.165   3.874   0.312 -0.4513  0.3068  0.4977
  529MPD2    H7 7916   4.252   3.906   0.269 -2.2567  0.2335 -3.2160
  530TMC3    C1 7917   4.278   3.667   0.324 -0.3896 -0.5022 -0.4239
  530TMC3    C2 7918   4.335   3.701   0.442 -0.4992 -0.3056  0.1644
  530TMC3    C3 7919   4.387   3.608   0.529  0.0429  0.7631  0.3691
  530TMC3    C4 7920   4.265   3.536   0.302 -0.0436 -0.4806  0.4319
  530TMC3    C5 7921   4.295   3.439   0.395  0.5056  0.1197 -0.4602
  530TMC3    C6 7922   4.356   3.471   0.512  0.3355  0.2097 -0.1813
  530TMC3     C 7923   4.154   3.733   0.313  1.0035 -0.0120 -0.3794
  530TMC3     O 7924   4.051   3.667   0.316 -0.1882  0.2849  0.1017
  530TMC3     H 7925   4.361   3.806   0.446 -0.6237 -0.3796  2.5052
  530TMC3    H1 7926   4.222   3.502   0.208  1.3358  1.8676 -1.0360
  530TMC3    H2 7927   4.406   3.395   0.570  3.5760  1.3651 -1.4220
  530TMC3    C7 7928   4.255   3.301   0.374 -0.3563  0.6552  0.2667
  530TMC3    C8 7929   4.469   3.655   0.640  0.3124  1.1739  0.3334
  530TMC3    O1 7930   4.244   3.262   0.259 -0.0680  0.3605  0.0663
  530TMC3    O2 7931   4.501   3.772   0.636 -0.0185 -0.5302  0.0420
  531MPD2     C 7932   3.706   2.195  13.619  0.1602 -0.2734  0.0875
  531MPD2    C1 7933   3.669   2.330  13.625 -0.1249  0.4491 -1.0472
  531MPD2    C2 7934   3.558   2.373  13.555  0.2219 -0.3633 -0.0239
  531MPD2    C3 7935   3.489   2.282  13.468  0.0258 -0.0713 -0.0207
  531MPD2    C4 7936   3.528   2.149  13.474  0.4977  0.5201 -0.0218
  531MPD2    C5 7937   3.637   2.105  13.550  0.6288  0.6397 -0.0250
  531MPD2     H 7938   3.541   2.480  13.553  2.5600  0.0475  1.9460
  531MPD2    H1 7939   3.473   2.078  13.415 -0.2097 -1.2116  2.7019
  531MPD2    H2 7940   3.787   2.152  13.677  0.0735  1.6295  1.5914
  531MPD2    H3 7941   3.660   2.000  13.544  2.3104  1.1189 -1.8488
  531MPD2     N 7942   3.394   2.315  13.371 -0.6892  0.1489 -0.3275
  531MPD2    H5 7943   3.366   2.237  13.311 -1.3795 -0.3370  0.6329
  531MPD2    N1 7944   3.758   2.426  13.683  0.0081  0.2908  0.0081
  531MPD2    H7 7945   3.851   2.389  13.694 -1.5874 -3.4296  0.8034
  532TMC3    C1 7946   3.833   2.630  13.774  0.2602  0.3549  0.6877
  532TMC3    C2 7947   3.787   2.752  13.809  0.0471 -0.3930  0.4218
  532TMC3    C3 7948   3.854   2.861  13.770  0.2511 -0.0439 -0.1799
  532TMC3    C4 7949   3.960   2.613  13.722  0.5829  0.1403  0.6224
  532TMC3    C5 7950   4.031   2.726  13.702  0.3726  0.0941  0.1667
  532TMC3    C6 7951   3.973   2.849  13.720 -0.6793 -0.0471 -0.2714
  532TMC3     C 7952   3.725   2.554  13.721  0.1091  0.0019  0.3526
  532TMC3     O 7953   3.613   2.600  13.724 -0.0119  0.6678  0.0841
  532TMC3     H 7954   3.689   2.753  13.855  0.5083  0.6983  1.3614
  532TMC3    H1 7955   3.994   2.511  13.711 -2.0144 -0.8947  2.2745
  532TMC3    H2 7956   4.031   2.938  13.699  3.4966 -2.5175  0.9183
  532TMC3    C7 7957   4.175   2.729  13.666 -0.4012  0.2782  0.2117
  532TMC3    C8 7958   3.764   2.957  13.701  0.0022  0.6289  0.8928
  532TMC3    O1 7959   4.228   2.834  13.647 -0.1580 -0.5563  0.6382
  532TMC3    O2 7960   3.815   3.071  13.688  0.1709  0.0202  0.2233
  533TMC3    C1 7961   4.131   3.692  14.606  0.4835  0.1885  0.3962
  533TMC3    C2 7962   4.261   3.730  14.627 -0.7828 -0.0082 -0.3404
  533TMC3    C3 7963   4.280   3.860  14.672 -0.0482  0.1511  1.2073
  533TMC3    C4 7964   4.022   3.775  14.630 -0.7619 -0.2062  0.5247
  533TMC3    C5 7965   4.051   3.902  14.674 -0.3980 -0.7383 -0.1769
  533TMC3    C6 7966   4.176   3.944  14.688 -0.2321 -0.0020 -0.1586
  533TMC3     C 7967   4.112   3.549  14.642 -0.6351 -0.2826 -0.1785
  533TMC3     O 7968   4.175   3.514  14.749 -0.9331  0.1781 -0.0828
  533TMC3     H 7969   4.340   3.659  14.604 -3.0232 -2.8007  0.6201
  533TMC3    H1 7970   3.923   3.735  14.610 -0.4284 -0.3296 -0.8746
  533TMC3    H2 7971   4.198   4.050  14.694  1.8785 -0.4466 -0.1833
  533TMC3    C7 7972   3.953   3.950  14.773  0.2247  0.0261 -0.4600
  533TMC3    C8 7973   4.396   3.922  14.620 -0.2080  0.5668 -0.7319
  533TMC3    O1 7974   3.844   3.894  14.783 -0.5604  1.0720 -0.3053
  533TMC3    O2 7975   4.377   4.025  14.554 -0.0851 -0.2834  0.4380
  534MPD2     C 7976   2.416   3.996   1.235  0.1224  0.2118 -0.5748
  534MPD2    C1 7977   2.357   4.112   1.282  0.1338 -0.6257  0.1978
  534MPD2    C2 7978   2.223   4.130   1.259  0.1252  0.0410 -0.1951
  534MPD2    C3 7979   2.151   4.042   1.183 -0.1086 -0.4322 -0.7695
  534MPD2    C4 7980   2.209   3.926   1.133  0.0291 -0.3281  0.4257
  534MPD2    C5 7981   2.341   3.893   1.174 -0.2510 -0.0632 -0.9971
  534MPD2     H 7982   2.173   4.223   1.282  1.8306  0.0431  3.5053
  534MPD2    H1 7983   2.157   3.850   1.076  1.1660  0.1930 -1.2777
  534MPD2    H2 7984   2.519   3.978   1.262 -0.2136  0.3484  0.8339
  534MPD2    H3 7985   2.394   3.804   1.144 -1.4116 -0.8081 -0.8427
  534MPD2     N 7986   2.025   4.068   1.132 -0.6196 -0.3665 -0.1051
  534MPD2    H5 7987   1.987   3.985   1.087  0.0709 -0.0479 -1.2843
  534MPD2    N1 7988   2.421   4.207   1.365 -0.2108  0.1128  0.1159
  534MPD2    H7 7989   2.373   4.296   1.376  0.9495  0.6596  0.8100
  535TMC3    C1 7990   1.822   4.183   1.083 -0.5497  0.1104 -0.4662
  535TMC3    C2 7991   1.750   4.080   1.129 -0.2887 -0.5974 -0.0297
  535TMC3    C3 7992   1.618   4.080   1.102  0.0860  0.3317  0.0979
  535TMC3    C4 7993   1.763   4.300   1.039 -0.1244 -0.1969 -0.3230
  535TMC3    C5 7994   1.629   4.303   1.027  0.6880  0.0734 -0.5786
  535TMC3    C6 7995   1.552   4.192   1.044  0.0038  0.1011 -0.0398
  535TMC3     C 7996   1.958   4.193   1.139 -0.6392  0.1322  0.1049
  535TMC3     O 7997   1.998   4.307   1.156  0.1821 -0.2836  0.2034
  535TMC3     H 7998   1.798   3.993   1.174 -0.5222 -0.6617  0.0924
  535TMC3    H1 7999   1.817   4.391   1.016  0.0836 -0.6408 -1.5774
  535TMC3    H2 8000   1.444   4.184   1.041  0.1977 -3.0802  1.4090
  535TMC3    C7 8001   1.569   4.399   0.928 -0.6208  0.3619 -0.0710
  535TMC3    C8 8002   1.526   3.986   1.174  0.1680  0.2270  0.4127
  535TMC3    O1 8003   1.493   4.356   0.844 -0.3184 -0.7892  0.0352
  535TMC3    O2 8004   1.429   3.950   1.112  0.3097 -0.1814 -0.4567
  536MPD2     C 8005   0.743   3.084  16.293  0.1333 -0.2105  0.0369
  536MPD2    C1 8006   0.616   3.029  16.315  0.3577 -0.0478 -0.2083
  536MPD2    C2 8007   0.520   3.048  16.220 -0.3287 -0.4646  0.3656
  536MPD2    C3 8008   0.543   3.126  16.109  1.3675  0.0004 -0.2713
  536MPD2    C4 8009   0.669   3.185  16.091  0.2874 -0.0924 -0.2218
  536MPD2    C5 8010   0.765   3.164  16.185  0.0510  0.0097 -0.3790
  536MPD2     H 8011   0.419   3.011  16.225 -0.1114 -1.0539  0.3775
  536MPD2    H1 8012   0.703   3.244  16.006 -1.5955  0.3852 -0.6388
  536MPD2    H2 8013   0.821   3.077  16.369 -0.5427 -1.1862  0.6384
  536MPD2    H3 8014   0.858   3.215  16.163  0.0647  0.6997  1.2608
  536MPD2     N 8015   0.440   3.165  16.013 -0.4175 -0.0372 -0.0208
  536MPD2    H5 8016   0.479   3.217  15.935 -0.3740  0.0643  0.0691
  536MPD2    N1 8017   0.606   2.953  16.430 -0.0930 -0.4593 -0.4677
  536MPD2    H7 8018   0.694   2.948  16.480  0.8510 -0.0507 -2.0721
  537TMC3    C1 8019   0.517   2.821  16.597  0.9478  0.1858 -0.7677
  537TMC3    C2 8020   0.616   2.859  16.689  0.6534  0.6687  0.6487
  537TMC3    C3 8021   0.611   2.804  16.815 -0.1782  0.2530 -0.9300
  537TMC3    C4 8022   0.418   2.729  16.635 -0.0402  0.2714  0.2467
  537TMC3    C5 8023   0.426   2.667  16.756 -0.1423 -0.3020 -1.0542
  537TMC3    C6 8024   0.523   2.701  16.842 -1.3417 -0.5902 -0.6207
  537TMC3     C 8025   0.492   2.895  16.477  0.0597 -0.4463  0.8439
  537TMC3     O 8026   0.377   2.910  16.444  0.1053  0.3520 -0.3991
  537TMC3     H 8027   0.692   2.933  16.669 -0.3452  1.3153 -0.7960
  537TMC3    H1 8028   0.338   2.700  16.568  0.8519  0.3310 -0.8529
  537TMC3    H2 8029   0.536   2.637  16.928 -0.3341 -0.3195 -0.5756
  537TMC3    C7 8030   0.332   2.562  16.778 -1.1291  0.7841  0.0521
  537TMC3    C8 8031   0.714   2.842  16.911 -0.3887  0.0924 -0.6150
  537TMC3    O1 8032   0.291   2.512  16.674 -0.2821 -0.4384  0.0461
  537TMC3    O2 8033   0.809   2.902  16.867  0.0161 -0.0278  0.0836
  538TMC3    C1 8034   2.173   2.015  11.026  0.2756 -0.3807 -0.3137
  538TMC3    C2 8035   2.303   2.009  10.984  0.1914  0.3337  0.6579
  538TMC3    C3 8036   2.325   1.965  10.856  0.0105  0.5182 -0.1232
  538TMC3    C4 8037   2.066   2.000  10.943 -0.5786  0.4802 -1.1293
  538TMC3    C5 8038   2.094   1.964  10.814 -0.7409  0.0112 -0.7699
  538TMC3    C6 8039   2.219   1.950  10.766  1.0335  1.0049  0.0692
  538TMC3     C 8040   2.141   2.034  11.167  0.2874 -0.2752 -0.9063
  538TMC3     O 8041   2.022   2.041  11.201 -0.4190  0.0705  0.0943
  538TMC3     H 8042   2.379   2.031  11.058  1.2171 -0.7849 -0.0724
  538TMC3    H1 8043   1.965   2.006  10.982  0.0082  1.1467  0.3276
  538TMC3    H2 8044   2.240   1.892  10.677 -1.1314  2.2230 -1.2482
  538TMC3    C7 8045   1.996   1.963  10.711 -0.7768  0.3088 -0.0539
  538TMC3    C8 8046   2.452   2.018  10.806  0.3998 -0.3336 -0.5278
  538TMC3    O1 8047   1.881   1.964  10.758  0.2486 -0.2601 -0.1327
  538TMC3    O2 8048   2.534   2.056  10.890  0.5830 -0.0646  0.1888
  539MPD2     C 8049   1.919   1.605  11.482  0.3385  0.5360 -0.0120
  539MPD2    C1 8050   1.822   1.546  11.405 -0.5977  0.0139  0.7215
  539MPD2    C2 8051   1.752   1.633  11.323  0.3189 -0.0993 -0.7028
  539MPD2    C3 8052   1.768   1.775  11.327  0.8428 -0.3093 -0.7269
  539MPD2    C4 8053   1.863   1.828  11.414  0.1504  0.1708 -0.8623
  539MPD2    C5 8054   1.927   1.737  11.495 -0.8943 -0.0034 -0.3422
  539MPD2     H 8055   1.676   1.581  11.265  0.3270 -0.6623 -0.2157
  539MPD2    H1 8056   1.865   1.937  11.415 -1.8563  0.1930  0.3583
  539MPD2    H2 8057   1.984   1.549  11.548 -2.6764 -1.2447  1.4809
  539MPD2    H3 8058   1.991   1.783  11.570 -0.3151 -1.5964  0.1415
  539MPD2     N 8059   1.686   1.868  11.262 -0.7613 -0.1471 -0.7611
  539MPD2    H5 8060   1.702   1.965  11.286 -4.6900  0.5363 -0.8690
  539MPD2    N1 8061   1.807   1.410  11.385 -0.1836  0.2018  0.5762
  539MPD2    H7 8062   1.720   1.385  11.339 -0.1882 -0.3691  0.8910
  540TMC3    C1 8063   1.545   1.947  11.094 -0.1267 -0.6270 -0.2733
  540TMC3    C2 8064   1.552   1.927  10.957 -0.1638  0.2315  0.2762
  540TMC3    C3 8065   1.543   2.044  10.884 -0.5421  0.6196  0.2735
  540TMC3    C4 8066   1.538   2.066  11.161 -0.2562  0.5545  0.0184
  540TMC3    C5 8067   1.532   2.172  11.080  0.2304 -0.2842 -0.2828
  540TMC3    C6 8068   1.542   2.168  10.943  0.1413  0.1425  0.1283
  540TMC3     C 8069   1.589   1.836  11.167 -0.1393 -0.4626  0.2908
  540TMC3     O 8070   1.569   1.733  11.111 -0.0868 -0.0013 -0.0160
  540TMC3     H 8071   1.550   1.825  10.920 -1.3292 -0.0473  1.1105
  540TMC3    H1 8072   1.529   2.068  11.269  1.5715  1.2576  0.1611
  540TMC3    H2 8073   1.516   2.248  10.875 -1.9554 -1.2897 -0.7872
  540TMC3    C7 8074   1.524   2.305  11.135 -0.4033  0.4436  0.2105
  540TMC3    C8 8075   1.507   2.036  10.743 -0.2388  0.0608  0.1395
  540TMC3    O1 8076   1.532   2.400  11.057 -0.4241 -0.4058  0.7414
  540TMC3    O2 8077   1.526   2.138  10.676  0.4193  0.2570  0.1337
  541MPD2     C 8078   0.449   2.903  13.336  0.4381 -0.5193  0.3365
  541MPD2    C1 8079   0.347   2.837  13.268 -0.1497 -0.3970  0.1958
  541MPD2    C2 8080   0.264   2.901  13.189 -0.2454 -0.1294  0.2637
  541MPD2    C3 8081   0.272   3.040  13.181 -0.2837  0.1622  0.3639
  541MPD2    C4 8082   0.362   3.111  13.257  0.4269  0.2721 -0.0598
  541MPD2    C5 8083   0.438   3.039  13.346  0.9490  0.3275 -1.0790
  541MPD2     H 8084   0.202   2.834  13.130  1.0433 -0.4311 -0.7568
  541MPD2    H1 8085   0.380   3.218  13.254 -0.6073  0.3800 -2.1712
  541MPD2    H2 8086   0.512   2.847  13.404  0.3840  1.2003  1.8021
  541MPD2    H3 8087   0.512   3.095  13.403 -1.7749  1.3276  1.4453
  541MPD2     N 8088   0.187   3.115  13.097 -0.2915  0.4049 -0.3297
  541MPD2    H5 8089   0.193   3.216  13.103 -0.7539  0.2495  2.6278
  541MPD2    N1 8090   0.349   2.697  13.291  0.2253  0.1216 -0.1976
  541MPD2    H7 8091   0.426   2.658  13.344 -1.9608 -1.1362  2.0470
  542TMC3    C1 8092   0.050   3.164  12.897  0.5522 -0.3270 -0.2355
  542TMC3    C2 8093   4.730   3.109  12.785 -0.5347 -0.2647 -0.3352
  542TMC3    C3 8094   4.727   3.187  12.669  0.5088 -0.8003  0.6817
  542TMC3    C4 8095   0.067   3.299  12.908  0.1260  0.1579  1.0896
  542TMC3    C5 8096   0.037   3.369  12.794  0.7532  0.3540 -0.0088
  542TMC3    C6 8097   0.004   3.316  12.672  0.1191  0.2826  0.0288
  542TMC3     C 8098   0.112   3.067  12.990  0.0912  0.2845 -0.1569
  542TMC3     O 8099   0.101   2.947  12.962  0.0980 -0.2862  0.3934
  542TMC3     H 8100   4.725   3.001  12.780  0.4570 -0.2390 -1.7911
  542TMC3    H1 8101   0.065   3.343  13.007 -0.5827 -0.7239  1.4675
  542TMC3    H2 8102   4.729   3.384  12.589  1.6281  0.0044 -0.3841
  542TMC3    C7 8103   0.073   3.507  12.811 -0.2506  0.1260  0.5766
  542TMC3    C8 8104   4.645   3.137  12.559 -0.5520 -0.0135  0.3309
  542TMC3    O1 8105   0.133   3.543  12.911  0.8659  0.2250 -0.3647
  542TMC3    O2 8106   4.672   3.184  12.453  0.3247  0.2910 -0.2545
  543TMC3    C1 8107   3.915   4.195  17.293 -0.4489 -0.3936  0.0482
  543TMC3    C2 8108   3.945   4.065  17.312 -0.2449  0.3674 -0.3594
  543TMC3    C3 8109   3.850   3.988  17.379  0.2146 -0.0733 -0.3600
  543TMC3    C4 8110   3.801   4.249  17.344  0.0734 -0.9751 -0.7331
  543TMC3    C5 8111   3.709   4.165  17.404 -0.5483  0.8256 -0.2555
  543TMC3    C6 8112   3.727   4.033  17.414  0.3573 -0.4437 -0.5438
  543TMC3     C 8113   3.945   4.239  17.158  0.0803 -0.2317  0.0711
  543TMC3     O 8114   3.895   4.343  17.125  0.5113 -0.1654 -0.2268
  543TMC3     H 8115   4.041   4.020  17.290  0.6698  1.7737  0.7178
  543TMC3    H1 8116   3.767   4.351  17.325  0.1993 -0.6085  1.0315
  543TMC3    H2 8117   3.652   3.964  17.452 -1.1482  1.8493  0.6911
  543TMC3    C7 8118   3.575   4.216  17.447 -0.2145  0.1786 -0.4199
  543TMC3    C8 8119   3.854   3.851  17.338 -0.0558  0.5222 -0.2619
  543TMC3    O1 8120   3.492   4.131  17.476 -0.6000  0.3096 -0.2737
  543TMC3    O2 8121   3.915   3.823  17.231 -0.4727 -0.2000 -0.1096
  544MPD2     C 8122   3.664   3.372  17.382 -0.2905 -0.0646 -0.1910
  544MPD2    C1 8123   3.703   3.442  17.273  0.6481 -0.6773  0.2708
  544MPD2    C2 8124   3.747   3.570  17.283  0.2113  0.0930  0.2743
  544MPD2    C3 8125   3.756   3.628  17.410 -0.1723  0.4222 -0.2140
  544MPD2    C4 8126   3.708   3.560  17.517 -0.6328  0.6372 -0.6394
  544MPD2    C5 8127   3.652   3.439  17.502 -0.1256 -0.4466  0.1560
  544MPD2     H 8128   3.756   3.639  17.200 -0.4737 -1.6171 -1.2197
  544MPD2    H1 8129   3.714   3.613  17.611 -2.0736  0.4233 -0.4219
  544MPD2    H2 8130   3.622   3.273  17.366 -3.2284  0.8879  1.6653
  544MPD2    H3 8131   3.611   3.381  17.584  1.8179  1.2070  2.2915
  544MPD2     N 8132   3.799   3.765  17.428  0.4818  0.1558  0.0748
  544MPD2    H5 8133   3.793   3.809  17.519  1.3736 -1.1006  0.7396
  544MPD2    N1 8134   3.701   3.388  17.145 -0.2947  0.1988 -0.6063
  544MPD2    H7 8135   3.682   3.289  17.132  1.0684 -0.2324  0.7294
  545TMC3    C1 8136   3.677   3.373  16.913  0.2238  0.0495 -0.5488
  545TMC3    C2 8137   3.621   3.441  16.815  0.4901 -0.2840 -0.0656
  545TMC3    C3 8138   3.639   3.392  16.685  1.3746 -0.8931 -0.6663
  545TMC3    C4 8139   3.742   3.257  16.893 -0.0484  0.2813 -0.2859
  545TMC3    C5 8140   3.759   3.209  16.767 -0.4954  0.0296 -0.5594
  545TMC3    C6 8141   3.710   3.279  16.658 -0.6101 -0.0270 -0.3316
  545TMC3     C 8142   3.708   3.456  17.022  0.2355 -0.3232 -0.2265
  545TMC3     O 8143   3.704   3.576  16.994 -0.1961 -0.2271  0.1403
  545TMC3     H 8144   3.560   3.530  16.826 -0.3937 -0.9373  0.3239
  545TMC3    H1 8145   3.798   3.207  16.971  0.7913  0.8679 -0.5078
  545TMC3    H2 8146   3.725   3.249  16.555 -0.6381 -0.3862 -0.2297
  545TMC3    C7 8147   3.763   3.067  16.743  0.1576 -0.6115  0.3502
  545TMC3    C8 8148   3.572   3.455  16.573  0.9203  0.1878  0.3526
  545TMC3    O1 8149   3.724   3.026  16.636 -0.1207 -0.1226  0.1118
  545TMC3    O2 8150   3.626   3.451  16.463 -0.2297 -0.3490 -0.2029
  546MPD2     C 8151   0.804   3.820  17.181  0.3856  0.3356 -0.7413
  546MPD2    C1 8152   0.731   3.866  17.079  0.5311  0.9228  0.0929
  546MPD2    C2 8153   0.703   4.000  17.062  0.1689 -0.0476 -0.4762
  546MPD2    C3 8154   0.737   4.084  17.163  0.1851  0.0796  0.6996
  546MPD2    C4 8155   0.825   4.039  17.269  0.3434 -0.4892 -0.0865
  546MPD2    C5 8156   0.857   3.907  17.271 -0.0691 -0.0812  0.0624
  546MPD2     H 8157   0.639   4.042  16.986 -0.1955 -1.5326 -0.9842
  546MPD2    H1 8158   0.882   4.108  17.329 -2.4685 -0.1317  2.1682
  546MPD2    H2 8159   0.820   3.713  17.188 -0.9589  0.0565 -1.9973
  546MPD2    H3 8160   0.920   3.866  17.348  1.6422  1.6207 -0.4196
  546MPD2     N 8161   0.727   4.222  17.155  0.3560 -0.2359  0.2134
  546MPD2    H5 8162   0.777   4.262  17.234 -1.1939  2.5089 -0.2059
  546MPD2    N1 8163   0.693   3.769  16.987  0.1275  0.0081  0.3189
  546MPD2    H7 8164   0.701   3.671  17.012 -0.3141 -0.4451 -1.2904
  547TMC3    C1 8165   0.586   3.664  16.810 -0.0005 -0.4752  0.2279
  547TMC3    C2 8166   0.487   3.673  16.715 -0.4778  0.0637 -0.2972
  547TMC3    C3 8167   0.434   3.555  16.676  0.6773  0.0771  0.3807
  547TMC3    C4 8168   0.637   3.540  16.854 -0.0722 -0.6921 -0.1454
  547TMC3    C5 8169   0.582   3.427  16.815 -0.4476  0.1609  0.3088
  547TMC3    C6 8170   0.482   3.435  16.724  1.1384  0.3408 -0.5828
  547TMC3     C 8171   0.629   3.792  16.868 -0.1380 -0.2753 -0.1789
  547TMC3     O 8172   0.598   3.895  16.808 -0.4573 -0.0851  0.5973
  547TMC3     H 8173   0.443   3.771  16.700  1.5275  1.1121  0.6447
  547TMC3    H1 8174   0.706   3.536  16.937 -0.4914 -1.7290  0.1444
  547TMC3    H2 8175   0.436   3.339  16.699  0.7048  0.4637 -0.2604
  547TMC3    C7 8176   0.583   3.323  16.917  0.5394 -0.2255  0.1316
  547TMC3    C8 8177   0.302   3.561  16.611  0.0123  0.2687  0.8672
  547TMC3    O1 8178   0.695   3.302  16.969  0.1087  0.3634  0.2239
  547TMC3    O2 8179   0.234   3.666  16.615  0.6246 -0.4755  0.2964
  548MPD2     C 8180   0.959   0.436  12.097  0.2303  0.2230 -0.0896
  548MPD2    C1 8181   0.926   0.341  12.191  0.1545 -0.0367 -0.1079
  548MPD2    C2 8182   0.995   0.219  12.182  0.2287  0.0532 -0.6165
  548MPD2    C3 8183   1.096   0.194  12.090 -0.4807 -0.4981 -0.5571
  548MPD2    C4 8184   1.127   0.297  12.003 -1.0210  0.3620  0.3949
  548MPD2    C5 8185   1.058   0.414  12.004 -0.7052 -0.1713  0.2816
  548MPD2     H 8186   0.965   0.133  12.241 -3.3405  0.8524 -1.2509
  548MPD2    H1 8187   1.196   0.283  11.920 -0.3722  2.3731  0.5916
  548MPD2    H2 8188   0.907   0.530  12.090  1.8197  1.1900  0.8474
  548MPD2    H3 8189   1.067   0.498  11.935  0.5593 -0.4893  0.0598
  548MPD2     N 8190   1.151   0.066  12.079  0.2592  0.2356  0.0403
  548MPD2    H5 8191   1.124   4.731  12.148  1.8995 -0.9451 -0.5335
  548MPD2    N1 8192   0.821   0.364  12.287 -0.3284 -0.4424  0.1703
  548MPD2    H7 8193   0.759   0.444  12.279  1.0087  0.4621 -0.9261
  549TMC3    C1 8194   0.701   0.298  12.487  0.2933  0.5972 -0.6587
  549TMC3    C2 8195   0.573   0.300  12.430 -0.4506 -0.4084  0.1752
  549TMC3    C3 8196   0.472   0.217  12.477 -0.1211  0.2358 -0.4467
  549TMC3    C4 8197   0.717   0.232  12.604  0.2008  0.1594 -0.1022
  549TMC3    C5 8198   0.614   0.154  12.647  0.7582  0.8852  0.3861
  549TMC3    C6 8199   0.496   0.137  12.584  0.1491 -0.1550  0.0970
  549TMC3     C 8200   0.804   0.273  12.388  0.4266 -0.4971  0.1087
  549TMC3     O 8201   0.868   0.174  12.419 -0.2371 -0.3311 -0.2724
  549TMC3     H 8202   0.561   0.336  12.329  0.5628 -3.5308 -1.0741
  549TMC3    H1 8203   0.813   0.224  12.653 -0.1793  0.1881  0.6476
  549TMC3    H2 8204   0.410   0.085  12.624  1.6388 -2.0799  0.7660
  549TMC3    C7 8205   0.644   0.078  12.762 -0.3993 -0.0079 -0.4427
  549TMC3    C8 8206   0.383   0.161  12.372 -0.2608  0.3339 -0.0919
  549TMC3    O1 8207   0.718   0.133  12.843  0.4444  0.9045  0.0669
  549TMC3    O2 8208   0.369   0.039  12.383 -0.2271 -0.4075 -0.3249
  550TMC3    C1 8209   4.117   2.204  12.598  0.5754  0.4798 -0.2657
  550TMC3    C2 8210   4.065   2.268  12.712  0.7848 -0.1883 -0.4077
  550TMC3    C3 8211   4.100   2.395  12.733  0.5712  0.2929  0.1612
  550TMC3    C4 8212   4.199   2.272  12.509 -0.2852 -0.0408 -0.7695
  550TMC3    C5 8213   4.217   2.408  12.525  0.9610  0.1078 -0.4634
  550TMC3    C6 8214   4.167   2.469  12.637  0.2439  0.4299 -0.9124
  550TMC3     C 8215   4.038   2.093  12.553  0.7321 -0.4747  0.0660
  550TMC3     O 8216   3.973   2.032  12.643 -0.6992  0.1163 -0.1948
  550TMC3     H 8217   4.016   2.210  12.789  1.2292 -0.3499 -0.2471
  550TMC3    H1 8218   4.248   2.204  12.440 -0.9794  0.6421 -1.9317
  550TMC3    H2 8219   4.166   2.578  12.643 -1.5861  0.5489 -3.2464
  550TMC3    C7 8220   4.169   2.477  12.406 -0.0494  0.2847  0.3308
  550TMC3    C8 8221   4.006   2.479  12.806 -0.0983  0.3105 -0.9653
  550TMC3    O1 8222   4.102   2.574  12.440 -0.3509  0.3037  0.0427
  550TMC3    O2 8223   4.003   2.596  12.786  0.6118 -0.1281  0.3560
  551TMC3    C1 8224   2.146   0.378  13.203  0.8217  0.0152  0.2181
  551TMC3    C2 8225   2.260   0.397  13.138  0.0397 -0.2702 -0.4289
  551TMC3    C3 8226   2.370   0.439  13.196 -0.3738  0.4403  0.4135
  551TMC3    C4 8227   2.133   0.419  13.332 -0.7048 -0.0031 -0.5945
  551TMC3    C5 8228   2.244   0.469  13.389 -0.1837 -0.0418  0.1372
  551TMC3    C6 8229   2.370   0.468  13.333 -0.0336  0.3187  0.0078
  551TMC3     C 8230   2.031   0.353  13.122  0.6032 -0.2064 -0.0952
  551TMC3     O 8231   2.047   0.292  13.016 -0.4702  0.0254 -0.1667
  551TMC3     H 8232   2.265   0.361  13.036 -4.1686  1.9682 -1.4133
  551TMC3    H1 8233   2.053   0.395  13.400  0.5406 -1.1009  0.4892
  551TMC3    H2 8234   2.458   0.520  13.370  0.2920  0.2849 -0.6995
  551TMC3    C7 8235   2.239   0.469  13.530  0.8816 -0.1312  0.2726
  551TMC3    C8 8236   2.494   0.422  13.124  0.0799 -0.4969  0.3456
  551TMC3    O1 8237   2.145   0.523  13.584  0.2076  0.4379 -0.0869
  551TMC3    O2 8238   2.526   0.308  13.105  0.1876  0.0834 -0.0706
  552MPD2     C 8239   3.395   1.641  14.282 -0.1933  0.5112 -0.1522
  552MPD2    C1 8240   3.531   1.647  14.266 -0.9919  0.0717 -0.0366
  552MPD2    C2 8241   3.609   1.673  14.380 -0.2855 -0.2762  0.1683
  552MPD2    C3 8242   3.552   1.702  14.503  0.4704  0.8938 -0.0640
  552MPD2    C4 8243   3.415   1.715  14.515 -0.4696 -0.0859  1.0409
  552MPD2    C5 8244   3.339   1.679  14.401 -0.5864  0.0709  0.2824
  552MPD2     H 8245   3.715   1.656  14.365 -0.2299 -0.1935  0.4755
  552MPD2    H1 8246   3.361   1.746  14.604  1.2558  2.8731  1.0670
  552MPD2    H2 8247   3.332   1.594  14.208  1.9396  0.7719 -2.1436
  552MPD2    H3 8248   3.233   1.664  14.413 -0.3425 -0.7052  1.4668
  552MPD2     N 8249   3.627   1.725  14.623  0.1195 -0.0774 -0.4277
  552MPD2    H5 8250   3.574   1.760  14.702  2.2093 -4.1809  2.8186
  552MPD2    N1 8251   3.590   1.591  14.153  0.8078  0.6938  0.0180
  552MPD2    H7 8252   3.685   1.558  14.167  0.5992 -0.8397 -2.2268
  553TMC3    C1 8253   3.595   1.463  13.960  0.4111 -0.2215  0.0215
  553TMC3    C2 8254   3.673   1.497  13.855  0.3410 -0.1554 -0.0963
  553TMC3    C3 8255   3.794   1.435  13.828  0.3036 -0.1458 -0.2135
  553TMC3    C4 8256   3.656   1.370  14.051 -0.3548  0.2293 -0.0188
  553TMC3    C5 8257   3.791   1.326  14.034 -0.8920 -0.4489  0.6986
  553TMC3    C6 8258   3.860   1.361  13.920  0.6644  0.4841 -0.9209
  553TMC3     C 8259   3.531   1.566  14.033 -0.2935  0.0894 -0.6016
  553TMC3     O 8260   3.424   1.598  13.988  0.2174  0.4941 -0.1667
  553TMC3     H 8261   3.630   1.582  13.803 -0.9980 -1.2520 -0.7616
  553TMC3    H1 8262   3.604   1.351  14.144 -0.2709 -3.2199 -0.6828
  553TMC3    H2 8263   3.960   1.328  13.893  0.2113 -2.8370  1.5021
  553TMC3    C7 8264   3.875   1.295  14.147 -0.0502  0.1996  0.4375
  553TMC3    C8 8265   3.887   1.510  13.742  0.4424  0.0649  0.0841
  553TMC3    O1 8266   3.823   1.249  14.245  0.2955  0.0704  0.8949
  553TMC3    O2 8267   4.000   1.540  13.784 -0.3015 -0.8383  0.0591
  554TMC3    C1 8268   0.875   1.557  11.326 -0.3022  0.7285 -0.0415
  554TMC3    C2 8269   0.796   1.536  11.219  0.3288  0.3773 -0.0501
  554TMC3    C3 8270   0.811   1.602  11.101 -0.5802  0.1759 -0.7511
  554TMC3    C4 8271   0.981   1.649  11.317  0.7262 -0.0901  0.4147
  554TMC3    C5 8272   0.994   1.717  11.192 -0.3303 -0.1236 -0.2512
  554TMC3    C6 8273   0.907   1.700  11.096 -0.6688 -0.0174  0.0662
  554TMC3     C 8274   0.842   1.504  11.460  0.0597 -0.7038  0.8065
  554TMC3     O 8275   0.721   1.482  11.465  0.1420 -0.1639  0.4134
  554TMC3     H 8276   0.720   1.461  11.239  0.0618  0.3803 -1.0593
  554TMC3    H1 8277   1.044   1.668  11.403  2.1520 -2.1039 -0.1885
  554TMC3    H2 8278   0.909   1.764  11.008 -4.0479  0.0155  0.0206
  554TMC3    C7 8279   1.063   1.845  11.207 -0.3863  0.2866 -0.5366
  554TMC3    C8 8280   0.701   1.604  11.008  0.2291  0.3041 -0.2016
  554TMC3    O1 8281   1.075   1.891  11.317 -0.8942 -0.5301 -0.1547
  554TMC3    O2 8282   0.720   1.686  10.919  0.2395  0.0801  0.7287
  555TMC3    C1 8283   4.248   0.674  15.197  0.5961  0.3365 -0.1276
  555TMC3    C2 8284   4.221   0.735  15.317 -0.1675 -0.2019 -0.1055
  555TMC3    C3 8285   4.241   0.654  15.429 -0.6319  0.4420 -0.0853
  555TMC3    C4 8286   4.299   0.541  15.186  0.5955 -0.5840  0.3657
  555TMC3    C5 8287   4.314   0.470  15.304  0.0874  0.2988 -0.3143
  555TMC3    C6 8288   4.280   0.523  15.426  0.1372 -0.2753 -0.7813
  555TMC3     C 8289   4.199   0.731  15.076  0.5010 -0.6081  0.4796
  555TMC3     O 8290   4.216   0.661  14.976 -0.7068  0.6640 -0.4220
  555TMC3     H 8291   4.200   0.841  15.329  1.7022  0.0786  0.6314
  555TMC3    H1 8292   4.320   0.501  15.088  0.8064  0.2366  0.0772
  555TMC3    H2 8293   4.284   0.472  15.521 -1.8178  0.5897 -0.2305
  555TMC3    C7 8294   4.365   0.328  15.301 -0.3451 -0.2591  0.0933
  555TMC3    C8 8295   4.230   0.725  15.556 -0.2089 -0.0168  0.2940
  555TMC3    O1 8296   4.354   0.272  15.409  0.0999  0.3494 -0.2382
  555TMC3    O2 8297   4.164   0.832  15.554  1.0330  0.0668 -0.3449
  556MPD2     C 8298   2.821   3.135  10.588  0.2902  0.3188 -0.2888
  556MPD2    C1 8299   2.760   3.029  10.660  0.3909 -0.8766 -0.2402
  556MPD2    C2 8300   2.674   2.946  10.588  0.1623 -0.7615  0.3225
  556MPD2    C3 8301   2.632   2.970  10.459 -0.0896  0.0691  0.0987
  556MPD2    C4 8302   2.679   3.083  10.398 -0.4718  0.0466  0.0295
  556MPD2    C5 8303   2.770   3.162  10.464 -0.4087  0.1393  0.1529
  556MPD2     H 8304   2.649   2.854  10.639  0.1141 -0.3478  1.0437
  556MPD2    H1 8305   2.647   3.120  10.302  2.9169 -0.1074 -1.1740
  556MPD2    H2 8306   2.899   3.194  10.634  0.1322 -0.9635  1.6198
  556MPD2    H3 8307   2.811   3.252  10.418 -1.2737  0.9097  0.8922
  556MPD2     N 8308   2.555   2.869  10.401 -0.1189  0.5980  0.2274
  556MPD2    H5 8309   2.524   2.788  10.453 -2.1337  0.5271 -1.0964
  556MPD2    N1 8310   2.803   2.981  10.783  0.0970  0.5987 -0.0554
  556MPD2    H7 8311   2.760   2.894  10.811  0.6374  1.3409  3.1089
  557TMC3    C1 8312   2.446   2.765  10.216 -0.2944 -0.2515  0.2623
  557TMC3    C2 8313   2.405   2.770  10.081  0.6007  0.6341 -0.3934
  557TMC3    C3 8314   2.365   2.649  10.021  0.8096 -0.0923 -0.2270
  557TMC3    C4 8315   2.456   2.649  10.284 -0.0751 -0.2706 -0.3328
  557TMC3    C5 8316   2.438   2.531  10.210 -0.0575 -0.3892 -0.2845
  557TMC3    C6 8317   2.383   2.524  10.084  0.9021  0.6009 -0.2360
  557TMC3     C 8318   2.495   2.882  10.283 -0.0897 -0.4141  0.7232
  557TMC3     O 8319   2.487   2.983  10.216  0.1372  0.0564  0.0757
  557TMC3     H 8320   2.401   2.868  10.036 -2.4551 -1.0233 -3.7638
  557TMC3    H1 8321   2.481   2.632  10.388 -1.2572 -1.2267 -0.2093
  557TMC3    H2 8322   2.361   2.426  10.042 -1.3155  0.8472  0.3292
  557TMC3    C7 8323   2.459   2.407  10.289 -0.5829  0.3414 -0.2897
  557TMC3    C8 8324   2.309   2.664   9.889 -0.1415  0.1535  0.3585
  557TMC3    O1 8325   2.373   2.317  10.280  0.6733 -0.4795  0.3573
  557TMC3    O2 8326   2.292   2.778   9.848 -0.1801  0.3041  0.2217
  558TMC3    C1 8327   0.407   0.630  10.534 -0.0055  0.0835  0.2555
  558TMC3    C2 8328   0.336   0.598  10.645 -0.0839  0.2689 -0.3103
  558TMC3    C3 8329   0.205   0.643  10.653  0.0626  0.9120  0.1142
  558TMC3    C4 8330   0.363   0.717  10.435 -0.0323  0.5792  0.2460
  558TMC3    C5 8331   0.233   0.764  10.450  0.2453  0.1888  0.0316
  558TMC3    C6 8332   0.156   0.728  10.562 -0.2764  0.1190 -0.3239
  558TMC3     C 8333   0.526   0.567  10.498 -0.1395 -0.1322  0.0182
  558TMC3     O 8334   0.620   0.630  10.457 -0.4261  0.6209 -0.0704
  558TMC3     H 8335   0.379   0.529  10.717 -0.8250  0.3688  0.2301
  558TMC3    H1 8336   0.431   0.744  10.355  0.8346 -0.6329  0.5758
  558TMC3    H2 8337   0.060   0.776  10.579 -0.3578 -0.1219 -0.1118
  558TMC3    C7 8338   0.178   0.826  10.337  0.4122  0.8734  0.2690
  558TMC3    C8 8339   0.106   0.586  10.750 -0.2817  0.8177  0.9237
  558TMC3    O1 8340   0.256   0.877  10.256  0.2758  0.3802 -0.4345
  558TMC3    O2 8341   4.726   0.622  10.733 -0.0989  0.1559  0.7050
  559MPD2     C 8342   0.295   1.068  10.707  0.4620 -0.6434 -0.3069
  559MPD2    C1 8343   0.296   0.973  10.803  0.3812  0.6198 -0.4061
  559MPD2    C2 8344   0.402   0.896  10.821  0.3582 -0.1006 -0.1123
  559MPD2    C3 8345   0.518   0.908  10.751 -0.2336  0.6238  0.1111
  559MPD2    C4 8346   0.522   1.014  10.667 -0.6022 -0.6132 -0.1611
  559MPD2    C5 8347   0.410   1.096  10.641 -0.7383 -0.6299 -0.0017
  559MPD2     H 8348   0.400   0.820  10.899 -0.3879 -1.2036 -1.2075
  559MPD2    H1 8349   0.601   1.031  10.595 -1.5381  0.9928 -0.8229
  559MPD2    H2 8350   0.207   1.126  10.681  0.3117  0.2489  2.1059
  559MPD2    H3 8351   0.405   1.161  10.554  1.5838 -1.3935 -0.6783
  559MPD2     N 8352   0.627   0.824  10.765 -0.2137  1.1874 -0.3478
  559MPD2    H5 8353   0.612   0.737  10.815  1.5375  2.3338  2.1572
  559MPD2    N1 8354   0.168   0.952  10.858  0.0211  0.0984  0.0721
  559MPD2    H7 8355   0.100   1.023  10.831  0.4920  0.2453 -0.7260
  560TMC3    C1 8356   0.860   0.767  10.767 -0.2882  0.0089 -0.9008
  560TMC3    C2 8357   0.821   0.637  10.763  0.4027  0.7410 -0.1002
  560TMC3    C3 8358   0.917   0.551  10.795 -0.2333  0.2994 -0.1067
  560TMC3    C4 8359   0.984   0.815  10.794 -0.8167 -0.0679  1.2453
  560TMC3    C5 8360   1.074   0.716  10.829  0.2861 -0.3444 -0.5098
  560TMC3    C6 8361   1.041   0.586  10.832  0.2247  0.6032  0.1433
  560TMC3     C 8362   0.755   0.868  10.745  0.2592 -0.0935 -0.0306
  560TMC3     O 8363   0.801   0.975  10.717  0.5179 -0.4151 -0.0638
  560TMC3     H 8364   0.724   0.610  10.722 -0.6448  3.4568  0.5920
  560TMC3    H1 8365   1.002   0.918  10.820 -0.1737 -0.1933  1.3061
  560TMC3    H2 8366   1.122   0.521  10.865  0.0764  0.5497  0.3965
  560TMC3    C7 8367   1.194   0.759  10.910 -0.2478 -0.6425 -1.0123
  560TMC3    C8 8368   0.876   0.415  10.797 -0.7617  0.3728  0.3643
  560TMC3    O1 8369   1.240   0.668  10.979  0.1521 -0.2931  0.5607
  560TMC3    O2 8370   0.755   0.395  10.804  0.0148  0.2990 -0.0595
  561TMC3    C1 8371   3.149   0.267  11.611  0.0127 -1.0413 -0.4497
  561TMC3    C2 8372   3.073   0.216  11.710  1.0165 -0.5450 -0.6596
  561TMC3    C3 8373   2.974   0.301  11.750 -0.6725  0.0704  0.0047
  561TMC3    C4 8374   3.135   0.382  11.541  1.2970  0.0278  0.0306
  561TMC3    C5 8375   3.032   0.459  11.591  0.2893 -0.2449  1.0721
  561TMC3    C6 8376   2.947   0.426  11.695  0.5942  0.2428  0.2697
  561TMC3     C 8377   3.267   0.174  11.597 -0.2714 -0.4871  0.7950
  561TMC3     O 8378   3.255   0.056  11.631  1.0694  0.3047 -0.1199
  561TMC3     H 8379   3.105   0.126  11.761  2.2623 -1.0762 -2.3443
  561TMC3    H1 8380   3.192   0.412  11.454  2.3704  0.8717  1.0332
  561TMC3    H2 8381   2.876   0.496  11.735  0.9978  0.1745  1.1023
  561TMC3    C7 8382   3.003   0.587  11.524 -0.2789  0.1820  0.7551
  561TMC3    C8 8383   2.909   0.259  11.873 -1.2731  0.1247  0.0099
  561TMC3    O1 8384   2.957   0.689  11.580  1.0129  0.1571  0.2315
  561TMC3    O2 8385   2.948   0.159  11.926 -0.5019  0.1846 -0.1058
  562TMC3    C1 8386   4.241   1.270  16.846 -0.3625 -0.1376 -0.3034
  562TMC3    C2 8387   4.155   1.366  16.789  0.7533 -0.0008 -0.2933
  562TMC3    C3 8388   4.091   1.345  16.670  0.1503 -0.3138 -0.1290
  562TMC3    C4 8389   4.241   1.149  16.791 -0.8595 -0.3735  0.1261
  562TMC3    C5 8390   4.170   1.124  16.675  0.2707 -0.0802  0.5979
  562TMC3    C6 8391   4.097   1.221  16.606 -0.0644 -0.6230  0.2829
  562TMC3     C 8392   4.305   1.290  16.978  0.0008 -0.0778 -0.2208
  562TMC3     O 8393   4.320   1.191  17.047  0.1784 -0.0514 -0.2058
  562TMC3     H 8394   4.135   1.462  16.835 -0.0638 -0.9342  1.3003
  562TMC3    H1 8395   4.296   1.072  16.844 -0.2262 -0.6834 -0.9838
  562TMC3    H2 8396   4.036   1.204  16.518 -1.1371  0.3786  0.8510
  562TMC3    C7 8397   4.163   0.987  16.627 -0.1185 -0.0638 -1.0746
  562TMC3    C8 8398   4.004   1.456  16.628  0.0630 -0.5568 -0.1491
  562TMC3    O1 8399   4.109   0.974  16.521  0.3303  0.0567 -0.5247
  562TMC3    O2 8400   3.949   1.525  16.713  0.3876 -0.1026 -0.7718
  563MPD2     C 8401   1.528   2.453  15.477  0.2544 -0.7249 -0.6770
  563MPD2    C1 8402   1.584   2.440  15.596  0.1881 -0.3865  0.5024
  563MPD2    C2 8403   1.662   2.331  15.620  0.5677 -0.8446  0.3576
  563MPD2    C3 8404   1.684   2.236  15.526 -0.5439 -0.0376  0.1131
  563MPD2    C4 8405   1.614   2.244  15.408  0.4174  0.4807 -0.0067
  563MPD2    C5 8406   1.545   2.354  15.381 -0.7659  0.3341  0.2855
  563MPD2     H 8407   1.706   2.308  15.717  4.0377  2.9919 -0.3151
  563MPD2    H1 8408   1.630   2.163  15.338  1.4580  0.5964  0.1032
  563MPD2    H2 8409   1.470   2.541  15.448 -1.2917 -1.5330 -0.0235
  563MPD2    H3 8410   1.501   2.363  15.282  0.6926 -0.0208 -0.3961
  563MPD2     N 8411   1.783   2.137  15.556  0.4061 -0.2519 -0.2124
  563MPD2    H5 8412   1.841   2.155  15.637  1.1423 -0.3518 -0.7117
  563MPD2    N1 8413   1.564   2.541  15.691  0.7215 -0.2373  0.6224
  563MPD2    H7 8414   1.500   2.614  15.661  1.1381 -0.9857 -2.0540
  564TMC3    C1 8415   1.574   2.619  15.913  0.9578 -0.3475  0.0036
  564TMC3    C2 8416   1.436   2.613  15.890 -0.3894  1.3382  0.0888
  564TMC3    C3 8417   1.370   2.572  16.008 -0.3008 -0.3544  0.0069
  564TMC3    C4 8418   1.638   2.571  16.026  0.7015  0.0643  0.0588
  564TMC3    C5 8419   1.563   2.508  16.118  0.3645  1.1437 -0.1935
  564TMC3    C6 8420   1.431   2.520  16.115  0.6752  0.3139 -0.3613
  564TMC3     C 8421   1.647   2.563  15.801 -0.5221  0.3342 -0.2130
  564TMC3     O 8422   1.758   2.520  15.826  0.0672  0.4139  0.2205
  564TMC3     H 8423   1.386   2.654  15.803 -0.3717 -1.7646 -1.4005
  564TMC3    H1 8424   1.746   2.564  16.037  0.7946  1.0306 -0.2896
  564TMC3    H2 8425   1.368   2.453  16.173 -0.1098 -0.0661 -1.6634
  564TMC3    C7 8426   1.613   2.367  16.142 -0.8341  0.4499  0.4311
  564TMC3    C8 8427   1.247   2.509  15.977 -0.2930 -0.6114 -0.5606
  564TMC3    O1 8428   1.599   2.318  16.255  0.4851 -1.1147 -0.3800
  564TMC3    O2 8429   1.174   2.473  16.067 -0.5439 -0.1589  0.0626
  565TMC3    C1 8430   2.515   4.339  10.195  0.0088  0.6055  0.1878
  565TMC3    C2 8431   2.508   4.224  10.270 -0.4254 -0.0034  0.0918
  565TMC3    C3 8432   2.411   4.132  10.220 -0.2722 -0.3080  0.4876
  565TMC3    C4 8433   2.427   4.361  10.088 -0.2321  0.1366  0.1087
  565TMC3    C5 8434   2.320   4.281  10.066 -0.3268  0.2335  0.6444
  565TMC3    C6 8435   2.317   4.151  10.119 -0.4911 -0.0256  0.0952
  565TMC3     C 8436   2.631   4.434  10.207 -0.6093  0.0302  0.1433
  565TMC3     O 8437   2.667   4.496  10.107 -0.3227 -0.1044  0.1874
  565TMC3     H 8438   2.591   4.192  10.331  0.4973  1.7595 -0.2568
  565TMC3    H1 8439   2.437   4.456  10.037 -1.3967  0.2720  0.1342
  565TMC3    H2 8440   2.226   4.092  10.108 -1.7473  2.2115 -1.4531
  565TMC3    C7 8441   2.225   4.320   9.960  0.0535 -0.0142  0.0016
  565TMC3    C8 8442   2.428   3.992  10.263  0.8769 -0.3908  0.9349
  565TMC3    O1 8443   2.250   4.420   9.895  0.4727 -0.5079 -0.3846
  565TMC3    O2 8444   2.467   3.965  10.377  0.0889  0.0276  0.1473
  566MPD2     C 8445   4.113   0.130  13.871  0.4054 -0.0149  0.0378
  566MPD2    C1 8446   4.090   0.259  13.827  0.3743  0.1243 -0.0033
  566MPD2    C2 8447   3.972   0.281  13.752  0.7016 -0.9703  0.0067
  566MPD2    C3 8448   3.884   0.174  13.723  0.1640  0.1511  0.9697
  566MPD2    C4 8449   3.910   0.050  13.776 -0.0962  0.2313  0.3190
  566MPD2    C5 8450   4.025   0.027  13.845  0.1685  0.2137 -0.2004
  566MPD2     H 8451   3.952   0.377  13.705 -0.5047 -0.2980  1.9060
  566MPD2    H1 8452   3.837   4.706  13.762  1.8898 -1.5508  0.0478
  566MPD2    H2 8453   4.204   0.109  13.927  1.1153  2.4003 -0.2154
  566MPD2    H3 8454   4.045   4.661  13.881 -0.0397  0.2571  0.0421
  566MPD2     N 8455   3.775   0.177  13.638 -0.2806  0.0001  0.0363
  566MPD2    H5 8456   3.712   0.098  13.636 -1.4008  0.8779  0.9164
  566MPD2    N1 8457   4.178   0.362  13.866  0.0564 -0.0164 -0.4095
  566MPD2    H7 8458   4.260   0.342  13.923  1.1098  0.9505 -1.5923
  567TMC3    C1 8459   4.265   0.584  13.870 -0.1452  0.4213  0.1517
  567TMC3    C2 8460   4.292   0.687  13.788 -0.0922  0.0966  0.0761
  567TMC3    C3 8461   4.382   0.782  13.836 -0.0743 -0.4134  0.1636
  567TMC3    C4 8462   4.325   0.559  13.989  0.6859 -0.6588 -0.0312
  567TMC3    C5 8463   4.417   0.652  14.026  0.1844 -0.5432  0.0367
  567TMC3    C6 8464   4.454   0.761  13.952 -0.1077 -0.6892 -0.6020
  567TMC3     C 8465   4.168   0.499  13.817  0.9522  0.1022  0.4341
  567TMC3     O 8466   4.087   0.540  13.738  0.1489 -0.3423  0.6617
  567TMC3     H 8467   4.232   0.703  13.698  0.0247 -0.9445 -0.1878
  567TMC3    H1 8468   4.276   0.488  14.055  1.4876  0.1071  1.3793
  567TMC3    H2 8469   4.520   0.835  13.996  0.3586 -2.2075  1.2715
  567TMC3    C7 8470   4.447   0.669  14.168 -0.2861 -0.0222  0.7869
  567TMC3    C8 8471   4.417   0.902  13.758  0.1438  0.9608 -0.6046
  567TMC3    O1 8472   4.532   0.750  14.192 -0.0632  0.5222  0.0089
  567TMC3    O2 8473   4.369   0.892  13.642 -0.6160  0.0211  0.3481
  568MPD2     C 8474   1.200   1.074  16.576  0.2923  0.3103  0.0247
  568MPD2    C1 8475   1.325   1.116  16.604 -0.2468  0.4267 -0.1114
  568MPD2    C2 8476   1.357   1.245  16.570  0.1739 -0.1919  0.2443
  568MPD2    C3 8477   1.277   1.326  16.494 -0.6029  0.4476 -0.0747
  568MPD2    C4 8478   1.149   1.276  16.461 -0.3754 -0.0679 -0.4247
  568MPD2    C5 8479   1.113   1.153  16.504  0.5522 -0.1896  0.1996
  568MPD2     H 8480   1.456   1.280  16.597 -0.2886  0.6130  0.9241
  568MPD2    H1 8481   1.070   1.334  16.415 -1.4691  1.3794  3.3517
  568MPD2    H2 8482   1.158   0.978  16.604  1.0939 -0.5482 -1.7150
  568MPD2    H3 8483   1.008   1.130  16.497  0.6320 -0.9013  1.3478
  568MPD2     N 8484   1.338   1.445  16.449  0.3571  0.6974  0.6749
  568MPD2    H5 8485   1.427   1.473  16.488  0.9319  1.4673 -1.1811
  568MPD2    N1 8486   1.412   1.036  16.685 -0.4006 -0.0935 -0.4019
  568MPD2    H7 8487   1.382   0.943  16.713  0.7274  0.3350  2.2799
  569TMC3    C1 8488   1.366   1.631  16.292 -0.5188 -0.7378  0.0644
  569TMC3    C2 8489   1.437   1.711  16.381  0.3133  0.3523 -0.4112
  569TMC3    C3 8490   1.431   1.848  16.365  0.7253 -0.8398 -0.2717
  569TMC3    C4 8491   1.309   1.688  16.179 -0.4092 -0.7766  0.1452
  569TMC3    C5 8492   1.311   1.821  16.167 -0.1914  0.7709  0.3487
  569TMC3    C6 8493   1.364   1.910  16.257  0.3454 -0.7090 -0.5448
  569TMC3     C 8494   1.288   1.513  16.337  0.0317 -0.3043  0.7093
  569TMC3     O 8495   1.179   1.507  16.280 -0.2871 -0.3266  0.2684
  569TMC3     H 8496   1.484   1.672  16.471 -0.2818  1.4694  0.3875
  569TMC3    H1 8497   1.241   1.635  16.113  0.2444  1.3787 -2.2527
  569TMC3    H2 8498   1.383   2.011  16.223 -0.1973 -1.2745 -2.5384
  569TMC3    C7 8499   1.304   1.865  16.028  0.3591 -1.1783  0.3148
  569TMC3    C8 8500   1.475   1.931  16.472  0.1831 -0.5264 -0.9068
  569TMC3    O1 8501   1.342   1.790  15.937 -0.5958  0.0833 -0.1741
  569TMC3    O2 8502   1.550   1.888  16.557 -0.3592  0.0412  0.4054
  570TMC3    C1 8503   0.559   4.498  15.876  0.1518  0.3526 -0.1157
  570TMC3    C2 8504   0.643   4.527  15.765 -0.3390 -0.1508  0.5278
  570TMC3    C3 8505   0.638   4.662  15.721 -1.0828 -0.8579 -0.0967
  570TMC3    C4 8506   0.477   4.592  15.941 -0.1756  0.8890  0.1388
  570TMC3    C5 8507   0.496   4.718  15.897 -0.5736 -0.6338  0.5172
  570TMC3    C6 8508   0.575   0.021  15.795  0.3195 -0.3564  0.3803
  570TMC3     C 8509   0.554   4.359  15.924  0.6271  0.2170  0.5077
  570TMC3     O 8510   0.612   4.284  15.849  0.2049  0.1272  0.2169
  570TMC3     H 8511   0.702   4.449  15.718  0.2612  1.0333 -0.6904
  570TMC3    H1 8512   0.400   4.564  16.011  2.1505 -2.7614  1.2351
  570TMC3    H2 8513   0.582   0.123  15.760 -1.0498 -0.7046 -0.9001
  570TMC3    C7 8514   0.448   0.080  15.995 -0.3811 -0.1886 -0.3252
  570TMC3    C8 8515   0.730   4.706  15.611  0.1728 -0.3333  0.7977
  570TMC3    O1 8516   0.424   0.047  16.109 -0.2952  0.5899 -0.3407
  570TMC3    O2 8517   0.764   0.090  15.614  0.1734 -0.0078  0.5355
  571MPD2     C 8518   2.981   1.936   0.017 -0.1118 -0.1085 -0.7238
  571MPD2    C1 8519   3.050   1.862   0.106 -0.6302  0.8636  0.1005
  571MPD2    C2 8520   3.183   1.856   0.100  0.2273  0.4080  0.8524
  571MPD2    C3 8521   3.256   1.943   0.014 -0.0150 -0.0286  0.2960
  571MPD2    C4 8522   3.179   2.021  17.668 -0.0999  0.0617 -0.0605
  571MPD2    C5 8523   3.042   2.021  17.673 -0.0068  0.0976 -0.0217
  571MPD2     H 8524   3.241   1.797   0.170  0.1989  1.6902  1.9563
  571MPD2    H1 8525   3.228   2.081  17.592 -1.6433 -1.0388 -1.9163
  571MPD2    H2 8526   2.873   1.941   0.022 -0.1435 -2.4704  1.0031
  571MPD2    H3 8527   2.991   2.072  17.593 -0.0831  1.5498  0.9599
  571MPD2     N 8528   3.402   1.950   0.006  0.8011  0.2672 -0.3430
  571MPD2    H5 8529   3.434   2.008  17.669 -1.3399 -1.5298 -2.5648
  571MPD2    N1 8530   2.968   1.810   0.201 -0.3977 -0.6026  0.5116
  571MPD2    H7 8531   2.878   1.853   0.221 -0.2000  1.8732 -3.7229
  572TMC3    C1 8532   3.631   1.911   0.050  0.2334 -0.2600  0.2727
  572TMC3    C2 8533   3.715   1.838   0.123  0.6871  0.4011 -0.3535
  572TMC3    C3 8534   3.844   1.862   0.103 -1.1069  0.2714 -0.1421
  572TMC3    C4 8535   3.666   2.007  17.700  0.2728 -0.1167  0.2940
  572TMC3    C5 8536   3.800   2.027  17.690 -0.7672 -0.0735  0.2786
  572TMC3    C6 8537   3.896   1.964   0.024 -1.0075 -0.1846 -0.0843
  572TMC3     C 8538   3.493   1.899   0.092 -0.4156 -0.4086 -0.2110
  572TMC3     O 8539   3.475   1.819   0.183 -0.7375  0.1889  0.8580
  572TMC3     H 8540   3.679   1.747   0.171  0.2657  0.5034 -0.4772
  572TMC3    H1 8541   3.588   2.056  17.644  1.0858 -1.9859 -2.4554
  572TMC3    H2 8542   4.000   1.991   0.017 -0.5499 -2.0098 -0.2573
  572TMC3    C7 8543   3.839   2.097  17.571  0.2043  0.5353  0.2533
  572TMC3    C8 8544   3.931   1.814   0.204 -0.1448  0.5853 -0.0568
  572TMC3    O1 8545   3.760   2.112  17.479  0.1300 -0.2948  0.4722
  572TMC3    O2 8546   4.047   1.814   0.168  0.6471 -0.3061  0.1924
  573MPD2     C 8547   4.255   1.832  17.486  0.6199  0.2581  0.7941
  573MPD2    C1 8548   4.384   1.878  17.487 -0.7464 -0.8231 -0.8921
  573MPD2    C2 8549   4.409   2.004  17.426  0.5239  0.2595 -0.3546
  573MPD2    C3 8550   4.305   2.073  17.357  0.2631  0.3949  0.2894
  573MPD2    C4 8551   4.172   2.018  17.361 -0.1619 -0.8288 -0.0067
  573MPD2    C5 8552   4.150   1.894  17.426  0.2472 -0.5661 -0.1500
  573MPD2     H 8553   4.514   2.028  17.425  0.5136  0.3081 -0.0599
  573MPD2    H1 8554   4.091   2.065  17.307  0.1691  1.6230  1.6248
  573MPD2    H2 8555   4.223   1.739  17.531 -0.3794  0.6058  0.8126
  573MPD2    H3 8556   4.051   1.850  17.422  0.7314 -1.7259  0.6298
  573MPD2     N 8557   4.331   2.188  17.277 -0.1630 -0.1315 -0.0675
  573MPD2    H5 8558   4.256   2.243  17.236  0.8226  2.3061  1.4414
  573MPD2    N1 8559   4.480   1.801  17.558 -0.4811  0.3014  0.1115
  573MPD2    H7 8560   4.436   1.720  17.601  1.0829 -1.8871 -2.4162
  574TMC3    C1 8561   4.446   2.352  17.149 -0.2379 -0.4044  0.0126
  574TMC3    C2 8562   4.321   2.376  17.090 -0.1042  0.6924 -0.2643
  574TMC3    C3 8563   4.295   2.495  17.033  0.0932 -0.6895  0.6497
  574TMC3    C4 8564   4.547   2.447  17.145 -0.4425 -0.1814 -0.3883
  574TMC3    C5 8565   4.521   2.567  17.080  0.3005  0.2955  0.1768
  574TMC3    C6 8566   4.395   2.591  17.022 -0.1765  0.3082  0.0648
  574TMC3     C 8567   4.458   2.238  17.243 -0.2586 -0.3398 -0.8048
  574TMC3     O 8568   4.565   2.198  17.290 -0.0137 -0.2817 -0.2271
  574TMC3     H 8569   4.241   2.302  17.089  1.7399 -1.3306  2.3137
  574TMC3    H1 8570   4.646   2.426  17.185 -0.7135 -0.4680  0.1293
  574TMC3    H2 8571   4.380   2.666  16.945  0.0428  1.8326  1.5306
  574TMC3    C7 8572   4.634   2.640  17.024  0.7096  0.4189 -0.0238
  574TMC3    C8 8573   4.168   2.511  16.961 -0.1700  0.3065  0.2096
  574TMC3    O1 8574   0.010   2.610  17.066 -0.5228 -0.0203  0.1693
  574TMC3    O2 8575   4.115   2.412  16.913  0.2059  0.0644 -0.3606
  575TMC3    C1 8576   2.582   3.328  10.802  0.3165 -0.3056 -0.1437
  575TMC3    C2 8577   2.501   3.218  10.779 -0.1308 -0.1537  0.4776
  575TMC3    C3 8578   2.417   3.212  10.669  0.0319  0.9536  0.3759
  575TMC3    C4 8579   2.601   3.416  10.694  0.2361 -0.2946 -0.3345
  575TMC3    C5 8580   2.512   3.405  10.588  0.0543  0.2078  0.4240
  575TMC3    C6 8581   2.416   3.311  10.564 -0.1946  0.5699  0.4300
  575TMC3     C 8582   2.678   3.330  10.910 -1.3137  0.4172 -0.0751
  575TMC3     O 8583   2.766   3.414  10.900 -0.4000  0.0781 -0.2675
  575TMC3     H 8584   2.491   3.139  10.853  3.5755  0.4169  1.6177
  575TMC3    H1 8585   2.675   3.495  10.691 -0.0869  0.0150 -0.1335
  575TMC3    H2 8586   2.338   3.319  10.489 -0.8924 -2.8718  0.7659
  575TMC3    C7 8587   2.521   3.513  10.489 -0.3877 -0.4476 -0.0832
  575TMC3    C8 8588   2.341   3.087  10.650  0.0997 -0.3563 -0.0364
  575TMC3    O1 8589   2.563   3.617  10.533  0.3251  0.4665 -0.0475
  575TMC3    O2 8590   2.339   3.008  10.741 -0.1173  0.3474  0.1980
  576MPD2     C 8591   1.976   0.764  12.860  0.3032 -0.6197 -0.2168
  576MPD2    C1 8592   2.037   0.866  12.789 -0.2877 -0.2513 -0.4139
  576MPD2    C2 8593   2.017   0.996  12.829 -0.4985  0.6553 -0.2213
  576MPD2    C3 8594   1.955   1.030  12.944  0.0774  0.1919  0.0214
  576MPD2    C4 8595   1.897   0.926  13.023 -0.0908  0.3665  0.1766
  576MPD2    C5 8596   1.910   0.798  12.974  0.2892 -0.0718 -0.2557
  576MPD2     H 8597   2.061   1.081  12.778  0.7093 -0.2494 -0.6939
  576MPD2    H1 8598   1.838   0.936  13.113 -2.5063  1.3114 -1.4969
  576MPD2    H2 8599   1.978   0.660  12.829  2.8935 -0.7725  0.4711
  576MPD2    H3 8600   1.871   0.718  13.037 -1.4724  1.8054  1.0435
  576MPD2     N 8601   1.945   1.170  12.983 -0.1018 -0.0813 -0.1676
  576MPD2    H5 8602   2.006   1.233  12.932 -0.5338  1.6993  1.4944
  576MPD2    N1 8603   2.093   0.849  12.664  0.0110 -0.7227  0.2142
  576MPD2    H7 8604   2.137   0.934  12.630 -2.4723  0.5219  0.0280
  577TMC3    C1 8605   2.174   0.746  12.460  0.3831 -0.3483 -0.1608
  577TMC3    C2 8606   2.202   0.624  12.401  0.4781  0.2187  0.3733
  577TMC3    C3 8607   2.267   0.627  12.280  0.4847  0.0476  0.1808
  577TMC3    C4 8608   2.182   0.864  12.390 -0.1385  0.5959  0.0405
  577TMC3    C5 8609   2.233   0.852  12.259  0.4732 -0.2993 -0.3648
  577TMC3    C6 8610   2.287   0.738  12.204 -0.0149 -0.2905  0.4764
  577TMC3     C 8611   2.106   0.733  12.590 -0.3197 -0.5884  0.1518
  577TMC3     O 8612   2.085   0.617  12.632 -0.0866  0.4707  0.7574
  577TMC3     H 8613   2.185   0.534  12.458  1.1837 -0.8001 -1.0377
  577TMC3    H1 8614   2.129   0.951  12.426  3.7791  2.5134  1.0553
  577TMC3    H2 8615   2.347   0.738  12.114  1.2656  0.0564  1.3288
  577TMC3    C7 8616   2.264   0.971  12.183 -0.4481 -0.3223  0.2959
  577TMC3    C8 8617   2.350   0.510  12.268  0.0395 -0.0312 -1.1771
  577TMC3    O1 8618   2.272   1.076  12.242  0.0652 -0.1925 -0.2661
  577TMC3    O2 8619   2.332   0.430  12.359  0.1037 -0.3149  0.5075
  578MPD2     C 8620   0.470   4.620   1.433  0.2802  0.2467  0.4888
  578MPD2    C1 8621   0.485   4.552   1.311 -0.4321  0.0159 -0.5425
  578MPD2    C2 8622   0.537   4.423   1.311  0.1959 -0.2229  0.3158
  578MPD2    C3 8623   0.576   4.365   1.427  0.3774  0.1543  0.9624
  578MPD2    C4 8624   0.555   4.435   1.543  0.3051 -0.0747 -0.6103
  578MPD2    C5 8625   0.499   4.560   1.555  0.2753  0.4653  0.3787
  578MPD2     H 8626   0.538   4.365   1.220  2.4656  0.2596  0.0367
  578MPD2    H1 8627   0.585   4.399   1.641 -1.0658 -1.5841 -0.7640
  578MPD2    H2 8628   0.409   4.710   1.436  0.1238  0.1753 -0.6273
  578MPD2    H3 8629   0.479   4.607   1.650  1.4824 -0.1045  0.9138
  578MPD2     N 8630   0.620   4.228   1.424 -0.7240 -1.1661 -0.2115
  578MPD2    H5 8631   0.638   4.188   1.332 -0.5528  0.2826 -0.8132
  578MPD2    N1 8632   0.414   4.607   1.198 -0.5904  0.6197  0.0979
  578MPD2    H7 8633   0.354   4.688   1.211  0.5747  1.5501 -0.2861
  579TMC3    C1 8634   0.691   4.018   1.488  0.2527 -0.3205  0.0717
  579TMC3    C2 8635   0.801   3.985   1.564 -0.5512 -0.3922 -0.2939
  579TMC3    C3 8636   0.884   3.900   1.507 -0.5869 -0.0123 -0.2461
  579TMC3    C4 8637   0.686   3.995   1.352  0.0271 -0.4078  0.3172
  579TMC3    C5 8638   0.767   3.897   1.303 -0.5345 -0.0373 -0.1387
  579TMC3    C6 8639   0.882   3.863   1.373 -0.0316  0.5341  0.4764
  579TMC3     C 8640   0.643   4.150   1.531  0.2533 -0.3135  0.5608
  579TMC3     O 8641   0.636   4.173   1.651 -0.6746  0.0103 -0.1976
  579TMC3     H 8642   0.816   4.017   1.667  1.4643 -0.2494 -0.6404
  579TMC3    H1 8643   0.587   4.011   1.309  0.0312 -0.4846  0.2793
  579TMC3    H2 8644   0.928   3.771   1.336  3.0498  0.1012  5.3869
  579TMC3    C7 8645   0.726   3.795   1.204  0.3027 -0.1617 -0.0220
  579TMC3    C8 8646   1.013   3.873   1.578 -0.6707 -0.7432 -0.8415
  579TMC3    O1 8647   0.802   3.707   1.178 -0.4838 -0.5880  0.0393
  579TMC3    O2 8648   1.018   3.863   1.702 -0.0096 -0.4465  0.3302
  580TMC3    C1 8649   0.196   4.550  11.991 -0.1501  0.0940  0.4993
  580TMC3    C2 8650   0.301   4.638  12.014  1.1079  0.8695 -0.1372
  580TMC3    C3 8651   0.422   4.584  12.049 -0.1501  1.4764 -0.4768
  580TMC3    C4 8652   0.200   4.416  12.007  0.0277 -0.1378  0.1406
  580TMC3    C5 8653   0.331   4.370  12.045  0.0135  0.2935 -0.2894
  580TMC3    C6 8654   0.441   4.453  12.062  0.0158  0.1245 -0.0853
  580TMC3     C 8655   0.110   4.589  11.885  0.4033 -0.7314  0.4339
  580TMC3     O 8656   4.728   4.556  11.874 -0.6493 -0.6618  0.1400
  580TMC3     H 8657   0.299   0.010  12.003  3.3556  0.6635 -2.4825
  580TMC3    H1 8658   0.106   4.364  11.994  1.0858 -1.7315 -1.1984
  580TMC3    H2 8659   0.537   4.411  12.089 -0.0840 -0.3813 -0.5083
  580TMC3    C7 8660   0.331   4.262  12.144  0.4421  0.0513  0.1256
  580TMC3    C8 8661   0.537   4.662  12.006  0.3313  0.0751  1.1070
  580TMC3    O1 8662   0.422   4.249  12.224  0.1643 -0.0752 -0.4606
  580TMC3    O2 8663   0.531   0.048  12.008 -0.0437  0.0850 -0.0207
  581MPD2     C 8664   2.810   3.489  14.720 -0.1346  1.0230  0.5881
  581MPD2    C1 8665   2.689   3.470  14.783  0.4161 -0.2318 -0.1463
  581MPD2    C2 8666   2.577   3.540  14.729 -0.0208 -0.6126 -0.0683
  581MPD2    C3 8667   2.591   3.635  14.631  0.5452  0.0672  0.1640
  581MPD2    C4 8668   2.712   3.652  14.571  0.0645 -0.4321  0.0952
  581MPD2    C5 8669   2.819   3.583  14.620 -0.0619  0.7412  0.1470
  581MPD2     H 8670   2.478   3.524  14.769  1.2246 -0.7446  2.9284
  581MPD2    H1 8671   2.724   3.722  14.489 -1.4400 -1.4857 -1.0403
  581MPD2    H2 8672   2.907   3.444  14.737 -1.0836 -0.6187  1.6257
  581MPD2    H3 8673   2.915   3.587  14.569  0.2581 -1.2658  0.5685
  581MPD2     N 8674   2.481   3.715  14.582  0.0209 -0.5020 -0.6179
  581MPD2    H5 8675   2.498   3.757  14.491 -2.8587 -2.0177 -1.8714
  581MPD2    N1 8676   2.686   3.380  14.886  0.0900  0.0951  0.5058
  581MPD2    H7 8677   2.771   3.335  14.918  0.5495 -0.6814 -1.7867
  582TMC3    C1 8678   2.588   3.232  15.044 -1.2002  0.9777  0.7250
  582TMC3    C2 8679   2.634   3.264  15.169 -0.0295  0.4609 -0.0508
  582TMC3    C3 8680   2.569   3.204  15.276  0.3411 -0.0588  0.3135
  582TMC3    C4 8681   2.493   3.130  15.034 -0.3456  0.3196 -0.2308
  582TMC3    C5 8682   2.423   3.085  15.145  0.5740 -0.7850 -0.4661
  582TMC3    C6 8683   2.466   3.111  15.268 -0.8286 -0.3478  0.5790
  582TMC3     C 8684   2.572   3.338  14.943 -0.5050 -1.0483  0.3502
  582TMC3     O 8685   2.458   3.382  14.936  0.3593  0.0328  0.3846
  582TMC3     H 8686   2.702   3.348  15.177  1.4467 -0.7903  0.4637
  582TMC3    H1 8687   2.442   3.137  14.938  1.1437  2.4257 -0.8762
  582TMC3    H2 8688   2.425   3.068  15.359 -1.3812 -0.8087  0.1115
  582TMC3    C7 8689   2.281   3.109  15.144 -0.0952 -0.2053  0.9884
  582TMC3    C8 8690   2.605   3.232  15.410  0.0429  0.3440 -0.0641
  582TMC3    O1 8691   2.211   3.058  15.227 -0.0935 -0.4391 -0.0311
  582TMC3    O2 8692   2.524   3.209  15.500 -0.1475 -0.5616 -0.2131
  583MPD2     C 8693   2.735   0.293  16.887  0.0905  0.2886  0.2318
  583MPD2    C1 8694   2.700   0.403  16.811 -0.0603  0.1428  0.5010
  583MPD2    C2 8695   2.604   0.490  16.859  0.0884 -0.1437  0.8549
  583MPD2    C3 8696   2.551   0.469  16.986 -0.2815 -0.0235 -0.0760
  583MPD2    C4 8697   2.596   0.365  17.064 -0.6533  0.8402  0.6310
  583MPD2    C5 8698   2.688   0.275  17.016  0.2213 -0.5861 -0.3957
  583MPD2     H 8699   2.574   0.572  16.795 -0.4929 -0.6427  0.4904
  583MPD2    H1 8700   2.575   0.353  17.170 -1.4223  0.5624  0.4449
  583MPD2    H2 8701   2.799   0.213  16.852  0.5359  1.6183 -1.9875
  583MPD2    H3 8702   2.724   0.191  17.074 -3.0298 -0.3347  2.0455
  583MPD2     N 8703   2.441   0.552  17.013 -0.2168  0.0176  0.2254
  583MPD2    H5 8704   2.422   0.623  16.943 -1.9903  0.9463  1.6289
  583MPD2    N1 8705   2.743   0.428  16.676  0.3563  0.2645 -0.3083
  583MPD2    H7 8706   2.704   0.499  16.614 -0.5341 -0.3275 -0.4280
  584TMC3    C1 8707   2.273   0.658  17.147  0.6699 -0.0215 -1.0555
  584TMC3    C2 8708   2.291   0.768  17.059  0.7827 -0.1809 -0.1362
  584TMC3    C3 8709   2.243   0.892  17.098  0.8884 -0.2804  0.1139
  584TMC3    C4 8710   2.194   0.670  17.259 -0.5957 -0.7555  0.3860
  584TMC3    C5 8711   2.143   0.794  17.285  0.6167  0.4592  0.0071
  584TMC3    C6 8712   2.177   0.909  17.220 -0.0779 -0.0607 -0.3480
  584TMC3     C 8713   2.368   0.547  17.134 -0.9614  0.7081 -0.2452
  584TMC3     O 8714   2.378   0.479  17.234  0.0960 -0.0716  0.7332
  584TMC3     H 8715   2.349   0.764  16.968  0.0287 -0.4496 -0.6015
  584TMC3    H1 8716   2.184   0.579  17.316 -0.3844 -0.8598  0.2569
  584TMC3    H2 8717   2.139   1.007  17.245 -0.5297 -0.6492  1.2815
  584TMC3    C7 8718   2.053   0.794  17.395 -0.2161 -0.4211  0.2228
  584TMC3    C8 8719   2.293   1.003  17.032 -0.7011 -0.2378  0.0495
  584TMC3    O1 8720   1.999   0.692  17.431  0.3221  0.6907  0.3773
  584TMC3    O2 8721   2.320   0.990  16.914  0.1221 -0.1178  0.1435
  585MPD2     C 8722   1.345   4.251   0.200 -0.3812  0.4079  0.2393
  585MPD2    C1 8723   1.375   4.349   0.110  0.0719  0.1708 -0.6207
  585MPD2    C2 8724   1.399   4.315  17.718  0.1478 -0.2551  0.7264
  585MPD2    C3 8725   1.364   4.188  17.679 -0.2169  0.0444 -0.4257
  585MPD2    C4 8726   1.310   4.098   0.024 -0.2254 -0.1565 -0.6088
  585MPD2    C5 8727   1.306   4.130   0.158 -0.5602  0.7892  0.3414
  585MPD2     H 8728   1.425   4.390  17.645 -0.0117 -0.6203  0.2900
  585MPD2    H1 8729   1.278   4.001  17.728  0.1869 -1.1483  1.7297
  585MPD2    H2 8730   1.337   4.283   0.303 -0.1294 -0.0044  0.3895
  585MPD2    H3 8731   1.284   4.049   0.227 -2.6775  0.8287 -0.2923
  585MPD2     N 8732   1.364   4.155  17.539 -0.6928 -0.2413 -0.1089
  585MPD2    H5 8733   1.303   4.082  17.507 -1.8073  0.3135  0.7577
  585MPD2    N1 8734   1.368   4.485   0.151  0.0835  0.1682  0.2037
  585MPD2    H7 8735   1.340   4.493   0.248 -0.1759 -1.2189  0.2370
  586TMC3    C1 8736   1.412   4.170  17.308  0.4175 -0.1006 -0.4199
  586TMC3    C2 8737   1.524   4.178  17.231  0.1435  0.2292  0.1345
  586TMC3    C3 8738   1.543   4.100  17.120  0.5265 -0.4994  0.3427
  586TMC3    C4 8739   1.297   4.113  17.262  0.0594 -0.0203  0.9662
  586TMC3    C5 8740   1.314   4.041  17.142 -0.3422  0.8712 -0.0231
  586TMC3    C6 8741   1.432   4.028  17.069 -0.4896 -0.2212 -0.1761
  586TMC3     C 8742   1.415   4.233  17.440 -0.4375 -0.3524  0.4183
  586TMC3     O 8743   1.492   4.332  17.439 -0.1507  0.5962  0.6656
  586TMC3     H 8744   1.611   4.224  17.277  0.2503 -0.0395  0.2044
  586TMC3    H1 8745   1.200   4.111  17.311 -0.7001  0.5293 -0.5177
  586TMC3    H2 8746   1.443   3.945  17.000  4.0561  0.1886  0.0401
  586TMC3    C7 8747   1.211   3.937  17.123 -0.4439 -0.2496  0.1283
  586TMC3    C8 8748   1.659   4.012  17.133  0.0157  0.2165 -0.4450
  586TMC3    O1 8749   1.162   3.881  17.222 -0.7011 -0.5553 -0.0639
  586TMC3    O2 8750   1.709   4.002  17.245  0.0849 -0.3760  0.7818
  587TMC3    C1 8751   3.982   2.982  16.414 -0.4632 -0.0433 -0.4802
  587TMC3    C2 8752   4.024   3.092  16.489 -0.4874  0.5733 -0.0730
  587TMC3    C3 8753   4.101   3.056  16.602 -0.1383  0.1475 -0.4901
  587TMC3    C4 8754   4.013   2.852  16.446  0.4595 -0.2910  0.2048
  587TMC3    C5 8755   4.090   2.828  16.559  0.1188  0.2337  0.7199
  587TMC3    C6 8756   4.139   2.929  16.636  0.0867 -0.0275 -0.1999
  587TMC3     C 8757   3.886   3.006  16.309  0.0514 -0.0237 -0.1410
  587TMC3     O 8758   3.933   2.981  16.198  0.2937 -0.5400 -0.3608
  587TMC3     H 8759   3.983   3.189  16.462 -0.6187  0.3942 -0.5234
  587TMC3    H1 8760   3.988   2.773  16.375  1.5730 -1.2869  0.9285
  587TMC3    H2 8761   4.211   2.913  16.715  2.6047  1.2289 -2.2555
  587TMC3    C7 8762   4.149   2.696  16.565 -0.7477 -0.1707  0.2275
  587TMC3    C8 8763   4.141   3.156  16.696 -0.1034  0.0063 -0.0864
  587TMC3    O1 8764   4.091   2.594  16.533 -0.0977 -0.1475 -0.0350
  587TMC3    O2 8765   4.219   3.132  16.787 -0.2062  0.0043 -0.7321
  588TMC3    C1 8766   1.870   1.111   9.989  0.4848  0.0612  0.8171
  588TMC3    C2 8767   1.890   0.979   9.974  0.0597 -0.1095  0.3549
  588TMC3    C3 8768   2.000   0.927  10.034  0.4568 -0.0081  0.4722
  588TMC3    C4 8769   1.966   1.188  10.046  0.1597  0.4153  0.8006
  588TMC3    C5 8770   2.071   1.122  10.103  0.0922 -0.1627 -0.1135
  588TMC3    C6 8771   2.095   0.995  10.098 -0.0410  0.3852 -0.3330
  588TMC3     C 8772   1.778   1.175   9.903  0.4639  0.3536  0.1766
  588TMC3     O 8773   1.741   1.114   9.806  0.4779  0.0109 -0.2554
  588TMC3     H 8774   1.817   0.909   9.933 -0.4264  1.6365 -1.7495
  588TMC3    H1 8775   1.944   1.292  10.064 -0.4488  0.4516 -0.1075
  588TMC3    H2 8776   2.192   0.959  10.129  0.6273  0.7104 -2.0637
  588TMC3    C7 8777   2.166   1.201  10.173 -0.3897  0.8773  0.8712
  588TMC3    C8 8778   2.013   0.777  10.056  0.3961  0.7686  0.5289
  588TMC3    O1 8779   2.224   1.163  10.271 -0.5829 -0.0057  0.3105
  588TMC3    O2 8780   1.958   0.708   9.972  0.3959 -0.8325 -0.0746
  589TMC3    C1 8781   1.453   1.923   1.013 -0.4092 -0.0822 -0.2776
  589TMC3    C2 8782   1.546   1.980   1.096  0.3789 -0.4593 -0.3812
  589TMC3    C3 8783   1.566   1.906   1.211  0.3988  0.3294  0.1455
  589TMC3    C4 8784   1.398   1.804   1.036  0.3426 -0.2235  0.2139
  589TMC3    C5 8785   1.435   1.741   1.148 -0.8374 -0.2466  0.3341
  589TMC3    C6 8786   1.520   1.784   1.238  0.3432  0.4403 -0.2010
  589TMC3     C 8787   1.404   2.005   0.899  0.1547 -0.2311  0.4919
  589TMC3     O 8788   1.366   1.939   0.800 -0.0441 -0.0223 -0.0882
  589TMC3     H 8789   1.573   2.085   1.085  0.9496 -0.6273 -0.5687
  589TMC3    H1 8790   1.312   1.781   0.973  1.1860 -0.6484 -0.7821
  589TMC3    H2 8791   1.549   1.729   1.327  0.4220 -1.2489 -1.2622
  589TMC3    C7 8792   1.351   1.628   1.197  0.5070 -0.2844  0.0608
  589TMC3    C8 8793   1.674   1.945   1.299 -0.9169 -0.3640  0.7103
  589TMC3    O1 8794   1.390   1.575   1.304 -0.4476 -0.3790 -0.1117
  589TMC3    O2 8795   1.696   1.861   1.383  0.2367 -0.1386 -0.7405
  590MPD2     C 8796   0.372   1.136  16.671 -0.1320  0.3761 -0.8291
  590MPD2    C1 8797   0.307   1.250  16.645  0.0321  0.1832  0.3410
  590MPD2    C2 8798   0.379   1.340  16.567 -0.5339  0.2361 -0.6555
  590MPD2    C3 8799   0.511   1.329  16.529 -0.7574 -0.7733 -0.2085
  590MPD2    C4 8800   0.575   1.204  16.563  0.3532 -0.6979  0.0046
  590MPD2    C5 8801   0.503   1.113  16.631 -0.6064  0.4443  0.1166
  590MPD2     H 8802   0.328   1.434  16.546 -0.3372  0.4720 -0.0961
  590MPD2    H1 8803   0.680   1.194  16.540  0.3595  1.2600 -0.8080
  590MPD2    H2 8804   0.314   1.062  16.726  2.7294  0.2121  1.9869
  590MPD2    H3 8805   0.547   1.019  16.662  0.7722  0.0491 -3.0510
  590MPD2     N 8806   0.569   1.442  16.468  0.1101 -0.6666 -0.6451
  590MPD2    H5 8807   0.499   1.507  16.432 -0.6357 -1.4715 -0.6562
  590MPD2    N1 8808   0.171   1.261  16.686 -0.3935  0.2711  0.2622
  590MPD2    H7 8809   0.132   1.182  16.737 -0.8116  0.3047 -0.0103
  591TMC3    C1 8810   0.737   1.575  16.350 -0.0131  0.6159  0.2517
  591TMC3    C2 8811   0.838   1.562  16.263  0.1888  0.1466 -0.5924
  591TMC3    C3 8812   0.853   1.653  16.162 -0.4064 -0.7563 -0.6258
  591TMC3    C4 8813   0.648   1.677  16.350 -0.4306 -0.2000 -0.7512
  591TMC3    C5 8814   0.660   1.764  16.244 -0.8093 -0.0014 -0.5845
  591TMC3    C6 8815   0.752   1.742  16.147 -0.4454  0.2655  0.0773
  591TMC3     C 8816   0.705   1.462  16.443 -0.1285  0.7081  0.1084
  591TMC3     O 8817   0.797   1.387  16.470 -0.2477  0.5362  0.1840
  591TMC3     H 8818   0.899   1.473  16.267  1.3133  0.9328 -0.3354
  591TMC3    H1 8819   0.580   1.698  16.432 -0.8133 -0.6289 -0.9581
  591TMC3    H2 8820   0.741   1.801  16.057  0.6502 -0.3130 -0.4355
  591TMC3    C7 8821   0.570   1.885  16.240 -0.1108 -0.1764  0.3309
  591TMC3    C8 8822   0.927   1.617  16.046 -0.5652  0.5099 -0.5372
  591TMC3    O1 8823   0.459   1.866  16.286  0.1995 -0.4094  0.5024
  591TMC3    O2 8824   0.966   1.498  16.034  0.3324 -0.1254  0.1524
  592MPD2     C 8825   1.306   3.618  11.794 -1.4473 -0.3928 -0.0237
  592MPD2    C1 8826   1.297   3.735  11.867  0.2035 -0.3397  0.0733
  592MPD2    C2 8827   1.221   3.725  11.985  0.1566 -0.2507 -0.4729
  592MPD2    C3 8828   1.153   3.604  12.022 -1.5146 -0.1124  0.1948
  592MPD2    C4 8829   1.163   3.499  11.938 -0.0278  0.2751  0.4111
  592MPD2    C5 8830   1.249   3.500  11.832 -0.4265 -0.5318  0.0394
  592MPD2     H 8831   1.216   3.812  12.049  2.0226 -1.6038  1.5267
  592MPD2    H1 8832   1.107   3.407  11.953  1.3020 -0.4973  0.6864
  592MPD2    H2 8833   1.357   3.607  11.699 -1.6258  0.2889 -0.1958
  592MPD2    H3 8834   1.262   3.408  11.777  1.1997 -0.2686 -0.0054
  592MPD2     N 8835   1.080   3.607  12.147  0.0841 -0.2255  0.7561
  592MPD2    H5 8836   1.077   3.696  12.197 -1.0425 -1.8284  3.5446
  592MPD2    N1 8837   1.381   3.846  11.829  0.4095 -0.0878 -0.1196
  592MPD2    H7 8838   1.438   3.830  11.747  2.4874 -1.8185  1.6486
  593TMC3    C1 8839   1.478   4.060  11.815  0.1021  0.8517  0.2171
  593TMC3    C2 8840   1.480   4.195  11.847  0.5077  0.5393  0.0366
  593TMC3    C3 8841   1.586   4.277  11.799  0.6759  0.1646 -0.3381
  593TMC3    C4 8842   1.582   4.014  11.730  0.9234 -0.4843 -0.1981
  593TMC3    C5 8843   1.668   4.100  11.671  0.2708 -0.1643  0.5890
  593TMC3    C6 8844   1.681   4.231  11.711  1.1197  0.2396 -0.4276
  593TMC3     C 8845   1.379   3.973  11.881  0.5100  0.5062  0.2663
  593TMC3     O 8846   1.294   4.017  11.954 -0.9417 -0.7621 -0.4534
  593TMC3     H 8847   1.393   4.238  11.896  0.5570  0.5392  0.1240
  593TMC3    H1 8848   1.616   3.912  11.714 -0.2096 -0.6230 -1.7167
  593TMC3    H2 8849   1.755   4.300  11.672  1.3427 -0.1195 -0.6369
  593TMC3    C7 8850   1.706   4.086  11.530 -0.1523  0.5819  0.2818
  593TMC3    C8 8851   1.581   4.419  11.840  0.5507 -0.0947  0.1646
  593TMC3    O1 8852   1.788   4.167  11.501 -0.1950  0.5868 -0.0586
  593TMC3    O2 8853   1.474   4.476  11.847  0.4594 -0.4191  0.2621
  594MPD2     C 8854   4.120   2.284  14.581  0.2794 -0.2790 -0.0168
  594MPD2    C1 8855   4.173   2.199  14.673 -0.3510 -0.5289 -0.0958
  594MPD2    C2 8856   4.296   2.216  14.721  0.4708 -0.4188  1.0822
  594MPD2    C3 8857   4.375   2.327  14.683 -0.2447  0.1998  0.0578
  594MPD2    C4 8858   4.315   2.414  14.587 -0.3578  0.4870  0.2612
  594MPD2    C5 8859   4.192   2.390  14.548  0.3017  0.4774 -0.0275
  594MPD2     H 8860   4.341   2.133  14.775  1.4520 -1.2092 -0.9406
  594MPD2    H1 8861   4.370   2.496  14.542 -0.5699  0.2215 -0.4797
  594MPD2    H2 8862   4.019   2.272  14.544  0.2736 -0.6859  0.1375
  594MPD2    H3 8863   4.146   2.464  14.484 -0.1055  0.1495 -0.1165
  594MPD2     N 8864   4.513   2.333  14.717  0.2756 -0.3650  0.5858
  594MPD2    H5 8865   4.551   2.274  14.791  1.9203  3.2032  2.5877
  594MPD2    N1 8866   4.103   2.082  14.706  0.2797 -0.6506  0.0837
  594MPD2    H7 8867   4.003   2.080  14.687 -0.0996 -2.2207  2.2599
  595TMC3    C1 8868   0.189   2.559  14.720  0.1241  0.3202  0.2217
  595TMC3    C2 8869   0.082   2.504  14.659  0.4959  0.3675 -0.0619
  595TMC3    C3 8870   4.722   2.451  14.733 -0.8210 -0.5439 -0.3510
  595TMC3    C4 8871   0.189   2.565  14.859 -0.2758  0.4919 -0.3018
  595TMC3    C5 8872   0.089   2.509  14.928 -0.0909  0.4507 -0.8353
  595TMC3    C6 8873   4.735   2.434  14.866 -0.4965  0.2896 -0.1062
  595TMC3     C 8874   0.270   2.658  14.652  1.0060 -0.0772  0.1697
  595TMC3     O 8875   0.310   2.747  14.731  0.1462 -0.0559  0.1443
  595TMC3     H 8876   0.087   2.470  14.556 -0.6748 -2.8368  0.9349
  595TMC3    H1 8877   0.272   2.608  14.914  0.8888  0.2453 -1.8882
  595TMC3    H2 8878   4.649   2.393  14.918  0.4439  0.2897  1.4391
  595TMC3    C7 8879   0.012   2.618  14.986 -0.0053 -0.1381 -0.8179
  595TMC3    C8 8880   4.599   2.418  14.658  0.3340  0.1016 -1.0740
  595TMC3    O1 8881   4.645   2.587  15.047  0.1704 -0.3246 -0.1324
  595TMC3    O2 8882   4.595   2.460  14.544 -0.3730 -0.0720  0.2833
  596MPD2     C 8883   3.624   0.303  16.799  0.8459  0.3185  0.4604
  596MPD2    C1 8884   3.585   0.410  16.723 -0.2021 -0.1091 -0.0547
  596MPD2    C2 8885   3.605   0.406  16.591 -0.3492  0.2066  0.4708
  596MPD2    C3 8886   3.653   0.294  16.520 -0.3481 -0.0351 -0.4699
  596MPD2    C4 8887   3.694   0.187  16.595 -0.4205  0.1995 -0.2622
  596MPD2    C5 8888   3.678   0.195  16.735  0.1746  0.3952 -0.7386
  596MPD2     H 8889   3.573   0.498  16.542 -0.5869 -0.3275 -0.3683
  596MPD2    H1 8890   3.733   0.096  16.551  0.7934  0.5784  0.0190
  596MPD2    H2 8891   3.597   0.289  16.903 -1.1337  1.1063  0.0450
  596MPD2    H3 8892   3.697   0.104  16.790 -1.2809  1.8875  2.2643
  596MPD2     N 8893   3.665   0.280  16.380 -1.0131 -0.3805 -0.5746
  596MPD2    H5 8894   3.697   0.190  16.346  2.1470 -0.6117  3.1108
  596MPD2    N1 8895   3.528   0.519  16.784 -0.3855 -0.4497  0.1695
  596MPD2    H7 8896   3.487   0.593  16.729  1.1417  0.0817 -0.2743
  597TMC3    C1 8897   3.482   0.689  16.945 -0.1788  0.3330  0.0820
  597TMC3    C2 8898   3.512   0.786  16.854 -0.0522  0.1416  0.2662
  597TMC3    C3 8899   3.437   0.902  16.873 -0.0182  0.2347 -0.2317
  597TMC3    C4 8900   3.386   0.702  17.050  0.0389 -0.8436 -0.1843
  597TMC3    C5 8901   3.316   0.812  17.053 -0.2585 -0.1325 -0.0675
  597TMC3    C6 8902   3.333   0.913  16.962  0.9439 -0.6670  0.0988
  597TMC3     C 8903   3.533   0.552  16.916 -0.3475 -0.6140  0.0887
  597TMC3     O 8904   3.556   0.476  17.014  0.1112 -0.1974  0.1093
  597TMC3     H 8905   3.573   0.765  16.767  0.7062 -0.3766  0.9184
  597TMC3    H1 8906   3.359   0.614  17.107 -1.0369 -0.4136 -0.0115
  597TMC3    H2 8907   3.299   1.016  16.962  0.5981 -0.7822  0.3994
  597TMC3    C7 8908   3.188   0.806  17.109 -0.4793 -0.3937 -0.2848
  597TMC3    C8 8909   3.458   1.007  16.773 -0.2723  0.5079  0.0944
  597TMC3    O1 8910   3.164   0.709  17.179  0.2415  0.0588  0.1625
  597TMC3    O2 8911   3.411   1.114  16.798  0.2189  0.6812 -0.2051
  598TMC3    C1 8912   1.540   1.780  14.999  0.2257 -0.6414 -0.4080
  598TMC3    C2 8913   1.426   1.722  14.965 -0.1172 -0.6141 -0.3226
  598TMC3    C3 8914   1.363   1.753  14.846  0.0877  0.3926  0.0432
  598TMC3    C4 8915   1.607   1.866  14.922 -0.0207 -0.3171  0.2679
  598TMC3    C5 8916   1.549   1.895  14.803  0.4261  0.1653 -0.0577
  598TMC3    C6 8917   1.423   1.841  14.763 -0.0125  0.1502  0.2804
  598TMC3     C 8918   1.604   1.733  15.122  0.5617  0.3890 -0.3072
  598TMC3     O 8919   1.724   1.711  15.118 -0.3312  0.2068 -0.2979
  598TMC3     H 8920   1.387   1.641  15.025 -0.1040  1.4188  2.4676
  598TMC3    H1 8921   1.703   1.904  14.954  0.4398 -1.8883  0.7563
  598TMC3    H2 8922   1.389   1.868  14.664 -1.5986 -0.6288  0.6040
  598TMC3    C7 8923   1.612   1.973  14.702 -0.2569  0.0406 -0.6493
  598TMC3    C8 8924   1.222   1.709  14.825  0.6159  0.4554 -0.5493
  598TMC3    O1 8925   1.563   1.976  14.590 -0.5886  0.6466  0.0727
  598TMC3    O2 8926   1.159   1.758  14.736  0.0152  0.1980  0.6802
  599MPD2     C 8927   1.528   4.009  15.436  0.3613 -0.1291 -0.2834
  599MPD2    C1 8928   1.533   3.884  15.491  0.3310 -0.4679 -0.6399
  599MPD2    C2 8929   1.470   3.859  15.615  0.3456  0.2110 -0.0875
  599MPD2    C3 8930   1.389   3.946  15.675  0.5910 -0.2881 -0.5655
  599MPD2    C4 8931   1.382   4.072  15.626 -0.1540 -0.3201 -0.0296
  599MPD2    C5 8932   1.457   4.101  15.515 -0.6977  0.3769  0.0527
  599MPD2     H 8933   1.479   3.755  15.645  0.3702  0.6333  1.3899
  599MPD2    H1 8934   1.316   4.150  15.664 -1.2457 -1.3810  0.2185
  599MPD2    H2 8935   1.574   4.047  15.346  1.0781 -0.9413 -0.2660
  599MPD2    H3 8936   1.439   4.198  15.470  0.1709  0.4956 -0.0213
  599MPD2     N 8937   1.310   3.932  15.787 -0.8713  0.3557  0.5602
  599MPD2    H5 8938   1.252   4.012  15.808  1.2893  1.9079  0.5527
  599MPD2    N1 8939   1.617   3.787  15.432  0.4448 -0.0361 -0.3650
  599MPD2    H7 8940   1.683   3.820  15.362 -1.4802  0.8378 -1.7658
  600TMC3    C1 8941   1.188   3.839  15.956 -0.3840  0.4785 -0.5918
  600TMC3    C2 8942   1.071   3.770  15.928  0.3186  0.3349 -0.5077
  600TMC3    C3 8943   0.964   3.799  15.998  0.1988  0.4976  0.5786
  600TMC3    C4 8944   1.199   3.940  16.044  0.4496  0.1098 -0.3180
  600TMC3    C5 8945   1.077   3.981  16.104 -0.2722 -0.1386 -0.3482
  600TMC3    C6 8946   0.958   3.920  16.070 -0.2962  0.4721 -0.2140
  600TMC3     C 8947   1.294   3.819  15.857  0.1733  0.0899  0.2119
  600TMC3     O 8948   1.352   3.709  15.844 -0.2713  0.1244  0.2221
  600TMC3     H 8949   1.072   3.679  15.870  0.7582  1.0618 -1.6464
  600TMC3    H1 8950   1.300   3.966  16.071  0.2309  1.4961 -0.8366
  600TMC3    H2 8951   0.874   3.934  16.137 -0.9992 -0.9264 -0.8042
  600TMC3    C7 8952   1.074   4.115  16.168  0.2071 -0.6731  0.3718
  600TMC3    C8 8953   0.842   3.743  15.946 -0.3195  0.7959  0.0745
  600TMC3    O1 8954   0.965   4.155  16.211 -0.3080  0.4636 -0.1409
  600TMC3    O2 8955   0.833   3.734  15.825  0.3238 -0.1441 -0.7166
  601MPD2     C 8956   4.075   2.500  17.357  0.1325 -0.6337 -0.0700
  601MPD2    C1 8957   3.941   2.459  17.349 -0.2030  0.2380  0.3593
  601MPD2    C2 8958   3.901   2.356  17.428 -0.0365  0.0917 -0.2740
  601MPD2    C3 8959   3.982   2.288  17.515  0.6341 -0.3016 -0.2959
  601MPD2    C4 8960   4.112   2.331  17.532 -0.0948 -0.3385  0.4524
  601MPD2    C5 8961   4.159   2.434  17.449  0.0918 -0.4947  0.0559
  601MPD2     H 8962   3.794   2.337  17.423 -0.2614  0.5505  2.4547
  601MPD2    H1 8963   4.182   2.276  17.592  1.1307  0.6076 -0.1107
  601MPD2    H2 8964   4.115   2.591  17.314  0.5896 -0.3955  0.8625
  601MPD2    H3 8965   4.265   2.458  17.451  0.6759 -3.1363  1.2524
  601MPD2     N 8966   3.946   2.174  17.593 -0.1019 -0.5858  0.3898
  601MPD2    H5 8967   4.007   2.154  17.672  0.7578 -0.8842 -0.3530
  601MPD2    N1 8968   3.845   2.528  17.270  0.2006 -0.0018  0.2844
  601MPD2    H7 8969   3.755   2.481  17.268 -1.6112  3.2615  3.8826
  602TMC3    C1 8970   3.729   2.706  17.151 -0.4604 -0.1048  0.5633
  602TMC3    C2 8971   3.713   2.841  17.163 -0.1725  0.4218  0.3160
  602TMC3    C3 8972   3.600   2.891  17.104 -0.1720  0.3244 -0.6948
  602TMC3    C4 8973   3.641   2.623  17.101  0.5539 -0.1139  0.2634
  602TMC3    C5 8974   3.546   2.677  17.028  0.4326  0.0139  0.2881
  602TMC3    C6 8975   3.513   2.810  17.034 -1.4719 -0.2335 -0.2452
  602TMC3     C 8976   3.853   2.657  17.225 -0.0399 -0.8433  0.1365
  602TMC3     O 8977   3.936   2.742  17.259 -0.1133  0.5138 -0.3128
  602TMC3     H 8978   3.777   2.908  17.218  0.0231  0.9643 -0.5703
  602TMC3    H1 8979   3.672   2.520  17.088  0.3751 -0.5093  3.0218
  602TMC3    H2 8980   3.430   2.844  16.974 -2.1934 -1.3994  0.0902
  602TMC3    C7 8981   3.450   2.586  16.976 -0.5316  0.2212 -0.2474
  602TMC3    C8 8982   3.551   3.027  17.128 -0.3268 -0.1328  0.0422
  602TMC3    O1 8983   3.484   2.497  16.901  0.1577  0.2417  0.3198
  602TMC3    O2 8984   3.626   3.120  17.157 -0.7768 -0.3783  0.2653
  603TMC3    C1 8985   2.025   2.957  10.853 -0.5670 -0.4186  0.2597
  603TMC3    C2 8986   2.039   2.956  10.986  0.4124 -0.2049 -0.2604
  603TMC3    C3 8987   2.049   3.070  11.053  0.1744  0.3304 -0.0173
  603TMC3    C4 8988   2.022   3.073  10.785  0.2351 -0.4245 -0.2377
  603TMC3    C5 8989   2.047   3.190  10.853 -0.5362  0.1351 -0.3452
  603TMC3    C6 8990   2.067   3.186  10.988 -0.5077 -0.3359 -0.9161
  603TMC3     C 8991   2.008   2.830  10.793 -0.1051 -0.3825  0.0732
  603TMC3     O 8992   1.950   2.822  10.686  0.0504  0.1662  0.1243
  603TMC3     H 8993   2.039   2.866  11.047 -0.5793 -0.4755 -0.6631
  603TMC3    H1 8994   2.028   3.078  10.677 -2.0952  2.1582 -0.2510
  603TMC3    H2 8995   2.069   3.281  11.040 -2.8876  0.3080 -2.0370
  603TMC3    C7 8996   2.051   3.314  10.782  0.0886  0.1001 -0.0332
  603TMC3    C8 8997   2.078   3.068  11.192 -1.1789 -0.0748  0.3051
  603TMC3    O1 8998   2.089   3.408  10.846 -0.2209 -0.4320  1.1782
  603TMC3    O2 8999   2.124   2.965  11.240 -0.6041  0.0661  0.1191
  604MPD2     C 9000   2.443   1.572  16.324  0.0413 -0.8157 -0.6941
  604MPD2    C1 9001   2.339   1.524  16.245  0.4124  0.6181  0.5078
  604MPD2    C2 9002   2.364   1.446  16.137  0.2086  0.1909 -0.1699
  604MPD2    C3 9003   2.496   1.425  16.094 -0.0489 -0.8333  0.6621
  604MPD2    C4 9004   2.604   1.488  16.163  0.2945 -0.1041  1.0270
  604MPD2    C5 9005   2.576   1.559  16.278  0.8583  0.0911 -0.1507
  604MPD2     H 9006   2.283   1.397  16.085 -1.0130  1.4178  0.5553
  604MPD2    H1 9007   2.704   1.491  16.123  0.6710 -0.9082  1.8846
  604MPD2    H2 9008   2.428   1.619  16.421 -0.0592  0.0330 -1.1277
  604MPD2    H3 9009   2.655   1.612  16.331  1.9373 -0.3098 -1.3514
  604MPD2     N 9010   2.517   1.356  15.974  0.2985  0.0698  0.4565
  604MPD2    H5 9011   2.436   1.308  15.936  1.5839 -2.6225  1.0460
  604MPD2    N1 9012   2.213   1.535  16.306 -0.8877 -0.7985  0.2349
  604MPD2    H7 9013   2.208   1.593  16.389 -0.8040 -1.5360  0.7523
  605TMC3    C1 9014   1.988   1.559  16.341  0.2510 -0.1448  0.4831
  605TMC3    C2 9015   2.033   1.586  16.462  0.4059  0.1617  0.3771
  605TMC3    C3 9016   2.000   1.708  16.514 -0.1785 -0.0845 -0.4267
  605TMC3    C4 9017   1.901   1.649  16.280  0.1036  0.6950  0.1172
  605TMC3    C5 9018   1.853   1.763  16.345 -0.3679  0.0950  0.7109
  605TMC3    C6 9019   1.915   1.795  16.458 -0.8463 -0.2572  0.1890
  605TMC3     C 9020   2.089   1.503  16.259  0.5091  0.6210 -0.4971
  605TMC3     O 9021   2.060   1.462  16.146 -0.2077 -0.7147 -0.0103
  605TMC3     H 9022   2.094   1.516  16.517  0.4469  0.9404  1.3232
  605TMC3    H1 9023   1.865   1.627  16.180  0.6857  0.4430 -0.0371
  605TMC3    H2 9024   1.880   1.877  16.520  0.8324  0.2317  0.4961
  605TMC3    C7 9025   1.772   1.868  16.285  0.3150  0.2456 -0.3659
  605TMC3    C8 9026   2.118   1.777  16.578  0.2646 -0.1362 -0.3680
  605TMC3    O1 9027   1.774   1.969  16.355  0.0850  0.3684 -0.2953
  605TMC3    O2 9028   2.216   1.704  16.584 -0.3130  0.2375  0.3735
  606TMC3    C1 9029   3.239   0.624   0.200 -0.0060 -0.1067  0.0277
  606TMC3    C2 9030   3.229   0.511   0.269 -0.1649 -0.4250  0.1645
  606TMC3    C3 9031   3.181   0.402   0.207  0.3026 -0.0421 -0.5422
  606TMC3    C4 9032   3.198   0.634   0.069  0.2951 -0.9895 -0.7250
  606TMC3    C5 9033   3.154   0.522   0.006 -0.4161 -0.4621 -0.0404
  606TMC3    C6 9034   3.127   0.409   0.080  0.0915  0.3291 -0.4317
  606TMC3     C 9035   3.343   0.719   0.244  0.2701  1.1019  0.6261
  606TMC3     O 9036   3.423   0.678   0.327 -0.3129  0.2541  0.5381
  606TMC3     H 9037   3.274   0.501   0.367  1.7689  1.8653 -0.4860
  606TMC3    H1 9038   3.206   0.724   0.010  0.6708 -0.4850  0.1016
  606TMC3    H2 9039   3.070   0.324   0.044  0.4076 -0.8921  1.9984
  606TMC3    C7 9040   3.187   0.503  17.607 -0.2572  0.0324 -0.2616
  606TMC3    C8 9041   3.260   0.278   0.223  0.8405 -0.1342  0.5675
  606TMC3    O1 9042   3.218   0.604  17.539 -0.3874  0.5457 -0.1521
  606TMC3    O2 9043   3.272   0.205   0.124 -0.1288 -0.1033  0.4071
  607MPD2     C 9044   1.425   3.084  11.823  0.4916 -0.3882 -0.1839
  607MPD2    C1 9045   1.457   3.115  11.958  0.3602 -0.2005 -0.4024
  607MPD2    C2 9046   1.420   3.026  12.061 -0.0520 -0.0954  0.1219
  607MPD2    C3 9047   1.360   2.910  12.035 -0.3397 -0.5807 -0.2492
  607MPD2    C4 9048   1.320   2.880  11.902  0.6196  0.4008  0.4971
  607MPD2    C5 9049   1.356   2.964  11.796 -0.0828  0.8982 -0.3356
  607MPD2     H 9050   1.422   3.055  12.165  1.0364 -0.5442  0.2213
  607MPD2    H1 9051   1.258   2.794  11.881  1.4994 -0.9498  3.3211
  607MPD2    H2 9052   1.450   3.146  11.737  1.5015 -0.6593 -0.0894
  607MPD2    H3 9053   1.319   2.936  11.698  1.4119  0.8564 -0.8901
  607MPD2     N 9054   1.327   2.836  12.144 -0.4266 -0.4597 -0.1197
  607MPD2    H5 9055   1.357   2.876  12.233  0.4485 -1.4573  0.0326
  607MPD2    N1 9056   1.520   3.237  11.989  0.0908 -1.0045  0.6566
  607MPD2    H7 9057   1.549   3.243  12.086 -1.8111  0.3454  1.1544
  608TMC3    C1 9058   1.549   3.461  11.995 -0.2528 -0.7709 -0.3002
  608TMC3    C2 9059   1.487   3.456  12.114 -0.3012 -0.9248  0.6469
  608TMC3    C3 9060   1.508   3.559  12.205 -0.7511  0.9189 -0.3701
  608TMC3    C4 9061   1.630   3.560  11.961 -0.4528  0.3056  0.1452
  608TMC3    C5 9062   1.653   3.661  12.049  0.0652  0.0781 -0.2831
  608TMC3    C6 9063   1.580   3.672  12.168 -0.2498  0.4275  1.0509
  608TMC3     C 9064   1.551   3.343  11.907  0.0218  0.3176  0.8264
  608TMC3     O 9065   1.575   3.348  11.783  0.1809  0.5303  0.3887
  608TMC3     H 9066   1.417   3.377  12.138 -3.2318  1.3516 -0.3735
  608TMC3    H1 9067   1.666   3.576  11.860 -0.3073 -0.1009  0.1328
  608TMC3    H2 9068   1.610   3.743  12.245  1.4691  1.9995 -1.0471
  608TMC3    C7 9069   1.730   3.767  11.991 -0.0648 -0.1562 -0.7416
  608TMC3    C8 9070   1.459   3.543  12.343 -0.0748 -0.1826  0.4445
  608TMC3    O1 9071   1.795   3.734  11.894 -0.2261 -0.4676 -0.3244
  608TMC3    O2 9072   1.436   3.636  12.420  0.1055  0.0942  0.9107
  609TMC3    C1 9073   3.362   2.804   9.223 -0.3173 -0.3888 -0.3335
  609TMC3    C2 9074   3.302   2.761   9.332  0.3782  0.4679  0.2446
  609TMC3    C3 9075   3.326   2.632   9.369 -0.1690  0.7843 -0.7730
  609TMC3    C4 9076   3.450   2.730   9.152  0.0108 -0.2666 -0.4693
  609TMC3    C5 9077   3.481   2.602   9.200  0.1102  0.1106  0.4970
  609TMC3    C6 9078   3.415   2.548   9.304 -0.0135 -0.5580 -0.3114
  609TMC3     C 9079   3.331   2.935   9.171  0.4963 -0.3862  0.6879
  609TMC3     O 9080   3.224   2.988   9.210 -0.4914  0.2717 -0.1864
  609TMC3     H 9081   3.242   2.827   9.394 -1.4145  0.8394 -1.8504
  609TMC3    H1 9082   3.492   2.753   9.055 -2.6320  0.5187 -1.4252
  609TMC3    H2 9083   3.436   2.448   9.340 -0.3602  0.0865  1.6772
  609TMC3    C7 9084   3.568   2.522   9.116 -0.6160  0.6706 -0.5561
  609TMC3    C8 9085   3.256   2.584   9.477 -0.1654  0.4310  0.0991
  609TMC3    O1 9086   3.642   2.584   9.041  0.4134  0.3824  0.3404
  609TMC3    O2 9087   3.216   2.671   9.552  0.0315 -0.6325 -0.2737
  610TMC3    C1 9088   1.499   3.362  12.801 -0.0388  0.7443 -0.0551
  610TMC3    C2 9089   1.555   3.429  12.694 -0.4435 -0.2357  0.0296
  610TMC3    C3 9090   1.675   3.388  12.648  0.4101  0.4800 -0.5934
  610TMC3    C4 9091   1.558   3.253  12.864 -0.0297  0.1408  0.5830
  610TMC3    C5 9092   1.681   3.221  12.807 -0.9740 -0.0780  0.0529
  610TMC3    C6 9093   1.745   3.287  12.708 -0.3154  0.1097  0.4068
  610TMC3     C 9094   1.385   3.415  12.863  0.2649  0.1755 -0.6989
  610TMC3     O 9095   1.328   3.342  12.936  0.5277  0.2960  0.1622
  610TMC3     H 9096   1.498   3.501  12.637  0.6452  0.3471 -0.3163
  610TMC3    H1 9097   1.512   3.212  12.953  0.1196 -0.5875  0.3246
  610TMC3    H2 9098   1.847   3.266  12.678 -0.9550 -0.9194 -1.0532
  610TMC3    C7 9099   1.739   3.098  12.854 -0.1094  0.2335  0.4147
  610TMC3    C8 9100   1.739   3.482  12.563 -0.2333  0.3818  0.3679
  610TMC3    O1 9101   1.860   3.079  12.835  0.3077  0.2264  0.0194
  610TMC3    O2 9102   1.712   3.596  12.584 -0.3400 -0.5518 -0.2317
  611MPD2     C 9103   1.082   3.218   9.935  0.6075 -0.4671  0.6833
  611MPD2    C1 9104   1.165   3.201  10.046 -0.0425 -0.1628 -0.7621
  611MPD2    C2 9105   1.275   3.285  10.053  0.3492  0.2362  0.7552
  611MPD2    C3 9106   1.307   3.360   9.935  0.3053 -0.1683 -0.5569
  611MPD2    C4 9107   1.223   3.382   9.833  0.8895 -0.4761  0.0394
  611MPD2    C5 9108   1.108   3.314   9.841  0.4257 -0.0128 -0.3689
  611MPD2     H 9109   1.349   3.265  10.130  0.3679 -2.9405 -0.0922
  611MPD2    H1 9110   1.248   3.440   9.744 -0.8115 -0.0199 -0.1421
  611MPD2    H2 9111   0.989   3.163   9.926  1.1479 -1.1453 -0.6849
  611MPD2    H3 9112   1.043   3.327   9.755 -0.2650  1.6295  0.4051
  611MPD2     N 9113   1.431   3.424   9.917 -0.2730  0.3125  0.3453
  611MPD2    H5 9114   1.443   3.482   9.835 -0.1549 -1.0508 -0.5956
  611MPD2    N1 9115   1.145   3.104  10.146  0.4534  0.0029 -0.1623
  611MPD2    H7 9116   1.212   3.102  10.223  2.0479 -0.1479 -1.5481
  612TMC3    C1 9117   1.661   3.462   9.947 -0.3905 -0.0665 -0.0168
  612TMC3    C2 9118   1.767   3.466  10.039 -0.1591 -0.4210 -0.3514
  612TMC3    C3 9119   1.894   3.492   9.993 -0.1481  0.0014  0.0162
  612TMC3    C4 9120   1.687   3.476   9.815  0.1153  0.3537  0.1849
  612TMC3    C5 9121   1.816   3.504   9.770 -0.4281 -0.2003  0.2637
  612TMC3    C6 9122   1.916   3.504   9.862 -0.8142 -0.5722 -0.2473
  612TMC3     C 9123   1.536   3.412  10.003 -0.3880 -0.2045 -0.5920
  612TMC3     O 9124   1.544   3.344  10.105 -0.0971  0.9878 -0.3788
  612TMC3     H 9125   1.740   3.465  10.144 -1.6854 -0.7023 -0.7326
  612TMC3    H1 9126   1.613   3.477   9.736  1.7749 -1.1745 -1.3884
  612TMC3    H2 9127   2.018   3.535   9.837 -1.4121  0.9730 -0.7844
  612TMC3    C7 9128   1.843   3.519   9.627  0.0591  0.2537 -0.1931
  612TMC3    C8 9129   2.000   3.521  10.088  0.0383  0.1738  0.1599
  612TMC3    O1 9130   1.747   3.496   9.553 -0.2578  0.2169  0.1893
  612TMC3    O2 9131   2.086   3.608  10.053  0.0794 -0.2368 -0.2443
  613MPD2     C 9132   4.620   0.803  16.852 -0.3984 -0.7314 -0.3802
  613MPD2    C1 9133   4.671   0.679  16.822 -0.1295  0.0986  0.6855
  613MPD2    C2 9134   4.686   0.579  16.920 -0.3841  0.3303 -0.6240
  613MPD2    C3 9135   4.653   0.605  17.054 -0.2406  1.1176  0.0058
  613MPD2    C4 9136   4.607   0.733  17.082  0.2975 -0.0385  0.3404
  613MPD2    C5 9137   4.590   0.827  16.978 -1.1933  0.6325  0.9380
  613MPD2     H 9138   4.727   0.480  16.900  0.9975  1.1533 -1.9337
  613MPD2    H1 9139   4.586   0.765  17.184 -0.1068  3.1340 -0.7467
  613MPD2    H2 9140   4.589   0.873  16.775  2.5111  0.0851 -0.8328
  613MPD2    H3 9141   4.561   0.929  17.002  0.9494  1.1211  1.4342
  613MPD2     N 9142   4.659   0.511  17.168 -0.2184 -0.0938 -0.5966
  613MPD2    H5 9143   4.646   0.561  17.255  1.2953 -1.2427  0.2965
  613MPD2    N1 9144   4.681   0.659  16.684 -0.1673 -0.5105 -0.2193
  613MPD2    H7 9145   4.656   0.735  16.621 -1.5003  1.2986  2.5127
  614TMC3    C1 9146   4.731   0.554  16.487  0.1069  0.9377 -0.2143
  614TMC3    C2 9147   0.079   0.471  16.415  0.2915  0.1231  0.0886
  614TMC3    C3 9148   0.027   0.413  16.301  0.6020 -0.1191 -0.0728
  614TMC3    C4 9149   4.609   0.592  16.429  0.7350 -0.1731  0.2394
  614TMC3    C5 9150   4.565   0.541  16.303  0.1098 -0.3172  0.4443
  614TMC3    C6 9151   4.645   0.453  16.238 -0.5108 -0.3570 -0.1147
  614TMC3     C 9152   0.008   0.550  16.629  0.2317 -0.6306 -0.2302
  614TMC3     O 9153   0.056   0.446  16.676  0.1530  0.6257 -0.2430
  614TMC3     H 9154   0.175   0.440  16.454 -0.5669 -0.6195  1.6283
  614TMC3    H1 9155   4.543   0.652  16.489  1.2692 -1.7838  2.4557
  614TMC3    H2 9156   4.628   0.413  16.139 -2.4221  1.1330 -0.3900
  614TMC3    C7 9157   4.477   0.635  16.237 -0.0458 -0.1828 -0.1861
  614TMC3    C8 9158   0.117   0.340  16.209  0.2341 -0.5873 -0.0014
  614TMC3    O1 9159   4.466   0.746  16.288  0.3618 -0.2015 -0.2952
  614TMC3    O2 9160   0.118   0.391  16.093 -0.0171 -0.0012 -0.0248
  615MPD2     C 9161   4.227   1.462  16.030 -0.4970 -0.0684  0.6681
  615MPD2    C1 9162   4.177   1.590  16.052  0.5704 -0.7118  0.2970
  615MPD2    C2 9163   4.107   1.648  15.944 -0.0512  0.3270 -0.0812
  615MPD2    C3 9164   4.124   1.591  15.816  0.1262  0.3475 -0.6722
  615MPD2    C4 9165   4.203   1.481  15.795  0.1007 -0.0627 -0.5679
  615MPD2    C5 9166   4.251   1.421  15.904  0.1014  0.0766 -0.0123
  615MPD2     H 9167   4.059   1.745  15.953 -2.1283 -0.7700  0.4787
  615MPD2    H1 9168   4.241   1.444  15.701  0.5728 -2.4650  0.5892
  615MPD2    H2 9169   4.278   1.412  16.111  3.8784  0.7161 -1.5808
  615MPD2    H3 9170   4.320   1.337  15.898 -0.2996 -0.1029 -2.4022
  615MPD2     N 9171   4.066   1.652  15.708  0.0372 -0.0105  0.4941
  615MPD2    H5 9172   4.102   1.633  15.615  2.2655  0.3573  1.2829
  615MPD2    N1 9173   4.172   1.662  16.175 -0.1392 -0.4158  0.5904
  615MPD2    H7 9174   4.124   1.751  16.167  1.0933  0.2181  0.3270
  616TMC3    C1 9175   4.207   1.715  16.396 -0.4437  0.3857  0.1085
  616TMC3    C2 9176   4.309   1.739  16.474 -0.2749  0.1355  0.6075
  616TMC3    C3 9177   4.313   1.857  16.541 -0.3063  0.4975  0.4357
  616TMC3    C4 9178   4.106   1.807  16.390 -0.0264 -0.9183 -0.3461
  616TMC3    C5 9179   4.105   1.921  16.461  0.3346  0.7068  0.4236
  616TMC3    C6 9180   4.211   1.952  16.539 -0.0460  0.1816 -0.0904
  616TMC3     C 9181   4.217   1.617  16.294 -0.1189 -0.0135 -0.0578
  616TMC3     O 9182   4.281   1.514  16.316 -0.3596  0.2439  0.2607
  616TMC3     H 9183   4.401   1.683  16.463  0.5565  1.7936 -0.9476
  616TMC3    H1 9184   4.017   1.780  16.334 -0.5704 -1.0030  0.5676
  616TMC3    H2 9185   4.213   2.031  16.613 -1.5818 -1.1178  1.3225
  616TMC3    C7 9186   3.984   1.988  16.500 -0.3071  0.1046 -0.5997
  616TMC3    C8 9187   4.438   1.909  16.525 -0.2187  0.3758  0.6751
  616TMC3    O1 9188   3.970   2.025  16.613 -0.2627  0.5067 -0.6505
  616TMC3    O2 9189   4.543   1.848  16.538 -0.6878 -0.2563  0.0852
  617MPD2     C 9190   2.455   0.081  13.354 -0.1449 -0.7683 -0.3222
  617MPD2    C1 9191   2.465   0.011  13.470  0.2046  0.4885  0.8547
  617MPD2    C2 9192   2.346   4.701  13.526  0.5206  0.3392 -0.9886
  617MPD2    C3 9193   2.223   4.730  13.476 -0.2140 -0.4085 -0.4340
  617MPD2    C4 9194   2.220   0.059  13.352 -0.3409  0.1602 -0.8569
  617MPD2    C5 9195   2.336   0.094  13.289 -0.5476 -0.1442 -0.0407
  617MPD2     H 9196   2.349   4.659  13.626  0.8153 -1.4775 -1.7570
  617MPD2    H1 9197   2.130   0.098  13.305 -1.2916 -0.6190  0.3070
  617MPD2    H2 9198   2.543   0.116  13.299 -0.7798  1.4616  0.0891
  617MPD2    H3 9199   2.330   0.139  13.190 -1.0371  0.2084  0.1528
  617MPD2     N 9200   2.100   4.698  13.538  0.3090  0.0861 -0.3196
  617MPD2    H5 9201   2.021   4.733  13.485 -0.0706 -2.6403 -1.6036
  617MPD2    N1 9202   2.593   4.725  13.525 -0.5222 -0.2750 -0.5194
  617MPD2    H7 9203   2.665   0.047  13.482  0.2040 -0.8823 -0.1271
  618TMC3    C1 9204   2.762   4.642  13.652  0.0335  0.0800 -0.4315
  618TMC3    C2 9205   2.818   4.518  13.665 -0.1091  0.2028 -0.0464
  618TMC3    C3 9206   2.958   4.520  13.664 -0.4756 -0.7423 -0.1015
  618TMC3    C4 9207   2.832   0.026  13.643  0.0553 -0.5271  0.0298
  618TMC3    C5 9208   2.966   0.013  13.644  0.2946  0.8776 -0.3045
  618TMC3    C6 9209   3.033   4.629  13.644  0.2068 -0.5024 -0.0353
  618TMC3     C 9210   2.618   4.647  13.637  0.2602  0.4942  0.3126
  618TMC3     O 9211   2.546   4.554  13.679  0.1830 -0.5983 -0.9338
  618TMC3     H 9212   2.752   4.436  13.690  1.4111 -0.8274  0.5488
  618TMC3    H1 9213   2.799   0.129  13.655  0.5064 -0.3286 -0.4186
  618TMC3    H2 9214   3.141   4.628  13.634  0.1015 -0.5615 -1.1658
  618TMC3    C7 9215   3.048   0.127  13.693 -0.0135 -0.6849 -0.0710
  618TMC3    C8 9216   3.019   4.384  13.638 -0.2818 -0.2902 -0.3504
  618TMC3    O1 9217   3.001   0.175  13.796 -0.1310  0.1665  0.2224
  618TMC3    O2 9218   2.942   4.294  13.623  0.2950 -0.9959  0.0558
  619MPD2     C 9219   4.354   1.444  13.841  0.7036  0.3953 -0.6771
  619MPD2    C1 9220   4.328   1.483  13.705 -0.0941  0.2072 -0.2486
  619MPD2    C2 9221   4.252   1.408  13.619  0.9382 -0.4857  0.3233
  619MPD2    C3 9222   4.188   1.295  13.677  0.8508  0.5813  0.0129
  619MPD2    C4 9223   4.216   1.256  13.806 -0.6300  0.6296 -0.4060
  619MPD2    C5 9224   4.301   1.326  13.884  0.3585 -0.0987  0.5722
  619MPD2     H 9225   4.234   1.437  13.517  0.0902 -1.1374  0.2867
  619MPD2    H1 9226   4.174   1.173  13.863 -0.4334 -0.5203 -1.9282
  619MPD2    H2 9227   4.406   1.505  13.914 -0.2185  0.9518 -0.4898
  619MPD2    H3 9228   4.316   1.276  13.979  2.4806  0.3396  0.4573
  619MPD2     N 9229   4.092   1.222  13.598  0.2470 -0.3579  0.0380
  619MPD2    H5 9230   4.036   1.149  13.641 -0.2357  0.6859  1.1907
  619MPD2    N1 9231   4.391   1.588  13.638  0.2765 -0.1348 -0.0067
  619MPD2    H7 9232   4.389   1.585  13.537  0.4109  0.7727 -0.0398
  620TMC3    C1 9233   4.505   1.779  13.578  0.1236 -0.6117 -0.3370
  620TMC3    C2 9234   4.462   1.754  13.452 -0.5261  1.0518  0.5376
  620TMC3    C3 9235   4.428   1.853  13.365  0.0974 -0.8859 -0.0349
  620TMC3    C4 9236   4.527   1.909  13.616  0.3297  0.9049 -0.3983
  620TMC3    C5 9237   4.495   2.013  13.528 -0.1269 -0.2750  0.7245
  620TMC3    C6 9238   4.448   1.986  13.404 -0.2129  0.4844  0.0845
  620TMC3     C 9239   4.465   1.689  13.686 -0.3284  0.3661 -0.2297
  620TMC3     O 9240   4.493   1.719  13.805  0.3985 -0.2832 -0.2223
  620TMC3     H 9241   4.446   1.654  13.414 -1.0707  1.4825 -0.3554
  620TMC3    H1 9242   4.550   1.942  13.717  0.7398  1.0381 -0.5349
  620TMC3    H2 9243   4.409   2.061  13.336  2.5805  2.7507  0.9537
  620TMC3    C7 9244   4.446   2.137  13.586 -0.0907  0.2633 -0.5496
  620TMC3    C8 9245   4.296   1.827  13.316 -0.3183 -1.0738 -0.0729
  620TMC3    O1 9246   4.358   2.127  13.672 -0.0864 -0.3182  0.0478
  620TMC3    O2 9247   4.256   1.876  13.210 -0.8289 -0.4613  0.0385
  621MPD2     C 9248   4.144   2.733   9.528 -0.6937  0.2099 -0.1783
  621MPD2    C1 9249   4.172   2.765   9.657  0.2173 -0.2111  0.4585
  621MPD2    C2 9250   4.289   2.705   9.707 -0.2775  0.1091  0.0013
  621MPD2    C3 9251   4.362   2.618   9.638  1.1071 -0.0014  0.4450
  621MPD2    C4 9252   4.328   2.583   9.513  0.0557  0.1670  0.2846
  621MPD2    C5 9253   4.214   2.644   9.452  0.5348  0.2072  0.5447
  621MPD2     H 9254   4.327   2.724   9.807  0.2394 -0.2614 -0.1244
  621MPD2    H1 9255   4.392   2.522   9.451  1.0403  2.2356 -0.7490
  621MPD2    H2 9256   4.061   2.777   9.474 -0.6857 -2.2262 -2.1547
  621MPD2    H3 9257   4.183   2.630   9.349  1.9231  0.5884  0.0712
  621MPD2     N 9258   4.480   2.570   9.703 -1.2829  0.1052  0.3383
  621MPD2    H5 9259   4.511   2.611   9.790  0.1482  0.5289 -0.3676
  621MPD2    N1 9260   4.088   2.827   9.748 -0.4827 -0.1004 -0.2151
  621MPD2    H7 9261   4.119   2.830   9.845  0.1268 -0.5905 -0.3932
  622TMC3    C1 9262   3.904   2.943   9.838 -0.1814  0.3156  0.2436
  622TMC3    C2 9263   3.816   3.050   9.825  1.1208 -0.6058  0.7780
  622TMC3    C3 9264   3.729   3.061   9.926 -0.1668 -0.4451 -0.4158
  622TMC3    C4 9265   3.908   2.859   9.949  0.2504 -0.9294  0.1713
  622TMC3    C5 9266   3.810   2.884  10.051  0.2063  0.5070 -0.1117
  622TMC3    C6 9267   3.726   2.987  10.041 -0.4987 -0.2257  0.2949
  622TMC3     C 9268   3.976   2.904   9.722  0.6639  0.6299  0.0027
  622TMC3     O 9269   3.929   2.934   9.614  0.0707 -0.5602 -0.3759
  622TMC3     H 9270   3.820   3.123   9.745  0.0132 -1.3651  0.0415
  622TMC3    H1 9271   3.961   2.765   9.948  0.4623 -0.8035 -0.7491
  622TMC3    H2 9272   3.653   3.010  10.117  0.7960 -0.1686  1.5112
  622TMC3    C7 9273   3.772   2.784  10.147 -0.6653 -0.3070  0.1628
  622TMC3    C8 9274   3.642   3.176   9.930 -0.2834 -0.5286  0.1634
  622TMC3    O1 9275   3.680   2.808  10.228  0.3520 -0.0978 -0.3367
  622TMC3    O2 9276   3.667   3.264   9.848 -0.2861 -0.2233  0.2168
  623MPD2     C 9277   2.575   2.028  15.561  0.7715  0.7866  0.6677
  623MPD2    C1 9278   2.494   1.980  15.657 -0.1768 -0.0426 -0.1570
  623MPD2    C2 9279   2.537   1.981  15.787 -0.2960 -0.1225  0.5009
  623MPD2    C3 9280   2.663   2.035  15.828  0.6257  0.0249  0.1484
  623MPD2    C4 9281   2.740   2.085  15.720 -0.4096 -0.7804 -0.4280
  623MPD2    C5 9282   2.696   2.084  15.588  0.9840 -0.4669 -0.5818
  623MPD2     H 9283   2.467   1.949  15.863 -1.2218 -1.3535 -0.8578
  623MPD2    H1 9284   2.842   2.117  15.741 -1.0327  0.9607 -0.0465
  623MPD2    H2 9285   2.549   2.044  15.457 -0.8326  0.3034  0.9893
  623MPD2    H3 9286   2.763   2.116  15.509  1.2671  0.0571 -0.1305
  623MPD2     N 9287   2.704   2.024  15.959  0.1496 -0.0894 -0.2811
  623MPD2    H5 9288   2.634   1.970  16.010 -1.9891  1.2662 -1.7802
  623MPD2    N1 9289   2.362   1.921  15.635 -0.5333 -0.1680  0.2176
  623MPD2    H7 9290   2.313   1.881  15.714  0.2278  0.6707  1.1107
  624TMC3    C1 9291   2.974   1.879  16.316 -0.2632 -0.4791 -0.0124
  624TMC3    C2 9292   2.866   1.858  16.392  0.2618 -0.1518 -0.5128
  624TMC3    C3 9293   2.745   1.916  16.350 -0.3853 -0.0042  0.4028
  624TMC3    C4 9294   2.965   1.939  16.193  0.1077 -0.4231  0.4017
  624TMC3    C5 9295   2.842   1.986  16.149 -0.0892  0.9252 -0.4277
  624TMC3    C6 9296   2.733   1.968  16.225  0.2966 -0.3575 -0.7608
  624TMC3     C 9297   3.101   1.855  16.375 -0.6790 -0.3771  0.3344
  624TMC3     O 9298   3.192   1.926  16.334 -0.2607  0.3631 -0.1773
  624TMC3     H 9299   2.869   1.817  16.492 -1.0394  1.1454  0.0610
  624TMC3    H1 9300   3.056   1.954  16.136 -0.2845  2.8977  0.6978
  624TMC3    H2 9301   2.637   2.014  16.205 -0.1500 -1.7880 -1.8413
  624TMC3    C7 9302   2.835   2.033  16.007  0.5101 -0.4741  0.1729
  624TMC3    C8 9303   2.631   1.913  16.441 -0.1171  0.3411 -0.2541
  624TMC3    O1 9304   2.940   2.057  15.948  0.3123  0.0714 -1.0701
  624TMC3    O2 9305   2.612   1.811  16.508 -0.1971 -0.3870 -0.2520
  625MPD2     C 9306   2.860   3.065   0.113  0.1873 -0.5492 -0.1883
  625MPD2    C1 9307   2.929   3.178   0.119  0.0863 -0.2279  0.2934
  625MPD2    C2 9308   3.063   3.176   0.151  0.5357 -0.4402  0.7276
  625MPD2    C3 9309   3.129   3.055   0.151 -0.6662  0.5348 -0.4333
  625MPD2    C4 9310   3.055   2.931   0.137  0.6267  0.0566  0.2125
  625MPD2    C5 9311   2.925   2.944   0.111 -0.4284  0.1621  0.5146
  625MPD2     H 9312   3.117   3.268   0.169  2.1143 -1.2112 -0.0380
  625MPD2    H1 9313   3.105   2.837   0.151  1.2780  0.4296  0.3765
  625MPD2    H2 9314   2.752   3.063   0.104  0.1941  0.6669 -0.5530
  625MPD2    H3 9315   2.867   2.854   0.096 -1.0287  0.6144  0.1382
  625MPD2     N 9316   3.262   3.066   0.204  1.0548  0.3076 -0.6055
  625MPD2    H5 9317   3.278   3.163   0.230 -0.0519  0.9545 -2.3352
  625MPD2    N1 9318   2.862   3.300   0.125 -0.3046  0.2332  0.1993
  625MPD2    H7 9319   2.917   3.381   0.099  1.9657 -1.0829  0.8792
  626TMC3    C1 9320   2.683   3.442   0.156 -0.2415  0.1412  0.9329
  626TMC3    C2 9321   2.688   3.497   0.029 -0.2699  0.4830 -0.3797
  626TMC3    C3 9322   2.613   3.605   0.001  0.3146  0.6921  0.8752
  626TMC3    C4 9323   2.596   3.486   0.252 -0.3847 -0.1533 -0.6238
  626TMC3    C5 9324   2.514   3.586   0.214  0.4187  0.5542  0.1164
  626TMC3    C6 9325   2.528   3.658   0.094  0.6121 -0.7420  0.6401
  626TMC3     C 9326   2.736   3.310   0.175 -0.1087 -0.0809  0.0494
  626TMC3     O 9327   2.663   3.234   0.236 -0.3141  0.9368  0.0954
  626TMC3     H 9328   2.759   3.458  17.696  1.6361  3.1144  0.0485
  626TMC3    H1 9329   2.589   3.430   0.344  2.8858  0.5831  0.0942
  626TMC3    H2 9330   2.470   3.749   0.083 -1.9424 -2.6267 -1.7334
  626TMC3    C7 9331   2.423   3.639   0.315  0.1476  0.0514  0.7099
  626TMC3    C8 9332   2.569   3.611  17.606 -0.1650 -0.2741 -1.2714
  626TMC3    O1 9333   2.436   3.605   0.431 -0.1159  0.7110  0.3500
  626TMC3    O2 9334   2.578   3.501  17.550  0.3865  0.2038  0.6362
  627MPD2     C 9335   1.768   3.700  14.268  0.7151 -0.5039  0.1147
  627MPD2    C1 9336   1.788   3.658  14.395 -0.4384  0.0048  0.4943
  627MPD2    C2 9337   1.742   3.539  14.441  0.7982 -0.2350  0.1008
  627MPD2    C3 9338   1.661   3.461  14.363  0.3231 -0.4249 -0.0284
  627MPD2    C4 9339   1.635   3.512  14.233 -0.0476  0.8914 -0.4450
  627MPD2    C5 9340   1.686   3.629  14.188  0.2856  0.0208 -0.5336
  627MPD2     H 9341   1.763   3.511  14.544  2.5569  0.4117 -0.0780
  627MPD2    H1 9342   1.571   3.466  14.158 -0.6552  2.2846 -0.7708
  627MPD2    H2 9343   1.812   3.789  14.225 -0.1414 -1.1431 -2.0724
  627MPD2    H3 9344   1.658   3.659  14.088 -1.1064 -1.6672 -0.6458
  627MPD2     N 9345   1.610   3.340  14.410  0.4849 -0.1342 -0.2092
  627MPD2    H5 9346   1.626   3.329  14.510  0.5045  2.2917  0.0572
  627MPD2    N1 9347   1.881   3.723  14.481  0.0970  0.5325 -0.3106
  627MPD2    H7 9348   1.893   3.670  14.567  0.9219 -1.2811 -1.5478
  628TMC3    C1 9349   2.035   3.884  14.554 -0.2426  0.0862 -0.0792
  628TMC3    C2 9350   2.127   3.785  14.578  0.3503  0.2908 -0.3412
  628TMC3    C3 9351   2.265   3.803  14.573 -0.3669  0.2906 -0.2302
  628TMC3    C4 9352   2.094   4.008  14.526 -0.3352 -0.0585 -0.0858
  628TMC3    C5 9353   2.231   4.022  14.514 -0.2614 -0.3505  0.0583
  628TMC3    C6 9354   2.320   3.925  14.539  0.5208 -0.1960 -0.1519
  628TMC3     C 9355   1.932   3.847  14.463 -0.2395  0.2552  0.5005
  628TMC3     O 9356   1.908   3.934  14.382  0.4797 -0.0517 -0.3231
  628TMC3     H 9357   2.101   3.683  14.601  0.2908  0.9760  2.7171
  628TMC3    H1 9358   2.015   4.082  14.523 -0.7005 -0.3878  1.8682
  628TMC3    H2 9359   2.421   3.956  14.565 -0.5641  1.0651  2.6266
  628TMC3    C7 9360   2.291   4.135  14.445  0.0607  0.0063 -0.1017
  628TMC3    C8 9361   2.347   3.698  14.622 -0.1533 -0.0649 -0.3473
  628TMC3    O1 9362   2.408   4.139  14.422 -0.1374  1.0246 -0.0837
  628TMC3    O2 9363   2.303   3.628  14.709 -0.0613 -0.2662 -0.4653
  629MPD2     C 9364   4.702   2.315  16.339 -0.0716 -0.2912  0.3081
  629MPD2    C1 9365   0.011   2.211  16.417  0.5622  0.1967 -0.0231
  629MPD2    C2 9366   4.661   2.113  16.458  0.2891  0.5458 -1.1050
  629MPD2    C3 9367   4.520   2.125  16.442 -1.3407 -0.0665  0.3644
  629MPD2    C4 9368   4.478   2.234  16.364  0.2457  0.0003 -0.3680
  629MPD2    C5 9369   4.568   2.320  16.307 -0.1814  0.1384  0.1313
  629MPD2     H 9370   4.697   2.028  16.514 -0.2363  0.5318 -0.7907
  629MPD2    H1 9371   4.373   2.245  16.341  0.2342 -2.1039 -1.3198
  629MPD2    H2 9372   0.026   2.393  16.292  0.3963  0.2529  1.8043
  629MPD2    H3 9373   4.534   2.395  16.236 -0.4411  0.9009  1.0662
  629MPD2     N 9374   4.420   2.032  16.480  0.3899 -0.4071 -0.2395
  629MPD2    H5 9375   4.325   2.065  16.467  0.6361 -0.4254 -2.0819
  629MPD2    N1 9376   0.152   2.211  16.441 -0.1596  0.0136  0.4861
  629MPD2    H7 9377   0.201   2.299  16.425 -0.5396 -0.0011 -0.7815
  630TMC3    C1 9378   0.359   2.173  16.534 -0.5153  0.7698 -0.4727
  630TMC3    C2 9379   0.402   2.280  16.462  0.0766 -0.1389  0.1335
  630TMC3    C3 9380   0.500   2.362  16.520  0.1495 -0.0635  0.2602
  630TMC3    C4 9381   0.402   2.148  16.664  0.0856  0.5530  0.0441
  630TMC3    C5 9382   0.498   2.227  16.722 -0.6403  0.5411 -0.2576
  630TMC3    C6 9383   0.550   2.331  16.646  0.4130 -0.6117  0.0765
  630TMC3     C 9384   0.232   2.112  16.501  0.8545  1.0493  0.4911
  630TMC3     O 9385   0.202   2.000  16.542 -0.2687  0.0689  0.4025
  630TMC3     H 9386   0.364   2.275  16.361 -1.1390 -1.2447  0.6528
  630TMC3    H1 9387   0.348   2.074  16.722  1.0398  1.4333  2.0699
  630TMC3    H2 9388   0.637   2.383  16.684  0.4125 -0.7207  0.2298
  630TMC3    C7 9389   0.535   2.192  16.854  0.6828 -0.1561 -0.1807
  630TMC3    C8 9390   0.566   2.479  16.453  0.3192 -0.5186  0.5739
  630TMC3    O1 9391   0.516   2.080  16.897  0.3752  0.2403 -0.1215
  630TMC3    O2 9392   0.678   2.499  16.503  0.0663  0.7785 -0.8265
  631MPD2     C 9393   3.126   2.033  15.412 -0.5082 -0.2233 -0.1717
  631MPD2    C1 9394   3.220   2.131  15.400  0.3997  0.2189 -0.6851
  631MPD2    C2 9395   3.351   2.087  15.395  0.3605 -0.5060  0.4687
  631MPD2    C3 9396   3.393   1.952  15.411  0.0264  0.2429 -0.4989
  631MPD2    C4 9397   3.291   1.855  15.418 -0.6251  0.4600 -0.2180
  631MPD2    C5 9398   3.162   1.901  15.417  0.1169  0.3534  0.1755
  631MPD2     H 9399   3.428   2.159  15.368  1.0280 -1.1356  0.6928
  631MPD2    H1 9400   3.313   1.749  15.411  1.3644  0.8360  0.4575
  631MPD2    H2 9401   3.019   2.052  15.410 -1.3369 -4.9426 -1.2159
  631MPD2    H3 9402   3.086   1.824  15.425  0.5160 -0.0193  0.3749
  631MPD2     N 9403   3.524   1.910  15.402  0.2061 -0.0238 -0.2487
  631MPD2    H5 9404   3.586   1.985  15.374 -0.8528  0.5772 -0.9819
  631MPD2    N1 9405   3.179   2.262  15.386  0.4739  0.8832 -0.0439
  631MPD2    H7 9406   3.079   2.276  15.370 -0.1871 -1.9113  1.6398
  632TMC3    C1 9407   3.220   2.476  15.288  0.0989 -0.3948  0.6434
  632TMC3    C2 9408   3.089   2.497  15.287  0.2359  0.3844 -0.0270
  632TMC3    C3 9409   3.047   2.610  15.223 -0.2117 -0.0884  0.5544
  632TMC3    C4 9410   3.312   2.557  15.222  0.0677  0.0194 -0.2391
  632TMC3    C5 9411   3.267   2.669  15.161  0.0468 -0.0104 -0.5561
  632TMC3    C6 9412   3.136   2.691  15.156  0.5327 -0.1507 -0.6046
  632TMC3     C 9413   3.272   2.360  15.360 -0.1561 -0.5471  0.6494
  632TMC3     O 9414   3.386   2.371  15.403 -0.7973  0.0548  0.3484
  632TMC3     H 9415   3.033   2.468  15.375 -1.0053  2.4585 -0.1311
  632TMC3    H1 9416   3.415   2.527  15.239 -1.1002 -2.4487  2.5517
  632TMC3    H2 9417   3.112   2.790  15.120  2.9565  0.3884 -0.7257
  632TMC3    C7 9418   3.343   2.712  15.044 -0.2419 -0.3527  0.3850
  632TMC3    C8 9419   2.941   2.676  15.293  0.2996  0.9069 -0.0357
  632TMC3    O1 9420   3.273   2.734  14.949  0.5808 -0.7980  0.2582
  632TMC3    O2 9421   2.830   2.643  15.263  0.3786  0.7251  0.6518
  633MPD2     C 9422   2.948   0.196  17.422 -0.1677  0.3132 -0.0511
  633MPD2    C1 9423   2.963   0.129  17.307  0.3203  0.5301  0.3726
  633MPD2    C2 9424   2.955   4.726  17.307  0.0242  0.9235  0.7235
  633MPD2    C3 9425   2.927   4.660  17.425 -0.6122 -0.2382  0.3867
  633MPD2    C4 9426   2.905   0.007  17.536  0.3889 -0.4037 -0.0358
  633MPD2    C5 9427   2.910   0.142  17.536 -0.8052 -0.6520  0.0535
  633MPD2     H 9428   2.958   4.671  17.213  2.9389 -0.1551  1.4481
  633MPD2    H1 9429   2.880   4.710  17.637  0.2573 -0.2137 -0.0079
  633MPD2    H2 9430   2.955   0.303  17.437 -0.3689  0.0778  1.7014
  633MPD2    H3 9431   2.879   0.194  17.626  2.5485 -0.1679  0.9376
  633MPD2     N 9432   2.916   4.521  17.447  0.1792  0.6681  0.5307
  633MPD2    H5 9433   2.872   4.494  17.535  1.2911 -0.3685  0.7682
  633MPD2    N1 9434   2.996   0.192  17.181 -0.0778  0.3401 -0.0241
  633MPD2    H7 9435   3.048   0.136  17.113 -0.4569 -1.3955  1.0972
  634TMC3    C1 9436   3.024   0.369  17.030  0.0124  0.0282  0.3335
  634TMC3    C2 9437   3.125   0.293  16.962  0.2119 -0.1825  0.3811
  634TMC3    C3 9438   3.193   0.357  16.862 -0.1703  0.5250  0.8768
  634TMC3    C4 9439   2.994   0.501  16.983 -0.9064 -0.5515  1.1979
  634TMC3    C5 9440   3.062   0.546  16.878  0.0598 -0.2951 -0.0472
  634TMC3    C6 9441   3.175   0.487  16.832  0.2247 -0.0659  0.1782
  634TMC3     C 9442   2.964   0.321  17.150 -0.5521 -0.4818  0.4611
  634TMC3     O 9443   2.899   0.410  17.213  0.3077 -0.7736  0.7742
  634TMC3     H 9444   3.148   0.189  16.982  1.2141 -0.0451 -0.0912
  634TMC3    H1 9445   2.912   0.544  17.041 -1.0132 -0.4472  0.9690
  634TMC3    H2 9446   3.230   0.539  16.755  1.4876 -1.6869 -0.0206
  634TMC3    C7 9447   3.009   0.657  16.795  0.3258  0.2371 -0.8611
  634TMC3    C8 9448   3.241   0.269  16.750 -0.0300  0.6438 -0.1668
  634TMC3    O1 9449   3.067   0.693  16.690  0.4352 -0.3101  0.3941
  634TMC3    O2 9450   3.255   0.149  16.761  0.4250  0.7441  0.1025
  635TMC3    C1 9451   2.902   1.652   0.366  0.6783  0.3744  0.1461
  635TMC3    C2 9452   2.933   1.569   0.469 -0.0497 -0.2587 -0.0444
  635TMC3    C3 9453   2.833   1.500   0.527  0.7358  0.3774 -0.0811
  635TMC3    C4 9454   2.772   1.672   0.332  0.5730  0.6641 -0.7878
  635TMC3    C5 9455   2.670   1.605   0.401 -0.2948  0.6058 -0.7707
  635TMC3    C6 9456   2.703   1.512   0.492 -0.6667 -0.8488  0.7094
  635TMC3     C 9457   3.007   1.701   0.276 -0.4671 -0.0615 -0.2998
  635TMC3     O 9458   3.123   1.654   0.280  0.6746 -0.1143 -0.2284
  635TMC3     H 9459   3.032   1.565   0.512  1.3862  0.2542 -3.2690
  635TMC3    H1 9460   2.750   1.724   0.240 -1.5292 -1.4056 -1.4756
  635TMC3    H2 9461   2.624   1.443   0.518 -0.9857 -0.4446  0.8240
  635TMC3    C7 9462   2.531   1.625   0.356  0.2421  0.6462 -0.7394
  635TMC3    C8 9463   2.862   1.425   0.652 -0.2341 -0.5335 -0.7610
  635TMC3    O1 9464   2.516   1.696   0.255 -0.1634  0.3355 -0.2777
  635TMC3    O2 9465   2.977   1.400   0.675 -0.1192  0.2200  0.3492
  636MPD2     C 9466   4.247   0.728  16.534  0.0091  0.2931  0.0577
  636MPD2    C1 9467   4.236   0.758  16.667  0.2931 -0.2384 -0.2745
  636MPD2    C2 9468   4.293   0.668  16.757  0.1352 -0.1724  0.7672
  636MPD2    C3 9469   4.334   0.541  16.711 -0.6554  0.1757  0.1992
  636MPD2    C4 9470   4.321   0.504  16.582  0.2434  0.1030  0.2035
  636MPD2    C5 9471   4.271   0.601  16.493  0.4655  0.3222  0.7929
  636MPD2     H 9472   4.309   0.685  16.863 -0.4597  0.7296  0.7148
  636MPD2    H1 9473   4.341   0.404  16.546  1.1563  0.3900 -0.0800
  636MPD2    H2 9474   4.234   0.797  16.451 -0.5635  1.4210  1.0939
  636MPD2    H3 9475   4.261   0.586  16.386  0.4261  1.0184  0.6959
  636MPD2     N 9476   4.356   0.444  16.808  0.1618  0.1032  0.8185
  636MPD2    H5 9477   4.349   0.470  16.906 -2.8194  0.0381  0.6044
  636MPD2    N1 9478   4.212   0.888  16.714  0.7743 -0.5655  0.4564
  636MPD2    H7 9479   4.241   0.911  16.809  1.6447  1.7179 -0.3576
  637TMC3    C1 9480   4.458   0.246  16.901 -0.8442 -0.1126  0.3833
  637TMC3    C2 9481   4.498   0.325  17.008  0.1007  0.1972  0.8338
  637TMC3    C3 9482   4.624   0.295  17.060  0.1275 -0.7754 -0.5250
  637TMC3    C4 9483   4.535   0.145  16.855 -0.4842  0.3032  0.4260
  637TMC3    C5 9484   4.661   0.130  16.905 -0.2189  0.4570 -0.3214
  637TMC3    C6 9485   4.706   0.197  17.014  0.3343  0.3616  0.5493
  637TMC3     C 9486   4.408   0.324  16.783 -0.2501  1.1000  0.3551
  637TMC3     O 9487   4.464   0.280  16.682  0.2568  0.2480  0.0417
  637TMC3     H 9488   4.444   0.414  17.038 -1.6564 -0.5376 -0.1831
  637TMC3    H1 9489   4.491   0.071  16.790  0.6826  1.3770 -1.5640
  637TMC3    H2 9490   0.076   0.193  17.040  0.4328  1.0947  0.2853
  637TMC3    C7 9491   0.021   0.082  16.819  0.1297 -0.1432  0.6268
  637TMC3    C8 9492   4.669   0.373  17.174 -0.1270  0.2161  0.4295
  637TMC3    O1 9493   0.116   0.030  16.878 -0.0151  0.3416  0.3651
  637TMC3    O2 9494   4.705   0.299  17.262 -0.0504 -0.3332 -0.2830
  638MPD2     C 9495   4.040   4.120  15.093 -0.7937  0.3487  0.1345
  638MPD2    C1 9496   3.984   4.026  15.006 -0.4652 -0.6415 -0.9942
  638MPD2    C2 9497   3.927   3.915  15.061 -0.2271  0.3209 -0.1993
  638MPD2    C3 9498   3.909   3.893  15.199 -0.7006 -0.3557 -0.3297
  638MPD2    C4 9499   3.955   3.989  15.282 -0.0846  0.0840  0.1101
  638MPD2    C5 9500   4.018   4.098  15.228 -0.0587  0.2093 -0.2286
  638MPD2     H 9501   3.884   3.840  14.994 -0.1737  2.7301 -2.9131
  638MPD2    H1 9502   3.954   3.973  15.389  2.3642 -1.4600 -0.0931
  638MPD2    H2 9503   4.091   4.211  15.061  1.6950 -1.7799 -1.9426
  638MPD2    H3 9504   4.053   4.178  15.292  1.3070 -0.9128  0.4180
  638MPD2     N 9505   3.872   3.768  15.255 -0.3890 -0.0972  0.4570
  638MPD2    H5 9506   3.899   3.746  15.351  1.7186 -1.5727 -0.4727
  638MPD2    N1 9507   4.007   4.036  14.866 -0.1491 -0.1469  0.2837
  638MPD2    H7 9508   4.071   4.108  14.831 -1.3275  0.5949 -0.3356
  639TMC3    C1 9509   3.822   3.545  15.247  0.3320  0.1459  0.0693
  639TMC3    C2 9510   3.739   3.452  15.201  0.0367  0.2712  0.0139
  639TMC3    C3 9511   3.775   3.319  15.229 -0.2782  0.0323 -0.7481
  639TMC3    C4 9512   3.956   3.514  15.278  0.0709 -0.5274  0.1527
  639TMC3    C5 9513   3.981   3.383  15.301 -0.6393 -0.0669 -0.0605
  639TMC3    C6 9514   3.901   3.283  15.272  0.1148  0.2613 -0.3235
  639TMC3     C 9515   3.801   3.679  15.185  0.1717  0.2315 -0.1954
  639TMC3     O 9516   3.751   3.675  15.073 -0.4473  0.1885  0.3746
  639TMC3     H 9517   3.638   3.472  15.167 -0.0448 -1.0375 -0.4984
  639TMC3    H1 9518   4.036   3.580  15.306 -2.0959  0.1653  4.8206
  639TMC3    H2 9519   3.945   3.184  15.274 -1.7077 -0.5917 -2.2929
  639TMC3    C7 9520   4.117   3.335  15.319 -0.3016  0.4673 -0.0762
  639TMC3    C8 9521   3.717   3.222  15.129  0.4948 -0.3082 -0.4746
  639TMC3    O1 9522   4.125   3.245  15.403 -0.4176 -0.5612  0.5688
  639TMC3    O2 9523   3.800   3.146  15.081  0.0932  0.5556  0.1338
  640MPD2     C 9524   0.098   3.213   9.981  0.7583  0.2590  0.3122
  640MPD2    C1 9525   4.707   3.200  10.028  0.4419 -0.2590 -0.1411
  640MPD2    C2 9526   4.665   3.283  10.137  0.9454 -0.5011  0.1344
  640MPD2    C3 9527   0.030   3.358  10.193  0.3254 -0.4798  0.9247
  640MPD2    C4 9528   0.159   3.342  10.162 -0.0550 -0.3797  0.2428
  640MPD2    C5 9529   0.194   3.275  10.051 -0.4408  0.8092 -0.4063
  640MPD2     H 9530   4.559   3.299  10.150  0.6621 -1.0286 -1.5730
  640MPD2    H1 9531   0.237   3.392  10.218  1.1352 -1.7252 -0.1930
  640MPD2    H2 9532   0.128   3.147   9.900  1.0829 -2.2390  2.4438
  640MPD2    H3 9533   0.300   3.273  10.028 -0.7523 -4.5514 -1.4123
  640MPD2     N 9534   0.004   3.452  10.296  0.6446 -0.5034  0.3386
  640MPD2    H5 9535   0.079   3.494  10.348  0.7306  1.1613 -1.1490
  640MPD2    N1 9536   4.610   3.126   9.951  0.6941 -0.0127 -0.3773
  640MPD2    H7 9537   4.638   3.112   9.854  1.3323  1.0114 -0.3449
  641TMC3    C1 9538   4.389   3.096   9.882  0.5858  0.3347 -0.1211
  641TMC3    C2 9539   4.447   3.052   9.772 -0.2273 -0.2213 -0.0747
  641TMC3    C3 9540   4.385   3.077   9.656  0.8958 -0.3832  0.0467
  641TMC3    C4 9541   4.288   3.181   9.887  0.5406  0.4828  0.1429
  641TMC3    C5 9542   4.222   3.202   9.770  0.2196 -0.5743 -0.4322
  641TMC3    C6 9543   4.269   3.160   9.651 -0.2150  0.1084  0.0889
  641TMC3     C 9544   4.475   3.109   9.993  0.0767  0.1946  0.4035
  641TMC3     O 9545   4.417   3.121  10.102 -0.0778  0.3414 -0.5804
  641TMC3     H 9546   4.531   2.983   9.777  0.5185  0.6438 -0.7185
  641TMC3    H1 9547   4.254   3.221   9.982 -0.2720  0.8376 -0.3023
  641TMC3    H2 9548   4.215   3.168   9.557  1.6860  1.0363 -0.9249
  641TMC3    C7 9549   4.110   3.298   9.785  0.0632  0.1623  0.4152
  641TMC3    C8 9550   4.422   3.009   9.536  0.3273  0.1803 -0.1490
  641TMC3    O1 9551   4.078   3.316   9.899  0.1652 -0.2005 -0.2669
  641TMC3    O2 9552   4.351   3.032   9.438 -0.4453 -0.2858  0.7215
  642TMC3    C1 9553   1.326   4.657  12.050  0.2322 -0.3665  0.3039
  642TMC3    C2 9554   1.460   4.669  12.085  0.0446  0.0507 -0.3404
  642TMC3    C3 9555   1.498   4.567  12.166 -0.3161  0.2257  0.8805
  642TMC3    C4 9556   1.239   4.555  12.079 -0.1156 -0.2618  0.0097
  642TMC3    C5 9557   1.290   4.457  12.159 -0.3847 -0.0500  0.5110
  642TMC3    C6 9558   1.422   4.463  12.203  0.1123  0.1191  0.4133
  642TMC3     C 9559   1.264   0.046  12.012  0.7622  0.1195 -0.0863
  642TMC3     O 9560   1.341   0.117  11.949 -0.3278 -0.1311  0.2007
  642TMC3     H 9561   1.520   0.019  12.058 -0.8735  0.3145 -1.5533
  642TMC3    H1 9562   1.143   4.544  12.030 -0.1681  0.4629 -0.0482
  642TMC3    H2 9563   1.466   4.383  12.262  2.5338  1.7697  0.8734
  642TMC3    C7 9564   1.213   4.343  12.195  0.2916 -0.8249 -0.3509
  642TMC3    C8 9565   1.622   4.578  12.242  0.5424  0.0453 -0.3641
  642TMC3    O1 9566   1.276   4.245  12.234 -0.4581  0.4671 -0.2888
  642TMC3    O2 9567   1.657   4.485  12.314  0.3124  0.3798 -0.4059
  643TMC3    C1 9568   4.515   2.916  17.351 -0.8957 -0.2239 -0.3672
  643TMC3    C2 9569   4.410   2.996  17.319 -0.8647  0.3156  0.2635
  643TMC3    C3 9570   4.427   3.105  17.242 -0.4339  0.2488 -0.0099
  643TMC3    C4 9571   4.634   2.944  17.288 -0.2649 -0.0769  0.7398
  643TMC3    C5 9572   4.646   3.049  17.200 -0.3980  0.5092 -0.8229
  643TMC3    C6 9573   4.543   3.136  17.176  0.1983 -0.4791  0.9994
  643TMC3     C 9574   4.495   2.777  17.388  0.3454 -0.1019  0.0428
  643TMC3     O 9575   4.395   2.720  17.357  0.2464 -0.0139 -0.1283
  643TMC3     H 9576   4.314   2.980  17.366 -1.4799  0.4315 -0.9716
  643TMC3    H1 9577   4.707   2.865  17.285  1.1650  1.3189 -0.9345
  643TMC3    H2 9578   4.550   3.216  17.104 -1.2644  0.0302  1.4119
  643TMC3    C7 9579   0.033   3.083  17.135  0.8003  0.0363  0.4517
  643TMC3    C8 9580   4.332   3.208  17.281  0.2581  0.3434 -0.4460
  643TMC3    O1 9581   0.029   3.188  17.068  0.1149  0.2851  0.4865
  643TMC3    O2 9582   4.222   3.175  17.328 -0.6271  0.3630 -0.1828
  644MPD2     C 9583   4.121   3.171   8.781  0.5821  0.2015 -0.1527
  644MPD2    C1 9584   4.085   3.047   8.739 -0.0650  0.0750 -0.1334
  644MPD2    C2 9585   3.951   3.017   8.718 -0.4746 -0.2698  0.8600
  644MPD2    C3 9586   3.854   3.112   8.736  0.1083 -0.7553  0.0951
  644MPD2    C4 9587   3.900   3.242   8.777 -0.1577  0.2822  0.2236
  644MPD2    C5 9588   4.031   3.268   8.799 -0.3380 -0.2347 -0.3594
  644MPD2     H 9589   3.918   2.916   8.697  0.1856 -0.4640  0.7512
  644MPD2    H1 9590   3.837   3.330   8.769 -0.8555 -0.1200  1.2525
  644MPD2    H2 9591   4.222   3.187   8.817  0.5741 -0.9890  0.4310
  644MPD2    H3 9592   4.077   3.365   8.814  1.8599 -1.2485 -0.5269
  644MPD2     N 9593   3.722   3.077   8.703  0.2894 -0.0676  0.8280
  644MPD2    H5 9594   3.707   2.977   8.697  1.5886 -0.2060  0.0271
  644MPD2    N1 9595   4.192   2.953   8.720 -0.6597 -0.3035 -0.1036
  644MPD2    H7 9596   4.282   2.991   8.747 -1.2111  0.2523  0.9920
  645TMC3    C1 9597   3.481   3.119   8.696  0.0715 -0.5531  0.2808
  645TMC3    C2 9598   3.382   3.215   8.710  0.0874  0.4019 -0.6722
  645TMC3    C3 9599   3.268   3.172   8.774  0.1567  0.5785  0.4053
  645TMC3    C4 9600   3.459   2.984   8.701 -0.3127  0.8279 -0.0449
  645TMC3    C5 9601   3.347   2.944   8.766 -0.4581  0.0164  0.5543
  645TMC3    C6 9602   3.247   3.041   8.806  0.4733  0.1034 -0.2234
  645TMC3     C 9603   3.621   3.169   8.691 -0.4813  0.4867 -0.1789
  645TMC3     O 9604   3.634   3.288   8.694  0.3685 -0.0880 -0.1094
  645TMC3     H 9605   3.404   3.320   8.696  1.3724  0.2731  0.4737
  645TMC3    H1 9606   3.536   2.916   8.666  2.1565  2.4019  2.3353
  645TMC3    H2 9607   3.160   3.014   8.864  1.3191 -0.8183  0.6195
  645TMC3    C7 9608   3.331   2.806   8.809 -0.2120  0.1139  0.0469
  645TMC3    C8 9609   3.157   3.267   8.812 -0.5183 -0.6134  0.5085
  645TMC3    O1 9610   3.425   2.737   8.786  0.5827  0.1151 -0.3652
  645TMC3    O2 9611   3.075   3.224   8.891 -0.2500 -0.6604  0.5906
  646MPD2     C 9612   4.374   2.736  14.783  0.4323  0.3984  0.1629
  646MPD2    C1 9613   4.275   2.669  14.850 -0.8530 -0.1774 -0.0395
  646MPD2    C2 9614   4.145   2.656  14.788  0.4162 -0.4650 -0.0450
  646MPD2    C3 9615   4.119   2.714  14.665 -0.6029 -0.1580 -0.1056
  646MPD2    C4 9616   4.224   2.782  14.607  0.0434 -0.0876  0.4151
  646MPD2    C5 9617   4.350   2.787  14.659  0.5058  0.1190 -0.3304
  646MPD2     H 9618   4.070   2.596  14.840  0.1077  0.5364  0.6765
  646MPD2    H1 9619   4.221   2.839  14.515 -0.5095  1.0524  1.1506
  646MPD2    H2 9620   4.468   2.751  14.836  0.4811 -0.9368  0.4795
  646MPD2    H3 9621   4.426   2.844  14.606  1.4573 -0.3008  0.5877
  646MPD2     N 9622   3.988   2.705  14.607  0.3581 -0.1263 -0.1312
  646MPD2    H5 9623   3.925   2.646  14.659  0.8788 -0.7913 -0.2536
  646MPD2    N1 9624   4.301   2.622  14.978  0.1254 -0.3895 -1.0365
  646MPD2    H7 9625   4.397   2.609  15.007 -0.1271  1.3632  0.6374
  647TMC3    C1 9626   4.294   2.479  15.151 -0.5365  0.2571 -0.3335
  647TMC3    C2 9627   4.231   2.450  15.272  0.9746 -0.7733 -0.1668
  647TMC3    C3 9628   4.295   2.358  15.350  0.3761 -0.2860 -0.6199
  647TMC3    C4 9629   4.407   2.419  15.106 -0.5239  0.0481  0.8282
  647TMC3    C5 9630   4.463   2.321  15.185 -0.0950 -0.7690 -0.0059
  647TMC3    C6 9631   4.408   2.293  15.308  0.6209  0.1750  0.6599
  647TMC3     C 9632   4.213   2.549  15.060 -0.2175  0.8538  0.3842
  647TMC3     O 9633   4.093   2.573  15.081 -1.0818  0.2599 -0.1458
  647TMC3     H 9634   4.135   2.486  15.305  0.4619  0.2683 -2.8049
  647TMC3    H1 9635   4.454   2.452  15.014  0.0728 -2.1964  0.3309
  647TMC3    H2 9636   4.454   2.225  15.379  1.7123  0.2879  0.0630
  647TMC3    C7 9637   4.556   2.233  15.123 -0.0515 -0.2230  0.2716
  647TMC3    C8 9638   4.212   2.292  15.456  0.9325 -0.2366  0.1578
  647TMC3    O1 9639   4.527   2.200  15.010 -0.5563  0.3641  0.0728
  647TMC3    O2 9640   4.150   2.363  15.533  0.1052  0.0456  0.2651
  648TMC3    C1 9641   3.632   0.338  16.148  0.1154  0.8414 -0.4891
  648TMC3    C2 9642   3.671   0.211  16.110  0.7218 -0.6577  0.2170
  648TMC3    C3 9643   3.680   0.196  15.971 -0.2628  0.1117  0.6336
  648TMC3    C4 9644   3.593   0.434  16.061  0.4410 -0.0893  0.2997
  648TMC3    C5 9645   3.605   0.413  15.929  0.5772  0.1369  0.4337
  648TMC3    C6 9646   3.637   0.289  15.886 -0.5918  0.2279 -0.1312
  648TMC3     C 9647   3.648   0.382  16.286  0.1344  0.1735 -0.5610
  648TMC3     O 9648   3.623   0.499  16.304 -0.2895  1.0287  0.0141
  648TMC3     H 9649   3.722   0.143  16.176  0.8051  1.0068  1.8744
  648TMC3    H1 9650   3.575   0.538  16.089  1.6807  0.6473 -1.6622
  648TMC3    H2 9651   3.665   0.266  15.784  0.2678  1.1021 -0.0880
  648TMC3    C7 9652   3.544   0.505  15.834 -0.9495 -0.3633 -0.5723
  648TMC3    C8 9653   3.737   0.077  15.921  0.1861 -0.0031  0.3707
  648TMC3    O1 9654   3.571   0.494  15.716  0.4538  0.2892  0.0130
  648TMC3    O2 9655   3.796   0.083  15.814 -0.2391  0.0099  0.2365
  649TMC3    C1 9656   3.289   1.766  12.675 -0.9771  0.4180  0.4375
  649TMC3    C2 9657   3.395   1.745  12.588 -0.0097  0.0354 -0.0756
  649TMC3    C3 9658   3.439   1.617  12.569 -0.0489  0.8657  0.0850
  649TMC3    C4 9659   3.233   1.663  12.744  0.1988 -0.0055  0.4246
  649TMC3    C5 9660   3.284   1.536  12.722 -0.2801  0.1815  0.1047
  649TMC3    C6 9661   3.384   1.510  12.631  0.0047  0.1407 -0.1227
  649TMC3     C 9662   3.219   1.899  12.666  0.1257 -0.5365  0.4996
  649TMC3     O 9663   3.104   1.900  12.710 -0.2590 -0.2347  0.3673
  649TMC3     H 9664   3.442   1.823  12.529  0.7934 -0.2550  0.1724
  649TMC3    H1 9665   3.147   1.686  12.805  0.7899  0.4009  1.1045
  649TMC3    H2 9666   3.404   1.407  12.604 -1.0818  0.2305 -1.3127
  649TMC3    C7 9667   3.224   1.438  12.807 -0.1660  0.1482 -0.6006
  649TMC3    C8 9668   3.516   1.600  12.452  0.1881 -0.0020  0.6758
  649TMC3    O1 9669   3.115   1.459  12.857  0.1476  0.0717 -0.0598
  649TMC3    O2 9670   3.495   1.674  12.354 -0.1362 -0.2456 -0.6881
  650TMC3    C1 9671   0.604   3.797  12.837  0.6533 -0.2939  0.1454
  650TMC3    C2 9672   0.607   3.935  12.854 -0.0624 -0.2317  0.0017
  650TMC3    C3 9673   0.546   4.011  12.764  0.3716  0.3317 -0.1276
  650TMC3    C4 9674   0.551   3.741  12.722  0.2616 -0.6128 -0.0607
  650TMC3    C5 9675   0.486   3.827  12.631  1.1008 -0.4086  0.1324
  650TMC3    C6 9676   0.484   3.962  12.653 -0.1501  0.1346 -0.2272
  650TMC3     C 9677   0.630   3.718  12.954  0.2651 -1.2337 -0.1683
  650TMC3     O 9678   0.616   3.775  13.062 -0.4543  0.3264 -0.5869
  650TMC3     H 9679   0.670   3.986  12.927  0.5869 -1.6320  0.4146
  650TMC3    H1 9680   0.551   3.634  12.706 -1.1753 -0.6971  0.4941
  650TMC3    H2 9681   0.420   4.022  12.589  0.9755  1.7550  0.1674
  650TMC3    C7 9682   0.384   3.778  12.543  0.6939 -0.5380  0.5447
  650TMC3    C8 9683   0.565   4.155  12.756 -0.1135 -0.4595 -0.2835
  650TMC3    O1 9684   0.332   3.665  12.549  0.2634  0.0681  0.1464
  650TMC3    O2 9685   0.559   4.212  12.647  0.4231  0.0915  0.7816
  651MPD2     C 9686   3.975   0.437  10.982  0.7480  0.3142  0.3098
  651MPD2    C1 9687   3.959   0.553  10.912  0.4285  0.1302 -0.2670
  651MPD2    C2 9688   4.063   0.647  10.915 -0.0593 -0.5260  0.6405
  651MPD2    C3 9689   4.181   0.612  10.981 -0.1195  0.5806  0.5144
  651MPD2    C4 9690   4.195   0.491  11.040 -0.0454  0.3242 -0.3578
  651MPD2    C5 9691   4.091   0.409  11.045 -0.2031 -0.2978  0.3686
  651MPD2     H 9692   4.052   0.744  10.868 -2.0371 -1.0257  0.0606
  651MPD2    H1 9693   4.286   0.459  11.090 -0.2422  1.1372  0.5196
  651MPD2    H2 9694   3.894   0.364  10.980  0.1066  1.0156  0.8041
  651MPD2    H3 9695   4.103   0.313  11.095 -2.6181 -0.7448  0.0771
  651MPD2     N 9696   4.294   0.700  10.966 -0.6202  0.2889  0.1897
  651MPD2    H5 9697   4.272   0.785  10.915 -0.5107  0.6666  0.7748
  651MPD2    N1 9698   3.835   0.599  10.857  0.2200 -0.1629 -0.2528
  651MPD2    H7 9699   3.829   0.688  10.809  1.0606 -0.5353 -1.0355
  652TMC3    C1 9700   4.713   0.881  10.973 -0.7296  0.1753  0.3715
  652TMC3    C2 9701   4.636   0.773  10.992  0.4304 -0.0254  0.3764
  652TMC3    C3 9702   4.504   0.796  11.001 -0.2975 -0.1782 -0.2846
  652TMC3    C4 9703   4.659   1.007  10.950  0.0244 -0.2973  0.1103
  652TMC3    C5 9704   4.522   1.025  10.980 -1.0658  0.4918  0.0682
  652TMC3    C6 9705   4.438   0.917  11.001 -0.6642 -0.3320 -0.0295
  652TMC3     C 9706   0.119   0.861  10.949 -0.5572 -0.1371 -0.4123
  652TMC3     O 9707   0.174   0.762  10.992  0.2269  0.0543 -0.1816
  652TMC3     H 9708   4.684   0.675  10.992 -1.3305 -0.8970 -0.0823
  652TMC3    H1 9709   4.726   1.090  10.932 -0.0008  0.0149  1.4579
  652TMC3    H2 9710   4.334   0.930  11.029 -1.1673 -0.6786 -1.7135
  652TMC3    C7 9711   4.466   1.156  10.953  0.2013 -0.7577 -0.2089
  652TMC3    C8 9712   4.420   0.679  11.012  0.0516  0.1787 -0.6527
  652TMC3    O1 9713   4.349   1.143  10.924  1.1949  0.5252 -0.3408
  652TMC3    O2 9714   4.461   0.581  11.076  0.0231  0.0278  0.2952
  653MPD2     C 9715   2.525   0.031  17.478  0.1386 -0.0005  0.5307
  653MPD2    C1 9716   2.479   0.142  17.402 -0.5708 -0.3666 -0.0936
  653MPD2    C2 9717   2.426   0.122  17.275 -0.1533  0.2411  0.7233
  653MPD2    C3 9718   2.398   4.730  17.226 -0.1549 -0.2778 -0.1666
  653MPD2    C4 9719   2.441   4.627  17.299  0.8000 -0.5243  0.5668
  653MPD2    C5 9720   2.507   4.637  17.423  1.0909 -0.1848 -1.0510
  653MPD2     H 9721   2.389   0.202  17.212 -1.8674  0.6299  2.2428
  653MPD2    H1 9722   2.418   4.524  17.274  0.3287 -0.0524 -0.9413
  653MPD2    H2 9723   2.566   0.041  17.578 -0.5741 -0.3782  0.8590
  653MPD2    H3 9724   2.556   4.554  17.473 -1.9854 -0.7776  1.0139
  653MPD2     N 9725   2.343   4.717  17.099  0.9493 -0.2382  0.1674
  653MPD2    H5 9726   2.323   0.066  17.046  1.4044 -0.3847 -0.2427
  653MPD2    N1 9727   2.501   0.278  17.438  0.1742 -0.5653 -0.0292
  653MPD2    H7 9728   2.471   0.345  17.367 -2.3727 -1.5499  0.1291
  654TMC3    C1 9729   2.248   4.620  16.910  0.4128  0.3650 -0.5001
  654TMC3    C2 9730   2.171   4.733  16.898  0.2475  0.5210 -0.3759
  654TMC3    C3 9731   2.101   0.016  16.777 -0.2904  0.1387 -0.2283
  654TMC3    C4 9732   2.265   4.529  16.803  0.0794 -0.0657 -1.0216
  654TMC3    C5 9733   2.187   4.552  16.689  0.1014  1.4921 -0.1740
  654TMC3    C6 9734   2.102   4.659  16.674 -0.4665 -0.5065  0.5425
  654TMC3     C 9735   2.328   4.597  17.026 -0.3078 -0.6683  0.1039
  654TMC3     O 9736   2.364   4.485  17.046 -0.1550 -0.7413 -0.2384
  654TMC3     H 9737   2.167   0.075  16.974  1.7327 -0.3520  0.5995
  654TMC3    H1 9738   2.332   4.445  16.816 -0.1614  0.0063  0.6471
  654TMC3    H2 9739   2.045   4.676  16.583  0.5009 -0.2573 -0.0169
  654TMC3    C7 9740   2.223   4.478  16.572  0.1511  0.1774  0.3414
  654TMC3    C8 9741   2.031   0.148  16.762 -0.8384  0.3671  0.3405
  654TMC3    O1 9742   2.245   4.543  16.468 -0.2843  0.8950 -0.1327
  654TMC3    O2 9743   1.973   0.204  16.855 -0.0648 -1.1397  0.3433
  655MPD2     C 9744   3.956   0.503  15.626 -0.1406 -0.3873 -0.1811
  655MPD2    C1 9745   3.892   0.612  15.567  0.5648 -0.1643 -0.0739
  655MPD2    C2 9746   3.869   0.613  15.432 -0.4247  0.3406 -0.1470
  655MPD2    C3 9747   3.922   0.511  15.347  0.6119  0.1450 -0.3628
  655MPD2    C4 9748   3.977   0.402  15.411 -0.2035  0.6899 -0.4540
  655MPD2    C5 9749   3.995   0.399  15.544  0.0004 -0.0930 -0.3858
  655MPD2     H 9750   3.816   0.693  15.381 -2.4914  0.2803  1.9234
  655MPD2    H1 9751   4.016   0.319  15.353  1.0238  1.1635 -0.3205
  655MPD2    H2 9752   3.964   0.496  15.734  0.6093  0.9482 -0.1411
  655MPD2    H3 9753   4.056   0.320  15.587 -1.4580 -0.1789  1.5202
  655MPD2     N 9754   3.922   0.512  15.202  0.4175 -1.0573 -0.5461
  655MPD2    H5 9755   3.961   0.427  15.161 -1.9526 -0.8260 -3.3086
  655MPD2    N1 9756   3.831   0.715  15.637  0.3047  0.0023  0.5632
  655MPD2    H7 9757   3.796   0.794  15.583  0.9188  0.1842  0.4359
  656TMC3    C1 9758   3.752   0.841  15.818  0.6873 -0.0792  0.8449
  656TMC3    C2 9759   3.698   0.832  15.944 -0.0842 -0.0317 -0.5586
  656TMC3    C3 9760   3.608   0.927  15.981  0.4357  0.0049 -0.2013
  656TMC3    C4 9761   3.698   0.917  15.720  0.3898  0.0428  0.8277
  656TMC3    C5 9762   3.607   1.009  15.755  0.3150 -0.2457 -0.1608
  656TMC3    C6 9763   3.561   1.019  15.887 -0.2902 -0.6808 -0.2117
  656TMC3     C 9764   3.828   0.726  15.775 -0.1593  0.2088 -0.4988
  656TMC3     O 9765   3.897   0.673  15.858 -0.5747 -0.2863  0.1508
  656TMC3     H 9766   3.736   0.761  16.016  0.2202  0.8115  0.1066
  656TMC3    H1 9767   3.746   0.923  15.622 -1.5007  0.0978 -0.0982
  656TMC3    H2 9768   3.490   1.098  15.910 -0.4802 -0.6502 -0.8910
  656TMC3    C7 9769   3.557   1.099  15.655 -0.1772  0.5968  0.0042
  656TMC3    C8 9770   3.518   0.883  16.089  1.4882  0.2548  0.0896
  656TMC3    O1 9771   3.626   1.112  15.558 -0.4292  0.4116 -0.2012
  656TMC3    O2 9772   3.520   0.767  16.118  0.1013  0.0282  0.1459
  657TMC3    C1 9773   2.655   0.138  14.873 -0.1859  0.2761  0.3456
  657TMC3    C2 9774   2.576   0.158  14.982 -0.0045 -0.2639 -0.2947
  657TMC3    C3 9775   2.528   0.285  14.995 -0.3606  0.2547 -0.0121
  657TMC3    C4 9776   2.673   0.231  14.777 -0.4957 -0.2548 -0.3490
  657TMC3    C5 9777   2.606   0.347  14.790 -0.8240 -0.1156  0.1322
  657TMC3    C6 9778   2.525   0.381  14.895  0.0397  0.1989  0.4832
  657TMC3     C 9779   2.708   4.733  14.864 -0.4692 -0.3935 -0.0632
  657TMC3     O 9780   2.663   4.647  14.942  0.1854 -0.0488  0.1239
  657TMC3     H 9781   2.579   0.084  15.062  1.3136 -0.5073 -0.5647
  657TMC3    H1 9782   2.723   0.215  14.682  1.7365 -1.3293  0.9913
  657TMC3    H2 9783   2.486   0.480  14.913 -1.5143 -0.5030  0.9184
  657TMC3    C7 9784   2.598   0.430  14.672 -0.6417  0.4592 -0.0055
  657TMC3    C8 9785   2.458   0.322  15.118  0.1688  0.9482  0.7028
  657TMC3    O1 9786   2.672   0.409  14.577 -0.3355 -0.3195  0.4437
  657TMC3    O2 9787   2.385   0.420  15.113 -0.1482 -0.0409 -0.6234
  658MPD2     C 9788   4.365   0.657  14.667 -0.6769 -0.2603  0.0514
  658MPD2    C1 9789   4.255   0.599  14.611  0.0004 -0.4517 -0.5889
  658MPD2    C2 9790   4.247   0.579  14.468 -0.8235 -0.0177 -0.2296
  658MPD2    C3 9791   4.349   0.621  14.392  0.1174  0.3721  0.2008
  658MPD2    C4 9792   4.462   0.673  14.455  0.3655  0.2642 -0.2975
  658MPD2    C5 9793   4.472   0.691  14.587 -0.5720 -0.2792 -0.1951
  658MPD2     H 9794   4.156   0.537  14.426 -1.7368  2.6272 -0.8566
  658MPD2    H1 9795   4.547   0.720  14.409  0.3159  1.3853  0.7743
  658MPD2    H2 9796   4.375   0.669  14.775 -0.6203  2.2192 -0.2272
  658MPD2    H3 9797   4.544   0.758  14.633 -0.9861 -0.4826  0.7396
  658MPD2     N 9798   4.352   0.609  14.253 -0.2201  0.0685  0.0812
  658MPD2    H5 9799   4.277   0.560  14.206  1.1094 -0.8556 -1.1054
  658MPD2    N1 9800   4.152   0.574  14.704 -0.1815  0.1119 -0.3465
  658MPD2    H7 9801   4.169   0.607  14.799  1.0414 -1.1003 -0.1339
  659TMC3    C1 9802   3.922   0.571  14.770 -0.7024  0.2626 -0.4269
  659TMC3    C2 9803   3.946   0.546  14.905  0.0167 -0.7080  0.6776
  659TMC3    C3 9804   3.851   0.600  14.992  0.0679 -0.0718  0.3903
  659TMC3    C4 9805   3.807   0.630  14.726  0.3977  0.4746  0.4472
  659TMC3    C5 9806   3.715   0.681  14.818  0.9396  0.0952 -0.2324
  659TMC3    C6 9807   3.736   0.665  14.952  0.1111 -0.8161 -0.0691
  659TMC3     C 9808   4.022   0.545  14.664  0.3858 -0.3037 -0.1362
  659TMC3     O 9809   3.977   0.511  14.555 -0.2837  0.5274 -1.0059
  659TMC3     H 9810   4.036   0.500  14.945  0.4026  0.8269  1.5749
  659TMC3    H1 9811   3.790   0.642  14.620  0.2840 -0.9831  0.3014
  659TMC3    H2 9812   3.661   0.681  15.029 -1.2117 -0.6129 -1.4116
  659TMC3    C7 9813   3.583   0.722  14.778 -0.2846 -0.0570 -0.5311
  659TMC3    C8 9814   3.869   0.617  15.133 -0.0851  0.3809 -0.6111
  659TMC3    O1 9815   3.508   0.770  14.865 -0.5400  0.1911  0.4316
  659TMC3    O2 9816   3.829   0.725  15.177 -0.3858 -0.4666 -0.3424
  660MPD2     C 9817   2.564   4.349  12.466 -0.5261 -0.6727 -0.1860
  660MPD2    C1 9818   2.446   4.419  12.436  0.0455 -0.3236 -0.2773
  660MPD2    C2 9819   2.332   4.374  12.510 -0.0942  0.0813  0.2974
  660MPD2    C3 9820   2.333   4.271  12.602  0.6193 -0.9346 -0.1800
  660MPD2    C4 9821   2.454   4.200  12.620  0.3965  0.4460  0.1784
  660MPD2    C5 9822   2.566   4.248  12.558 -0.2968  0.0562 -0.6310
  660MPD2     H 9823   2.238   4.418  12.481 -0.3810 -1.2694 -0.8061
  660MPD2    H1 9824   2.469   4.109  12.676 -2.4779 -0.2621 -0.1937
  660MPD2    H2 9825   2.657   4.364  12.412 -1.2581  1.2818 -0.8997
  660MPD2    H3 9826   2.659   4.197  12.578  0.3418  1.3462 -0.3520
  660MPD2     N 9827   2.220   4.225  12.684  0.5586 -0.8125  0.2293
  660MPD2    H5 9828   2.232   4.146  12.747 -1.4263 -1.4638 -0.2047
  660MPD2    N1 9829   2.447   4.511  12.327 -1.1101  0.3103 -0.1518
  660MPD2    H7 9830   2.536   4.512  12.277 -1.6678  0.8051 -1.1395
  661TMC3    C1 9831   2.338   4.661  12.176 -0.6490 -0.5475 -0.1488
  661TMC3    C2 9832   2.445   4.665  12.093  0.0161  0.0367  0.3405
  661TMC3    C3 9833   2.449   0.008  11.981  0.1628 -0.7704 -0.1159
  661TMC3    C4 9834   2.247   0.023  12.159 -0.7058 -0.2352  0.5254
  661TMC3    C5 9835   2.260   0.112  12.057 -0.2803 -0.1515 -1.1823
  661TMC3    C6 9836   2.354   0.105  11.955  0.3809 -0.3632 -0.0495
  661TMC3     C 9837   2.348   4.604  12.312 -0.8220  0.5805 -0.1597
  661TMC3     O 9838   2.259   4.636  12.388 -0.7925 -0.1479 -0.1248
  661TMC3     H 9839   2.522   4.588  12.100  0.9587  0.8064 -1.4398
  661TMC3    H1 9840   2.165   0.030  12.229 -1.6352  0.5689 -0.6321
  661TMC3    H2 9841   2.351   0.167  11.867  0.3166 -3.1667 -2.0245
  661TMC3    C7 9842   2.132   0.148  12.009 -0.1016  0.4682  0.5427
  661TMC3    C8 9843   2.531   4.714  11.875  0.0334  0.0785 -0.9563
  661TMC3    O1 9844   2.097   0.262  11.987  0.2615  0.3023 -0.0445
  661TMC3    O2 9845   2.584   4.602  11.862 -0.5051  0.1716  0.2660
  662MPD2     C 9846   1.974   3.673  16.915 -0.9372 -0.1242  0.4483
  662MPD2    C1 9847   1.929   3.671  17.050  0.2950  0.3873 -1.0644
  662MPD2    C2 9848   1.833   3.768  17.086 -0.0616  0.2678  0.0316
  662MPD2    C3 9849   1.784   3.859  16.989 -0.6853  0.7005  0.5468
  662MPD2    C4 9850   1.820   3.847  16.857 -0.0930 -0.6213 -0.2830
  662MPD2    C5 9851   1.921   3.757  16.823 -0.2692 -0.5293  0.3948
  662MPD2     H 9852   1.781   3.756  17.180  1.6025  0.0492  0.9273
  662MPD2    H1 9853   1.783   3.906  16.774  0.5905 -1.3503 -1.1019
  662MPD2    H2 9854   2.043   3.598  16.877  1.0804  2.4929 -1.0207
  662MPD2    H3 9855   1.954   3.757  16.720  0.6732 -0.0924  0.6995
  662MPD2     N 9856   1.686   3.957  17.014 -0.0031  0.2089 -0.3088
  662MPD2    H5 9857   1.642   3.984  16.927 -1.1109  0.6790  0.4097
  662MPD2    N1 9858   1.998   3.587  17.141 -0.2155 -0.0187 -0.0724
  662MPD2    H7 9859   1.974   3.590  17.239 -3.6428  1.2011 -0.9712
  663TMC3    C1 9860   2.125   3.415  17.235 -0.1573 -0.3282 -0.4661
  663TMC3    C2 9861   2.031   3.404  17.332 -0.6831  0.3250  0.4369
  663TMC3    C3 9862   2.018   3.290  17.401 -0.2867  0.3149 -0.5533
  663TMC3    C4 9863   2.219   3.312  17.218  0.2009  0.0385 -0.2697
  663TMC3    C5 9864   2.232   3.220  17.318 -0.3471 -0.1918  0.0962
  663TMC3    C6 9865   2.130   3.205  17.407  0.0026  0.0063 -0.1409
  663TMC3     C 9866   2.093   3.495  17.115  0.3900  0.0884 -0.0019
  663TMC3     O 9867   2.160   3.469  17.014  0.3442  0.0648  0.1882
  663TMC3     H 9868   1.936   3.454  17.318 -0.5532 -0.4455 -3.2553
  663TMC3    H1 9869   2.293   3.320  17.139 -0.0631 -2.3464 -0.7587
  663TMC3    H2 9870   2.149   3.151  17.499 -1.4038  1.9246  1.2787
  663TMC3    C7 9871   2.328   3.113  17.316  0.1965 -0.4982  0.5916
  663TMC3    C8 9872   1.924   3.294  17.516 -0.2160 -0.0544  0.3063
  663TMC3    O1 9873   2.445   3.141  17.290 -0.1991  0.2920  0.3347
  663TMC3    O2 9874   1.863   3.398  17.534  0.2968  0.3023  0.2827
  664MPD2     C 9875   0.184   1.577  17.435 -0.1473 -0.3460 -0.1801
  664MPD2    C1 9876   0.217   1.659  17.540  0.2659  0.5356 -0.8817
  664MPD2    C2 9877   0.255   1.606  17.663 -1.0693  0.5215 -0.0634
  664MPD2    C3 9878   0.249   1.474  17.685  0.0015 -0.3284  0.2033
  664MPD2    C4 9879   0.227   1.396  17.578  0.9410  0.0811 -0.7131
  664MPD2    C5 9880   0.196   1.441  17.457  0.3438  0.0321  0.3885
  664MPD2     H 9881   0.275   1.672   0.006 -1.2174  0.3697  0.0937
  664MPD2    H1 9882   0.257   1.292  17.574 -1.0946 -0.5260 -0.4910
  664MPD2    H2 9883   0.168   1.611  17.333 -1.2079 -0.4701 -0.0634
  664MPD2    H3 9884   0.169   1.372  17.378 -1.0723  0.9466  0.0787
  664MPD2     N 9885   0.303   1.435   0.069  0.4145  0.0583 -0.8886
  664MPD2    H5 9886   0.334   1.502   0.138  0.2376 -2.2589  1.4685
  664MPD2    N1 9887   0.223   1.800  17.537  1.0243  0.9878  0.4881
  664MPD2    H7 9888   0.251   1.846  17.624 -0.3037 -0.0308  1.4539
  665TMC3    C1 9889   0.342   1.291   0.255  0.4221  0.7526  0.5660
  665TMC3    C2 9890   0.234   1.270   0.336 -0.3789 -0.7619 -0.4092
  665TMC3    C3 9891   0.228   1.336   0.456 -0.9433  0.1060  0.7310
  665TMC3    C4 9892   0.438   1.373   0.297 -0.7413 -0.0598  0.0406
  665TMC3    C5 9893   0.426   1.437   0.421  0.9550  0.2163  0.8341
  665TMC3    C6 9894   0.326   1.420   0.509 -0.2441  0.5490 -0.1660
  665TMC3     C 9895   0.300   1.304   0.117  0.7287  0.3894 -0.6760
  665TMC3     O 9896   0.252   1.201   0.067 -0.2102 -0.3302  0.5690
  665TMC3     H 9897   0.166   1.197   0.295 -1.1696 -0.0145 -0.4300
  665TMC3    H1 9898   0.530   1.375   0.239 -0.8009  0.8590 -0.0336
  665TMC3    H2 9899   0.328   1.449   0.613 -0.6278 -0.4339  0.1158
  665TMC3    C7 9900   0.540   1.516   0.454  0.3200  0.0274  0.3050
  665TMC3    C8 9901   0.114   1.311   0.538 -0.9975 -0.0393  0.1213
  665TMC3    O1 9902   0.642   1.503   0.395 -0.1299  0.6001 -0.6371
  665TMC3    O2 9903   0.120   1.336   0.655 -0.2987 -0.2938 -0.0545
  666TMC3    C1 9904   4.693   2.475   9.700 -0.2262  0.4928  0.1446
  666TMC3    C2 9905   0.021   2.360   9.744  0.7642 -0.0667  0.3540
  666TMC3    C3 9906   0.148   2.383   9.796  0.2710  0.4408 -0.2192
  666TMC3    C4 9907   0.002   2.600   9.722  0.0115 -0.4636  0.4387
  666TMC3    C5 9908   0.135   2.612   9.761  0.0787 -0.3076  0.1205
  666TMC3    C6 9909   0.209   2.505   9.800 -0.0093 -0.3304  0.6167
  666TMC3     C 9910   4.553   2.469   9.648  0.5367  0.2686 -1.0463
  666TMC3     O 9911   4.524   2.367   9.587  0.3858 -0.1587 -0.7182
  666TMC3     H 9912   4.714   2.263   9.724  1.9931 -0.6044  0.3582
  666TMC3    H1 9913   4.689   2.682   9.670 -1.9268 -0.6714  1.9263
  666TMC3    H2 9914   0.295   2.522   9.864  0.0168  2.5633 -0.1838
  666TMC3    C7 9915   0.174   2.745   9.799 -0.3708  0.5145  0.0079
  666TMC3    C8 9916   0.198   2.285   9.888  0.2800  0.5176  0.5780
  666TMC3    O1 9917   0.091   2.831   9.780  0.0474  0.5986  0.6346
  666TMC3    O2 9918   0.114   2.229   9.955 -0.2413 -0.2783  0.5195
  667MPD2     C 9919   1.257   2.113  14.232  0.8860 -0.6756 -0.6200
  667MPD2    C1 9920   1.331   2.064  14.340 -0.0817 -0.1023  0.4652
  667MPD2    C2 9921   1.327   1.926  14.365  0.0542 -0.4459  0.5079
  667MPD2    C3 9922   1.245   1.850  14.292 -0.3961 -0.1336  0.1438
  667MPD2    C4 9923   1.172   1.897  14.186 -0.0174 -0.4127 -0.0166
  667MPD2    C5 9924   1.180   2.029  14.157 -0.1291  0.4816  0.0470
  667MPD2     H 9925   1.377   1.886  14.453  2.5703 -2.6521 -1.9391
  667MPD2    H1 9926   1.115   1.822  14.134  0.1594 -0.7502  0.2733
  667MPD2    H2 9927   1.259   2.220  14.218  1.9664 -0.8314 -1.5696
  667MPD2    H3 9928   1.123   2.063  14.072 -0.1135  0.0977 -0.1192
  667MPD2     N 9929   1.215   1.714  14.317 -0.6136  0.0491  0.1302
  667MPD2    H5 9930   1.136   1.679  14.264  1.8139 -1.3152 -2.6175
  667MPD2    N1 9931   1.397   2.149  14.424 -0.1221 -0.2581 -0.4731
  667MPD2    H7 9932   1.431   2.120  14.515  1.7996  1.0838 -0.7587
  668TMC3    C1 9933   1.451   2.352  14.525  0.1514  1.0072 -0.5317
  668TMC3    C2 9934   1.515   2.472  14.510  0.5114 -0.3954 -0.0844
  668TMC3    C3 9935   1.543   2.533  14.631  0.8601 -0.4105  0.1810
  668TMC3    C4 9936   1.415   2.290  14.650 -0.2827  0.7293 -0.2299
  668TMC3    C5 9937   1.448   2.366  14.757  0.7320 -0.2056  0.0911
  668TMC3    C6 9938   1.511   2.483  14.749  0.2965 -0.3254  0.0206
  668TMC3     C 9939   1.425   2.282  14.400 -0.2742  0.5828  0.2524
  668TMC3     O 9940   1.427   2.344  14.295 -0.7053  0.4559  0.5265
  668TMC3     H 9941   1.551   2.510  14.415 -0.1052  0.2939 -0.0433
  668TMC3    H1 9942   1.365   2.194  14.656 -0.9845  1.1235  0.2823
  668TMC3    H2 9943   1.546   2.541  14.833  0.0893 -0.0445 -0.0850
  668TMC3    C7 9944   1.456   2.298  14.886 -0.0449  0.5664 -0.3488
  668TMC3    C8 9945   1.606   2.665  14.643  0.3469 -0.2647 -0.5604
  668TMC3    O1 9946   1.546   2.333  14.965 -0.1613  0.1579 -0.0397
  668TMC3    O2 9947   1.566   2.731  14.740 -0.2030  0.1362 -0.4768
  669TMC3    C1 9948   3.906   1.731  14.949 -0.0049  0.4295  0.5213
  669TMC3    C2 9949   3.797   1.741  14.863  0.1262 -0.9384 -0.1764
  669TMC3    C3 9950   3.810   1.813  14.747 -0.0222 -0.0608 -0.1308
  669TMC3    C4 9951   4.027   1.803  14.936 -0.3820 -0.5295  0.4413
  669TMC3    C5 9952   4.027   1.881  14.822  0.3970 -0.0733 -0.0844
  669TMC3    C6 9953   3.924   1.881  14.729 -0.5007  0.0376 -0.1817
  669TMC3     C 9954   3.891   1.625  15.047  0.4671  0.3982 -0.4342
  669TMC3     O 9955   3.778   1.610  15.091 -0.2401 -0.2156 -0.8492
  669TMC3     H 9956   3.708   1.680  14.875  0.4791 -1.0971  1.7215
  669TMC3    H1 9957   4.116   1.805  14.998 -1.1173  0.5459  1.4681
  669TMC3    H2 9958   3.930   1.936  14.636  2.0514  0.5735  0.3151
  669TMC3    C7 9959   4.132   1.981  14.800  0.1615  0.0622 -0.0482
  669TMC3    C8 9960   3.763   1.724  14.635 -0.2144  0.4242 -0.2372
  669TMC3    O1 9961   4.215   1.998  14.884 -0.0588  0.2051  0.2871
  669TMC3    O2 9962   3.845   1.681  14.556  0.3142 -0.4064 -0.0110
  670MPD2     C 9963   2.366   4.372  13.165  1.4588 -0.1369 -0.1761
  670MPD2    C1 9964   2.478   4.420  13.234 -0.3101 -0.1128  1.1589
  670MPD2    C2 9965   2.462   4.425  13.371 -0.2116 -0.1776  0.1474
  670MPD2    C3 9966   2.360   4.361  13.443  0.2254 -0.5453  0.0196
  670MPD2    C4 9967   2.258   4.305  13.372  0.2943  0.5359 -0.0409
  670MPD2    C5 9968   2.267   4.315  13.235 -0.2002 -0.2185 -0.4198
  670MPD2     H 9969   2.541   4.469  13.431  1.7116 -2.1425 -0.9866
  670MPD2    H1 9970   2.166   4.264  13.412  0.0318  0.7322 -0.4407
  670MPD2    H2 9971   2.358   4.374  13.057 -1.8705 -1.3804  0.0485
  670MPD2    H3 9972   2.190   4.282  13.167 -0.1784  0.2416 -0.6701
  670MPD2     N 9973   2.362   4.362  13.585  0.0380  0.3856 -0.0486
  670MPD2    H5 9974   2.438   4.410  13.632  1.0462 -0.8039 -0.4596
  670MPD2    N1 9975   2.593   4.470  13.170 -0.2402  0.5533 -0.0326
  670MPD2    H7 9976   2.668   4.503  13.230  0.9200 -0.4672 -0.9495
  671TMC3    C1 9977   2.282   4.346  13.813  0.4371  0.8120  0.5506
  671TMC3    C2 9978   2.412   4.346  13.849  0.1412  0.2544 -0.0925
  671TMC3    C3 9979   2.442   4.268  13.962 -0.4069 -0.1644  0.7374
  671TMC3    C4 9980   2.186   4.292  13.891 -0.1166 -0.0729 -0.3022
  671TMC3    C5 9981   2.220   4.209  13.992 -0.1710  0.1225 -0.0458
  671TMC3    C6 9982   2.346   4.199  14.032  0.4884 -0.3825  0.0987
  671TMC3     C 9983   2.256   4.325  13.668  0.0459  0.0655  0.4053
  671TMC3     O 9984   2.141   4.291  13.636 -1.4289 -0.2802 -0.1965
  671TMC3     H 9985   2.494   4.369  13.781  0.0636 -0.3613 -0.3966
  671TMC3    H1 9986   2.088   4.291  13.844  0.4103 -0.9062 -1.4155
  671TMC3    H2 9987   2.374   4.144  14.121 -0.0331 -1.6168 -0.5029
  671TMC3    C7 9988   2.128   4.108  14.038 -0.4362 -0.6955  0.4253
  671TMC3    C8 9989   2.569   4.196  13.953 -0.6065 -0.4243 -0.2001
  671TMC3    O1 9990   2.177   3.995  14.050 -0.2127  0.4140  0.4465
  671TMC3    O2 9991   2.573   4.075  13.974 -0.1137  0.2559  0.2265
  672MPD2     C 9992   2.379   4.384   1.038 -0.3621 -0.1832  0.9919
  672MPD2    C1 9993   2.487   4.344   0.954 -0.0617 -0.6520 -0.1014
  672MPD2    C2 9994   2.615   4.384   0.991  0.1465 -0.7301 -0.7009
  672MPD2    C3 9995   2.632   4.455   1.107  0.3361 -1.3456 -0.2120
  672MPD2    C4 9996   2.524   4.485   1.188  0.0355 -0.3171  0.2238
  672MPD2    C5 9997   2.398   4.458   1.145 -0.5356 -0.1237 -0.1140
  672MPD2     H 9998   2.698   4.353   0.929  0.2779 -2.9732  0.6139
  672MPD2    H1 9999   2.530   4.542   1.279  1.4419 -0.7684  0.4184
  672MPD2    H210000   2.275   4.361   1.018 -0.2043 -0.4452  0.4814
  672MPD2    H310001   2.308   4.483   1.200 -1.4608  1.3350 -2.2994
  672MPD2     N10002   2.758   4.499   1.144 -0.4146 -0.2237  0.3305
  672MPD2    H510003   2.835   4.478   1.081  0.2383 -1.0472  1.3979
  672MPD2    N110004   2.465   4.283   0.822  0.0026 -0.2913 -0.6246
  672MPD2    H710005   2.553   4.263   0.775 -0.4199 -0.9059 -1.1456
  673TMC3    C110006   2.346   4.221   0.632  0.2704  0.2495  0.7357
  673TMC3    C210007   2.441   4.135   0.583  0.3737 -0.6243 -0.1322
  673TMC3    C310008   2.436   4.117   0.443 -0.1777  0.2637  0.5172
  673TMC3    C410009   2.239   4.280   0.558  0.2633  0.1174  0.2535
  673TMC3    C510010   2.244   4.255   0.425  0.3932 -0.0963  0.6177
  673TMC3    C610011   2.342   4.182   0.361 -0.4239 -1.1087 -0.3306
  673TMC3     C10012   2.341   4.253   0.772  0.7506  0.0813  0.4971
  673TMC3     O10013   2.229   4.276   0.810  0.1111  0.7814 -0.7189
  673TMC3     H10014   2.517   4.091   0.646  2.8390  1.1529 -1.8981
  673TMC3    H110015   2.157   4.340   0.596 -0.0585  1.1328 -2.0043
  673TMC3    H210016   2.332   4.172   0.253 -2.2389 -0.4988 -0.2187
  673TMC3    C710017   2.163   4.333   0.337 -0.5625 -0.2232 -0.0720
  673TMC3    C810018   2.514   4.010   0.378 -0.5791  0.5402 -0.2599
  673TMC3    O110019   2.135   4.275   0.233 -0.5553 -0.7338  0.3801
  673TMC3    O210020   2.517   4.006   0.256 -0.0567 -0.5693 -0.5900
  674MPD2     C10021   1.661   0.671  17.642  0.7297  0.3212  0.1301
  674MPD2    C110022   1.670   0.550  17.579 -0.4653 -0.1536 -0.3964
  674MPD2    C210023   1.581   0.449  17.613 -0.5322  0.2558  0.2734
  674MPD2    C310024   1.478   0.470  17.705  0.0049  0.3182  0.1344
  674MPD2    C410025   1.479   0.588   0.035  0.1761 -0.1208  0.6437
  674MPD2    C510026   1.572   0.682   0.009  0.9503 -0.2934 -0.0300
  674MPD2     H10027   1.587   0.350  17.569  1.8870 -0.3068  1.8597
  674MPD2    H110028   1.407   0.603   0.115  1.8603  1.9412  1.7794
  674MPD2    H210029   1.744   0.736  17.621 -0.4763  1.0841 -2.3828
  674MPD2    H310030   1.566   0.772   0.069 -1.8587  0.1801 -1.0209
  674MPD2     N10031   1.396   0.359  17.734  0.0798  0.2482 -0.6761
  674MPD2    H510032   1.412   0.277  17.677  0.2113  0.3576 -0.7959
  674MPD2    N110033   1.780   0.535  17.492 -0.4581 -0.0391 -0.5981
  674MPD2    H710034   1.849   0.609  17.486  0.6622 -1.0003  0.2885
  675TMC3    C110035   1.943   0.404  17.376 -0.4028  0.0642  0.2307
  675TMC3    C210036   1.955   0.306  17.277 -0.3803 -0.4972  0.1087
  675TMC3    C310037   2.022   0.189  17.310  0.1133 -0.2544  0.6221
  675TMC3    C410038   2.019   0.391  17.494  0.6174  0.1357 -0.0996
  675TMC3    C510039   2.094   0.277  17.513 -1.1177  0.8061  0.4627
  675TMC3    C610040   2.093   0.168  17.426  1.4201  1.0413  0.5171
  675TMC3     C10041   1.805   0.422  17.415 -0.3621 -0.6063  0.7135
  675TMC3     O10042   1.746   0.313  17.400  0.2932  0.0845  1.0150
  675TMC3     H10043   1.880   0.295  17.199 -1.8742 -0.2426  1.5097
  675TMC3    H110044   2.013   0.461  17.577  3.0563  1.9956 -1.5005
  675TMC3    H210045   2.154   0.080  17.442 -0.0400  0.2843  1.9466
  675TMC3    C710046   2.183   0.275  17.631 -0.5883  0.0110  0.2383
  675TMC3    C810047   1.972   0.068  17.238 -1.1839  0.9377  0.0995
  675TMC3    O110048   2.186   0.379  17.698 -0.1787  0.1218 -0.4320
  675TMC3    O210049   1.948   0.080  17.117  0.2252 -0.2113 -0.3792
  676MPD2     C10050   0.671   3.050  11.192  0.5279 -0.0761 -0.9046
  676MPD2    C110051   0.543   3.072  11.232 -1.1202 -0.3152  0.0713
  676MPD2    C210052   0.445   3.011  11.154  0.1155 -0.0246  0.2290
  676MPD2    C310053   0.480   2.933  11.043  0.3709  0.1832 -0.1230
  676MPD2    C410054   0.609   2.929  10.994 -0.1843 -0.2107 -0.0623
  676MPD2    C510055   0.704   2.978  11.075  0.0100  0.2024  0.0616
  676MPD2     H10056   0.343   3.026  11.186 -0.3098 -0.8715 -0.7161
  676MPD2    H110057   0.637   2.880  10.902 -1.1834  2.1218 -1.6189
  676MPD2    H210058   0.754   3.103  11.238  2.5393 -2.1276 -2.1751
  676MPD2    H310059   0.808   2.985  11.049  0.3106 -1.5214  0.7997
  676MPD2     N10060   0.379   2.878  10.956  0.5159 -0.4018  0.3410
  676MPD2    H510061   0.405   2.837  10.867  1.9549  0.3182  0.4315
  676MPD2    N110062   0.511   3.142  11.353 -0.0119 -0.3939 -0.9321
  676MPD2    H710063   0.410   3.149  11.362  0.1326  0.3135  0.0279
  677TMC3    C110064   0.554   3.265  11.544  0.1038 -0.5026 -0.4295
  677TMC3    C210065   0.424   3.246  11.597  0.2346 -0.4539 -0.2976
  677TMC3    C310066   0.361   3.349  11.659 -0.0405 -0.1314  0.1266
  677TMC3    C410067   0.611   3.389  11.561  0.2847 -0.0612  0.1956
  677TMC3    C510068   0.549   3.492  11.618 -0.1678 -0.1665  0.8574
  677TMC3    C610069   0.419   3.475  11.663  0.3455  0.0114  0.0512
  677TMC3     C10070   0.610   3.192  11.435  0.9881 -0.6805 -0.3124
  677TMC3     O10071   0.725   3.216  11.406  0.3821  0.9680 -0.2333
  677TMC3     H10072   0.383   3.147  11.612  0.0020 -0.2002  0.7390
  677TMC3    H110073   0.715   3.396  11.530  0.3595 -0.4720  0.3523
  677TMC3    H210074   0.367   3.546  11.727 -0.4180  0.1642 -0.7476
  677TMC3    C710075   0.622   3.537  11.733  0.3051 -0.2478 -0.4133
  677TMC3    C810076   0.348   3.319  11.797 -0.2377 -0.0740  0.2264
  677TMC3    O110077   0.559   3.548  11.838  0.2060 -0.1404  0.1623
  677TMC3    O210078   0.417   3.228  11.843  0.0480  0.6323  0.3583
  678MPD2     C10079   2.078   2.213   1.457 -0.0313  0.8282  0.0003
  678MPD2    C110080   2.035   2.275   1.339  0.2122  0.0379  0.4681
  678MPD2    C210081   1.918   2.227   1.284 -0.1553  0.1875 -0.1857
  678MPD2    C310082   1.858   2.116   1.341 -0.1085  0.0176  0.2563
  678MPD2    C410083   1.908   2.057   1.461  0.4668  0.1221 -0.2648
  678MPD2    C510084   2.028   2.102   1.504 -0.2492  0.0576  0.4379
  678MPD2     H10085   1.880   2.261   1.188  0.5008  0.7264 -0.2582
  678MPD2    H110086   1.864   1.972   1.511 -0.2764  0.4278 -0.4055
  678MPD2    H210087   2.170   2.250   1.502 -0.4900  0.8403  0.9323
  678MPD2    H310088   2.072   2.058   1.593 -1.4288 -0.1768  0.9009
  678MPD2     N10089   1.746   2.059   1.267 -0.1634 -0.3855 -0.2633
  678MPD2    H510090   1.704   2.112   1.191 -1.0648 -2.4431 -1.2017
  678MPD2    N110091   2.109   2.385   1.288 -0.3392  0.1085 -0.2648
  678MPD2    H710092   2.072   2.419   1.200  0.8978  0.5721 -0.6077
  679TMC3    C110093   2.546   2.522   1.161  0.4279 -0.1287 -0.0628
  679TMC3    C210094   2.456   2.490   1.259 -0.0806 -0.0418  0.2766
  679TMC3    C310095   2.319   2.504   1.243  0.3104 -0.4276 -1.2726
  679TMC3    C410096   2.505   2.563   1.039  0.4399  0.2308 -0.1843
  679TMC3    C510097   2.369   2.561   1.021 -0.3726 -0.1430  0.2739
  679TMC3    C610098   2.276   2.528   1.118  0.3323  0.6442  0.2341
  679TMC3     C10099   2.669   2.447   1.158 -0.1716 -0.0274  0.0152
  679TMC3     O10100   2.702   2.416   1.043  0.7595 -0.2465 -0.1605
  679TMC3     H10101   2.496   2.457   1.355  0.9802  1.1687  0.2429
  679TMC3    H110102   2.573   2.570   0.955 -0.6762 -1.8313 -1.2298
  679TMC3    H210103   2.175   2.554   1.088  0.9529  1.9163 -0.7701
  679TMC3    C710104   2.324   2.534   0.886 -0.4842 -0.3550  0.5090
  679TMC3    C810105   2.232   2.435   1.338 -0.5987  0.0973  0.3989
  679TMC3    O110106   2.216   2.587   0.855 -0.2735  0.1526 -0.0169
  679TMC3    O210107   2.298   2.395   1.430 -0.5160  0.0519 -0.3667
  680MPD2     C10108   2.989   1.402  13.802  0.4248 -0.7589  0.0194
  680MPD2    C110109   2.854   1.375  13.760  0.1795  0.6819  0.4006
  680MPD2    C210110   2.747   1.440  13.820  0.3990 -0.2699  0.3182
  680MPD2    C310111   2.761   1.545  13.906  0.0081 -0.1739 -0.3486
  680MPD2    C410112   2.891   1.586  13.933  1.0532  0.2908  0.2159
  680MPD2    C510113   2.998   1.509  13.888 -0.1868  0.7650 -0.1894
  680MPD2     H10114   2.652   1.401  13.787  1.5072 -1.3639 -1.5522
  680MPD2    H110115   2.900   1.664  14.007  0.3911  0.7868 -0.2267
  680MPD2    H210116   3.080   1.363  13.758  0.8313 -0.7083  0.8077
  680MPD2    H310117   3.101   1.527  13.916 -1.1294 -0.1343  3.9091
  680MPD2     N10118   2.656   1.631  13.947  0.3581  0.3055  0.0633
  680MPD2    H510119   2.674   1.720  13.993 -1.9115 -0.0955  1.7277
  680MPD2    N110120   2.824   1.282  13.659  0.3029 -0.5081  0.5546
  680MPD2    H710121   2.726   1.261  13.647  0.1333  0.3797  0.3691
  681TMC3    C110122   2.850   1.124  13.480  0.0247  0.1964  0.3859
  681TMC3    C210123   2.738   1.059  13.518  0.2449 -0.5577 -0.2833
  681TMC3    C310124   2.692   0.962  13.431  0.1615  0.2881  0.3759
  681TMC3    C410125   2.917   1.104  13.365  0.0564 -0.0372  0.5881
  681TMC3    C510126   2.873   1.003  13.291  0.1210 -0.2513  0.2844
  681TMC3    C610127   2.766   0.927  13.320 -0.4394  0.9841 -0.4187
  681TMC3     C10128   2.909   1.227  13.568 -0.5086  0.3739  0.4493
  681TMC3     O10129   3.020   1.271  13.541 -0.4539  0.2475 -0.2929
  681TMC3     H10130   2.701   1.071  13.619  1.1313  1.3907 -0.1837
  681TMC3    H110131   3.013   1.150  13.345  0.1922  0.5481  2.6609
  681TMC3    H210132   2.733   0.843  13.260 -1.9035  1.4701 -0.3005
  681TMC3    C710133   2.963   0.966  13.188  0.5396  0.9199 -0.0813
  681TMC3    C810134   2.556   0.916  13.449  0.3955 -0.2513  0.6855
  681TMC3    O110135   3.019   0.860  13.208 -0.6270 -0.9368  0.3167
  681TMC3    O210136   2.519   0.822  13.382  0.7880 -0.1518 -0.3269
  682MPD2     C10137   4.597   3.478  10.907  0.3462  0.4051 -0.2539
  682MPD2    C110138   4.517   3.378  10.851 -0.2628 -0.4298  0.2085
  682MPD2    C210139   4.403   3.345  10.920 -0.1819 -0.4667  0.3001
  682MPD2    C310140   4.364   3.410  11.033  0.0944 -0.5247 -0.0593
  682MPD2    C410141   4.449   3.502  11.095  0.5714  0.4699 -0.7658
  682MPD2    C510142   4.563   3.536  11.026  0.2895  0.1746 -0.0818
  682MPD2     H10143   4.346   3.262  10.880 -2.5061  1.2605  0.0269
  682MPD2    H110144   4.433   3.549  11.192  1.7835 -0.1168 -0.2888
  682MPD2    H210145   4.686   3.514  10.856  0.6014 -0.9036 -0.7340
  682MPD2    H310146   4.636   3.608  11.062  0.6018 -2.0493  3.7953
  682MPD2     N10147   4.249   3.368  11.104  0.1017  0.2329 -0.2094
  682MPD2    H510148   4.229   3.412  11.193  0.2033 -1.1113  0.4815
  682MPD2    N110149   4.545   3.309  10.731  0.4813 -0.1474  0.1605
  682MPD2    H710150   4.485   3.229  10.712 -1.7683  1.3935  0.6916
  683TMC3    C110151   4.068   3.129  11.354  0.3635  0.4531  0.1165
  683TMC3    C210152   4.007   3.018  11.312 -0.1259  0.8286 -0.6931
  683TMC3    C310153   3.977   3.002  11.181 -0.5429  0.1587  0.1761
  683TMC3    C410154   4.084   3.230  11.272  0.3875 -0.3864  0.1934
  683TMC3    C510155   4.067   3.210  11.137 -0.9753 -0.1782  0.8576
  683TMC3    C610156   4.010   3.096  11.085  0.3725 -0.4874  0.5284
  683TMC3     C10157   4.114   3.145  11.493 -0.1414 -0.0407 -0.0724
  683TMC3     O10158   4.176   3.248  11.517  0.2616  0.4147  0.0307
  683TMC3     H10159   3.995   2.935  11.381 -0.7408  1.5033  0.0125
  683TMC3    H110160   4.116   3.326  11.311 -0.5207  0.3005 -0.7363
  683TMC3    H210161   3.996   3.085  10.978  2.3951  0.1821  0.1798
  683TMC3    C710162   4.147   3.289  11.045 -0.2303  0.1159 -0.6177
  683TMC3    C810163   3.926   2.874  11.122  0.3253 -0.0966  1.1245
  683TMC3    O110164   4.143   3.250  10.927  0.8851  0.1027  0.2702
  683TMC3    O210165   3.907   2.870  11.001  0.2111  0.1905 -1.1928
  684MPD2     C10166   2.120   1.895  16.123 -0.5587 -0.2743 -0.0804
  684MPD2    C110167   2.045   1.967  16.034 -0.6015 -0.0155 -0.2975
  684MPD2    C210168   2.009   2.097  16.065 -0.2478  0.0792 -0.1681
  684MPD2    C310169   2.069   2.159  16.177 -0.8999  0.6603  0.2457
  684MPD2    C410170   2.147   2.086  16.262  0.7802  0.1101 -0.8036
  684MPD2    C510171   2.177   1.957  16.231  0.0395  0.3424  0.1725
  684MPD2     H10172   1.950   2.153  15.994  2.8720  1.7454 -1.4524
  684MPD2    H110173   2.200   2.136  16.342 -0.4875  2.3282 -1.3677
  684MPD2    H210174   2.151   1.793  16.103  0.4865  0.1907 -0.8138
  684MPD2    H310175   2.263   1.915  16.282 -0.9328 -1.8548 -0.0290
  684MPD2     N10176   2.074   2.301  16.199  0.0868  0.0461  0.3604
  684MPD2    H510177   2.122   2.332  16.282  1.1895  0.0965 -0.3034
  684MPD2    N110178   1.997   1.925  15.913 -0.3696 -0.3885 -0.0549
  684MPD2    H710179   1.943   1.997  15.867  0.9190  0.7542  0.2298
  685TMC3    C110180   2.010   1.823  15.702  0.1358 -0.2893  0.4239
  685TMC3    C210181   1.921   1.920  15.670  0.0575  0.2595 -0.5671
  685TMC3    C310182   1.948   1.981  15.554  0.4365  0.0938  0.9741
  685TMC3    C410183   2.130   1.801  15.631 -0.1804  0.2781 -0.0471
  685TMC3    C510184   2.164   1.872  15.521 -0.2504  0.8979 -0.2846
  685TMC3    C610185   2.061   1.951  15.475 -0.1507  0.2822  0.0615
  685TMC3     C10186   2.031   1.811  15.847 -0.6432  0.5113  0.4512
  685TMC3     O10187   2.079   1.705  15.883 -0.0173 -0.2192 -0.3357
  685TMC3     H10188   1.830   1.939  15.726 -0.2056 -2.0089 -0.2534
  685TMC3    H110189   2.190   1.718  15.667 -0.0129 -0.2827 -1.6268
  685TMC3    H210190   2.090   2.021  15.397 -1.6054 -0.9813 -1.6144
  685TMC3    C710191   2.295   1.926  15.514 -1.1373  0.4828 -0.9695
  685TMC3    C810192   1.834   2.038  15.481 -0.7118 -0.3050 -0.6222
  685TMC3    O110193   2.327   1.982  15.409  0.4921 -0.0382 -0.1530
  685TMC3    O210194   1.809   1.995  15.369 -0.1365 -0.1658 -0.1967
  686MPD2     C10195   3.733   2.384  15.397  0.6432  0.0649 -0.6807
  686MPD2    C110196   3.730   2.267  15.469  0.1307  0.3172 -0.0739
  686MPD2    C210197   3.818   2.166  15.430 -0.5396 -0.7521 -0.3072
  686MPD2    C310198   3.893   2.175  15.314 -0.3539  0.6902 -0.2514
  686MPD2    C410199   3.903   2.300  15.261 -0.4749  0.6020  0.1504
  686MPD2    C510200   3.833   2.405  15.305  0.6848  0.3421  0.0422
  686MPD2     H10201   3.822   2.077  15.491 -1.7181 -1.9366 -1.9408
  686MPD2    H110202   3.963   2.319  15.173 -0.4101  2.3275  0.5529
  686MPD2    H210203   3.649   2.450  15.412  2.1575  1.4424  1.8447
  686MPD2    H310204   3.843   2.495  15.245 -1.1149  0.5350  0.0232
  686MPD2     N10205   3.976   2.078  15.259 -0.4307 -0.4107  0.4720
  686MPD2    H510206   4.036   2.115  15.186 -2.0200 -0.8103 -1.0507
  686MPD2    N110207   3.631   2.252  15.566  0.2565 -0.1523  0.2597
  686MPD2    H710208   3.554   2.318  15.560  0.3737  0.0539  0.9646
  687TMC3    C110209   3.920   1.890  15.389 -0.3551 -0.1533  0.3527
  687TMC3    C210210   3.793   1.866  15.355  0.0404 -0.8767  0.6978
  687TMC3    C310211   3.721   1.806  15.459  0.1996 -0.4332 -0.2069
  687TMC3    C410212   3.981   1.836  15.497  0.5032  0.5059  0.0865
  687TMC3    C510213   3.902   1.775  15.589  0.6655  0.7199  0.6137
  687TMC3    C610214   3.772   1.761  15.568  0.7396  0.4173  0.6481
  687TMC3     C10215   4.002   1.949  15.293 -0.1410 -0.1458  0.1608
  687TMC3     O10216   4.095   1.889  15.245  0.1253  0.5549  0.3891
  687TMC3     H10217   3.749   1.889  15.260 -2.3297  0.5066  2.1454
  687TMC3    H110218   4.087   1.856  15.508  0.6806 -0.8188  0.7264
  687TMC3    H210219   3.708   1.719  15.645  1.6427  0.4530  1.4278
  687TMC3    C710220   3.963   1.737  15.719  0.4337  1.0073 -0.1761
  687TMC3    C810221   3.576   1.802  15.460 -0.0385 -0.5593 -0.7470
  687TMC3    O110222   3.896   1.783  15.814 -0.6397  0.5197 -0.7725
  687TMC3    O210223   3.519   1.707  15.514  0.5044  0.2038  0.5781
  688MPD2     C10224   2.706   0.977  17.192  0.4148 -0.5196 -0.1446
  688MPD2    C110225   2.775   0.865  17.243 -0.1098 -0.1728  0.1599
  688MPD2    C210226   2.904   0.842  17.205 -0.2760  0.2594  0.6538
  688MPD2    C310227   2.969   0.933  17.127 -0.2754 -0.5613  0.0733
  688MPD2    C410228   2.911   1.040  17.081  0.2849 -0.0336  0.2798
  688MPD2    C510229   2.774   1.058  17.107  0.6666  0.1640 -0.0342
  688MPD2     H10230   2.949   0.751  17.242 -1.0264 -0.8776 -1.2259
  688MPD2    H110231   2.964   1.111  17.019  0.2352  0.2654  0.5800
  688MPD2    H210232   2.602   1.007  17.196  1.1420  1.6633  2.9050
  688MPD2    H310233   2.723   1.143  17.064  0.3477  1.5400  3.1070
  688MPD2     N10234   3.104   0.913  17.085  0.0962  0.0638 -0.1744
  688MPD2    H510235   3.149   0.993  17.042  0.1774 -0.8493 -1.7924
  688MPD2    N110236   2.716   0.765  17.320 -0.5774 -0.4396  0.2838
  688MPD2    H710237   2.787   0.700  17.352 -0.0006 -0.5004 -1.0965
  689TMC3    C110238   2.583   0.680  17.495  0.1415  0.5740  0.5303
  689TMC3    C210239   2.587   0.732  17.617  0.7769 -0.4970  0.2605
  689TMC3    C310240   2.591   0.641  17.723  0.0114 -0.8834 -0.5771
  689TMC3    C410241   2.574   0.546  17.464  0.2089  0.2414  0.5119
  689TMC3    C510242   2.578   0.457  17.572  0.0063  0.6163  0.2056
  689TMC3    C610243   2.587   0.505  17.706  0.4632  0.3035  0.5121
  689TMC3     C10244   2.594   0.772  17.380  0.0876  0.6719  0.2247
  689TMC3     O10245   2.506   0.857  17.359 -0.3613 -0.0013 -0.0371
  689TMC3     H10246   2.613   0.834  17.644  1.7656 -0.6062 -0.2674
  689TMC3    H110247   2.581   0.514  17.361  0.6113  2.6989 -0.2139
  689TMC3    H210248   2.614   0.437   0.046  1.1101 -1.5331 -1.2706
  689TMC3    C710249   2.575   0.316  17.548  0.0704 -0.8289 -0.0326
  689TMC3    C810250   2.552   0.692   0.114 -0.0403 -0.3083 -0.1377
  689TMC3    O110251   2.622   0.243  17.635  0.0139  0.2845  0.6443
  689TMC3    O210252   2.578   0.624   0.212 -0.0725 -0.0031 -0.1089
  690MPD2     C10253   0.548   2.981  15.725 -0.5636  0.1090 -0.0867
  690MPD2    C110254   0.470   2.980  15.614 -0.0160 -1.0543  1.0914
  690MPD2    C210255   0.525   3.034  15.502 -0.0582 -0.2309  0.8446
  690MPD2    C310256   0.651   3.082  15.496 -0.4208 -0.3700  0.2011
  690MPD2    C410257   0.736   3.068  15.607  0.1379 -0.4657  0.4892
  690MPD2    C510258   0.678   3.017  15.718 -0.2257 -0.1356 -0.7217
  690MPD2     H10259   0.461   3.046  15.415  0.6746 -0.0934  0.3319
  690MPD2    H110260   0.838   3.104  15.610  0.1655 -0.4813 -0.2439
  690MPD2    H210261   0.512   2.934  15.816  0.9804 -0.7371  0.0746
  690MPD2    H310262   0.739   2.988  15.803 -0.5609 -2.2953 -1.1991
  690MPD2     N10263   0.691   3.152  15.375  0.4661 -0.2987 -0.1090
  690MPD2    H510264   0.618   3.171  15.307 -1.2334 -2.3925  1.1354
  690MPD2    N110265   0.337   2.934  15.611  0.3052 -0.4449  0.6165
  690MPD2    H710266   0.300   2.918  15.518  1.5751  0.1884  0.0068
  691TMC3    C110267   0.169   2.792  15.664 -0.4877 -0.8523 -0.1413
  691TMC3    C210268   0.047   2.782  15.720 -0.2040 -0.9424  0.5698
  691TMC3    C310269   4.708   2.668  15.715  0.7910 -0.5866  0.5744
  691TMC3    C410270   0.226   2.677  15.603 -0.0428 -0.8835 -0.3805
  691TMC3    C510271   0.160   2.554  15.603 -0.3611  0.5209  0.7960
  691TMC3    C610272   0.039   2.555  15.665  0.6480 -0.3141  0.0459
  691TMC3     C10273   0.264   2.888  15.720  0.4091 -0.4962  0.6734
  691TMC3     O10274   0.265   2.907  15.840  0.0294  0.2117 -0.4814
  691TMC3     H10275   4.730   2.866  15.765 -0.3370 -0.8437  0.2285
  691TMC3    H110276   0.335   2.679  15.603 -0.0413 -0.5090  0.4963
  691TMC3    H210277   4.723   2.460  15.671  1.7350 -0.9186 -0.2153
  691TMC3    C710278   0.255   2.448  15.635 -0.7413 -0.2338  0.3724
  691TMC3    C810279   4.600   2.639  15.802  0.8294  0.5266 -0.3627
  691TMC3    O110280   0.353   2.483  15.697 -0.5885 -0.0662  0.2820
  691TMC3    O210281   4.594   2.522  15.837 -0.1272  0.3607  0.4575
  692TMC3    C110282   1.709   3.582  15.407 -1.0332 -0.0439 -0.3459
  692TMC3    C210283   1.828   3.642  15.394  0.0927 -0.2748 -0.5920
  692TMC3    C310284   1.946   3.574  15.414 -0.3462 -0.0802 -0.2831
  692TMC3    C410285   1.711   3.444  15.433 -0.0499 -0.0894 -0.4175
  692TMC3    C510286   1.830   3.373  15.451  0.1758 -0.2923 -0.0505
  692TMC3    C610287   1.950   3.439  15.437 -0.4214  0.0862  0.1200
  692TMC3     C10288   1.594   3.651  15.457  0.0546 -0.1700  0.1374
  692TMC3     O10289   1.492   3.599  15.492 -0.3812  0.2718  0.2731
  692TMC3     H10290   1.842   3.749  15.387 -1.3801 -0.3252 -4.0774
  692TMC3    H110291   1.619   3.389  15.446 -0.2995  0.1970 -0.9892
  692TMC3    H210292   2.041   3.387  15.464 -0.0718  0.4522 -0.3493
  692TMC3    C710293   1.814   3.234  15.439  0.5461  0.4728 -0.5326
  692TMC3    C810294   2.045   3.643  15.493 -0.4491  0.1054  0.1607
  692TMC3    O110295   1.719   3.190  15.377 -0.0274  0.9677 -0.5383
  692TMC3    O210296   2.156   3.596  15.501  0.5478  0.1328 -0.0505
  693MPD2     C10297   1.854   2.292  10.345  0.5229 -0.3045  0.9598
  693MPD2    C110298   1.777   2.230  10.442 -0.3273  0.3977 -0.0419
  693MPD2    C210299   1.837   2.142  10.528 -0.3728  0.2938 -0.2604
  693MPD2    C310300   1.969   2.105  10.515 -0.8505  0.0818 -0.5744
  693MPD2    C410301   2.043   2.172  10.415 -0.2097  0.7339  0.5029
  693MPD2    C510302   1.986   2.273  10.333  0.4825 -0.7465  0.0864
  693MPD2     H10303   1.770   2.081  10.588  3.0830 -1.6117  1.6399
  693MPD2    H110304   2.147   2.151  10.396 -0.6774 -0.7023 -0.4963
  693MPD2    H210305   1.807   2.363  10.277  2.0286  1.5706  1.8734
  693MPD2    H310306   2.043   2.328  10.260  0.1294 -0.1682  0.2437
  693MPD2     N10307   2.034   2.010  10.591 -0.0752 -0.6620  0.0424
  693MPD2    H510308   2.131   1.999  10.565 -0.1831 -2.3566  0.3581
  693MPD2    N110309   1.644   2.265  10.454  0.0645 -0.0722 -0.0437
  693MPD2    H710310   1.607   2.234  10.543 -1.7416 -1.7515 -1.4010
  694TMC3    C110311   1.424   2.299  10.372  0.0221  0.1047 -0.1951
  694TMC3    C210312   1.350   2.223  10.288  0.0618 -0.1488 -0.5649
  694TMC3    C310313   1.230   2.183  10.344 -0.3973  0.0529  0.5940
  694TMC3    C410314   1.391   2.343  10.495  0.0979 -0.0924 -0.1879
  694TMC3    C510315   1.274   2.305  10.548 -0.2951  0.5441  0.7460
  694TMC3    C610316   1.186   2.231  10.469  0.2560 -0.1970  0.4403
  694TMC3     C10317   1.564   2.300  10.344 -0.3682  0.2844 -0.3383
  694TMC3     O10318   1.586   2.301  10.227 -0.6014 -0.0293 -0.2040
  694TMC3     H10319   1.382   2.182  10.193 -1.8467 -0.8857 -0.8910
  694TMC3    H110320   1.453   2.418  10.543 -0.3310  0.0128  0.2085
  694TMC3    H210321   1.089   2.208  10.514 -0.2666  1.2325  0.0523
  694TMC3    C710322   1.258   2.313  10.688 -0.3334 -0.6643 -0.1355
  694TMC3    C810323   1.131   2.102  10.274 -0.4255  0.3495  0.5433
  694TMC3    O110324   1.319   2.407  10.739 -0.0563 -0.9420  0.6098
  694TMC3    O210325   1.043   2.048  10.345 -0.0273  0.4183 -0.4206
  695MPD2     C10326   2.630   3.232  13.634  0.0211  0.4826 -0.3332
  695MPD2    C110327   2.606   3.349  13.701  0.2146  0.1357 -0.5635
  695MPD2    C210328   2.475   3.399  13.699 -0.3503 -0.0842  0.0498
  695MPD2    C310329   2.372   3.342  13.626  0.3010  0.3519  0.6868
  695MPD2    C410330   2.395   3.219  13.563  0.1948  0.4145 -0.1656
  695MPD2    C510331   2.525   3.167  13.557 -0.3092 -0.3627  0.1017
  695MPD2     H10332   2.459   3.488  13.758 -1.5020  0.0890 -0.5351
  695MPD2    H110333   2.319   3.179  13.497 -2.2423  0.6851  2.4561
  695MPD2    H210334   2.725   3.180  13.629 -0.8363 -1.1698  0.6724
  695MPD2    H310335   2.539   3.074  13.503  0.6616  0.2079 -0.6101
  695MPD2     N10336   2.246   3.404  13.625  0.2813  0.0054  0.4642
  695MPD2    H510337   2.234   3.481  13.691  3.4009  0.4273  0.5606
  695MPD2    N110338   2.707   3.416  13.772  0.0712  0.0069  0.4257
  695MPD2    H710339   2.674   3.499  13.819 -0.0187 -1.1578  2.4364
  696TMC3    C110340   2.030   3.457  13.556 -0.1542  0.2379 -0.2273
  696TMC3    C210341   1.995   3.498  13.679  0.9709 -0.0477 -0.1032
  696TMC3    C310342   1.891   3.579  13.704 -0.3131 -0.1522  0.6506
  696TMC3    C410343   1.960   3.506  13.449 -0.9059 -0.2920  1.1417
  696TMC3    C510344   1.870   3.605  13.469 -0.1351  0.2360 -0.1579
  696TMC3    C610345   1.829   3.631  13.592 -0.5816 -0.2717 -0.1807
  696TMC3     C10346   2.157   3.393  13.526  0.1958 -0.4137 -0.9412
  696TMC3     O10347   2.160   3.325  13.426  0.1400 -0.3141  0.5104
  696TMC3     H10348   2.047   3.463  13.768  1.0669  1.8797  0.6033
  696TMC3    H110349   1.989   3.489  13.346  0.6218 -0.6506  1.6376
  696TMC3    H210350   1.750   3.704  13.604 -0.5474 -0.6216  2.2240
  696TMC3    C710351   1.875   3.712  13.370 -0.3037 -0.6969  0.2787
  696TMC3    C810352   1.897   3.658  13.825  0.3452  0.1685  0.1176
  696TMC3    O110353   1.950   3.694  13.273 -0.1031 -0.2597 -0.2638
  696TMC3    O210354   2.002   3.663  13.888 -0.0729 -0.4458  0.3858
  697MPD2     C10355   1.376   0.918  15.465  0.4547 -1.1653  0.5944
  697MPD2    C110356   1.452   0.851  15.371 -0.9728 -0.0429  0.0730
  697MPD2    C210357   1.538   0.930  15.296  0.7587 -0.0603 -0.1233
  697MPD2    C310358   1.559   1.066  15.333 -0.3251  0.5081  0.1679
  697MPD2    C410359   1.488   1.120  15.438 -0.2208 -0.0438 -0.0919
  697MPD2    C510360   1.397   1.042  15.508  0.4116  0.0721  0.1467
  697MPD2     H10361   1.585   0.897  15.204  0.3188  1.7032 -0.9620
  697MPD2    H110362   1.492   1.224  15.467 -0.3480  0.6386 -2.5864
  697MPD2    H210363   1.300   0.865  15.521  0.2803 -2.4365 -0.8344
  697MPD2    H310364   1.334   1.087  15.585  2.5797  2.4879  0.5200
  697MPD2     N10365   1.645   1.157  15.255  0.1198  0.1244  0.5035
  697MPD2    H510366   1.683   1.121  15.168  1.8298 -0.8811  1.6734
  697MPD2    N110367   1.420   0.722  15.327  0.3590  0.1518  0.2737
  697MPD2    H710368   1.487   0.693  15.256 -1.4859 -3.7155  0.1139
  698TMC3    C110369   1.765   1.332  15.196  0.2612  0.8618  0.1519
  698TMC3    C210370   1.871   1.374  15.272 -0.5104  0.8091 -0.0139
  698TMC3    C310371   1.992   1.381  15.207  0.0461  0.1748  0.5780
  698TMC3    C410372   1.781   1.284  15.064  0.1182 -0.0525 -0.9109
  698TMC3    C510373   1.905   1.299  15.007 -0.3341 -0.2822  0.3522
  698TMC3    C610374   2.015   1.347  15.076 -0.5226  0.6950  0.1612
  698TMC3     C10375   1.668   1.287  15.277  0.6799  0.7426  0.2275
  698TMC3     O10376   1.643   1.354  15.378  0.5810  0.3960  0.5198
  698TMC3     H10377   1.859   1.411  15.373  1.7694  1.0404  0.1676
  698TMC3    H110378   1.696   1.253  15.004 -0.6701 -0.6853  0.5198
  698TMC3    H210379   2.117   1.339  15.043 -0.8741  0.6057 -0.9100
  698TMC3    C710380   1.930   1.233  14.885 -0.7152 -0.3761 -0.2937
  698TMC3    C810381   2.092   1.459  15.275  1.0486 -0.4217 -0.3508
  698TMC3    O110382   1.835   1.171  14.841  0.1573 -0.2553  0.0148
  698TMC3    O210383   2.072   1.478  15.395 -0.5873  0.0328 -0.1887
  699TMC3    C110384   1.997   4.247  12.767  0.1024  0.0359  0.3660
  699TMC3    C210385   1.992   4.113  12.793  0.1759 -0.0946 -0.1046
  699TMC3    C310386   1.882   4.058  12.845 -0.1572 -0.7566 -0.2705
  699TMC3    C410387   1.892   4.327  12.800  0.3747  0.2410  0.2723
  699TMC3    C510388   1.777   4.273  12.847 -0.2041 -0.3586  0.2919
  699TMC3    C610389   1.773   4.137  12.872  0.2819 -0.1041  0.5504
  699TMC3     C10390   2.105   4.299  12.686  0.4201  1.2413  0.1599
  699TMC3     O10391   2.083   4.408  12.633 -0.4281  0.1535  0.5372
  699TMC3     H10392   2.067   4.048  12.750  0.2737 -1.2767  1.8473
  699TMC3    H110393   1.896   4.432  12.773  1.8459  0.0651 -0.2009
  699TMC3    H210394   1.686   4.097  12.922 -0.9342 -0.1802 -1.6174
  699TMC3    C710395   1.671   4.341  12.925  0.0165  0.6613  0.0013
  699TMC3    C810396   1.863   3.915  12.877  0.2819 -0.7988  0.7445
  699TMC3    O110397   1.551   4.302  12.908 -0.3027  0.1938  0.4288
  699TMC3    O210398   1.753   3.891  12.928 -0.3559  0.3761 -0.0671
  700TMC3    C110399   0.726   1.297  17.476  0.4993  0.1427  0.5939
  700TMC3    C210400   0.796   1.192  17.423 -0.1272 -0.0115 -0.0680
  700TMC3    C310401   0.926   1.184  17.458 -0.4788  0.4241  0.9235
  700TMC3    C410402   0.785   1.397  17.544 -0.0177 -0.6714  0.1131
  700TMC3    C510403   0.921   1.394  17.565  0.8018 -1.1159  0.7601
  700TMC3    C610404   0.993   1.281  17.532  0.5323  0.7996  0.9263
  700TMC3     C10405   0.635   1.357  17.376 -0.2019  0.3807  0.6136
  700TMC3     O10406   0.559   1.285  17.311 -0.1602  0.0587  0.0077
  700TMC3     H10407   0.749   1.121  17.356 -1.3831  1.0184 -0.2680
  700TMC3    H110408   0.720   1.468  17.595 -0.9257 -1.3651 -0.0725
  700TMC3    H210409   1.098   1.268  17.558  0.7055  1.2628  0.4560
  700TMC3    C710410   0.986   1.517  17.581 -0.3986 -0.8542 -0.3870
  700TMC3    C810411   1.013   1.089  17.388  0.1514 -0.7847 -0.2456
  700TMC3    O110412   0.930   1.606  17.519 -0.7679 -0.7849 -0.5517
  700TMC3    O210413   1.131   1.126  17.377  0.5595  0.0349 -0.0884
  701TMC3    C110414   0.571   0.060  15.254 -0.2558  0.2923  0.0073
  701TMC3    C210415   0.620   0.013  15.131 -0.2586 -0.0681 -0.3339
  701TMC3    C310416   0.737   0.062  15.083 -0.2715 -0.0344 -1.0262
  701TMC3    C410417   0.640   0.158  15.323 -0.3588 -0.4473  0.0488
  701TMC3    C510418   0.764   0.196  15.278 -0.9292  0.1285  0.0906
  701TMC3    C610419   0.816   0.149  15.161  0.7733  0.5979 -0.2875
  701TMC3     C10420   0.470   4.724  15.329 -0.4238  0.1006  0.0892
  701TMC3     O10421   0.403   0.051  15.407  0.4112 -0.0889  0.3048
  701TMC3     H10422   0.564   4.672  15.079 -1.2970  0.3504  0.1706
  701TMC3    H110423   0.590   0.194  15.412 -0.5338 -4.0312  1.3825
  701TMC3    H210424   0.901   0.192  15.109  1.7059  0.6820  1.2960
  701TMC3    C710425   0.820   0.328  15.324  0.1068 -0.3581  0.2431
  701TMC3    C810426   0.794   0.007  14.958  0.4283 -0.0290  0.6034
  701TMC3    O110427   0.877   0.394  15.244  0.0832  0.2758 -0.0940
  701TMC3    O210428   0.911   0.027  14.924  0.6960 -0.1853  0.2782
  702MPD2     C10429   0.307   2.600  10.330 -0.4676 -0.0788 -0.7359
  702MPD2    C110430   0.357   2.684  10.427  0.2057 -0.0323  0.8993
  702MPD2    C210431   0.488   2.709  10.432  0.2019  0.0288 -0.3323
  702MPD2    C310432   0.572   2.652  10.342 -0.5853 -0.2333  0.5891
  702MPD2    C410433   0.524   2.570  10.242  0.0677 -0.0202 -0.1411
  702MPD2    C510434   0.394   2.534  10.242 -0.0710 -0.8930 -0.0456
  702MPD2     H10435   0.511   2.793  10.496  0.3464  1.2717 -2.0248
  702MPD2    H110436   0.589   2.534  10.163 -0.2322 -0.6736 -0.0883
  702MPD2    H210437   0.201   2.575  10.329 -1.2527  3.3333 -3.2357
  702MPD2    H310438   0.353   2.457  10.178 -0.0384 -0.3757 -0.6936
  702MPD2     N10439   0.704   2.702  10.332 -0.2545 -0.5049  0.0294
  702MPD2    H510440   0.751   2.689  10.243  0.4491 -0.1924  0.3613
  702MPD2    N110441   0.278   2.742  10.526 -0.3621 -0.6047  0.5723
  702MPD2    H710442   0.331   2.792  10.598  1.6710  2.1988 -2.8513
  703TMC3    C110443   0.887   2.817  10.422 -0.2142 -0.4391  0.1028
  703TMC3    C210444   0.949   2.867  10.532  0.3032  0.0001 -0.0153
  703TMC3    C310445   1.039   2.966  10.517  0.3127 -0.5985  0.0671
  703TMC3    C410446   0.923   2.856  10.297 -0.4905  0.2404 -0.2642
  703TMC3    C510447   1.022   2.951  10.287 -0.9205  0.5969  0.5311
  703TMC3    C610448   1.091   2.999  10.400 -0.1321 -0.5844 -0.3577
  703TMC3     C10449   0.763   2.748  10.445  0.1604  0.0676  0.0368
  703TMC3     O10450   0.729   2.727  10.563 -0.3090  0.9694  0.3938
  703TMC3     H10451   0.922   2.829  10.629 -0.9916  0.6810 -0.1034
  703TMC3    H110452   0.868   2.834  10.206 -2.1866  0.2236  0.7696
  703TMC3    H210453   1.150   3.090  10.389  0.8065 -1.2287 -0.6128
  703TMC3    C710454   1.036   3.018  10.157 -0.0151  0.4427 -0.3560
  703TMC3    C810455   1.045   3.061  10.627  0.0465 -0.1985  0.3472
  703TMC3    O110456   0.962   2.973  10.071 -0.0910 -0.5314  0.1019
  703TMC3    O210457   1.143   3.129  10.641 -0.0281 -0.6353  0.6449
  704TMC3    C110458   3.824   0.254  12.380 -0.0093 -1.2423 -0.6648
  704TMC3    C210459   3.784   0.163  12.287 -0.5765  0.3141  0.1094
  704TMC3    C310460   3.806   0.027  12.308  0.3133 -0.6274 -0.6415
  704TMC3    C410461   3.896   0.214  12.486 -0.6444 -0.4309  0.7949
  704TMC3    C510462   3.926   0.078  12.511  0.1494  0.6762  0.4724
  704TMC3    C610463   3.884   4.718  12.417  0.2901 -0.1775 -0.2406
  704TMC3     C10464   3.828   0.389  12.334 -0.5983  0.5041  0.0171
  704TMC3     O10465   3.903   0.459  12.399  0.3995 -0.4285  0.0106
  704TMC3     H10466   3.726   0.192  12.200  0.8378  2.3664 -0.1406
  704TMC3    H110467   3.906   0.292  12.561  2.1111 -1.2533  1.2790
  704TMC3    H210468   3.872   4.618  12.459  0.9466 -1.2563 -2.5908
  704TMC3    C710469   3.880   0.038  12.642  0.1649  0.0235  0.3586
  704TMC3    C810470   3.692   4.677  12.284  0.6252  0.3876 -0.4213
  704TMC3    O110471   3.803   4.681  12.652  0.2528 -0.0587  0.2452
  704TMC3    O210472   3.581   4.730  12.273  0.3253 -0.2426 -0.4692
  705MPD2     C10473   2.108   3.604  16.352  0.4858  0.8173  0.7903
  705MPD2    C110474   2.087   3.713  16.274  0.2952  0.7135  0.6560
  705MPD2    C210475   1.973   3.789  16.298  0.5646 -0.7450  0.1626
  705MPD2    C310476   1.888   3.747  16.400 -0.5066  0.1858 -0.0033
  705MPD2    C410477   1.904   3.629  16.469  0.7300  0.2592 -0.2923
  705MPD2    C510478   2.019   3.554  16.440 -0.0363  0.2327  0.4125
  705MPD2     H10479   1.957   3.878  16.239  0.9160 -1.0125 -0.3350
  705MPD2    H110480   1.832   3.594  16.542  0.9529 -0.6938 -0.5267
  705MPD2    H210481   2.201   3.547  16.347  0.2174  0.4432  0.0689
  705MPD2    H310482   2.027   3.467  16.504 -1.2761 -2.1066 -2.5851
  705MPD2     N10483   1.765   3.819  16.429 -1.0263  0.2873  0.2991
  705MPD2    H510484   1.702   3.773  16.494 -3.0748 -0.9336 -2.5662
  705MPD2    N110485   2.167   3.756  16.168  0.4973 -0.2082 -0.0393
  705MPD2    H710486   2.137   3.838  16.117 -0.6698  0.1674  1.2406
  706TMC3    C110487   2.547   3.794  15.900  0.0369  0.3423 -0.1281
  706TMC3    C210488   2.534   3.932  15.890 -0.0144  0.7550  1.2083
  706TMC3    C310489   2.436   3.995  15.970  0.1286 -0.4801  0.3964
  706TMC3    C410490   2.456   3.716  15.965 -0.0999  0.3112 -0.0576
  706TMC3    C510491   2.356   3.779  16.034 -0.5466  0.3820 -0.2589
  706TMC3    C610492   2.346   3.918  16.041 -0.2519  0.4132  0.3567
  706TMC3     C10493   2.668   3.727  15.848  0.2484  0.4751 -0.1478
  706TMC3     O10494   2.768   3.794  15.850  0.3037  0.3982 -0.3648
  706TMC3     H10495   2.604   3.983  15.825 -2.1191  0.1206 -1.5653
  706TMC3    H110496   2.466   3.608  15.965 -1.0696  0.2250  0.4416
  706TMC3    H210497   2.274   3.962  16.109 -1.7664 -1.1062 -0.2585
  706TMC3    C710498   2.280   3.692  16.118 -0.9772  0.3337 -0.5014
  706TMC3    C810499   2.405   4.137  15.967 -0.0965 -0.3322  0.0023
  706TMC3    O110500   2.324   3.585  16.155 -0.0527  0.1279  0.4694
  706TMC3    O210501   2.295   4.177  16.002 -0.0240  0.3878  0.4205
  707TMC3    C110502   3.978   2.121   0.547 -0.4235 -0.3903  0.4692
  707TMC3    C210503   3.963   2.082   0.679  0.2761 -0.3785  0.9996
  707TMC3    C310504   3.837   2.082   0.727  0.5905  0.1654 -0.1619
  707TMC3    C410505   3.865   2.142   0.465  0.5951 -0.4438  0.1861
  707TMC3    C510506   3.737   2.152   0.528  0.5067 -0.2839  0.1881
  707TMC3    C610507   3.720   2.115   0.666 -0.8457 -0.3711  0.4581
  707TMC3     C10508   4.106   2.106   0.488 -0.4982 -0.0465 -0.1932
  707TMC3     O10509   4.118   2.088   0.368 -0.4602 -0.3496  0.5569
  707TMC3     H10510   4.039   2.063   0.753  0.1095  1.3727  1.6167
  707TMC3    H110511   3.881   2.178   0.365  0.0494  0.0610  0.2816
  707TMC3    H210512   3.626   2.126   0.718 -0.4421  2.9937  0.4825
  707TMC3    C710513   3.613   2.167   0.449 -0.2902 -0.2596 -0.2776
  707TMC3    C810514   3.815   2.052   0.873 -0.8064 -0.1863 -0.1644
  707TMC3    O110515   3.616   2.145   0.328  0.6715 -0.1534 -0.2526
  707TMC3    O210516   3.713   2.097   0.925 -0.1439  0.4257  0.7742
  708MPD2     C10517   0.661   1.898  13.927  0.4054  0.2827 -0.0340
  708MPD2    C110518   0.754   1.992  13.960  0.0094  0.5677 -0.3398
  708MPD2    C210519   0.817   1.981  14.092  0.0501 -0.3125 -0.2173
  708MPD2    C310520   0.792   1.875  14.173 -0.3612  0.5360 -1.0887
  708MPD2    C410521   0.704   1.778  14.130 -0.0495  0.8363  0.4108
  708MPD2    C510522   0.642   1.791  14.009  0.2928 -0.0361 -0.2971
  708MPD2     H10523   0.874   2.067  14.124  0.3042 -0.4686 -0.2485
  708MPD2    H110524   0.669   1.695  14.191  0.3972 -1.0628 -1.8931
  708MPD2    H210525   0.610   1.899  13.831  1.1218 -0.9250 -0.4321
  708MPD2    H310526   0.561   1.723  13.987  0.5036 -0.2320 -0.4588
  708MPD2     N10527   0.819   1.877  14.316 -0.6104 -0.2177 -0.9154
  708MPD2    H510528   0.781   1.812  14.384  1.1376 -0.6332 -0.3435
  708MPD2    N110529   0.743   2.117  13.896  0.2325  0.6163  0.7321
  708MPD2    H710530   0.657   2.131  13.844  0.4535  0.2128  0.2517
  709TMC3    C110531   0.769   2.348  13.936  0.2486  0.0908  0.4016
  709TMC3    C210532   0.828   2.463  13.896  0.6567 -0.6981 -0.2977
  709TMC3    C310533   0.790   2.579  13.969  0.0971 -0.1131 -0.7519
  709TMC3    C410534   0.676   2.349  14.036 -0.5458 -0.1671  0.9979
  709TMC3    C510535   0.665   2.456  14.116 -0.3372  0.1444  0.5588
  709TMC3    C610536   0.718   2.578  14.084 -0.0573  0.0228  0.4892
  709TMC3     C10537   0.833   2.223  13.907  0.3566 -0.0658  0.4932
  709TMC3     O10538   0.954   2.215  13.918 -0.1556 -0.3651  0.3165
  709TMC3     H10539   0.921   2.465  13.840  0.7444 -1.6770 -0.1852
  709TMC3    H110540   0.625   2.258  14.064  0.8578 -1.4401 -0.5869
  709TMC3    H210541   0.690   2.665  14.142  0.4093  0.8406 -0.5103
  709TMC3    C710542   0.628   2.426  14.255  0.6440  0.2977 -0.4875
  709TMC3    C810543   0.837   2.711  13.924 -0.1646 -0.1416  0.1614
  709TMC3    O110544   0.576   2.320  14.274 -0.0534 -0.2819  0.5369
  709TMC3    O210545   0.801   2.799  13.996 -0.2076  0.2454  0.3117
  710TMC3    C110546   1.726   2.511   0.290  0.6259 -0.1111  0.0951
  710TMC3    C210547   1.765   2.646   0.265 -0.0159 -0.9703  0.5825
  710TMC3    C310548   1.897   2.672   0.252  0.3067  0.5627 -1.1595
  710TMC3    C410549   1.814   2.406   0.298 -0.8832 -0.3364  0.6260
  710TMC3    C510550   1.946   2.438   0.279  0.6455 -0.1466  0.4203
  710TMC3    C610551   1.987   2.565   0.258 -0.2762 -0.2373 -0.2419
  710TMC3     C10552   1.586   2.476   0.273 -0.6309  0.0813 -0.6546
  710TMC3     O10553   1.553   2.358   0.249 -0.2206  0.3582  0.4458
  710TMC3     H10554   1.695   2.728   0.250  1.2243 -0.5295 -2.8324
  710TMC3    H110555   1.783   2.303   0.310 -1.7704 -0.0414  0.8505
  710TMC3    H210556   2.089   2.587   0.229  0.1193 -0.6833  0.8023
  710TMC3    C710557   2.043   2.351   0.342  0.5024  0.5885  0.0423
  710TMC3    C810558   1.933   2.793   0.191  0.3651  0.1053  0.6974
  710TMC3    O110559   2.012   2.229   0.358  0.1051  0.0293 -0.1034
  710TMC3    O210560   2.028   2.778   0.116 -0.3380  0.1564  0.1000
  711TMC3    C110561   1.425   4.598  14.760 -0.1322  0.2626  0.0466
  711TMC3    C210562   1.374   4.586  14.880  0.5007  0.2305 -0.1490
  711TMC3    C310563   1.446   4.642  14.985  0.3222  0.3795  0.1574
  711TMC3    C410564   1.539   4.664  14.737  0.5663  0.3266  0.5538
  711TMC3    C510565   1.612   4.714  14.840 -0.2279  0.4941 -0.4434
  711TMC3    C610566   1.563   4.709  14.961 -0.6343 -0.2047  0.3851
  711TMC3     C10567   1.401   4.489  14.665 -0.5311  0.8984  0.5016
  711TMC3     O10568   1.297   4.432  14.678 -0.2043 -0.4092 -0.2444
  711TMC3     H10569   1.284   4.533  14.910 -0.4739  1.9043 -0.1239
  711TMC3    H110570   1.580   4.671  14.637 -0.1401  0.9442  0.3041
  711TMC3    H210571   1.623   0.025  15.035 -1.6486  0.4488  0.7651
  711TMC3    C710572   1.745   4.654  14.850  0.0756  0.2131 -0.5610
  711TMC3    C810573   1.433   4.589  15.121  0.5202  0.1865  0.0691
  711TMC3    O110574   1.789   4.628  14.962 -0.4823  0.3743 -0.3595
  711TMC3    O210575   1.348   4.506  15.139  0.1088  0.0894  0.3313
  712MPD2     C10576   3.516   0.547  13.672  0.0964  0.0766 -0.2917
  712MPD2    C110577   3.462   0.612  13.558 -0.1358 -0.5495  0.1727
  712MPD2    C210578   3.538   0.706  13.499  0.4213  0.1480 -0.3899
  712MPD2    C310579   3.659   0.749  13.552  0.5210 -0.1050 -0.3776
  712MPD2    C410580   3.707   0.685  13.663  0.1300  0.6078  0.1824
  712MPD2    C510581   3.633   0.581  13.724  0.0059 -1.1020  0.3758
  712MPD2     H10582   3.505   0.749  13.405  2.0702 -0.8508 -1.4516
  712MPD2    H110583   3.802   0.708  13.711  0.4580 -0.2612 -0.0490
  712MPD2    H210584   3.456   0.469  13.717  0.8703 -1.8540 -2.5860
  712MPD2    H310585   3.671   0.533  13.814  2.7718  0.7952  0.2220
  712MPD2     N10586   3.737   0.857  13.496 -0.2709 -0.3736  0.1910
  712MPD2    H510587   3.833   0.858  13.529 -0.2630 -0.0836  0.1625
  712MPD2    N110588   3.345   0.565  13.488  0.0102 -0.5782  0.2676
  712MPD2    H710589   3.320   0.618  13.405 -1.3848 -3.0090 -0.8630
  713TMC3    C110590   3.767   1.071  13.388 -0.5420  0.2650 -0.0689
  713TMC3    C210591   3.889   1.084  13.448 -0.4817  0.6431 -0.3990
  713TMC3    C310592   3.972   1.182  13.400 -0.4406  0.4048  0.2649
  713TMC3    C410593   3.727   1.143  13.285  0.1914  0.5470  0.3873
  713TMC3    C510594   3.816   1.230  13.240 -0.5143  0.2839 -0.2376
  713TMC3    C610595   3.932   1.258  13.298 -0.2807  0.3491 -0.0077
  713TMC3     C10596   3.682   0.958  13.422  0.1626  0.4910 -0.4216
  713TMC3     O10597   3.562   0.983  13.404  0.0983 -0.4944  0.5017
  713TMC3     H10598   3.941   1.007  13.503 -0.5745  0.9744  0.1528
  713TMC3    H110599   3.632   1.123  13.237 -0.8548  0.6695  2.4246
  713TMC3    H210600   3.998   1.337  13.265  0.3860 -0.1666  0.0754
  713TMC3    C710601   3.773   1.328  13.143  0.6595  0.3124 -0.0571
  713TMC3    C810602   4.091   1.218  13.463  0.2557  0.1246 -0.3780
  713TMC3    O110603   3.865   1.393  13.093  0.4480 -0.2287  0.1679
  713TMC3    O210604   4.178   1.253  13.387 -0.2146  0.0227 -0.0446
  714MPD2     C10605   0.087   3.597   1.008  1.0627 -0.5972  0.0015
  714MPD2    C110606   0.076   3.485   0.933  0.1679 -0.1510  0.6323
  714MPD2    C210607   4.715   3.477   0.834  0.5901  0.3943  0.3221
  714MPD2    C310608   4.622   3.578   0.813  0.4675  0.1188 -0.4901
  714MPD2    C410609   4.632   3.696   0.885 -0.3797  0.3492  0.6841
  714MPD2    C510610   4.728   3.687   0.989  0.5703 -0.6288 -0.8981
  714MPD2     H10611   4.702   3.383   0.781  0.5475  1.5657 -1.7044
  714MPD2    H110612   4.573   3.785   0.873 -2.0659 -0.9375 -0.5582
  714MPD2    H210613   0.165   3.609   1.083  0.2026  0.5186  0.7111
  714MPD2    H310614   0.009   3.771   1.056 -1.7183  0.3743 -1.6001
  714MPD2     N10615   4.537   3.552   0.700 -0.2938 -0.1777 -0.0059
  714MPD2    H510616   4.561   3.468   0.649  1.7815  0.8537 -0.7331
  714MPD2    N110617   0.160   3.377   0.953 -0.4207 -0.1210 -0.0431
  714MPD2    H710618   0.238   3.407   1.011 -1.2034  0.7239  0.5755
  715TMC3    C110619   0.302   3.192   0.894 -0.6339 -0.1494 -0.0503
  715TMC3    C210620   0.311   3.063   0.847 -1.0242 -0.6186 -0.0867
  715TMC3    C310621   0.433   3.008   0.850  0.0643 -0.2075 -0.7951
  715TMC3    C410622   0.411   3.248   0.956 -0.0116 -0.9118 -0.2904
  715TMC3    C510623   0.521   3.176   0.980 -0.2038  0.1789  0.6182
  715TMC3    C610624   0.538   3.058   0.922  0.2420  0.3538  0.6842
  715TMC3     C10625   0.176   3.265   0.876 -0.1655  0.2802 -0.4362
  715TMC3     O10626   0.086   3.208   0.816  0.2078 -0.0427  0.0712
  715TMC3     H10627   0.228   3.025   0.789 -0.8667 -1.5727  0.3056
  715TMC3    H110628   0.406   3.351   0.987  1.5000 -1.2681  1.1565
  715TMC3    H210629   0.638   3.018   0.904  0.1270  0.6462 -0.5880
  715TMC3    C710630   0.629   3.230   1.063 -0.1096 -0.0137  0.0672
  715TMC3    C810631   0.434   2.875   0.792  0.6150 -0.0167  0.0198
  715TMC3    O110632   0.741   3.184   1.045 -0.1112 -0.0894 -0.4355
  715TMC3    O210633   0.326   2.833   0.750  0.0915  0.7391  0.2325
  716MPD2     C10634   4.733   2.841   9.443  0.0853 -0.3958  0.7559
  716MPD2    C110635   4.604   2.879   9.432 -0.4027  0.0924  0.2458
  716MPD2    C210636   4.529   2.821   9.331 -0.1517  0.0913 -0.4151
  716MPD2    C310637   4.580   2.716   9.255  0.2486 -0.0171 -0.5708
  716MPD2    C410638   4.712   2.697   9.259  0.8874  0.5087 -0.0540
  716MPD2    C510639   0.054   2.757   9.353  0.0678  1.6012 -0.3950
  716MPD2     H10640   4.425   2.853   9.325 -0.0196  0.7935  1.0226
  716MPD2    H110641   0.038   2.635   9.194 -1.3482 -2.5581  0.7512
  716MPD2    H210642   0.060   2.891   9.516 -0.0815 -1.5637  1.7060
  716MPD2    H310643   0.163   2.755   9.348  0.1671  2.3795  1.4232
  716MPD2     N10644   4.494   2.650   9.165  0.1709 -0.4728  0.0291
  716MPD2    H510645   4.399   2.682   9.150  0.5590  0.0201 -1.4265
  716MPD2    N110646   4.552   2.966   9.528  0.1395  0.4723 -0.7812
  716MPD2    H710647   4.618   3.003   9.595 -1.6542 -0.3575  1.4636
  717TMC3    C110648   4.420   2.490   9.013 -0.5491  0.4687 -0.0638
  717TMC3    C210649   4.293   2.496   9.064 -0.3273  0.4926  0.7048
  717TMC3    C310650   4.210   2.405   9.002 -0.2870  0.8320  0.0547
  717TMC3    C410651   4.463   2.399   8.921 -0.2258 -0.0636 -0.0210
  717TMC3    C510652   4.374   2.313   8.867 -0.0725 -1.2781  0.5303
  717TMC3    C610653   4.242   2.319   8.902 -0.2487  0.0161 -0.2584
  717TMC3     C10654   4.529   2.534   9.093 -0.7274  0.2221  0.1946
  717TMC3     O10655   4.634   2.475   9.102 -0.5859 -0.3326  0.8214
  717TMC3     H10656   4.259   2.568   9.138 -3.4684  0.6151 -0.9029
  717TMC3    H110657   4.569   2.393   8.898  0.0907  0.0825  1.3994
  717TMC3    H210658   4.162   2.266   8.850 -0.5228 -0.1948  0.3821
  717TMC3    C710659   4.428   2.217   8.776 -0.2206 -0.3440 -0.2413
  717TMC3    C810660   4.077   2.398   9.057 -0.2153  0.0670 -0.5708
  717TMC3    O110661   4.547   2.199   8.786 -0.4427  0.3421  1.1701
  717TMC3    O210662   4.038   2.498   9.115 -0.5221 -0.5474  0.1628
  718MPD2     C10663   0.222   1.844  12.596  0.6923 -0.0644 -0.8505
  718MPD2    C110664   0.212   1.743  12.510 -0.0185 -0.4145 -0.3087
  718MPD2    C210665   0.153   1.629  12.560  0.0520  0.0292 -0.0735
  718MPD2    C310666   0.111   1.616  12.687  0.2299 -0.4486  0.0856
  718MPD2    C410667   0.131   1.714  12.773  0.7989 -0.1596 -0.1901
  718MPD2    C510668   0.190   1.826  12.727  0.0517  0.1043 -0.3817
  718MPD2     H10669   0.136   1.545  12.493 -1.0113  0.5050 -0.3963
  718MPD2    H110670   0.104   1.706  12.878  1.1354  0.1644 -0.0786
  718MPD2    H210671   0.259   1.941  12.566  2.5600  0.0163  1.7970
  718MPD2    H310672   0.211   1.906  12.798 -0.7262  0.4487 -0.5421
  718MPD2     N10673   0.046   1.495  12.722 -0.0659  0.5624 -0.2166
  718MPD2    H510674   0.049   1.425  12.649 -2.5037 -0.5622  0.7468
  718MPD2    N110675   0.264   1.759  12.377 -0.4838  0.6944  0.5902
  718MPD2    H710676   0.297   1.850  12.348  0.5001  1.2573  3.4760
  719TMC3    C110677   0.384   1.674  12.189  0.3432 -0.4498  0.2269
  719TMC3    C210678   0.403   1.561  12.114  0.2144  0.0714 -0.3095
  719TMC3    C310679   0.526   1.510  12.088  0.9390  0.4296  1.0924
  719TMC3    C410680   0.486   1.751  12.232 -0.2607  0.0442 -0.3299
  719TMC3    C510681   0.607   1.718  12.183 -0.1307  0.0081 -0.3578
  719TMC3    C610682   0.627   1.594  12.118  0.0621  0.2205 -0.8476
  719TMC3     C10683   0.296   1.647  12.300 -0.0950  0.4175 -0.2055
  719TMC3     O10684   0.255   1.529  12.300 -0.0660  0.3348  0.6762
  719TMC3     H10685   0.314   1.509  12.081 -0.4458  0.4978  0.7973
  719TMC3    H110686   0.470   1.843  12.288 -1.8396 -1.3105  1.4220
  719TMC3    H210687   0.725   1.587  12.074 -0.6785  0.0628 -2.4646
  719TMC3    C710688   0.674   1.834  12.138 -0.0475  0.1466 -1.0625
  719TMC3    C810689   0.544   1.378  12.143 -0.4179  0.3054  0.2117
  719TMC3    O110690   0.711   1.836  12.018  0.5212 -0.4363  0.0341
  719TMC3    O210691   0.661   1.341  12.142  0.0275  0.5360 -0.1425
  720MPD2     C10692   2.875   2.758  13.990  0.6446 -0.1804 -0.3760
  720MPD2    C110693   2.967   2.714  13.900 -0.2558 -0.1705 -1.0069
  720MPD2    C210694   3.085   2.666  13.946 -0.1020  0.7705  0.1720
  720MPD2    C310695   3.114   2.664  14.086 -0.1146  0.2617 -0.3290
  720MPD2    C410696   3.016   2.712  14.174 -0.4716  0.4822  0.2736
  720MPD2    C510697   2.894   2.739  14.127 -0.4745  0.1962 -0.2752
  720MPD2     H10698   3.170   2.648  13.880 -0.5510 -0.6054 -0.0362
  720MPD2    H110699   3.020   2.725  14.281  1.8475 -1.8636  0.4657
  720MPD2    H210700   2.775   2.776  13.951  0.8135 -0.9403 -1.1708
  720MPD2    H310701   2.822   2.771  14.202  1.1808  1.5838  0.7154
  720MPD2     N10702   3.238   2.610  14.126 -0.0287 -0.0889 -0.0593
  720MPD2    H510703   3.295   2.569  14.053 -0.2337  0.2619 -0.4149
  720MPD2    N110704   2.947   2.729  13.756  0.3582  0.5824  0.1453
  720MPD2    H710705   3.014   2.683  13.695  0.7446  1.3698 -0.0269
  721TMC3    C110706   3.419   2.545  14.256 -0.1525 -0.2887 -0.1550
  721TMC3    C210707   3.455   2.504  14.384  0.3632 -0.4233  0.1110
  721TMC3    C310708   3.578   2.444  14.400 -0.2789  0.4532  0.5732
  721TMC3    C410709   3.509   2.545  14.153  0.4544 -0.2594 -0.1450
  721TMC3    C510710   3.626   2.477  14.161  0.8707  0.6513 -0.5575
  721TMC3    C610711   3.659   2.422  14.283 -0.5086  0.6959 -0.0272
  721TMC3     C10712   3.292   2.614  14.249 -0.4287 -0.7159  0.0139
  721TMC3     O10713   3.239   2.651  14.352 -0.1627 -0.5716 -0.7912
  721TMC3     H10714   3.387   2.521  14.466  1.3386  2.5336  0.2938
  721TMC3    H110715   3.485   2.598  14.062 -1.1089  0.6942  0.8338
  721TMC3    H210716   3.757   2.380  14.304 -0.1666  0.6634 -1.6701
  721TMC3    C710717   3.737   2.539  14.086 -0.5737 -0.3537 -0.7995
  721TMC3    C810718   3.650   2.454  14.523  0.4188  0.6823  0.5985
  721TMC3    O110719   3.728   2.662  14.078  0.0352  0.5138  0.2174
  721TMC3    O210720   3.762   2.402  14.530 -0.2095  0.2471 -0.1654
  722MPD2     C10721   2.558   1.161  13.148 -0.2594 -0.0230  0.4011
  722MPD2    C110722   2.534   1.273  13.220  0.1693 -0.6414 -0.5093
  722MPD2    C210723   2.407   1.296  13.275  0.0126 -0.0390  0.2589
  722MPD2    C310724   2.313   1.197  13.268  1.1803  0.2998  0.1947
  722MPD2    C410725   2.336   1.084  13.196  0.5083 -0.1475 -0.0903
  722MPD2    C510726   2.460   1.071  13.129 -0.4355  0.1693  0.2011
  722MPD2     H10727   2.389   1.384  13.335 -0.3033  0.0002  0.1092
  722MPD2    H110728   2.264   1.004  13.179  2.0814 -1.8931  1.3991
  722MPD2    H210729   2.655   1.130  13.113 -1.2908 -0.6080 -1.9304
  722MPD2    H310730   2.474   0.984  13.066  2.8439  0.5826  0.4013
  722MPD2     N10731   2.194   1.217  13.342 -0.3851  0.2955  0.4803
  722MPD2    H510732   2.199   1.313  13.376  1.7324  1.1239 -2.1478
  722MPD2    N110733   2.619   1.382  13.229  0.3739 -0.5958  0.2567
  722MPD2    H710734   2.582   1.459  13.283 -0.1794 -0.7404  0.0839
  723TMC3    C110735   2.003   1.170  13.466  0.1319  0.4582  0.4440
  723TMC3    C210736   1.875   1.115  13.467 -0.2474 -0.5197 -0.1535
  723TMC3    C310737   1.782   1.170  13.548 -0.6802  0.9034 -0.3372
  723TMC3    C410738   2.033   1.284  13.544  0.3581  0.2736 -0.6335
  723TMC3    C510739   1.933   1.340  13.617 -0.2640  0.3283  0.3527
  723TMC3    C610740   1.812   1.278  13.621 -0.2719 -0.5055  0.1847
  723TMC3     C10741   2.089   1.121  13.369 -0.4943 -0.7403 -0.5233
  723TMC3     O10742   2.069   1.010  13.312 -0.5062 -0.6191 -0.2858
  723TMC3     H10743   1.861   1.020  13.417 -1.9808 -0.0826 -0.4828
  723TMC3    H110744   2.132   1.329  13.543 -0.2694  1.6907  0.9254
  723TMC3    H210745   1.744   1.319  13.695 -0.8929  2.0898 -1.8470
  723TMC3    C710746   1.966   1.438  13.712 -0.3340  0.0189 -0.2180
  723TMC3    C810747   1.644   1.126  13.527  0.2633 -0.0138 -0.4901
  723TMC3    O110748   2.079   1.422  13.761 -0.0496 -0.1552 -0.0333
  723TMC3    O210749   1.562   1.153  13.615 -0.2153  0.1071 -0.0799
  724TMC3    C110750   2.389   4.573  10.537  0.1819 -0.9080  0.7871
  724TMC3    C210751   2.411   4.625  10.411 -0.1919  0.2913 -0.1234
  724TMC3    C310752   2.486   0.001  10.403  0.5510  1.0627 -0.6888
  724TMC3    C410753   2.453   4.623  10.643  0.1581  0.2196 -0.1035
  724TMC3    C510754   2.529   0.007  10.632  0.6661 -0.3140  0.6657
  724TMC3    C610755   2.551   0.062  10.505 -0.1999  0.0313 -0.7853
  724TMC3     C10756   2.326   4.442  10.556  0.0502  0.0830 -0.4402
  724TMC3     O10757   2.357   4.371  10.649 -0.0971 -0.1052 -0.0623
  724TMC3     H10758   2.392   4.568  10.320 -1.5387 -0.5912  0.6907
  724TMC3    H110759   2.433   4.581  10.741 -1.9473 -0.5448 -0.8507
  724TMC3    H210760   2.621   0.145  10.508 -0.5077  0.3466 -2.3622
  724TMC3    C710761   2.577   0.081  10.755  0.0909 -0.6013  0.5078
  724TMC3    C810762   2.483   0.065  10.268 -0.1307  0.4098 -0.4650
  724TMC3    O110763   2.660   0.170  10.732 -0.3342  0.1737  0.2018
  724TMC3    O210764   2.464   4.733  10.166 -0.2898  0.1359  0.1729
  725TMC3    C110765   3.848   3.237  13.124  0.6550 -0.2481  0.0117
  725TMC3    C210766   3.733   3.291  13.067 -0.2942 -0.4515 -0.5067
  725TMC3    C310767   3.638   3.210  13.021 -0.2692 -0.4151 -0.4721
  725TMC3    C410768   3.861   3.100  13.135  0.7469  0.5004  0.5777
  725TMC3    C510769   3.754   3.028  13.100 -0.0353 -0.5825  0.4466
  725TMC3    C610770   3.646   3.076  13.036  0.0050 -0.0784  0.1252
  725TMC3     C10771   3.965   3.317  13.115 -0.3849 -0.3662 -0.3500
  725TMC3     O10772   3.956   3.433  13.138 -0.2736  0.3431  0.2984
  725TMC3     H10773   3.718   3.398  13.063  5.0685  0.3547  0.1983
  725TMC3    H110774   3.950   3.051  13.172  0.7715  0.9453  1.0956
  725TMC3    H210775   3.573   3.007  12.994  0.4251 -1.2797  1.3645
  725TMC3    C710776   3.799   2.890  13.065  0.4970  0.7012  1.0793
  725TMC3    C810777   3.512   3.276  12.984 -0.3779 -0.3295 -0.8661
  725TMC3    O110778   3.905   2.899  13.003 -0.4804  0.2130 -0.3403
  725TMC3    O210779   3.434   3.316  13.072 -0.6994 -0.3592 -0.4806
  726MPD2     C10780   1.825   0.133  10.192  0.0009 -0.5358 -0.3369
  726MPD2    C110781   1.696   0.124  10.149  0.3888 -0.4859  0.3380
  726MPD2    C210782   1.621   0.023  10.199  0.1904  0.2828  0.6729
  726MPD2    C310783   1.666   4.669  10.292  0.3635  0.6901 -1.0339
  726MPD2    C410784   1.788   4.689  10.346 -0.2002  0.0777 -0.3877
  726MPD2    C510785   1.869   0.050  10.292  0.5959 -0.3722  0.2488
  726MPD2     H10786   1.518   0.010  10.169  0.8401 -0.6022 -1.1604
  726MPD2    H110787   1.826   4.620  10.420  0.8549 -0.4187 -1.3788
  726MPD2    H210788   1.891   0.213  10.161  2.2719 -1.6471  1.6242
  726MPD2    H310789   1.970   0.071  10.326  1.0579  0.7285 -1.8154
  726MPD2     N10790   1.586   4.584  10.373 -0.6734  0.5438  0.4984
  726MPD2    H510791   1.624   4.536  10.455  0.9576  2.5656  0.9417
  726MPD2    N110792   1.640   0.209  10.057 -0.2797 -0.3372 -0.4975
  726MPD2    H710793   1.545   0.183  10.033 -0.2204 -0.6199 -0.4233
  727TMC3    C110794   1.620   0.424   9.948 -0.3727  0.1394  0.4446
  727TMC3    C210795   1.661   0.554   9.978  0.4692 -0.4815 -0.1594
  727TMC3    C310796   1.570   0.655   9.968  0.6824  0.0969  0.2470
  727TMC3    C410797   1.502   0.401   9.879  0.3115 -0.5217 -0.1333
  727TMC3    C510798   1.423   0.509   9.861  0.2374 -0.2092  0.2630
  727TMC3    C610799   1.450   0.634   9.905  0.1620 -0.3017  0.3352
  727TMC3     C10800   1.707   0.319  10.005  0.7033  0.4592  0.1085
  727TMC3     O10801   1.822   0.351  10.011  0.0476  0.2494 -0.4291
  727TMC3     H10802   1.748   0.562  10.043 -0.4598  2.9559  0.6610
  727TMC3    H110803   1.478   0.307   9.831  1.4930  0.3732 -2.4687
  727TMC3    H210804   1.383   0.716   9.883  0.8376 -0.6167 -2.8587
  727TMC3    C710805   1.293   0.477   9.802  0.0477  1.1391  0.4069
  727TMC3    C810806   1.591   0.773  10.047 -0.1518 -0.4644 -0.6914
  727TMC3    O110807   1.237   0.370   9.831 -0.2372  0.2671  0.0957
  727TMC3    O210808   1.681   0.768  10.128  0.4212  0.7861  0.4890
  728TMC3    C110809   0.837   3.297  15.258 -1.0689 -0.1128  0.8482
  728TMC3    C210810   0.948   3.375  15.267 -1.1075 -0.1361 -0.1887
  728TMC3    C310811   0.962   3.482  15.182  0.0746 -0.0950  0.0481
  728TMC3    C410812   0.760   3.304  15.147  0.5876 -0.7075  0.0090
  728TMC3    C510813   0.783   3.408  15.060  0.3117  0.5188  0.7736
  728TMC3    C610814   0.879   3.507  15.070  0.3889 -0.4026 -0.2031
  728TMC3     C10815   0.816   3.200  15.358 -0.3626  0.2867  0.2760
  728TMC3     O10816   0.923   3.173  15.419 -0.0070 -0.0833  0.8696
  728TMC3     H10817   1.017   3.372  15.351 -0.4274 -0.4747 -0.7649
  728TMC3    H110818   0.677   3.236  15.132  0.0592  0.3681 -2.0349
  728TMC3    H210819   0.871   3.605  15.024 -0.3134 -1.1669 -1.7143
  728TMC3    C710820   0.710   3.403  14.933 -0.0233  0.1692  0.0624
  728TMC3    C810821   1.084   3.551  15.165 -0.2492  0.7349  0.5048
  728TMC3    O110822   0.617   3.319  14.923 -0.0839 -0.3097  0.5055
  728TMC3    O210823   1.071   3.654  15.100 -0.1447  0.0816  0.3965
  729MPD2     C10824   2.753   4.356  16.504 -0.1820  0.1136 -0.3125
  729MPD2    C110825   2.891   4.350  16.513 -0.1468 -0.4047 -0.0769
  729MPD2    C210826   2.943   4.382  16.635  0.5825 -0.8322 -0.1543
  729MPD2    C310827   2.870   4.410  16.748 -0.6494  0.2189  0.0893
  729MPD2    C410828   2.737   4.405  16.733 -0.5136  0.0591 -0.3806
  729MPD2    C510829   2.674   4.377  16.619 -0.5303 -0.0966  0.2464
  729MPD2     H10830   3.049   4.401  16.647 -0.2407  2.2069  2.4546
  729MPD2    H110831   2.677   4.401  16.823 -1.0606  1.2688 -0.6990
  729MPD2    H210832   2.701   4.339  16.410  2.7318 -0.3814 -1.8201
  729MPD2    H310833   2.567   4.365  16.609 -0.6487  0.6085  0.6716
  729MPD2     N10834   2.937   4.431  16.873  0.0487 -0.0769  0.4789
  729MPD2    H510835   2.874   4.465  16.945 -0.9640 -2.0614  0.5220
  729MPD2    N110836   2.973   4.329  16.402 -0.5184 -0.1920 -0.1454
  729MPD2    H710837   2.947   4.357  16.308 -1.1199  0.9289  0.3531
  730TMC3    C110838   3.105   4.422  17.041 -1.0360  0.1975 -0.0477
  730TMC3    C210839   3.229   4.471  17.079  0.2131 -0.2290 -0.2012
  730TMC3    C310840   3.243   4.519  17.203 -0.3564 -0.6634 -0.1190
  730TMC3    C410841   3.006   4.403  17.132 -0.0968 -0.5883  0.6647
  730TMC3    C510842   3.034   4.442  17.256  0.0731  0.4441 -0.4064
  730TMC3    C610843   3.153   4.497  17.300  0.3315 -0.0792  0.6822
  730TMC3     C10844   3.072   4.414  16.900 -0.4206 -0.0299 -0.0241
  730TMC3     O10845   3.167   4.391  16.825  0.5111  0.1191 -0.4394
  730TMC3     H10846   3.293   4.502  16.997 -0.9667 -1.4666 -1.6193
  730TMC3    H110847   2.907   4.370  17.102 -1.8964  3.0353  2.6643
  730TMC3    H210848   3.167   4.520  17.405 -0.2828  0.3280  0.6761
  730TMC3    C710849   2.922   4.422  17.347 -0.4025  0.3411 -0.2246
  730TMC3    C810850   3.331   4.630  17.214 -0.4016  0.1815 -0.0728
  730TMC3    O110851   2.881   4.307  17.351  0.1803  0.3253 -0.6355
  730TMC3    O210852   3.406   4.658  17.123  0.6105 -0.1516  0.0092
  731MPD2     C10853   3.695   2.358  12.452 -0.7320  0.7638 -0.2387
  731MPD2    C110854   3.588   2.447  12.443  0.0723 -0.0694  0.7365
  731MPD2    C210855   3.514   2.466  12.550  0.8435 -0.6153  0.8088
  731MPD2    C310856   3.541   2.414  12.671 -0.0451 -0.0808 -0.5085
  731MPD2    C410857   3.654   2.336  12.682 -0.0133  0.7179  0.3002
  731MPD2    C510858   3.737   2.311  12.574 -0.6754 -0.4519  0.0027
  731MPD2     H10859   3.443   2.548  12.544  1.0054 -0.6703 -1.7585
  731MPD2    H110860   3.690   2.289  12.773  2.6268 -0.8986 -1.5594
  731MPD2    H210861   3.755   2.341  12.364  0.0823  1.7296  0.1184
  731MPD2    H310862   3.820   2.241  12.578 -0.5426 -0.2552  0.7675
  731MPD2     N10863   3.463   2.448  12.784 -0.0485  0.1559  0.1404
  731MPD2    H510864   3.395   2.520  12.762 -0.2262 -0.5389 -1.5372
  731MPD2    N110865   3.578   2.531  12.326  0.0869  0.4536  0.4066
  731MPD2    H710866   3.650   2.510  12.258 -0.0088 -1.2075  0.8083
  732TMC3    C110867   3.515   2.673  12.155  0.2243  0.7656 -1.1086
  732TMC3    C210868   3.419   2.735  12.083  0.5108 -0.0718  0.6286
  732TMC3    C310869   3.446   2.767  11.954 -0.0737  0.1545  0.1720
  732TMC3    C410870   3.643   2.660  12.114  0.1300  0.3556 -0.2826
  732TMC3    C510871   3.667   2.700  11.983 -0.0794 -0.1595 -0.0125
  732TMC3    C610872   3.570   2.748  11.899  0.4326 -0.3555 -0.1695
  732TMC3     C10873   3.477   2.616  12.283 -0.1561 -0.3675  0.1916
  732TMC3     O10874   3.379   2.654  12.349  0.3718 -0.4914  0.5564
  732TMC3     H10875   3.329   2.761  12.137 -1.2762 -1.1628 -1.8280
  732TMC3    H110876   3.723   2.614  12.170 -0.0545  0.4626  0.0682
  732TMC3    H210877   3.598   2.775  11.798  2.2693 -2.8672 -0.3350
  732TMC3    C710878   3.789   2.649  11.922 -0.4352  0.2368  0.1178
  732TMC3    C810879   3.343   2.798  11.851 -0.1989  0.1976  0.2001
  732TMC3    O110880   3.799   2.650  11.797  0.2845  0.2867  0.3458
  732TMC3    O210881   3.368   2.843  11.743  0.5730 -0.1230 -0.4960
  733TMC3    C110882   4.692   1.103  12.946  0.0971  0.0615 -0.2072
  733TMC3    C210883   4.688   1.239  12.949 -0.4887  0.1790 -0.1387
  733TMC3    C310884   0.029   1.308  12.855  0.5268  0.1060  0.3158
  733TMC3    C410885   0.037   1.034  12.863  0.0883 -0.1483  0.2681
  733TMC3    C510886   0.115   1.107  12.773 -0.0487 -0.2688 -0.1813
  733TMC3    C610887   0.114   1.243  12.764  0.0330 -0.1150 -0.5359
  733TMC3     C10888   4.573   1.040  12.990 -0.8437 -0.1905  0.4915
  733TMC3     O10889   4.467   1.094  12.950  0.1398 -0.0122 -0.3624
  733TMC3     H10890   4.617   1.297  13.006  2.3839  2.7282  0.8842
  733TMC3    H110891   0.035   0.926  12.853  2.2345 -0.1670  0.0823
  733TMC3    H210892   0.180   1.306  12.706  0.4342  0.3556  0.4351
  733TMC3    C710893   0.203   1.040  12.677  0.2604 -0.3673 -0.5403
  733TMC3    C810894   0.018   1.453  12.850  0.5824  0.2128  0.0798
  733TMC3    O110895   0.250   0.932  12.709 -0.2559  0.4942 -0.7455
  733TMC3    O210896   0.003   1.515  12.955 -0.2773  0.5825 -0.0048
  734MPD2     C10897   1.169   3.226  12.625 -0.5113  0.6134 -0.8306
  734MPD2    C110898   1.255   3.152  12.559  0.4994 -0.9696 -0.5801
  734MPD2    C210899   1.343   3.223  12.487 -0.3353 -0.4626 -0.2680
  734MPD2    C310900   1.340   3.361  12.463  0.0863  0.3864  0.9861
  734MPD2    C410901   1.253   3.435  12.538  0.0889 -0.9595 -0.1164
  734MPD2    C510902   1.177   3.363  12.621 -0.3041 -0.3106 -0.8341
  734MPD2     H10903   1.423   3.173  12.434 -1.4502 -2.4007 -0.1176
  734MPD2    H110904   1.243   3.541  12.521  0.0125 -1.2208 -1.7162
  734MPD2    H210905   1.091   3.192  12.692  0.9143 -2.6196 -0.7956
  734MPD2    H310906   1.114   3.423  12.685  0.1277 -1.7581  0.9678
  734MPD2     N10907   1.438   3.409  12.371  0.6581  0.0550 -0.3078
  734MPD2    H510908   1.479   3.338  12.312  0.8111 -0.3262  0.2562
  734MPD2    N110909   1.254   3.005  12.563 -0.5522  0.8005 -0.7252
  734MPD2    H710910   1.193   2.948  12.622  1.2439 -0.3596  0.0025
  735TMC3    C110911   1.316   2.791  12.479 -0.0194  0.0183  0.5104
  735TMC3    C210912   1.236   2.776  12.371 -0.1158 -0.4487  0.9693
  735TMC3    C310913   1.263   2.673  12.286  0.0284 -0.0672  0.5256
  735TMC3    C410914   1.417   2.709  12.499  0.1656  0.8115  0.2213
  735TMC3    C510915   1.436   2.603  12.413  0.1909 -0.0909  0.0478
  735TMC3    C610916   1.359   2.583  12.308  0.0271  0.0353 -0.4960
  735TMC3     C10917   1.342   2.934  12.485  0.1518 -0.6919 -0.2487
  735TMC3     O10918   1.411   2.962  12.392  0.0904  0.2912  0.4254
  735TMC3     H10919   1.157   2.848  12.353  0.4254  0.4379  2.1872
  735TMC3    H110920   1.481   2.729  12.584  2.2315 -1.2319 -0.8947
  735TMC3    H210921   1.391   2.519  12.227 -1.2691 -2.4366  0.9360
  735TMC3    C710922   1.573   2.561  12.399  0.2087  1.1239 -0.1273
  735TMC3    C810923   1.276   2.715  12.146  0.5845  0.6458 -0.1537
  735TMC3    O110924   1.664   2.626  12.441  0.1132  0.3527  0.4527
  735TMC3    O210925   1.258   2.638  12.054  0.2464 -0.0468 -0.2378
  736MPD2     C10926   1.702   2.237  12.305 -0.1665  0.3992 -0.1678
  736MPD2    C110927   1.693   2.374  12.315  0.0844  0.0244  0.3902
  736MPD2    C210928   1.789   2.450  12.249  0.1526 -0.2006 -1.1429
  736MPD2    C310929   1.908   2.397  12.200 -0.2485  0.1814  0.0880
  736MPD2    C410930   1.914   2.255  12.201  0.0983  0.3691 -0.8354
  736MPD2    C510931   1.808   2.177  12.240  0.6058 -0.0527  1.0115
  736MPD2     H10932   1.764   2.555  12.251  1.4237  0.0797  0.1672
  736MPD2    H110933   2.000   2.217  12.147  1.7121 -2.7345  3.9167
  736MPD2    H210934   1.620   2.172  12.333  1.5945 -1.7600 -0.0026
  736MPD2    H310935   1.812   2.069  12.225 -0.5360 -0.0802  0.9224
  736MPD2     N10936   1.999   2.477  12.129  0.3411 -0.6719 -0.2785
  736MPD2    H510937   2.077   2.421  12.096  2.7304  2.1227  0.5769
  736MPD2    N110938   1.576   2.430  12.367  0.4976  0.2149 -0.1263
  736MPD2    H710939   1.500   2.368  12.394 -0.3839  0.6938 -1.4973
  737TMC3    C110940   2.114   2.671  12.039 -0.0465  0.1175 -0.4572
  737TMC3    C210941   2.078   2.801  11.998  0.0174  0.5197  0.5737
  737TMC3    C310942   2.138   2.849  11.886 -0.4604  0.0668 -0.6018
  737TMC3    C410943   2.208   2.588  11.969 -0.1808  0.1879  0.0203
  737TMC3    C510944   2.264   2.644  11.857  0.2907 -0.4270  0.6669
  737TMC3    C610945   2.221   2.769  11.813 -0.1304 -0.7722  0.9913
  737TMC3     C10946   2.008   2.615  12.128  0.9034 -0.7364 -0.6045
  737TMC3     O10947   1.934   2.699  12.176  0.2324 -0.0932  0.0871
  737TMC3     H10948   1.998   2.857  12.045  0.5472  2.0968 -0.4013
  737TMC3    H110949   2.244   2.494  12.008 -1.9734 -0.9699 -1.0847
  737TMC3    H210950   2.277   2.827  11.741 -1.3451 -1.0155 -0.1325
  737TMC3    C710951   2.315   2.557  11.756  0.3402  0.1025  0.2924
  737TMC3    C810952   2.089   2.974  11.833  0.3521 -0.5018 -0.1820
  737TMC3    O110953   2.288   2.437  11.762 -0.4785 -0.0061  0.0915
  737TMC3    O210954   2.031   3.044  11.918  0.1766  0.0975  0.3158
  738MPD2     C10955   2.338   1.581  15.385  0.2363  0.7449 -0.4495
  738MPD2    C110956   2.291   1.604  15.259 -0.1573 -0.2536 -0.6810
  738MPD2    C210957   2.350   1.690  15.172  0.5503  0.0412 -0.2813
  738MPD2    C310958   2.459   1.757  15.219  0.0157 -0.0603 -0.1216
  738MPD2    C410959   2.517   1.731  15.340  0.5087  0.7433  0.0462
  738MPD2    C510960   2.452   1.643  15.425 -0.2634 -1.2611  0.0272
  738MPD2     H10961   2.315   1.705  15.071 -0.8859 -0.6773  0.1247
  738MPD2    H110962   2.603   1.786  15.374 -1.5908  2.9253  1.7680
  738MPD2    H210963   2.292   1.510  15.451  2.6421  0.8373  1.3228
  738MPD2    H310964   2.500   1.623  15.520 -0.3261 -0.3493  0.2450
  738MPD2     N10965   2.525   1.847  15.144  1.1135 -0.7070 -0.1740
  738MPD2    H510966   2.619   1.866  15.177  0.3544 -2.4334  2.9797
  738MPD2    N110967   2.179   1.531  15.200 -0.4490  0.4530 -0.6533
  738MPD2    H710968   2.178   1.532  15.099 -0.4797  0.4832 -0.6526
  739TMC3    C110969   2.569   2.002  14.960  0.1153 -0.1034 -0.4275
  739TMC3    C210970   2.515   2.068  14.854  0.0875  0.6160 -0.4192
  739TMC3    C310971   2.597   2.140  14.778  0.2241 -0.3051  0.3709
  739TMC3    C410972   2.694   2.025  15.003 -0.1894 -0.0576  0.7493
  739TMC3    C510973   2.768   2.114  14.934 -0.6859  0.5142  0.3201
  739TMC3    C610974   2.726   2.165  14.812  0.6266  0.9550  0.2680
  739TMC3     C10975   2.476   1.911  15.029  0.1615  0.7639 -0.0502
  739TMC3     O10976   2.357   1.910  14.990  0.2529 -0.1200 -0.3053
  739TMC3     H10977   2.423   2.028  14.814  0.1862 -2.3792  2.3122
  739TMC3    H110978   2.739   1.974  15.088  1.7549 -0.9785 -0.8179
  739TMC3    H210979   2.792   2.196  14.731 -0.3945  0.6821 -0.6719
  739TMC3    C710980   2.900   2.149  14.981  1.0407 -0.4436 -0.3339
  739TMC3    C810981   2.551   2.168  14.642  0.6324  0.6169 -0.1282
  739TMC3    O110982   2.929   2.102  15.093 -0.4703 -0.6349 -0.4064
  739TMC3    O210983   2.450   2.115  14.606  0.9233 -0.4297  0.3566
  740TMC3    C110984   2.891   3.143  14.468 -0.5487  0.2546  0.2218
  740TMC3    C210985   2.966   3.180  14.584  0.6314 -0.2488  0.4332
  740TMC3    C310986   3.102   3.157  14.592 -0.1933 -0.7006  0.0541
  740TMC3    C410987   2.945   3.081  14.365  0.6049 -0.9610  0.3575
  740TMC3    C510988   3.074   3.051  14.376 -0.4125  0.3446 -0.0787
  740TMC3    C610989   3.155   3.093  14.483  0.2248  0.0189 -0.4317
  740TMC3     C10990   2.757   3.202  14.448 -0.1034  0.1240  0.3810
  740TMC3     O10991   2.745   3.253  14.338 -0.3735 -0.2539  0.0012
  740TMC3     H10992   2.920   3.256  14.646  0.0032 -0.2125 -0.0696
  740TMC3    H110993   2.884   3.064  14.276 -0.8893 -2.1599  1.6221
  740TMC3    H210994   3.258   3.061  14.497  0.1016 -0.4903 -0.6786
  740TMC3    C710995   3.161   3.017  14.265 -0.3504  0.0679  0.1623
  740TMC3    C810996   3.189   3.262  14.643 -0.3259  0.6825  0.9445
  740TMC3    O110997   3.280   3.018  14.289  0.0789 -0.7947  0.0391
  740TMC3    O210998   3.287   3.287  14.571 -0.2664 -0.0151 -0.4389
  741TMC3    C110999   2.364   2.556  14.302 -0.7522 -0.9200  0.4810
  741TMC3    C211000   2.315   2.432  14.272 -0.3863 -0.3677  0.0488
  741TMC3    C311001   2.295   2.345  14.375 -0.4402 -0.0338 -0.1740
  741TMC3    C411002   2.382   2.592  14.435  1.1179 -0.2487  0.3002
  741TMC3    C511003   2.366   2.498  14.530  0.6954  0.1030 -0.2437
  741TMC3    C611004   2.321   2.370  14.506  0.2100 -0.2034 -0.1233
  741TMC3     C11005   2.396   2.652  14.197 -0.2756 -0.3338  0.1737
  741TMC3     O11006   2.453   2.750  14.242  0.0842  0.1853  0.5816
  741TMC3     H11007   2.306   2.407  14.167 -2.0289 -1.7002  0.5192
  741TMC3    H111008   2.420   2.691  14.459 -0.1096  0.3325 -0.1197
  741TMC3    H211009   2.315   2.291  14.580 -0.0352  0.8715  0.9968
  741TMC3    C711010   2.402   2.540  14.664 -0.1625 -0.3065  0.0372
  741TMC3    C811011   2.221   2.225  14.336 -0.5953 -0.1218 -0.1485
  741TMC3    O111012   2.485   2.631  14.674  0.2862 -0.1243 -0.3144
  741TMC3    O211013   2.168   2.230  14.229  0.8711 -0.6688  0.4747
  742TMC3    C111014   1.863   0.750  15.512  0.6373 -0.0957 -0.2169
  742TMC3    C211015   1.783   0.679  15.425 -0.7153 -0.3571  0.0870
  742TMC3    C311016   1.850   0.628  15.308  0.3523 -0.2117 -0.8052
  742TMC3    C411017   1.999   0.748  15.497  0.1174  0.4877  0.0819
  742TMC3    C511018   2.065   0.687  15.385 -1.2602  0.2973 -0.1292
  742TMC3    C611019   1.988   0.632  15.292  0.0832 -0.7067  0.7822
  742TMC3     C11020   1.805   0.850  15.595 -0.3339  0.1280 -0.0412
  742TMC3     O11021   1.851   0.959  15.608 -0.7206  0.1830 -0.6073
  742TMC3     H11022   1.676   0.696  15.426 -0.5323  0.8083 -0.8177
  742TMC3    H111023   2.054   0.800  15.575 -2.0922  2.1671  0.5126
  742TMC3    H211024   2.038   0.602  15.201 -2.1133  1.0100 -1.0116
  742TMC3    C711025   2.206   0.706  15.350 -0.1598  0.0679 -0.4578
  742TMC3    C811026   1.770   0.631  15.188 -0.3335 -0.0061  0.5279
  742TMC3    O111027   2.228   0.665  15.235 -0.5594  0.3972 -0.4514
  742TMC3    O211028   1.663   0.689  15.190  0.4959 -0.1032  0.3463
  743MPD2     C11029   4.278   1.380   1.705 -1.1372  0.1621  0.3738
  743MPD2    C111030   4.382   1.354   1.622  0.5983  0.1350 -0.2941
  743MPD2    C211031   4.514   1.363   1.666 -0.6391  0.4528 -0.1005
  743MPD2    C311032   4.537   1.414   1.787 -0.0754  0.3208  0.3275
  743MPD2    C411033   4.437   1.417   1.877  0.1952  0.5635  0.1864
  743MPD2    C511034   4.304   1.401   1.834 -0.5264  0.4150 -0.2644
  743MPD2     H11035   4.595   1.340   1.597  0.2918  1.3962  0.6591
  743MPD2    H111036   4.447   1.452   1.979 -1.4510  0.8170  0.2553
  743MPD2    H211037   4.176   1.372   1.669 -0.3813 -0.8031 -1.5861
  743MPD2    H311038   4.219   1.418   1.898 -0.2403  1.9862 -0.2922
  743MPD2     N11039   4.669   1.453   1.820  0.0426 -0.1828 -0.0427
  743MPD2    H511040   0.006   1.433   1.751 -0.6550 -1.0117 -0.5451
  743MPD2    N111041   4.347   1.332   1.490  0.0922 -0.3895 -0.4493
  743MPD2    H711042   4.250   1.337   1.461 -0.2963  1.1367  1.1103
  744TMC3    C111043   4.361   1.292   1.263  0.7054  0.1734 -0.2572
  744TMC3    C211044   4.243   1.366   1.249 -0.5608 -0.9136  0.2434
  744TMC3    C311045   4.183   1.381   1.122  0.1847 -0.0268 -0.2935
  744TMC3    C411046   4.420   1.224   1.165 -0.2176 -0.1355 -0.6581
  744TMC3    C511047   4.353   1.230   1.043 -0.0085 -0.2226 -0.6536
  744TMC3    C611048   4.245   1.309   1.015  0.4790  0.8319 -0.2495
  744TMC3     C11049   4.432   1.298   1.391 -0.4219 -0.4899 -0.6728
  744TMC3     O11050   4.550   1.270   1.386 -0.4365  0.3397  0.7162
  744TMC3     H11051   4.228   1.445   1.322  0.7476 -0.2779 -0.1738
  744TMC3    H111052   4.491   1.148   1.196 -1.5544 -1.8974 -1.9404
  744TMC3    H211053   4.202   1.312   0.915 -0.0824 -1.0026 -0.0615
  744TMC3    C711054   4.439   1.206   0.931 -0.2501 -0.0279 -0.2666
  744TMC3    C811055   4.122   1.503   1.084  0.1184  0.5479 -0.3605
  744TMC3    O111056   4.558   1.196   0.953 -0.1782  0.3360 -0.0562
  744TMC3    O211057   4.080   1.508   0.969  0.2946 -0.0740  0.0027
  745TMC3    C111058   3.139   0.451  13.454 -0.0736 -0.5619  0.8288
  745TMC3    C211059   3.015   0.440  13.513  0.0230  0.0649  0.2271
  745TMC3    C311060   2.907   0.452  13.437  0.4249  0.2045 -0.6883
  745TMC3    C411061   3.157   0.467  13.321  0.3998 -0.1217 -0.0836
  745TMC3    C511062   3.042   0.469  13.251 -0.7278 -0.4258 -0.3272
  745TMC3    C611063   2.914   0.456  13.301  0.1498  0.5514  1.2828
  745TMC3     C11064   3.253   0.475  13.543  0.0813  0.1535 -0.4482
  745TMC3     O11065   3.246   0.427  13.656 -0.1664  0.5519  0.1494
  745TMC3     H11066   3.009   0.431  13.621  3.7572  1.2726  0.5556
  745TMC3    H111067   3.252   0.457  13.271 -0.7386 -1.3600 -1.9706
  745TMC3    H211068   2.830   0.479  13.236  0.1570 -0.1314  1.0311
  745TMC3    C711069   3.069   0.446  13.112  0.2461  0.0529  0.2236
  745TMC3    C811070   2.799   0.533  13.482 -0.2121 -0.3188 -0.2976
  745TMC3    O111071   2.980   0.377  13.062 -0.2743 -0.0618  0.7284
  745TMC3    O211072   2.683   0.500  13.476 -0.0569  0.3623  0.0815
  746TMC3    C111073   0.158   2.824  10.887 -0.4759 -0.2634  0.8396
  746TMC3    C211074   0.195   2.838  10.756  0.1793 -0.1804  0.3307
  746TMC3    C311075   0.102   2.809  10.663 -0.8141 -0.0795  0.1156
  746TMC3    C411076   0.032   2.785  10.920  0.3482 -0.1746 -0.2492
  746TMC3    C511077   4.673   2.770  10.821 -0.2248 -0.4652  0.1061
  746TMC3    C611078   4.710   2.787  10.692 -0.7426  0.4638 -0.9315
  746TMC3     C11079   0.248   2.870  10.989  0.0955  0.1535  0.3435
  746TMC3     O11080   0.209   2.875  11.105  0.2033 -0.3459  0.1768
  746TMC3     H11081   0.291   2.877  10.727 -0.4767 -0.3173 -2.0348
  746TMC3    H111082   4.734   2.780  11.023  1.5012  1.8883  0.2168
  746TMC3    H211083   4.638   2.764  10.615 -1.3070  0.1074 -0.3068
  746TMC3    C711084   4.528   2.751  10.844 -0.2981 -0.0145  0.0940
  746TMC3    C811085   0.144   2.765  10.527 -0.1526  0.1181  0.5524
  746TMC3    O111086   4.453   2.777  10.748 -0.1413 -0.3814 -0.0253
  746TMC3    O211087   0.063   2.730  10.444 -0.3485 -0.0039 -0.2997
  747TMC3    C111088   2.930   2.944  10.973  1.1433 -0.0797 -0.2457
  747TMC3    C211089   2.824   2.875  11.024 -0.0237 -0.0006 -0.4083
  747TMC3    C311090   2.835   2.822  11.151  0.5244 -0.3016 -0.0762
  747TMC3    C411091   3.039   2.957  11.053  0.6486 -0.2086  0.1270
  747TMC3    C511092   3.042   2.906  11.185 -0.1678 -0.4921  0.1171
  747TMC3    C611093   2.937   2.841  11.237 -0.4363 -0.9437 -0.1125
  747TMC3     C11094   2.905   3.028  10.860  0.4408  0.3342 -0.2236
  747TMC3     O11095   2.993   3.106  10.833  0.0972 -0.6521 -0.2445
  747TMC3     H11096   2.727   2.858  10.979  0.3165  2.6337 -2.1061
  747TMC3    H111097   3.128   3.009  11.017  0.1298  0.0304 -0.8075
  747TMC3    H211098   2.954   2.803  11.338  3.4216  1.1959  0.0316
  747TMC3    C711099   3.150   2.942  11.275 -0.4610 -0.2357 -0.3001
  747TMC3    C811100   2.737   2.721  11.180  0.5433  0.4145 -0.3202
  747TMC3    O111101   3.128   2.944  11.397  0.1927 -0.0276 -0.0676
  747TMC3    O211102   2.711   2.646  11.092  0.1336  0.3442  0.6364
  748MPD2     C11103   4.163   2.601  17.734  0.5772  0.3011  0.6622
  748MPD2    C111104   4.135   2.588   0.128  0.7295 -0.7358 -0.2636
  748MPD2    C211105   4.228   2.626   0.220  0.0204 -0.8959 -0.6607
  748MPD2    C311106   4.344   2.685   0.185 -0.4587  0.6797 -0.0664
  748MPD2    C411107   4.381   2.688   0.051  0.3641  0.1697  0.5822
  748MPD2    C511108   4.284   2.654  17.701 -0.5767  1.1556  0.1135
  748MPD2     H11109   4.207   2.615   0.326  0.2255 -4.2056 -0.9580
  748MPD2    H111110   4.475   2.724   0.009 -0.4442 -0.0149 -1.3749
  748MPD2    H211111   4.097   2.587  17.650  0.7682  2.5647  0.1169
  748MPD2    H311112   4.298   2.674  17.595 -1.8195  0.6734 -0.1489
  748MPD2     N11113   4.419   2.742   0.292 -0.3252 -0.5981  0.2500
  748MPD2    H511114   4.378   2.729   0.383 -1.3813  1.3667  0.0313
  748MPD2    N111115   4.010   2.534   0.160  0.5061 -0.5583  0.1257
  748MPD2    H711116   3.945   2.528   0.082  0.9933 -0.0532 -0.3188
  749TMC3    C111117   4.579   2.906   0.389  0.4227 -0.9011 -0.4194
  749TMC3    C211118   4.544   2.860   0.514 -0.3983 -0.3522 -0.7617
  749TMC3    C311119   4.538   2.960   0.610 -0.0378 -0.0671  0.4980
  749TMC3    C411120   4.619   3.033   0.361  0.3233  0.8593 -0.1259
  749TMC3    C511121   4.624   3.131   0.460  0.3203  0.7259 -0.2491
  749TMC3    C611122   4.584   3.089   0.587 -0.9982 -1.1273 -0.1644
  749TMC3     C11123   4.531   2.825   0.271 -0.7897 -0.2392 -0.1866
  749TMC3     O11124   4.586   2.860   0.164 -0.1283 -0.1352  0.2185
  749TMC3     H11125   4.514   2.756   0.522  0.6324 -0.7144 -1.5091
  749TMC3    H111126   4.647   3.057   0.259  0.3504 -1.0710 -0.5726
  749TMC3    H211127   4.601   3.151   0.675  2.8488 -1.3562 -0.7599
  749TMC3    C711128   4.654   3.267   0.445  0.0218  0.0759  0.0224
  749TMC3    C811129   4.543   2.915   0.745  0.2796  0.0532 -0.0034
  749TMC3    O111130   4.631   3.335   0.547 -0.1467  0.2036 -0.0245
  749TMC3    O211131   4.482   2.990   0.820 -0.5865  0.2343 -0.5551
  750MPD2     C11132   1.103   4.690  11.098 -0.8245 -0.3258  0.3430
  750MPD2    C111133   0.977   4.660  11.147  0.4920  0.2404 -0.1725
  750MPD2    C211134   0.955   4.525  11.180 -0.8410 -0.4190 -0.6358
  750MPD2    C311135   1.058   4.434  11.163  0.4096  0.4264  0.1687
  750MPD2    C411136   1.171   4.476  11.105 -0.2534 -0.2374 -0.0003
  750MPD2    C511137   1.199   4.598  11.069  0.4027 -0.4455  0.3792
  750MPD2     H11138   0.860   4.485  11.213 -0.7228  1.2537  1.6871
  750MPD2    H111139   1.245   4.402  11.078 -0.9899 -1.1401  0.4560
  750MPD2    H211140   1.122   0.059  11.075 -1.8294 -0.7380 -2.3534
  750MPD2    H311141   1.289   4.624  11.016  0.5480  0.1548  0.9114
  750MPD2     N11142   1.052   4.296  11.194 -0.6132  0.0501 -0.2210
  750MPD2    H511143   1.125   4.234  11.159 -1.5595 -1.5490  0.6429
  750MPD2    N111144   0.887   0.029  11.169 -0.1015  0.5831  0.0635
  750MPD2    H711145   0.920   0.121  11.141  2.4501 -0.3342  0.0551
  751TMC3    C111146   0.967   4.091  11.259 -0.4604 -0.7813  0.4984
  751TMC3    C211147   0.878   4.025  11.340 -0.3579  0.9314 -0.2150
  751TMC3    C311148   0.872   3.890  11.337  0.3458  0.0871  0.0242
  751TMC3    C411149   1.057   4.019  11.179  0.6334 -0.5256  0.4449
  751TMC3    C511150   1.051   3.881  11.181  0.5355  0.0238 -0.8890
  751TMC3    C611151   0.955   3.815  11.257 -0.3719  0.3328 -0.6096
  751TMC3     C11152   0.950   4.233  11.254  1.0465  0.1169 -0.5736
  751TMC3     O11153   0.840   4.272  11.302  0.4552  0.7311  0.0942
  751TMC3     H11154   0.823   4.080  11.416 -1.0924 -0.1519  0.0349
  751TMC3    H111155   1.129   4.066  11.114  0.7252 -1.2417  0.0287
  751TMC3    H211156   0.944   3.708  11.262  0.5029  0.2001 -1.5685
  751TMC3    C711157   1.160   3.805  11.109 -0.1593 -0.3785 -0.0583
  751TMC3    C811158   0.760   3.819  11.386  0.5975 -0.5624 -0.1022
  751TMC3    O111159   1.232   3.868  11.037 -0.4654 -0.0474 -0.2053
  751TMC3    O211160   0.779   3.700  11.407 -0.0102  0.4599 -0.3858
  752TMC3    C111161   3.375   4.068  17.142  0.6283 -0.0246  0.4110
  752TMC3    C211162   3.371   3.980  17.247  0.5025 -0.3335  0.2505
  752TMC3    C311163   3.256   3.934  17.304  0.7005  0.5907 -0.1150
  752TMC3    C411164   3.250   4.111  17.099  0.0754 -0.4841 -0.2637
  752TMC3    C511165   3.136   4.053  17.140  0.0746  0.1966  0.1569
  752TMC3    C611166   3.135   3.967  17.245  0.3963 -0.0946 -0.0493
  752TMC3     C11167   3.491   4.089  17.049 -1.2523  0.5535 -0.0066
  752TMC3     O11168   3.602   4.056  17.087  0.0504 -0.3270 -0.6873
  752TMC3     H11169   3.464   3.954  17.296 -0.1386  0.9905  2.1440
  752TMC3    H111170   3.240   4.192  17.028 -2.1298  1.9134  2.7542
  752TMC3    H211171   3.044   3.936  17.296 -0.3884  1.9758 -0.1972
  752TMC3    C711172   3.020   4.061  17.048  0.1350  0.1020  0.3405
  752TMC3    C811173   3.269   3.848  17.418  0.1731 -0.1438  0.0792
  752TMC3    O111174   3.047   4.114  16.939  0.1230 -0.2318 -0.1504
  752TMC3    O211175   3.186   3.759  17.432 -0.0771  0.1002 -0.2108
  753TMC3    C111176   1.444   0.199  13.378  0.7718  0.6536 -0.0450
  753TMC3    C211177   1.554   0.224  13.458 -0.0245  0.2530 -0.8619
  753TMC3    C311178   1.678   0.201  13.405 -0.5419 -0.4794 -0.2775
  753TMC3    C411179   1.453   0.166  13.246  0.6228  0.6500 -0.0760
  753TMC3    C511180   1.582   0.152  13.195 -0.7491 -0.4383 -0.6834
  753TMC3    C611181   1.691   0.170  13.272 -0.4199  0.2218 -0.0346
  753TMC3     C11182   1.308   0.245  13.423 -0.6632 -0.3412 -0.1974
  753TMC3     O11183   1.222   0.267  13.337  0.1842 -0.1272 -0.2174
  753TMC3     H11184   1.556   0.245  13.564  2.4314  0.2683 -0.9087
  753TMC3    H111185   1.367   0.153  13.182 -0.0387 -2.1400  1.3608
  753TMC3    H211186   1.791   0.149  13.236 -0.3324 -0.7087  0.7347
  753TMC3    C711187   1.598   0.091  13.067  0.3324 -0.0218  0.6819
  753TMC3    C811188   1.805   0.220  13.476  0.1452  0.5336 -0.1199
  753TMC3    O111189   1.714   0.079  13.033 -0.1411  0.2826  0.0522
  753TMC3    O211190   1.901   0.146  13.450  0.2981 -0.2656  0.2474
  754MPD2     C11191   0.563   3.998  13.331  0.2061 -0.2542  0.0355
  754MPD2    C111192   0.513   3.868  13.344  0.5012 -0.5442  0.1415
  754MPD2    C211193   0.403   3.832  13.266 -0.1303  0.1953 -0.7240
  754MPD2    C311194   0.334   3.932  13.188 -0.0792  0.2392  0.3079
  754MPD2    C411195   0.395   4.052  13.166  0.8273  0.1914  0.1727
  754MPD2    C511196   0.505   4.087  13.246 -0.0995  0.4028 -0.2173
  754MPD2     H11197   0.357   3.734  13.274 -0.0082  0.4084  2.3637
  754MPD2    H111198   0.352   4.134  13.108 -0.2776  0.0071  0.7245
  754MPD2    H211199   0.650   4.031  13.387 -0.8855  0.6463  1.1991
  754MPD2    H311200   0.553   4.183  13.230  1.1729  0.1470  2.0353
  754MPD2     N11201   0.205   3.920  13.146  0.1036 -0.4089 -0.9331
  754MPD2    H511202   0.158   4.008  13.125  1.1542  0.5965  0.9074
  754MPD2    N111203   0.577   3.780  13.432 -0.1332 -0.1073  0.0200
  754MPD2    H711204   0.671   3.809  13.459  0.4476 -0.2379 -1.8634
  755MPD2     C11205   4.301   4.517  13.382 -0.4178  0.0361  0.1004
  755MPD2    C111206   4.292   4.408  13.465  0.4007 -0.5919  0.1408
  755MPD2    C211207   4.371   4.297  13.444 -0.5692  0.1767  0.5207
  755MPD2    C311208   4.466   4.295  13.344 -0.5308  0.2591 -0.6857
  755MPD2    C411209   4.480   4.406  13.269  0.7760  0.5083 -0.1495
  755MPD2    C511210   4.391   4.510  13.282 -0.3792 -0.1276 -0.2653
  755MPD2     H11211   4.373   4.223  13.523 -0.7590  1.6099  1.8629
  755MPD2    H111212   4.550   4.401  13.186 -0.2069 -1.0095 -0.8792
  755MPD2    H211213   4.239   4.603  13.403 -0.1869  0.0120  0.8669
  755MPD2    H311214   4.394   4.601  13.223  0.3720 -1.3147 -2.0567
  755MPD2     N11215   4.544   4.176  13.314  0.2852 -0.0203 -0.2236
  755MPD2    H511216   4.611   4.179  13.238  0.7462  0.3762  0.1953
  755MPD2    N111217   4.202   4.398  13.576  0.0373 -0.1247  0.3028
  755MPD2    H711218   4.207   4.312  13.629  1.7018 -0.4682 -0.4107
  756MPD2     C11219   0.001   0.888  10.104 -0.2762 -0.3421  0.9951
  756MPD2    C111220   4.691   0.818  10.223 -0.1712  0.3599  0.1839
  756MPD2    C211221   4.567   0.761  10.229 -0.3391  0.1601 -0.3470
  756MPD2    C311222   4.473   0.777  10.131  0.3926 -0.3678  0.4638
  756MPD2    C411223   4.508   0.847  10.018  0.7102 -0.4586  0.9557
  756MPD2    C511224   4.633   0.897  10.009 -0.0331  0.0755 -0.2409
  756MPD2     H11225   4.534   0.709  10.319  1.7537  0.4147  0.5705
  756MPD2    H111226   4.438   0.869   9.938  1.6580 -0.6170  0.0785
  756MPD2    H211227   0.101   0.923  10.083 -0.7169  0.8997  1.0065
  756MPD2    H311228   4.665   0.949   9.919 -0.2339 -2.1557 -1.5825
  756MPD2     N11229   4.338   0.726  10.159  0.1649  0.7283 -0.3495
  756MPD2    H511230   4.336   0.656  10.233  0.7983 -1.4970 -2.4566
  756MPD2    N111231   0.046   0.792  10.332 -0.1800 -0.2451  0.2688
  756MPD2    H711232   0.015   0.721  10.398  0.0900  0.6529  1.3771
  757MPD2     C11233   4.255   4.666  10.474 -0.1196  0.0832 -0.0202
  757MPD2    C111234   4.358   4.723  10.405  0.8055 -0.0780  0.2765
  757MPD2    C211235   4.326   0.108  10.334  0.8307 -0.1336 -0.1221
  757MPD2    C311236   4.193   0.166  10.346 -0.4285 -0.1480 -0.3866
  757MPD2    C411237   4.101   0.111  10.439  0.5235  1.0772  0.3106
  757MPD2    C511238   4.136   4.732  10.502  0.4343 -0.0001 -0.1105
  757MPD2     H11239   4.405   0.159  10.280 -0.0464  2.2086  0.8015
  757MPD2    H111240   4.005   0.160  10.452  1.1264  3.4813 -4.1489
  757MPD2    H211241   4.288   4.583  10.535 -3.2299  0.1607  1.7577
  757MPD2    H311242   4.063   4.684  10.567 -1.3808  1.9359 -0.7189
  757MPD2     N11243   4.163   0.287  10.276  0.0102 -0.1668  0.7509
  757MPD2    H511244   4.243   0.330  10.230 -0.5818  0.5589  0.3923
  757MPD2    N111245   4.488   4.656  10.399 -0.2863  0.6186  0.6180
  757MPD2    H711246   4.500   4.568  10.447 -1.0697  0.5089  0.6120
  758MPD2     C11247   4.494   3.689  15.811 -0.0773  0.2234  0.1222
  758MPD2    C111248   4.501   3.567  15.884 -0.2642  0.3774  0.0385
  758MPD2    C211249   4.428   3.556  16.002  0.4032 -0.2684 -0.2302
  758MPD2    C311250   4.354   3.670  16.054 -0.3601 -0.1406  0.4138
  758MPD2    C411251   4.341   3.778  15.972  0.5004  0.7349 -0.1140
  758MPD2    C511252   4.404   3.783  15.852 -0.5486  0.2569 -0.3258
  758MPD2     H11253   4.452   3.470  16.064 -0.6759 -1.3867 -1.3465
  758MPD2    H111254   4.290   3.869  16.000 -1.3958 -0.2475 -0.3245
  758MPD2    H211255   4.523   3.691  15.707 -1.2790 -0.5398 -0.2247
  758MPD2    H311256   4.398   3.870  15.788  0.7815  1.0170  0.5921
  758MPD2     N11257   4.281   3.664  16.172  0.1284  0.1582 -0.3787
  758MPD2    H511258   4.234   3.751  16.196 -0.9436 -0.7773  0.9421
  758MPD2    N111259   4.606   3.468  15.841 -0.6121 -0.1914 -0.9199
  758MPD2    H711260   4.668   3.496  15.765  0.3383 -0.2314 -0.1635
  759MPD2     C11261   2.555   3.311   9.643 -0.3277 -0.4072  0.3025
  759MPD2    C111262   2.686   3.312   9.684  0.4198 -0.3053 -0.0538
  759MPD2    C211263   2.782   3.373   9.604  0.1142  0.1862  0.6114
  759MPD2    C311264   2.747   3.462   9.506  0.5936  0.7704  0.4159
  759MPD2    C411265   2.611   3.469   9.479  0.1863 -0.2474  0.9626
  759MPD2    C511266   2.518   3.386   9.537  0.5173  0.0911 -0.1151
  759MPD2     H11267   2.885   3.365   9.636 -0.0009 -0.9151  0.7089
  759MPD2    H111268   2.565   3.540   9.412  1.7443 -0.4830 -0.3487
  759MPD2    H211269   2.472   3.259   9.688 -1.1733  1.7482  1.2492
  759MPD2    H311270   2.413   3.385   9.509  0.7159 -1.3902 -0.7849
  759MPD2     N11271   2.853   3.536   9.453  0.0337 -0.0797 -0.0800
  759MPD2    H511272   2.948   3.517   9.485 -0.5069 -1.3723  0.7634
  759MPD2    N111273   2.732   3.238   9.799 -0.4703 -0.0235 -0.4506
  759MPD2    H711274   2.832   3.250   9.809 -0.2158 -0.3675 -2.4471
  760MPD2     C11275   3.079   4.316  11.918  0.7986  0.4520 -0.1851
  760MPD2    C111276   3.217   4.315  11.933  0.2734 -0.6329  0.1408
  760MPD2    C211277   3.280   4.198  11.977  0.6848 -0.4730  0.5952
  760MPD2    C311278   3.212   4.077  11.988 -0.0473 -0.2478  0.3088
  760MPD2    C411279   3.075   4.080  11.962  0.5947  0.2733 -0.7382
  760MPD2    C511280   3.008   4.201  11.930 -0.3397  0.4035  0.9581
  760MPD2     H11281   3.384   4.212  12.004  1.8575 -1.7957 -3.2141
  760MPD2    H111282   3.016   3.989  11.970 -0.2873  0.8831 -0.3304
  760MPD2    H211283   3.019   4.406  11.909 -0.2663 -0.3922 -1.5495
  760MPD2    H311284   2.901   4.189  11.921 -0.3550  1.4407 -0.2918
  760MPD2     N11285   3.269   3.961  12.030  0.7344  0.2215  0.0807
  760MPD2    H511286   3.211   3.880  12.051  1.3221 -0.0541  0.6259
  760MPD2    N111287   3.301   4.429  11.938 -0.4294 -0.6789  1.3245
  760MPD2    H711288   3.402   4.421  11.946 -0.4489 -0.6271  1.6539
  761MPD2     C11289   0.258   3.736  11.409  0.4311  0.4239 -0.3973
  761MPD2    C111290   0.359   3.661  11.355  0.2033  0.0860  0.3584
  761MPD2    C211291   0.488   3.701  11.373 -0.2571  0.7546 -0.8635
  761MPD2    C311292   0.521   3.823  11.427 -0.4888  0.6777  0.0814
  761MPD2    C411293   0.420   3.896  11.479  0.0951 -0.5402  0.4969
  761MPD2    C511294   0.291   3.852  11.478 -0.0682  0.0657 -0.2564
  761MPD2     H11295   0.562   3.636  11.328 -1.3715 -0.7209 -0.5536
  761MPD2    H111296   0.442   3.985  11.538 -0.5121  0.3457 -0.6071
  761MPD2    H211297   0.158   3.696  11.425 -0.2567  1.4458 -2.1696
  761MPD2    H311298   0.205   3.902  11.521  1.7838  3.5512 -0.6575
  761MPD2     N11299   0.643   3.891  11.417  0.2746  0.5327  0.0982
  761MPD2    H511300   0.636   3.991  11.432  2.7061  0.8322 -0.8410
  761MPD2    N111301   0.334   3.549  11.272 -0.3736  0.3156 -0.7858
  761MPD2    H711302   0.417   3.495  11.248 -0.7576  0.1143 -1.6367
  762MPD2     C11303   0.801   3.387  10.940  0.2859  0.1108  0.4365
  762MPD2    C111304   0.703   3.309  10.880  0.5385 -0.4388 -0.5332
  762MPD2    C211305   0.747   3.210  10.784 -0.3073 -0.1302  0.7231
  762MPD2    C311306   0.879   3.195  10.757  0.1529  0.1135  0.0641
  762MPD2    C411307   0.971   3.283  10.820 -0.7323  0.3676  0.3718
  762MPD2    C511308   0.933   3.378  10.904 -0.2476 -0.3576 -0.3104
  762MPD2     H11309   0.671   3.156  10.729  1.8690 -2.7697  0.2958
  762MPD2    H111310   1.077   3.277  10.800 -0.9316  0.3000 -0.7110
  762MPD2    H211311   0.771   3.471  11.001 -1.9589  0.5357 -1.2874
  762MPD2    H311312   1.001   3.443  10.956 -1.7111 -0.8247  2.1826
  762MPD2     N11313   0.918   3.093  10.667 -0.2173  0.7802  0.1198
  762MPD2    H511314   0.841   3.037  10.632  0.0212  2.8164 -3.6624
  762MPD2    N111315   0.567   3.331  10.919 -0.4323 -0.5843  0.0740
  762MPD2    H711316   0.555   3.399  10.994  3.7334  0.2553  0.0099
  763MPD2     C11317   1.835   3.545  15.819 -0.0749 -0.3072  0.2727
  763MPD2    C111318   1.712   3.590  15.825  0.0556  0.3194  0.0472
  763MPD2    C211319   1.691   3.718  15.858 -0.0272  0.4954 -0.1249
  763MPD2    C311320   1.792   3.805  15.893  0.1119 -0.1328  0.0605
  763MPD2    C411321   1.919   3.759  15.886 -0.6034  0.2925 -0.0844
  763MPD2    C511322   1.942   3.636  15.837 -0.2426  0.0047  0.0001
  763MPD2     H11323   1.587   3.748  15.855 -0.5933 -1.6770 -1.8854
  763MPD2    H111324   1.995   3.833  15.909  0.7143 -0.8825 -0.6591
  763MPD2    H211325   1.856   3.440  15.804 -1.5113 -0.3555 -1.4742
  763MPD2    H311326   2.038   3.588  15.851  2.2518  4.5809 -1.5754
  763MPD2     N11327   1.774   3.940  15.929  0.5918  0.0732 -0.1102
  763MPD2    H511328   1.861   3.992  15.925  2.3967 -2.8852  0.4040
  763MPD2    N111329   1.601   3.509  15.795 -0.0490 -0.2341 -0.0746
  763MPD2    H711330   1.510   3.554  15.788 -0.2775 -0.7282 -0.3070
  764MPD2     C11331   4.299   0.347  17.278 -0.5913 -0.7158 -0.1737
  764MPD2    C111332   4.175   0.294  17.243 -0.0657  0.6784  0.0867
  764MPD2    C211333   4.122   0.187  17.316  0.0751  0.2511 -0.3763
  764MPD2    C311334   4.170   0.148  17.436  0.0468  0.1844  0.4812
  764MPD2    C411335   4.288   0.204  17.471 -0.7684  0.4355  0.8617
  764MPD2    C511336   4.345   0.306  17.400  0.1145  0.3915  0.3838
  764MPD2     H11337   4.022   0.157  17.288 -0.0601  1.6349 -1.3337
  764MPD2    H111338   4.349   0.162  17.550  3.8326  1.4088 -2.2176
  764MPD2    H211339   4.348   0.429  17.226 -0.7209 -0.5541 -0.0421
  764MPD2    H311340   4.441   0.343  17.433  0.9111  0.3805 -1.8717
  764MPD2     N11341   4.093   0.064  17.524 -0.4882  0.4075  0.6621
  764MPD2    H511342   3.995   0.047  17.506 -0.0577  0.0616 -1.4608
  764MPD2    N111343   4.108   0.342  17.132  0.1802  0.2591  0.2123
  764MPD2    H711344   4.022   0.294  17.109 -0.5684  1.1256  1.2014
  765MPD2     C11345   4.230   2.806  16.120  0.1356  0.2687 -0.1615
  765MPD2    C111346   4.256   2.910  16.038 -0.1997 -0.2104 -0.5454
  765MPD2    C211347   4.353   2.889  15.932  0.0431 -0.4609 -0.3733
  765MPD2    C311348   4.427   2.768  15.928  0.4665 -0.5613 -0.5650
  765MPD2    C411349   4.401   2.673  16.023 -0.5929  0.7719  0.2464
  765MPD2    C511350   4.299   2.690  16.113 -0.8669 -0.4881 -0.0419
  765MPD2     H11351   4.375   2.961  15.853  0.3887 -0.7166 -0.5106
  765MPD2    H111352   4.458   2.581  16.032 -1.7585 -0.1030 -1.3888
  765MPD2    H211353   4.146   2.821  16.187 -0.3271 -0.6467 -0.5419
  765MPD2    H311354   4.272   2.607  16.177  1.1637 -0.9384  0.2395
  765MPD2     N11355   4.518   2.751  15.824 -0.0885  0.6529  0.1769
  765MPD2    H511356   4.532   2.819  15.750 -0.9636  0.4422 -0.1767
  765MPD2    N111357   4.186   3.030  16.056 -0.2911 -0.2689 -0.4334
  765MPD2    H711358   4.114   3.036  16.127  2.3826  3.8386  1.9741
  766MPD2     C11359   3.551   3.154  15.533  0.4620 -0.0971 -0.2247
  766MPD2    C111360   3.678   3.126  15.571 -0.4808  0.1178 -0.0149
  766MPD2    C211361   3.747   3.030  15.501 -0.5401  0.3554 -0.2370
  766MPD2    C311362   3.694   2.972  15.391 -0.4017  0.0282 -0.7010
  766MPD2    C411363   3.571   3.019  15.347 -0.1559 -0.1506  0.5482
  766MPD2    C511364   3.487   3.109  15.422 -0.0224  0.0859 -0.3658
  766MPD2     H11365   3.846   3.003  15.535 -1.1978 -0.0800  1.3399
  766MPD2    H111366   3.532   2.987  15.251  2.9255 -1.0250 -0.4008
  766MPD2    H211367   3.500   3.223  15.600 -0.9597 -1.4553  0.0815
  766MPD2    H311368   3.389   3.146  15.395 -0.9191 -2.2348 -0.2906
  766MPD2     N11369   3.777   2.907  15.300  0.1070 -0.8019  0.1849
  766MPD2    H511370   3.756   2.928  15.203  0.8361 -0.9798 -0.0143
  766MPD2    N111371   3.728   3.187  15.683  0.3319  1.2125 -0.0187
  766MPD2    H711372   3.669   3.256  15.729  0.1446  1.7857 -1.0884
  767MPD2     C11373   3.360   3.173  15.010 -0.5631 -0.0342 -0.0383
  767MPD2    C111374   3.497   3.161  15.014 -0.4212 -0.2237 -0.0114
  767MPD2    C211375   3.561   3.075  14.925  0.2483 -0.0547  0.5071
  767MPD2    C311376   3.492   3.011  14.822  0.9335  0.7048 -0.3624
  767MPD2    C411377   3.355   3.018  14.821 -0.1917 -0.9523  0.1343
  767MPD2    C511378   3.297   3.096  14.921 -1.1089  0.8533 -0.1514
  767MPD2     H11379   3.669   3.061  14.923  0.0556 -1.2456 -1.5204
  767MPD2    H111380   3.291   2.963  14.753 -0.0275 -0.4365 -0.4456
  767MPD2    H211381   3.304   3.230  15.085  0.3004 -1.6201  1.8131
  767MPD2    H311382   3.189   3.100  14.913 -1.1425  0.2418 -0.0042
  767MPD2     N11383   3.569   2.935  14.731 -0.0905 -0.2779 -0.0064
  767MPD2    H511384   3.669   2.943  14.744  0.0617 -1.3532 -0.5527
  767MPD2    N111385   3.580   3.232  15.110  0.0477  0.1404 -0.4065
  767MPD2    H711386   3.533   3.296  15.173 -1.9790 -1.2445 -0.4994
  768MPD2     C11387   4.551   2.126  10.486  0.0507  0.0463  0.2214
  768MPD2    C111388   4.459   2.138  10.583  0.1451  0.1049 -0.1391
  768MPD2    C211389   4.496   2.104  10.714  0.1715  0.3218 -0.3615
  768MPD2    C311390   4.632   2.093  10.747 -0.1196  0.4912 -0.4292
  768MPD2    C411391   4.716   2.079  10.644 -0.9244 -1.0217 -0.6676
  768MPD2    C511392   4.682   2.097  10.513  0.8239 -0.3632  0.0032
  768MPD2     H11393   4.421   2.110  10.791 -0.3362  0.8226 -0.8953
  768MPD2    H111394   0.087   2.063  10.659 -0.7422  0.5415 -0.2202
  768MPD2    H211395   4.526   2.139  10.381 -0.3806 -4.1545 -0.1911
  768MPD2    H311396   0.028   2.088  10.442 -0.3684 -0.2302 -1.3766
  768MPD2     N11397   4.687   2.089  10.876  0.3742  0.0092  0.4100
  768MPD2    H511398   0.051   2.066  10.883  0.0838 -1.5000 -0.5347
  768MPD2    N111399   4.321   2.165  10.556  0.1741 -0.0898  0.0507
  768MPD2    H711400   4.265   2.179  10.639 -2.8248 -0.7210 -1.8588
  769MPD2     C11401   0.724   4.517  14.502  0.1107  0.2839 -0.3252
  769MPD2    C111402   0.607   4.555  14.554  0.3593 -0.0658 -0.1909
  769MPD2    C211403   0.589   4.616  14.676  0.2734 -0.4493  0.1948
  769MPD2    C311404   0.707   4.632  14.748  0.4325 -0.2340 -0.3505
  769MPD2    C411405   0.829   4.581  14.707 -0.3278  0.2441  0.2854
  769MPD2    C511406   0.834   4.520  14.586  0.3919 -0.5940  0.6618
  769MPD2     H11407   0.491   4.643  14.711  0.2974 -0.4063  0.2289
  769MPD2    H111408   0.916   4.588  14.771 -0.7411 -1.5280  1.0325
  769MPD2    H211409   0.730   4.463  14.408  1.2654  0.8383 -0.5657
  769MPD2    H311410   0.932   4.483  14.559 -0.2584 -0.3585 -2.0477
  769MPD2     N11411   0.692   4.687  14.878  0.3365  0.1973 -0.6009
  769MPD2    H511412   0.598   4.683  14.916  0.1912  1.8768 -0.7546
  769MPD2    N111413   0.482   4.539  14.474 -0.1436 -0.1450  0.2573
  769MPD2    H711414   0.489   4.510  14.376 -2.1610  1.6506 -0.4226
  770MPD2     C11415   4.523   4.169  14.878  0.3576  0.2085 -0.4396
  770MPD2    C111416   4.649   4.139  14.846  0.8890  0.6667 -0.1579
  770MPD2    C211417   4.714   4.220  14.744  0.5835  0.2224  0.7936
  770MPD2    C311418   4.644   4.324  14.677  0.2130  0.9258 -0.1013
  770MPD2    C411419   4.509   4.343  14.714 -0.5952  0.0748  0.3946
  770MPD2    C511420   4.454   4.264  14.811  0.4416  0.3936 -0.4331
  770MPD2     H11421   0.078   4.200  14.707  0.5487 -0.8012  1.2581
  770MPD2    H111422   4.447   4.424  14.675  0.4963  0.4506 -0.5625
  770MPD2    H211423   4.478   4.109  14.957  0.6357  0.7977  0.1712
  770MPD2    H311424   4.351   4.278  14.841  0.0130 -0.7981 -1.3495
  770MPD2     N11425   4.711   4.403  14.584  0.1377  0.1244  0.2820
  770MPD2    H511426   0.076   4.404  14.596  0.1970 -1.7492 -0.0419
  770MPD2    N111427   4.715   4.026  14.900 -1.1164 -0.2108 -0.1365
  770MPD2    H711428   4.652   3.970  14.957  1.1004 -0.8162  1.6959
  771MPD2     C11429   1.715   3.106  13.874  0.5031 -0.0242  0.1503
  771MPD2    C111430   1.702   3.060  13.748 -0.4071  0.0227 -0.4619
  771MPD2    C211431   1.694   2.924  13.732 -0.0960  0.8239  0.0243
  771MPD2    C311432   1.708   2.835  13.835  0.5922  0.0641  0.0409
  771MPD2    C411433   1.731   2.883  13.961 -0.3040  0.1406 -0.1346
  771MPD2    C511434   1.732   3.018  13.979  0.0906  0.7878 -0.0070
  771MPD2     H11435   1.661   2.874  13.642 -2.2775  1.5063  0.4322
  771MPD2    H111436   1.737   2.820  14.049  0.2646  2.2500  1.3089
  771MPD2    H211437   1.704   3.210  13.906 -0.7958 -0.1043 -0.0499
  771MPD2    H311438   1.729   3.050  14.083  1.4488  0.6801  0.0607
  771MPD2     N11439   1.698   2.694  13.801  0.3105  0.6674  0.7281
  771MPD2    H511440   1.683   2.668  13.704  5.6953 -0.6695  0.2152
  771MPD2    N111441   1.701   3.135  13.630  0.0956 -0.2479  0.3224
  771MPD2    H711442   1.702   3.091  13.538 -1.0119  0.8948 -0.2309
  772MPD2     C11443   1.091   3.587  13.390  0.5088  0.0391  0.1109
  772MPD2    C111444   1.158   3.512  13.484  0.6419 -0.2979 -0.2989
  772MPD2    C211445   1.088   3.484  13.608 -0.4159  0.2460 -0.2625
  772MPD2    C311446   0.958   3.526  13.625  0.7590 -0.1981  0.1704
  772MPD2    C411447   0.899   3.599  13.529 -0.2884 -0.5138 -0.1293
  772MPD2    C511448   0.963   3.624  13.412 -0.3277  0.1810 -0.4733
  772MPD2     H11449   1.140   3.421  13.680  2.3711  0.9749 -1.6060
  772MPD2    H111450   0.803   3.646  13.547 -0.1165  0.4253 -1.7078
  772MPD2    H211451   1.133   3.604  13.292 -1.0937  0.2865 -0.5345
  772MPD2    H311452   0.910   3.685  13.340  0.8110  2.5260  0.6953
  772MPD2     N11453   0.877   3.490  13.737  0.1109  0.4660  0.3645
  772MPD2    H511454   0.779   3.514  13.729  0.4662  1.4671 -1.0887
  772MPD2    N111455   1.286   3.461  13.459 -0.5051 -0.0379 -0.0173
  772MPD2    H711456   1.324   3.403  13.533 -0.2948  0.1439  0.0162
  773MPD2     C11457   0.206   4.144  17.572  1.0045  0.4059 -0.5447
  773MPD2    C111458   0.145   4.027  17.524  0.0729  0.3999  0.1057
  773MPD2    C211459   0.154   3.915  17.601  0.3789  0.1072 -0.0984
  773MPD2    C311460   0.235   3.904  17.714 -0.9318  0.0998  0.1325
  773MPD2    C411461   0.312   4.015   0.012  0.2963  0.2855  0.3251
  773MPD2    C511462   0.288   4.133  17.683 -0.8941 -0.5330  0.6256
  773MPD2     H11463   0.097   3.826  17.577 -0.6866  0.7084  0.2166
  773MPD2    H111464   0.378   4.022   0.098 -0.8807  3.7847  0.9599
  773MPD2    H211465   0.180   4.238  17.524 -2.7252 -0.6106 -0.5728
  773MPD2    H311466   0.328   4.222  17.732 -0.9332 -0.2596  0.1577
  773MPD2     N11467   0.248   3.775   0.036 -0.1499  0.3440 -0.2593
  773MPD2    H511468   0.207   3.695  17.730 -0.2730 -0.3654  1.0746
  773MPD2    N111469   0.062   4.023  17.406 -0.2754  0.0969  0.4213
  773MPD2    H711470   0.001   3.943  17.394  0.7432 -0.7233  0.6970
  774MPD2     C11471   4.511   3.025  13.561 -0.1248  0.3720 -0.1915
  774MPD2    C111472   4.462   3.143  13.606 -0.5542  0.7846  0.2839
  774MPD2    C211473   4.529   3.259  13.574 -0.2967 -0.2578  0.7972
  774MPD2    C311474   4.650   3.267  13.506 -0.1193 -0.1245  0.2226
  774MPD2    C411475   4.692   3.143  13.448  0.8460 -0.0495 -0.3700
  774MPD2    C511476   4.624   3.031  13.482  0.3589 -0.0961  0.0040
  774MPD2     H11477   4.503   3.355  13.617 -1.1171 -1.4879  3.0867
  774MPD2    H111478   0.052   3.134  13.398  0.4570 -3.3347 -0.5371
  774MPD2    H211479   4.477   2.930  13.602 -0.6454  1.4487  1.8809
  774MPD2    H311480   4.655   2.938  13.436 -0.4214 -0.2638 -0.1919
  774MPD2     N11481   4.720   3.392  13.498  0.2968 -0.3728  0.6137
  774MPD2    H511482   4.679   3.461  13.560  0.0978  1.8164 -1.9456
  774MPD2    N111483   4.362   3.144  13.703  0.6967 -0.3954 -0.0246
  774MPD2    H711484   4.326   3.054  13.732  0.5274 -0.4355 -0.3622
  775MPD2     C11485   0.856   4.519  15.326 -0.2948  0.1033 -0.5542
  775MPD2    C111486   0.853   4.612  15.427 -0.2639  0.4469  0.0278
  775MPD2    C211487   0.958   4.707  15.416 -0.6853  0.0794 -0.0229
  775MPD2    C311488   1.049   4.718  15.310  0.5879 -0.4484  0.3455
  775MPD2    C411489   1.037   4.620  15.210 -0.6030 -0.7207  0.3574
  775MPD2    C511490   0.956   4.517  15.226  0.3131  0.7449  0.4619
  775MPD2     H11491   0.965   0.050  15.491  1.7341 -1.6776  1.6072
  775MPD2    H111492   1.107   4.624  15.126 -1.9656 -1.7244 -0.8215
  775MPD2    H211493   0.770   4.454  15.313 -0.1788  0.1766 -1.6770
  775MPD2    H311494   0.956   4.438  15.151 -0.7435  0.6755  0.5251
  775MPD2     N11495   1.139   0.085  15.284 -0.5186  0.3649 -0.5586
  775MPD2    H511496   1.181   0.078  15.192  0.8195  3.0050 -0.1517
  775MPD2    N111497   0.751   4.614  15.520 -0.0966 -0.4781 -0.0824
  775MPD2    H711498   0.697   4.528  15.518 -1.8859  0.6344 -0.5383
  776MPD2     C11499   1.029   0.565  11.386  0.3607  0.4322 -0.0795
  776MPD2    C111500   0.929   0.586  11.288  0.1239  0.3973 -0.2625
  776MPD2    C211501   0.912   0.712  11.235 -0.1461 -0.0345 -0.0141
  776MPD2    C311502   0.995   0.815  11.282  0.3066 -0.2450 -0.1892
  776MPD2    C411503   1.088   0.794  11.381 -0.5118  0.1315  0.3410
  776MPD2    C511504   1.105   0.668  11.437  0.1040  0.0224 -1.1184
  776MPD2     H11505   0.842   0.723  11.154 -1.7607  1.5570  1.5940
  776MPD2    H111506   1.153   0.872  11.419 -0.4255  0.9207 -1.4332
  776MPD2    H211507   1.053   0.465  11.419  0.6852  1.0379  1.5441
  776MPD2    H311508   1.188   0.656  11.506 -0.5051  0.0006 -0.3796
  776MPD2     N11509   1.001   0.940  11.219 -0.0368 -0.5953 -0.5292
  776MPD2    H511510   1.073   1.006  11.248  0.1362 -1.0616  0.1059
  776MPD2    N111511   0.840   0.479  11.257 -0.0097 -0.2109 -0.1512
  776MPD2    H711512   0.861   0.383  11.282 -1.8863 -0.6073 -0.0890
  777MPD2     C11513   0.775   1.884   0.723 -0.2174 -0.2167  0.0450
  777MPD2    C111514   0.639   1.897   0.744 -0.0675 -0.5780 -0.0797
  777MPD2    C211515   0.550   1.809   0.682  0.1481  0.6300  0.8407
  777MPD2    C311516   0.595   1.708   0.603  0.3666  0.1633 -0.0218
  777MPD2    C411517   0.733   1.701   0.588 -0.1245  0.2083 -0.0205
  777MPD2    C511518   0.823   1.789   0.644 -0.1428  0.1952  0.3006
  777MPD2     H11519   0.444   1.818   0.702 -0.6863 -1.5045 -2.6392
  777MPD2    H111520   0.776   1.617   0.534 -0.9323 -1.0067  1.2448
  777MPD2    H211521   0.847   1.947   0.774 -0.9653 -0.7009  1.7097
  777MPD2    H311522   0.926   1.766   0.620 -0.0191  0.7151  0.3346
  777MPD2     N11523   0.500   1.622   0.535 -0.1178  0.5086 -0.5626
  777MPD2    H511524   0.400   1.638   0.545 -0.4695 -0.9866 -1.6823
  777MPD2    N111525   0.603   2.014   0.813 -0.0149  0.3363 -0.2289
  777MPD2    H711526   0.680   2.075   0.839 -0.5518  0.8052  0.2556
  778MPD2     C11527   1.759   2.916  14.631  0.0559  0.1803  0.2100
  778MPD2    C111528   1.757   2.831  14.528 -0.1001 -0.3477 -0.4487
  778MPD2    C211529   1.824   2.863  14.412  0.1300  0.7542 -0.2367
  778MPD2    C311530   1.887   2.984  14.391 -0.1759  0.0818 -0.3198
  778MPD2    C411531   1.871   3.074  14.488 -0.3590 -0.0007 -0.5766
  778MPD2    C511532   1.824   3.032  14.611  0.4270 -0.2029  0.2446
  778MPD2     H11533   1.817   2.792  14.331  0.1808 -0.8074  1.1154
  778MPD2    H111534   1.917   3.172  14.486  1.8248 -1.0115 -0.2551
  778MPD2    H211535   1.727   2.896  14.733  1.2620  1.4026  0.8322
  778MPD2    H311536   1.806   3.103  14.691  1.3949  0.3079  0.0040
  778MPD2     N11537   1.942   3.011  14.264 -0.1184  0.4470  0.2922
  778MPD2    H511538   1.951   2.925  14.212  0.8254  0.7146  0.0157
  778MPD2    N111539   1.694   2.704  14.539 -0.7791  0.4285  0.2529
  778MPD2    H711540   1.714   2.640  14.462 -1.2699  0.3802  0.1653
  779MPD2     C11541   1.347   1.276  14.062  0.0969 -0.0984  0.4523
  779MPD2    C111542   1.473   1.301  14.112  0.0319  0.0607  0.4801
  779MPD2    C211543   1.513   1.433  14.111  0.1497 -0.0706 -0.4392
  779MPD2    C311544   1.429   1.537  14.063 -0.3909  0.1781  0.9826
  779MPD2    C411545   1.313   1.506  14.002  0.2950 -0.5635 -0.0027
  779MPD2    C511546   1.272   1.374  14.006 -0.2527 -0.5404 -0.6867
  779MPD2     H11547   1.610   1.463  14.149  0.8529 -2.1509 -0.5546
  779MPD2    H111548   1.252   1.570  13.941  1.9586  2.0780  1.1196
  779MPD2    H211549   1.303   1.179  14.047 -0.8194  0.7697 -2.5985
  779MPD2    H311550   1.177   1.354  13.958 -0.0288 -1.5182 -0.7167
  779MPD2     N11551   1.477   1.669  14.058  0.1224 -0.5986  1.0207
  779MPD2    H511552   1.567   1.687  14.101  0.3189 -3.1519  1.6701
  779MPD2    N111553   1.564   1.202  14.135  0.2905 -0.2440  0.0733
  779MPD2    H711554   1.650   1.228  14.182 -1.0492  1.1434  1.7454
  780MPD2     C11555   1.681   0.773   1.026 -0.6436 -0.6321 -0.3478
  780MPD2    C111556   1.566   0.808   0.956  0.6063  1.0565  0.4936
  780MPD2    C211557   1.571   0.919   0.878 -0.4988  0.3234  0.1636
  780MPD2    C311558   1.690   0.983   0.854 -0.2950 -0.2908 -0.2012
  780MPD2    C411559   1.806   0.950   0.927 -0.1906  0.6593 -0.8942
  780MPD2    C511560   1.795   0.846   1.015 -0.3041  0.3488 -0.1349
  780MPD2     H11561   1.485   0.964   0.830 -0.8226 -0.1799  0.2672
  780MPD2    H111562   1.897   1.009   0.925  0.0041  0.2875 -2.4918
  780MPD2    H211563   1.679   0.686   1.091 -0.5917 -0.5784 -0.2738
  780MPD2    H311564   1.877   0.819   1.081  1.3863  0.6106 -2.1143
  780MPD2     N11565   1.690   1.090   0.763  0.1977 -0.0789 -0.4871
  780MPD2    H511566   1.607   1.107   0.707 -1.2101 -0.6559  1.4122
  780MPD2    N111567   1.446   0.732   0.984  0.0833 -0.3611  0.6350
  780MPD2    H711568   1.461   0.647   1.038  1.2647 -0.1494  0.6377
  781MPD2     C11569   3.016   3.607  11.878  0.2120  0.4084 -0.3244
  781MPD2    C111570   3.047   3.551  12.001 -0.3108 -0.9457 -0.2037
  781MPD2    C211571   3.147   3.452  12.009 -0.7211  0.4562 -0.0019
  781MPD2    C311572   3.213   3.408  11.895  0.0810  0.0717 -0.4542
  781MPD2    C411573   3.182   3.464  11.769 -0.3955  0.0487  0.0122
  781MPD2    C511574   3.093   3.573  11.766 -0.7689  0.3913 -0.2434
  781MPD2     H11575   3.168   3.402  12.102 -1.4652  0.8434  0.3756
  781MPD2    H111576   3.215   3.424  11.674  0.1597  1.9056 -0.5641
  781MPD2    H211577   2.937   3.680  11.869 -0.2909 -0.1800 -0.7247
  781MPD2    H311578   3.083   3.629  11.673 -0.2787  0.7056 -0.1078
  781MPD2     N11579   3.321   3.315  11.894 -0.5087  0.0033 -0.5100
  781MPD2    H511580   3.372   3.296  11.809 -0.5126 -0.3472 -0.4337
  781MPD2    N111581   2.978   3.578  12.117 -0.4659  0.3030 -0.2668
  781MPD2    H711582   2.995   3.513  12.192  1.4656  0.9044 -0.1978
  782MPD2     C11583   1.347   3.671  10.261  0.0203 -0.2101 -0.4164
  782MPD2    C111584   1.449   3.725  10.337 -0.4651 -0.2093 -0.1743
  782MPD2    C211585   1.434   3.854  10.379 -0.4394 -0.3990  0.4385
  782MPD2    C311586   1.319   3.925  10.352  0.5681 -0.3075  0.1300
  782MPD2    C411587   1.213   3.871  10.281  0.2230 -0.2240  0.3840
  782MPD2    C511588   1.230   3.737  10.235 -0.4829 -0.3214  0.2711
  782MPD2     H11589   1.512   3.892  10.445  0.4541 -1.5604  0.0614
  782MPD2    H111590   1.123   3.927  10.258 -0.9248 -2.0769  0.3775
  782MPD2    H211591   1.357   3.565  10.243  2.6463 -0.1599  0.8055
  782MPD2    H311592   1.148   3.706  10.171 -1.4331  2.8958 -0.0718
  782MPD2     N11593   1.324   4.056  10.400  0.3471 -0.0969 -0.4773
  782MPD2    H511594   1.404   4.086  10.454 -0.9376  1.4387  0.5707
  782MPD2    N111595   1.562   3.649  10.373 -0.3798 -0.2535 -0.5115
  782MPD2    H711596   1.555   3.547  10.374 -2.3755 -0.1459 -3.7686
  783MPD2     C11597   1.223   3.444  11.119  0.3875 -0.5848  0.6577
  783MPD2    C111598   1.243   3.573  11.077 -0.7353  0.1140  0.5206
  783MPD2    C211599   1.345   3.604  10.979 -0.1562 -0.7007  0.0497
  783MPD2    C311600   1.426   3.501  10.934  0.1542  0.0975  0.0178
  783MPD2    C411601   1.400   3.374  10.979  0.1321  0.7869 -0.0866
  783MPD2    C511602   1.306   3.344  11.071 -0.4084  0.1249 -0.0092
  783MPD2     H11603   1.355   3.706  10.944  1.2863 -1.2894 -1.2933
  783MPD2    H111604   1.460   3.293  10.939  1.6107  1.1818  1.3161
  783MPD2    H211605   1.135   3.420  11.178  0.1222 -0.9189  0.1313
  783MPD2    H311606   1.280   3.244  11.101  2.0275 -0.0668  1.4947
  783MPD2     N11607   1.523   3.520  10.830 -0.0682  0.1646  0.0482
  783MPD2    H511608   1.527   3.608  10.779  0.0897 -0.4995 -1.0667
  783MPD2    N111609   1.148   3.672  11.122  0.7605 -0.4106  0.5993
  783MPD2    H711610   1.086   3.637  11.194 -0.4511 -0.7139 -0.5832
  784MPD2     C11611   2.933   3.702   0.369  0.6067  0.5367 -0.6468
  784MPD2    C111612   2.907   3.752   0.496  0.6900 -0.7128  0.7798
  784MPD2    C211613   2.790   3.818   0.527 -0.1398 -0.7214 -0.6071
  784MPD2    C311614   2.711   3.861   0.428 -0.1732  0.0409 -0.3638
  784MPD2    C411615   2.739   3.825   0.294  0.3207 -0.4582 -0.2259
  784MPD2    C511616   2.848   3.747   0.268 -0.0478  0.4711 -0.5419
  784MPD2     H11617   2.757   3.839   0.628  2.1386 -1.4803  0.2848
  784MPD2    H111618   2.676   3.850   0.210  1.2301 -3.0777 -1.6939
  784MPD2    H211619   3.028   3.655   0.346  0.8777  1.2250 -0.9600
  784MPD2    H311620   2.860   3.730   0.161  0.9590  0.1070 -0.3677
  784MPD2     N11621   2.597   3.942   0.469  0.4818  0.1202 -0.0206
  784MPD2    H511622   2.590   3.966   0.567 -0.3397  1.0048 -0.2999
  784MPD2    N111623   3.000   3.729   0.603 -0.0105  0.6072 -0.5187
  784MPD2    H711624   2.988   3.798   0.676  2.1381 -0.5426  0.8977
  785MPD2     C11625   3.036   3.623  11.062 -0.5724  0.2488 -0.2642
  785MPD2    C111626   3.110   3.610  11.176  0.4055  0.2213 -0.2173
  785MPD2    C211627   3.111   3.707  11.274  0.3228 -0.3917  0.4703
  785MPD2    C311628   3.037   3.826  11.253 -0.2268 -1.2765 -0.5654
  785MPD2    C411629   2.984   3.847  11.128  0.1947  0.0944 -0.1962
  785MPD2    C511630   2.975   3.744  11.030 -0.1500  0.1147 -0.4515
  785MPD2     H11631   3.167   3.690  11.366 -0.3084 -0.5097  0.8338
  785MPD2    H111632   2.931   3.937  11.102  3.1480  1.9587  0.2424
  785MPD2    H211633   3.039   3.558  10.975 -0.2847 -1.1128  0.7707
  785MPD2    H311634   2.917   3.761  10.940  0.1110  2.3225 -0.2256
  785MPD2     N11635   3.030   3.920  11.353  0.6189  0.0676 -0.3214
  785MPD2    H511636   3.058   3.891  11.446  0.4473  1.0749  0.0504
  785MPD2    N111637   3.182   3.496  11.212 -0.2097 -0.1290  0.1497
  785MPD2    H711638   3.227   3.498  11.303 -1.2103 -1.9354  0.6926
  786MPD2     C11639   1.779   0.712  14.674  0.1938 -0.4328 -0.6086
  786MPD2    C111640   1.891   0.647  14.721  0.0862  0.1356 -0.2435
  786MPD2    C211641   1.900   0.602  14.847 -0.0300  1.5731 -0.5255
  786MPD2    C311642   1.808   0.619  14.944 -0.0313  0.0330 -0.5277
  786MPD2    C411643   1.695   0.688  14.901  0.1515  0.0202  0.0355
  786MPD2    C511644   1.681   0.726  14.767  0.3153  0.0814 -0.6138
  786MPD2     H11645   1.992   0.553  14.875 -0.0348  1.1975 -1.1725
  786MPD2    H111646   1.620   0.717  14.973 -1.2727  1.4095 -2.0199
  786MPD2    H211647   1.762   0.756  14.577  2.4741 -0.3287 -0.9510
  786MPD2    H311648   1.590   0.777  14.739 -0.2840 -0.2413  0.7583
  786MPD2     N11649   1.844   0.596  15.075 -0.2313 -0.2941 -0.4300
  786MPD2    H511650   1.920   0.533  15.097 -0.1633  0.1415  0.5939
  786MPD2    N111651   2.002   0.624  14.635 -0.5398 -0.0128 -0.6356
  786MPD2    H711652   2.083   0.577  14.674  0.6343  0.8914 -1.9804
  787MPD2     C11653   2.294   0.123  14.776 -0.6004 -0.1506 -0.6179
  787MPD2    C111654   2.345   0.136  14.645  0.7952 -0.7266  0.3423
  787MPD2    C211655   2.417   0.025  14.589  0.0722  0.2555 -1.0722
  787MPD2    C311656   2.441   4.646  14.664  0.5770  0.0839 -0.0246
  787MPD2    C411657   2.381   4.637  14.788 -0.0358  0.1975 -0.3730
  787MPD2    C511658   2.314   0.008  14.842  0.3572  0.2377 -0.3471
  787MPD2     H11659   2.455   0.031  14.488 -0.2551 -2.7835 -1.3917
  787MPD2    H111660   2.408   4.555  14.854 -1.0364 -0.8870 -1.3116
  787MPD2    H211661   2.240   0.203  14.825  0.4929  1.3602 -1.8773
  787MPD2    H311662   2.274   4.731  14.942  0.6967 -0.1843 -0.2647
  787MPD2     N11663   2.521   4.545  14.604 -0.1374 -0.3996  0.0955
  787MPD2    H511664   2.567   4.568  14.517 -1.0919  2.0441  0.2388
  787MPD2    N111665   2.310   0.255  14.575  0.1924 -0.5272 -0.3692
  787MPD2    H711666   2.243   0.314  14.624  2.4881  0.5171  1.5240
  788MPD2     C11667   3.641   3.497   0.646  0.5354 -0.3921 -0.3316
  788MPD2    C111668   3.563   3.461   0.528 -0.4370  0.2073 -0.1426
  788MPD2    C211669   3.506   3.568   0.464 -0.4086 -0.1062  0.4023
  788MPD2    C311670   3.517   3.703   0.512 -0.4052  0.6404 -0.8417
  788MPD2    C411671   3.603   3.727   0.610  0.2976 -0.2213  0.0492
  788MPD2    C511672   3.664   3.627   0.674  0.3106 -0.1471  0.4511
  788MPD2     H11673   3.457   3.546   0.370  2.2782  0.3977 -1.1306
  788MPD2    H111674   3.621   3.829   0.642 -0.5743  0.3067 -1.1654
  788MPD2    H211675   3.702   3.425   0.700 -1.1152 -1.6480 -0.1294
  788MPD2    H311676   3.728   3.654   0.757  1.4457  1.4583 -0.9395
  788MPD2     N11677   3.459   3.814   0.451  0.7291  0.0369 -0.3132
  788MPD2    H511678   3.493   3.905   0.482  1.6719  0.5780 -2.8949
  788MPD2    N111679   3.556   3.335   0.472  0.1010 -0.1584 -0.0638
  788MPD2    H711680   3.496   3.325   0.391  1.5247 -1.6340 -0.9279
  789MPD2     C11681   4.153   3.414  16.860  0.0178 -0.3842  0.2126
  789MPD2    C111682   4.086   3.400  16.742  0.1119  0.0545 -0.9952
  789MPD2    C211683   4.008   3.497  16.698 -0.6123  0.5429 -0.0566
  789MPD2    C311684   3.984   3.609  16.777  0.5139 -0.1955  0.2649
  789MPD2    C411685   4.049   3.621  16.903  0.5964 -0.0605 -0.3007
  789MPD2    C511686   4.135   3.522  16.943  0.1166  0.1082 -0.3091
  789MPD2     H11687   3.946   3.470  16.612 -0.6220 -1.5203  0.6045
  789MPD2    H111688   4.034   3.707  16.967  0.1749  0.2278 -0.7869
  789MPD2    H211689   4.217   3.337  16.899  1.0743  1.0757  1.3743
  789MPD2    H311690   4.187   3.534  17.037 -1.1676  1.1154  0.2794
  789MPD2     N11691   3.880   3.712  16.749  0.0605 -0.5105  0.4828
  789MPD2    H511692   3.855   3.776  16.824 -0.4218 -1.0033  0.7436
  789MPD2    N111693   4.082   3.277  16.670  0.2053  0.0083  0.1649
  789MPD2    H711694   4.028   3.279  16.584 -0.2846 -0.3616  0.4645
  790MPD2     C11695   0.650   0.556  13.633  0.2637  0.6414 -0.4339
  790MPD2    C111696   0.668   0.433  13.573 -0.0658  0.0357 -0.2199
  790MPD2    C211697   0.644   0.431  13.437  0.9317 -0.1138  0.2903
  790MPD2    C311698   0.613   0.545  13.357  0.7008 -0.5874  0.2126
  790MPD2    C411699   0.605   0.663  13.420 -0.1139 -0.3845 -0.3815
  790MPD2    C511700   0.630   0.664  13.554  0.0419 -0.1811 -0.5012
  790MPD2     H11701   0.650   0.336  13.384 -1.8350  0.6162 -1.3456
  790MPD2    H111702   0.585   0.756  13.369 -1.0014  1.4287  3.2846
  790MPD2    H211703   0.672   0.563  13.738  1.4606  1.3420 -0.7247
  790MPD2    H311704   0.632   0.762  13.599  0.2973 -0.0081 -0.8861
  790MPD2     N11705   0.590   0.528  13.215 -0.2561  0.3668 -0.2723
  790MPD2    H511706   0.579   0.431  13.186  0.5694  0.4003 -0.7012
  790MPD2    N111707   0.686   0.318  13.650  0.0950  0.6699  0.2402
  790MPD2    H711708   0.674   0.323  13.751 -3.5824  0.2714 -0.1693
  791MPD2     C11709   0.107   0.299  12.563  0.4697 -0.5031 -0.1217
  791MPD2    C111710   0.166   0.255  12.676  0.0693 -0.3860  0.3524
  791MPD2    C211711   0.132   0.131  12.722 -0.3539  0.2063 -0.4533
  791MPD2    C311712   0.040   0.061  12.661  1.1277  0.3128  0.0421
  791MPD2    C411713   4.702   0.112  12.555 -0.3688 -0.2118  0.6370
  791MPD2    C511714   4.735   0.235  12.509 -0.4581  0.2309 -0.3091
  791MPD2     H11715   0.167   0.092  12.817 -0.5175 -0.5575 -0.7041
  791MPD2    H111716   4.609   0.068  12.520 -1.2234  1.1068  1.2896
  791MPD2    H211717   0.116   0.401  12.528 -1.1965  0.5285  2.4597
  791MPD2    H311718   4.680   0.277  12.425 -1.7357  0.6522  0.7432
  791MPD2     N11719   0.004   4.679  12.728  0.3121 -0.2372 -0.2207
  791MPD2    H511720   0.068   4.640  12.797 -0.8093 -1.5897  0.0518
  791MPD2    N111721   0.254   0.341  12.735  0.8667 -0.2607  0.2769
  791MPD2    H711722   0.271   0.435  12.700  2.4052 -0.4377  0.5386
  792MPD2     C11723   1.086   0.125  10.734  0.1895  0.4407 -0.0294
  792MPD2    C111724   0.975   0.192  10.774  0.1519  0.2276  0.0210
  792MPD2    C211725   0.863   0.120  10.816  0.5240 -0.1366  0.9765
  792MPD2    C311726   0.860   4.720  10.820  0.0253  0.5528 -0.0550
  792MPD2    C411727   0.973   4.657  10.774  0.6278  0.2848 -0.4390
  792MPD2    C511728   1.082   4.728  10.734 -0.3571  0.2399 -0.7010
  792MPD2     H11729   0.783   0.176  10.863 -0.2243  0.3678 -0.8796
  792MPD2    H111730   0.980   4.549  10.765 -1.1602 -0.0320  1.8588
  792MPD2    H211731   1.182   0.174  10.722  0.1330  0.4269 -0.5200
  792MPD2    H311732   1.170   4.670  10.708 -0.4354  0.3880 -1.3095
  792MPD2     N11733   0.745   4.653  10.856 -0.2211 -1.0086 -0.6721
  792MPD2    H511734   0.768   4.554  10.864  1.3229 -0.6543 -0.9059
  792MPD2    N111735   0.984   0.333  10.781  0.1052  0.2575  0.5034
  792MPD2    H711736   1.070   0.381  10.754  0.2787  0.0108  0.6228
  793MPD2     C11737   4.702   0.388  10.939 -0.2996  0.1738  0.0267
  793MPD2    C111738   0.097   0.380  10.893  0.5377  1.2088  0.1741
  793MPD2    C211739   0.178   0.266  10.920 -1.0393 -0.1611  0.3803
  793MPD2    C311740   0.126   0.157  10.984 -0.3145 -0.4646  0.8125
  793MPD2    C411741   4.729   0.172  11.029  0.6123  0.1237  0.7089
  793MPD2    C511742   4.653   0.282  11.012 -0.1932 -0.1400 -0.2482
  793MPD2     H11743   0.280   0.269  10.883 -0.8804  1.2838  0.9099
  793MPD2    H111744   4.687   0.083  11.076  1.3320 -0.8992 -0.5857
  793MPD2    H211745   4.641   0.477  10.936  0.0975  0.4425 -0.0946
  793MPD2    H311746   4.553   0.274  11.054 -1.2416  1.8799 -2.3845
  793MPD2     N11747   0.211   0.053  10.996  0.2336  1.0215  0.0052
  793MPD2    H511748   0.308   0.067  10.968  0.5637 -1.3065 -0.0550
  793MPD2    N111749   0.162   0.481  10.813 -0.1584 -0.3007 -0.1999
  793MPD2    H711750   0.261   0.467  10.797 -0.4509 -2.2922 -0.3020
  794MPD2     C11751   4.633   4.033  16.566  0.2013  1.1650 -0.2760
  794MPD2    C111752   4.569   4.145  16.623 -0.3061  0.3888  0.0888
  794MPD2    C211753   4.479   4.231  16.553  0.2383 -0.3421 -0.4805
  794MPD2    C311754   4.469   4.203  16.416  0.4596 -0.0062  0.3515
  794MPD2    C411755   4.536   4.094  16.359 -0.0818  0.5320  0.0007
  794MPD2    C511756   4.611   4.006  16.431 -0.5344  0.2832  0.7281
  794MPD2     H11757   4.444   4.319  16.605  1.2352 -0.1135 -0.1919
  794MPD2    H111758   4.519   4.070  16.255  1.5011  0.5042 -0.2477
  794MPD2    H211759   4.699   3.965  16.619 -0.5006  0.6091 -0.1175
  794MPD2    H311760   4.663   3.926  16.381 -1.5517  0.4534 -0.5892
  794MPD2     N11761   4.390   4.281  16.326  0.3744 -0.1599  0.3618
  794MPD2    H511762   4.383   4.251  16.229 -1.0290  0.0069  0.4051
  794MPD2    N111763   4.579   4.171  16.757 -0.0737  0.0743 -0.0358
  794MPD2    H711764   4.525   4.253  16.782  0.3864  0.7174 -1.1436
  795MPD2     C11765   3.420   1.673  13.006 -0.4250  0.2445  0.1444
  795MPD2    C111766   3.366   1.578  13.085  0.0364 -0.5225  0.7499
  795MPD2    C211767   3.433   1.463  13.117 -0.1565  0.3325 -0.4417
  795MPD2    C311768   3.564   1.451  13.076  0.0433  0.7827 -0.5068
  795MPD2    C411769   3.620   1.545  12.995 -0.1801  0.4691 -0.0146
  795MPD2    C511770   3.548   1.660  12.961 -0.1837  1.0131 -0.3154
  795MPD2     H11771   3.393   1.389  13.185  2.2476  0.1194  0.7491
  795MPD2    H111772   3.726   1.542  12.973 -0.2998  1.6904 -0.7700
  795MPD2    H211773   3.365   1.756  12.962  0.2997  0.2868 -0.6711
  795MPD2    H311774   3.597   1.734  12.899 -0.3210  0.3763 -1.1780
  795MPD2     N11775   3.636   1.343  13.135  0.9707 -0.1271 -0.1615
  795MPD2    H511776   3.577   1.280  13.189 -0.1805  1.6447  0.6264
  795MPD2    N111777   3.235   1.584  13.133 -0.3436 -0.1009 -0.2442
  795MPD2    H711778   3.204   1.499  13.179 -1.7300  0.3842 -0.2577
  796MPD2     C11779   1.875   2.764  15.629 -0.0389  0.4823 -0.1810
  796MPD2    C111780   1.924   2.857  15.720  0.4288  0.4578  0.1143
  796MPD2    C211781   1.929   2.991  15.697  0.8550 -0.3835  0.4872
  796MPD2    C311782   1.886   3.034  15.569 -0.4571  0.0559 -0.1443
  796MPD2    C411783   1.850   2.940  15.465  0.2835  0.0382  0.5040
  796MPD2    C511784   1.837   2.806  15.502 -0.4705  0.3891 -0.6288
  796MPD2     H11785   1.962   3.055  15.778 -1.4341 -1.3052  2.1615
  796MPD2    H111786   1.847   2.969  15.361 -0.5092 -0.8141  0.2916
  796MPD2    H211787   1.874   2.658  15.653 -1.5678  0.4298 -0.4834
  796MPD2    H311788   1.827   2.727  15.429  0.5006 -0.0679 -0.2623
  796MPD2     N11789   1.880   3.170  15.541  0.1019  0.2430  0.0238
  796MPD2    H511790   1.939   3.232  15.596 -0.3735  0.5908  0.1387
  796MPD2    N111791   1.965   2.795  15.844  0.7391 -0.3362  0.7602
  796MPD2    H711792   1.953   2.694  15.849  1.4097 -0.3795  1.4334
  797MPD2     C11793   3.192   2.471  16.865 -0.3318  0.3649 -0.6596
  797MPD2    C111794   3.204   2.577  16.956 -0.2888 -0.0427  0.2514
  797MPD2    C211795   3.088   2.629  17.008  0.6043  0.4572 -0.1041
  797MPD2    C311796   2.962   2.598  16.962 -0.7007  0.3262 -0.8734
  797MPD2    C411797   2.949   2.504  16.859 -0.3243  0.6350 -0.1741
  797MPD2    C511798   3.063   2.435  16.822  0.1120 -0.0416  0.1313
  797MPD2     H11799   3.106   2.718  17.067 -0.1859  0.7868 -0.3709
  797MPD2    H111800   2.858   2.460  16.818 -0.1776  0.7619 -0.6377
  797MPD2    H211801   3.281   2.423  16.827 -0.3170  0.9134 -1.3227
  797MPD2    H311802   3.048   2.364  16.741  0.8249 -0.7137  0.5887
  797MPD2     N11803   2.841   2.669  16.993 -1.0992 -0.7005  0.4739
  797MPD2    H511804   2.753   2.624  16.971  0.1716 -1.7944 -2.4360
  797MPD2    N111805   3.321   2.629  17.007  0.0628 -0.0587 -0.4763
  797MPD2    H711806   3.311   2.702  17.077 -1.8941  1.4099 -2.2940
  798MPD2     C11807   3.121   3.321  17.174 -0.3291 -0.3953 -0.0880
  798MPD2    C111808   3.089   3.184  17.164 -0.8199  0.6566 -1.1934
  798MPD2    C211809   3.186   3.087  17.149 -0.8918  0.1108 -0.0745
  798MPD2    C311810   3.322   3.123  17.150 -0.1605 -0.2074 -0.6268
  798MPD2    C411811   3.354   3.253  17.182  0.4092 -0.3790  0.0039
  798MPD2    C511812   3.256   3.351  17.190 -0.4372 -0.2391 -0.8009
  798MPD2     H11813   3.160   2.984  17.129  1.1599 -0.4785  0.3450
  798MPD2    H111814   3.454   3.278  17.216  0.5516 -0.2998 -0.4680
  798MPD2    H211815   3.043   3.393  17.193 -0.0339  0.1843 -1.0767
  798MPD2    H311816   3.299   3.449  17.208  1.5715 -1.3823  0.5124
  798MPD2     N11817   3.416   3.020  17.127  0.0721 -0.2765 -0.1594
  798MPD2    H511818   3.373   2.928  17.123  1.6399 -0.8828 -2.9472
  798MPD2    N111819   2.957   3.134  17.154 -0.2078 -0.2383  0.3580
  798MPD2    H711820   2.946   3.034  17.145 -2.4284  0.0927 -0.6287
  799MPD2     C11821   2.338   4.394  14.313  0.1928 -0.3078  0.1448
  799MPD2    C111822   2.216   4.334  14.318 -0.1443 -0.7389  0.3579
  799MPD2    C211823   2.109   4.382  14.247 -0.0936 -0.4143  0.4732
  799MPD2    C311824   2.127   4.496  14.166 -0.5331  0.2017  0.0039
  799MPD2    C411825   2.253   4.562  14.164  1.0430  0.0710  0.7909
  799MPD2    C511826   2.354   4.509  14.244 -0.3648 -0.3179  0.0190
  799MPD2     H11827   2.012   4.335  14.260 -0.6243  0.4174 -0.4661
  799MPD2    H111828   2.285   4.644  14.102 -1.1468  1.1044  1.0002
  799MPD2    H211829   2.429   4.356  14.358  1.0115  0.2392 -1.0478
  799MPD2    H311830   2.453   4.547  14.225 -0.7721 -0.1675 -1.8208
  799MPD2     N11831   2.040   4.541  14.061 -0.6721 -0.1977  0.3618
  799MPD2    H511832   2.068   4.614  13.996 -1.8504  0.3511  0.4627
  799MPD2    N111833   2.188   4.203  14.382  0.1728 -0.2721 -0.0596
  799MPD2    H711834   2.097   4.161  14.395  0.2833 -0.3906  0.3589
  800MPD2     C11835   2.706   0.873  13.873 -0.2728  1.0114 -0.5613
  800MPD2    C111836   2.837   0.883  13.831 -0.0712  0.2861  0.2388
  800MPD2    C211837   2.885   0.800  13.724 -0.0816 -0.3440 -0.4762
  800MPD2    C311838   2.799   0.710  13.663  0.2015 -0.1231 -0.3517
  800MPD2    C411839   2.671   0.699  13.707  1.2779 -0.3608  0.3256
  800MPD2    C511840   2.630   0.770  13.819  0.1765 -0.3046 -0.4195
  800MPD2     H11841   2.983   0.818  13.682 -0.4441 -2.9262 -2.4568
  800MPD2    H111842   2.603   0.630  13.657 -0.2751  1.6666 -0.3276
  800MPD2    H211843   2.658   0.940  13.942 -0.4066  0.6836 -0.3367
  800MPD2    H311844   2.524   0.766  13.840 -0.0507 -1.6220 -1.8235
  800MPD2     N11845   2.855   0.627  13.561  0.1587  0.6598 -0.7347
  800MPD2    H511846   2.955   0.630  13.544  0.7449 -1.1178  2.4291
  800MPD2    N111847   2.914   0.983  13.899 -0.3171  0.0556  0.3783
  800MPD2    H711848   2.869   1.024  13.980 -0.9060  0.5890 -0.2157
  801MPD2     C11849   2.839   1.559  14.290  0.9827  0.2695 -0.1343
  801MPD2    C111850   2.797   1.432  14.255 -1.3107 -0.3429  0.0645
  801MPD2    C211851   2.659   1.404  14.255  1.1275 -0.2894  0.0912
  801MPD2    C311852   2.566   1.501  14.294  0.1961 -0.0145  0.1921
  801MPD2    C411853   2.610   1.626  14.318  0.6463 -0.8368 -0.1223
  801MPD2    C511854   2.746   1.653  14.324  0.2483  0.2848  0.2256
  801MPD2     H11855   2.638   1.305  14.216  0.0350 -0.3210  0.7667
  801MPD2    H111856   2.545   1.713  14.322  1.7444  0.0125 -0.5634
  801MPD2    H211857   2.939   1.600  14.298  1.2649 -0.1275 -1.6784
  801MPD2    H311858   2.778   1.755  14.340  2.2768 -0.4478  0.8256
  801MPD2     N11859   2.428   1.495  14.289  0.3435  0.4267  0.1527
  801MPD2    H511860   2.375   1.582  14.289  1.3810  1.0702  0.3796
  801MPD2    N111861   2.893   1.324  14.231  0.2928 -0.4659  0.2991
  801MPD2    H711862   2.853   1.238  14.196  1.0107 -0.9619  0.7164
  802MPD2     C11863   1.189   1.761  17.304 -0.0470 -0.5741  0.1417
  802MPD2    C111864   1.323   1.791  17.310 -0.8595  0.5438 -0.2362
  802MPD2    C211865   1.414   1.706  17.247 -0.5243  0.2554 -0.1864
  802MPD2    C311866   1.370   1.595  17.185 -1.0026 -0.0287 -0.0822
  802MPD2    C411867   1.235   1.554  17.193 -0.0129  0.0749  0.7228
  802MPD2    C511868   1.144   1.640  17.260 -0.0918  0.0642 -0.5615
  802MPD2     H11869   1.518   1.736  17.239  0.1718 -2.4787 -1.1598
  802MPD2    H111870   1.187   1.461  17.163  0.1210  0.2865 -0.1316
  802MPD2    H211871   1.122   1.814  17.371  0.6686  2.0576 -1.2387
  802MPD2    H311872   1.041   1.615  17.283 -0.7077  2.8796 -0.2279
  802MPD2     N11873   1.465   1.525  17.117 -0.7639  0.4528 -0.2472
  802MPD2    H511874   1.546   1.579  17.087 -0.7189  1.8742  2.4708
  802MPD2    N111875   1.376   1.897  17.386  0.2668  0.4368 -0.9871
  802MPD2    H711876   1.477   1.903  17.391  0.2162  2.5017 -2.6593
  803MPD2     C11877   2.922   4.192  13.044  0.1871 -0.4158  0.5788
  803MPD2    C111878   3.030   4.247  12.970  0.4610 -1.0092  0.8085
  803MPD2    C211879   3.149   4.261  13.043 -0.4494  0.0012  0.5612
  803MPD2    C311880   3.154   4.239  13.182 -0.5695  0.3495  0.0988
  803MPD2    C411881   3.040   4.193  13.247  0.8764  0.9793  0.0744
  803MPD2    C511882   2.924   4.168  13.180  0.3738 -0.0733 -0.3685
  803MPD2     H11883   3.243   4.281  12.993 -0.6441  0.0518  0.2154
  803MPD2    H111884   3.041   4.175  13.354 -2.1844  0.5864  0.0111
  803MPD2    H211885   2.834   4.176  12.983  1.3514  0.4021 -1.3564
  803MPD2    H311886   2.834   4.126  13.223 -0.5214  1.1148 -1.0849
  803MPD2     N11887   3.270   4.265  13.260 -0.0569 -0.2999 -0.2476
  803MPD2    H511888   3.267   4.266  13.362 -1.3935  2.9105 -0.3140
  803MPD2    N111889   3.028   4.273  12.831  0.4464  0.6227 -0.5805
  803MPD2    H711890   3.116   4.311  12.797  0.6219 -0.2759 -1.1413
  804MPD2     C11891   2.441   1.239  16.959  1.0266  0.0985  0.3430
  804MPD2    C111892   2.422   1.203  17.087  0.0957 -0.2084 -0.0385
  804MPD2    C211893   2.487   1.282  17.185  0.5290  1.2776  0.1685
  804MPD2    C311894   2.564   1.395  17.149 -0.1336  0.4590 -0.2029
  804MPD2    C411895   2.582   1.425  17.020  0.0013 -0.3946 -0.1445
  804MPD2    C511896   2.519   1.344  16.925 -0.8618 -0.4755 -0.6380
  804MPD2     H11897   2.455   1.265  17.287 -0.8987 -1.2182 -0.6909
  804MPD2    H111898   2.639   1.509  16.983  0.9165  0.3888  3.0990
  804MPD2    H211899   2.406   1.181  16.874 -0.2659 -0.6383  1.3679
  804MPD2    H311900   2.535   1.370  16.821 -0.1137 -2.2912 -0.9756
  804MPD2     N11901   2.617   1.474  17.254 -0.4513 -0.2265  0.5575
  804MPD2    H511902   2.573   1.468  17.345 -1.0045  4.3610  0.5716
  804MPD2    N111903   2.331   1.097  17.121 -0.0451 -0.4613  0.7296
  804MPD2    H711904   2.303   1.086  17.218 -0.8910  1.4767  0.7001
  805MPD2     C11905   1.455   4.498  15.418 -0.0812 -0.5998 -0.0926
  805MPD2    C111906   1.524   4.603  15.352  0.5393  0.4417  0.8566
  805MPD2    C211907   1.622   4.663  15.436  0.1936  0.1834  0.4735
  805MPD2    C311908   1.655   4.626  15.561  0.3785  0.5565  0.1826
  805MPD2    C411909   1.581   4.525  15.618  0.1256  0.5806 -0.1393
  805MPD2    C511910   1.484   4.459  15.544  0.4372  0.3474 -0.0083
  805MPD2     H11911   1.679   0.010  15.394 -0.5447 -0.0404 -0.9431
  805MPD2    H111912   1.592   4.503  15.724  2.2464  0.7827 -0.3151
  805MPD2    H211913   1.375   4.450  15.364 -0.3014 -1.4887  1.0279
  805MPD2    H311914   1.432   4.376  15.593  0.7128  0.3998  0.3719
  805MPD2     N11915   1.753   4.703  15.618 -0.3188  0.1559  0.5803
  805MPD2    H511916   1.792   0.045  15.566 -1.1281  0.2256  0.0706
  805MPD2    N111917   1.507   4.646  15.220 -0.2034 -0.1351  0.5735
  805MPD2    H711918   1.561   4.727  15.191  0.0532 -1.0595 -1.5158
  806MPD2     C11919   1.930   4.297  17.212 -0.3132 -0.4764 -0.7707
  806MPD2    C111920   1.902   4.339  17.339 -0.8953 -0.1117  0.0280
  806MPD2    C211921   1.925   4.470  17.373 -0.1922 -0.7262  0.6338
  806MPD2    C311922   1.957   4.558  17.271 -0.7832 -0.0884  0.0189
  806MPD2    C411923   1.977   4.519  17.147  0.8340 -0.4394 -0.6399
  806MPD2    C511924   1.976   4.384  17.117 -0.0786 -0.6868  0.4071
  806MPD2     H11925   1.915   4.514  17.471  0.6683 -0.8745  0.7924
  806MPD2    H111926   1.994   4.590  17.067  0.0025  0.2004 -0.2428
  806MPD2    H211927   1.924   4.192  17.186  1.9280 -1.3057  1.9903
  806MPD2    H311928   2.001   4.353  17.016 -0.5231  0.0978  0.0644
  806MPD2     N11929   1.977   4.688  17.313  0.3044  0.8106 -0.0013
  806MPD2    H511930   1.975   4.700  17.414 -1.7925 -0.0669  0.0512
  806MPD2    N111931   1.845   4.255  17.438  0.1139  0.4188 -0.5261
  806MPD2    H711932   1.842   4.156  17.416 -1.0557  0.6016 -1.1882
  807MPD2     C11933   1.469   3.580  17.635 -0.0071 -1.0475  0.0010
  807MPD2    C111934   1.527   3.631   0.011 -0.6574  0.4580 -0.2524
  807MPD2    C211935   1.525   3.546   0.122 -0.3942  0.8916 -0.7499
  807MPD2    C311936   1.478   3.416   0.115 -0.8998 -0.1312  0.2532
  807MPD2    C411937   1.428   3.362  17.736  0.7265  0.2563 -0.0680
  807MPD2    C511938   1.425   3.451  17.631  0.1730 -0.1192 -0.4034
  807MPD2     H11939   1.561   3.585   0.217 -1.7872  1.2664 -0.3680
  807MPD2    H111940   1.392   3.261  17.720 -1.2068  1.0540 -0.7526
  807MPD2    H211941   1.475   3.650  17.552 -0.1109  1.4405  2.0741
  807MPD2    H311942   1.374   3.417  17.542 -1.2455  1.2852 -0.1093
  807MPD2     N11943   1.472   3.345   0.240  0.0143  0.2371  0.3490
  807MPD2    H511944   1.515   3.386   0.322  0.1239  1.7094 -0.4473
  807MPD2    N111945   1.584   3.759   0.021  0.0492  0.2510  0.5646
  807MPD2    H711946   1.630   3.786   0.107  1.7338  0.2510 -0.3388
  808MPD2     C11947   2.564   1.386   9.877 -0.8365  0.1701 -0.6290
  808MPD2    C111948   2.579   1.399  10.013 -0.1856 -0.5884  0.7562
  808MPD2    C211949   2.636   1.515  10.064 -0.5831  0.1951  0.4574
  808MPD2    C311950   2.682   1.607   9.969  0.6099  0.9209 -0.0239
  808MPD2    C411951   2.659   1.594   9.834  0.2287 -0.2669 -0.8547
  808MPD2    C511952   2.594   1.483   9.793  0.1136  0.6533 -0.4031
  808MPD2     H11953   2.649   1.523  10.171  0.3503 -0.2852  0.3782
  808MPD2    H111954   2.691   1.665   9.759  2.1402 -1.2997 -1.0226
  808MPD2    H211955   2.538   1.296   9.821 -0.6112 -0.4056  0.1820
  808MPD2    H311956   2.582   1.476   9.685 -1.1137 -0.8011 -0.1641
  808MPD2     N11957   2.746   1.729  10.004  0.0371 -0.3538 -0.5788
  808MPD2    H511958   2.799   1.778   9.933  3.2332 -1.9960  0.6658
  808MPD2    N111959   2.554   1.297  10.099  0.1423 -0.5852  0.5891
  808MPD2    H711960   2.577   1.320  10.195 -1.8044 -3.6227  1.7921
  809MPD2     C11961   3.543   1.760   9.738 -0.5645 -0.5047 -1.0299
  809MPD2    C111962   3.562   1.815   9.866 -0.2728 -0.4390  0.5534
  809MPD2    C211963   3.457   1.851   9.953  0.2951 -0.4290  0.1675
  809MPD2    C311964   3.330   1.826   9.905 -0.6271  0.0690  0.1447
  809MPD2    C411965   3.312   1.749   9.788 -0.8785  0.5042 -0.4931
  809MPD2    C511966   3.418   1.726   9.707  0.4184 -0.4941  0.6762
  809MPD2     H11967   3.481   1.917  10.035  1.2806  0.8486 -1.1394
  809MPD2    H111968   3.215   1.716   9.751 -1.4588  1.1613  0.4418
  809MPD2    H211969   3.623   1.737   9.669  0.3548 -1.4745  0.3513
  809MPD2    H311970   3.409   1.680   9.609 -3.2324  0.7418  0.4447
  809MPD2     N11971   3.214   1.861   9.975  1.1626 -0.1978 -0.2001
  809MPD2    H511972   3.130   1.840   9.923  1.5856  0.0193 -0.9710
  809MPD2    N111973   3.688   1.837   9.919 -0.0607 -0.5986  0.1721
  809MPD2    H711974   3.697   1.886  10.008  0.2452  0.8797 -0.6710
  810MPD2     C11975   2.224   0.962  11.121 -0.2252  0.2151  0.1809
  810MPD2    C111976   2.191   0.902  11.000 -0.1001 -0.4029 -0.8966
  810MPD2    C211977   2.148   0.981  10.896 -0.5112 -0.2645  0.3873
  810MPD2    C311978   2.152   1.119  10.901 -0.2476  0.6420  0.6677
  810MPD2    C411979   2.194   1.177  11.020 -0.1419  0.3433 -0.7818
  810MPD2    C511980   2.222   1.096  11.132  0.5663  0.8772 -0.5037
  810MPD2     H11981   2.112   0.938  10.803 -1.6144 -0.5060  0.9277
  810MPD2    H111982   2.211   1.284  11.028  1.1647  0.1439 -0.8291
  810MPD2    H211983   2.277   0.913  11.202  0.5915 -0.8672 -0.9951
  810MPD2    H311984   2.269   1.148  11.215 -1.4054  1.7513  0.0718
  810MPD2     N11985   2.109   1.209  10.800  0.6698 -0.4846  0.0130
  810MPD2    H511986   2.113   1.308  10.823  0.2268 -0.3728 -0.4011
  810MPD2    N111987   2.200   0.759  10.991  0.2229  0.1017  0.1926
  810MPD2    H711988   2.236   0.715  11.075 -1.2573 -2.0828 -0.3337
  811MPD2     C11989   2.167   0.359  10.314  0.7436  0.2266  0.3552
  811MPD2    C111990   2.165   0.466  10.401  0.1138  0.5126 -0.5937
  811MPD2    C211991   2.117   0.589  10.361  0.2693 -0.1381  0.0491
  811MPD2    C311992   2.083   0.612  10.225  0.1973  0.6838 -0.5071
  811MPD2    C411993   2.103   0.509  10.137 -0.3585 -0.1221  0.5720
  811MPD2    C511994   2.141   0.389  10.184 -0.6476  0.2329 -0.0560
  811MPD2     H11995   2.113   0.666  10.436 -1.8043  1.7597 -2.0142
  811MPD2    H111996   2.093   0.529  10.031  0.3625  0.2293  0.5685
  811MPD2    H211997   2.184   0.255  10.338 -0.4459  0.0565  0.4616
  811MPD2    H311998   2.156   0.306  10.116 -0.1610 -0.7429  1.2653
  811MPD2     N11999   2.047   0.744  10.184 -0.1118  0.7729  0.3951
  811MPD2    H512000   2.038   0.815  10.256  2.3315  0.4157  1.0566
  811MPD2    N112001   2.210   0.454  10.537 -0.0361  0.6049 -0.1371
  811MPD2    H712002   2.208   0.541  10.590 -3.0507  1.2594 -1.3174
  812MPD2     C12003   1.618   0.629  11.922  0.0360 -0.6858  0.4145
  812MPD2    C112004   1.546   0.694  12.023 -0.9831 -0.3836  0.5217
  812MPD2    C212005   1.490   0.617  12.130 -0.4731  0.3752  1.0703
  812MPD2    C312006   1.533   0.486  12.151 -0.0204 -0.5292  1.1801
  812MPD2    C412007   1.596   0.427  12.051 -0.5699  0.5699  0.4465
  812MPD2    C512008   1.627   0.497  11.936 -0.0655  0.4206 -0.5702
  812MPD2     H12009   1.426   0.668  12.201 -0.0027  1.2329  0.8927
  812MPD2    H112010   1.639   0.328  12.041 -0.3327  0.6926  0.2584
  812MPD2    H212011   1.649   0.679  11.831 -2.2536 -0.4248 -0.2216
  812MPD2    H312012   1.683   0.440  11.863  1.7519  1.9650 -0.3756
  812MPD2     N12013   1.499   0.420  12.271 -0.1644 -0.0031  0.1862
  812MPD2    H512014   1.459   0.480  12.343  2.0578 -0.6546  1.9774
  812MPD2    N112015   1.524   0.831  11.992  0.9518 -0.2853  0.0161
  812MPD2    H712016   1.580   0.871  11.917 -1.1670  2.2746 -0.1847
  813MPD2     C12017   1.029   2.335  13.033  0.1735  0.2077 -0.6094
  813MPD2    C112018   0.936   2.435  13.002 -0.2102 -0.3256 -0.0031
  813MPD2    C212019   0.811   2.420  13.049 -0.9307  0.0711 -0.7817
  813MPD2    C312020   0.773   2.318  13.134  0.3366  1.0123  0.1044
  813MPD2    C412021   0.860   2.220  13.155  0.3839 -0.7683 -0.4169
  813MPD2    C512022   0.987   2.227  13.105  0.8069 -0.8845  0.0117
  813MPD2     H12023   0.747   2.504  13.025 -2.1187 -0.5468  0.2122
  813MPD2    H112024   0.820   2.131  13.202  1.0706 -1.8770 -1.9173
  813MPD2    H212025   1.135   2.346  13.013  0.8135 -1.7658  1.6647
  813MPD2    H312026   1.055   2.148  13.135  1.9501  0.7134  1.6400
  813MPD2     N12027   0.639   2.315  13.173  0.1726  0.3566 -1.3358
  813MPD2    H512028   0.579   2.387  13.133  0.1679  1.2169  0.2113
  813MPD2    N112029   0.995   2.548  12.944  0.0028  0.0975 -0.4954
  813MPD2    H712030   1.096   2.558  12.952 -0.1322 -1.1342  2.6958
  814MPD2     C12031   0.741   4.145  12.327 -0.0003  0.3065 -0.1015
  814MPD2    C112032   0.866   4.087  12.320  0.5411  0.1772 -0.1477
  814MPD2    C212033   0.974   4.156  12.271  0.0517 -0.7865 -0.0018
  814MPD2    C312034   0.967   4.286  12.225 -0.0195  0.2907 -0.1671
  814MPD2    C412035   0.841   4.345  12.235  0.0244 -0.2516  0.0137
  814MPD2    C512036   0.728   4.277  12.282  0.2412 -0.1011 -0.1044
  814MPD2     H12037   1.068   4.104  12.278  0.1403 -0.5173  0.8566
  814MPD2    H112038   0.826   4.451  12.217 -1.7308 -0.2547  1.4825
  814MPD2    H212039   0.653   4.101  12.372  1.2252 -2.3063 -0.2883
  814MPD2    H312040   0.636   4.331  12.296  0.3591  0.3057 -0.8939
  814MPD2     N12041   1.075   4.370  12.184 -0.1819 -0.1538 -0.4832
  814MPD2    H512042   1.044   4.465  12.169 -2.3180 -0.4827  1.9429
  814MPD2    N112043   0.873   3.947  12.348  0.0331  0.1338 -0.7413
  814MPD2    H712044   0.967   3.922  12.377 -0.7482  0.5334  2.0895
  815MPD2     C12045   1.500   2.539  11.320  0.2065 -0.0168 -0.2413
  815MPD2    C112046   1.432   2.419  11.345  0.2605 -0.0003 -0.4740
  815MPD2    C212047   1.325   2.414  11.435  0.3627 -0.5807 -0.8353
  815MPD2    C312048   1.283   2.531  11.492  0.0546 -0.6145  0.2712
  815MPD2    C412049   1.357   2.648  11.479 -0.1837  0.2353  0.0589
  815MPD2    C512050   1.459   2.651  11.389 -0.2418 -0.5955 -0.1507
  815MPD2     H12051   1.279   2.316  11.441  0.2404 -0.5733 -1.6837
  815MPD2    H112052   1.310   2.738  11.516 -1.2784 -0.5542  0.5799
  815MPD2    H212053   1.582   2.546  11.250 -0.6970  0.3542 -1.2560
  815MPD2    H312054   1.520   2.740  11.379 -1.2023 -0.1649 -2.1531
  815MPD2     N12055   1.158   2.520  11.560  0.3106 -0.0862  0.5626
  815MPD2    H512056   1.116   2.428  11.557 -0.5783  0.3772 -1.2393
  815MPD2    N112057   1.469   2.305  11.270 -0.1727  0.0681  0.1037
  815MPD2    H712058   1.427   2.223  11.313  0.9830 -1.3638 -1.4547
  816MPD2     C12059   0.956   0.749  17.288 -1.0427 -0.0204  0.3076
  816MPD2    C112060   1.024   0.862  17.289 -0.0897 -0.4051 -0.4699
  816MPD2    C212061   1.137   0.883  17.218  0.9815 -0.0273 -0.7733
  816MPD2    C312062   1.186   0.776  17.147  0.0434 -0.7978 -0.1599
  816MPD2    C412063   1.120   0.650  17.160  0.4455 -0.0476 -0.4036
  816MPD2    C512064   1.009   0.636  17.231  0.9175  0.2602  1.1274
  816MPD2     H12065   1.180   0.982  17.205 -0.0906  0.3267 -1.6844
  816MPD2    H112066   1.169   0.568  17.109 -0.3784 -1.0888  0.4787
  816MPD2    H212067   0.873   0.736  17.356 -1.1969  1.1345  0.3467
  816MPD2    H312068   0.973   0.534  17.238 -1.1510  0.8389 -0.9520
  816MPD2     N12069   1.291   0.804  17.060 -0.2960 -0.4550  0.4083
  816MPD2    H512070   1.311   0.902  17.044  0.7290 -0.5278  1.2653
  816MPD2    N112071   0.957   0.966  17.361  0.0699  0.2341  0.0811
  816MPD2    H712072   0.863   0.944  17.393  0.2768  0.5725  0.9326
  817MPD2     C12073   0.329   2.681   9.112 -0.3257 -0.3374  0.4449
  817MPD2    C112074   0.306   2.573   9.027 -0.6561 -0.2041  0.0545
  817MPD2    C212075   0.186   2.575   8.950  0.4155 -0.1808  0.6880
  817MPD2    C312076   0.103   2.684   8.938 -0.3329  0.6160  0.0138
  817MPD2    C412077   0.137   2.792   9.016 -0.3174 -0.8966  0.1482
  817MPD2    C512078   0.247   2.789   9.101 -0.1151 -0.1192  0.3740
  817MPD2     H12079   0.161   2.481   8.900 -0.4802 -1.8567  4.3214
  817MPD2    H112080   0.082   2.885   9.025  0.1983 -0.7073  1.4115
  817MPD2    H212081   0.411   2.680   9.183  0.9346  0.8671 -0.9859
  817MPD2    H312082   0.257   2.871   9.171 -1.7002  2.8988 -2.9176
  817MPD2     N12083   4.725   2.675   8.856 -0.3111 -0.1933 -0.3835
  817MPD2    H512084   4.717   2.586   8.806 -0.9047 -0.0802 -0.4908
  817MPD2    N112085   0.394   2.462   9.030 -0.2657  0.5570  0.0773
  817MPD2    H712086   0.373   2.392   8.959  0.1046  1.8076 -1.2603
  818MPD2     C12087   0.425   2.966  10.181  0.5678  0.5598  0.0366
  818MPD2    C112088   0.289   2.960  10.152  0.2013 -0.0178  0.6576
  818MPD2    C212089   0.245   2.901  10.032 -0.4286  0.2526 -0.1781
  818MPD2    C312090   0.340   2.840   9.950 -0.5717  0.3443 -0.7358
  818MPD2    C412091   0.470   2.837   9.982  0.4233 -0.8677 -0.4662
  818MPD2    C512092   0.511   2.909  10.089 -0.7686  0.3683 -0.7811
  818MPD2     H12093   0.138   2.898  10.016 -0.6547  2.1772  0.9312
  818MPD2    H112094   0.544   2.776   9.930 -0.3046 -0.2863 -2.1962
  818MPD2    H212095   0.459   3.008  10.275 -0.9252 -0.2476  0.9385
  818MPD2    H312096   0.618   2.909  10.104 -0.7019 -1.0959 -1.2676
  818MPD2     N12097   0.291   2.747   9.856  0.1740  0.1502  0.0129
  818MPD2    H512098   0.353   2.673   9.824 -0.2972  0.6873 -2.0888
  818MPD2    N112099   0.185   3.002  10.242  0.3227  0.6034 -0.1286
  818MPD2    H712100   0.091   2.994  10.206  0.3061  0.3901 -0.0319
  819MPD2     C12101   2.404   4.302  15.474 -0.0631 -0.4005 -1.0705
  819MPD2    C112102   2.428   4.183  15.402  0.2709  0.1843  0.1705
  819MPD2    C212103   2.537   4.103  15.427 -0.2714  0.0100 -0.4798
  819MPD2    C312104   2.627   4.146  15.522 -0.2845  0.0108  1.1289
  819MPD2    C412105   2.608   4.268  15.580 -0.3017  0.6998 -0.1712
  819MPD2    C512106   2.496   4.340  15.570  0.4345  0.3840 -0.2069
  819MPD2     H12107   2.549   4.008  15.376 -0.9613 -1.0528  1.3451
  819MPD2    H112108   2.684   4.305  15.647  0.5212 -0.6323 -0.3764
  819MPD2    H212109   2.317   4.366  15.463 -0.0322  0.0330  1.2150
  819MPD2    H312110   2.489   4.430  15.631 -0.3706  0.0755  0.1564
  819MPD2     N12111   2.736   4.061  15.554 -0.5367  0.2901  0.2162
  819MPD2    H512112   2.750   3.979  15.495  1.6542  1.4330 -0.8507
  819MPD2    N112113   2.339   4.142  15.304 -0.0165 -0.6533 -0.3152
  819MPD2    H712114   2.255   4.197  15.283  1.4128  0.8139 -2.2896
  820MPD2     C12115   2.033   4.603  14.610  0.2431 -0.0533 -0.1139
  820MPD2    C112116   1.936   4.576  14.711 -0.4632 -0.0928 -0.1956
  820MPD2    C212117   1.957   4.466  14.791  0.4395  0.1105  1.0442
  820MPD2    C312118   2.070   4.391  14.777 -0.3602  0.2058 -0.4749
  820MPD2    C412119   2.165   4.420  14.682  0.4673  0.4606  0.4706
  820MPD2    C512120   2.152   4.534  14.606 -0.0859 -0.6661  0.1508
  820MPD2     H12121   1.875   4.444  14.859  0.4019  1.3390  1.4085
  820MPD2    H112122   2.254   4.359  14.679 -0.4516 -0.8324 -0.8088
  820MPD2    H212123   2.007   4.664  14.524  0.9477  0.2078 -0.1397
  820MPD2    H312124   2.224   4.546  14.527 -0.5747 -2.8539 -0.6297
  820MPD2     N12125   2.095   4.286  14.867  0.5209  0.0939 -0.1221
  820MPD2    H512126   2.187   4.244  14.860  0.9771  1.0997 -0.2424
  820MPD2    N112127   1.819   4.653  14.732  0.1459 -0.2463 -0.3658
  820MPD2    H712128   1.781   4.701  14.651 -0.9308 -0.6252 -0.0823
  821MPD2     C12129   3.146   0.448  12.816 -0.5892 -0.3190  0.1421
  821MPD2    C112130   3.200   0.527  12.916  0.7136 -0.2162  1.1468
  821MPD2    C212131   3.317   0.600  12.886  0.6489 -0.3517  0.1565
  821MPD2    C312132   3.382   0.596  12.765 -0.1627  0.0581  0.1451
  821MPD2    C412133   3.314   0.525  12.665  0.5901  0.0141  0.1690
  821MPD2    C512134   3.202   0.456  12.694 -0.0548  0.6326 -0.2560
  821MPD2     H12135   3.371   0.651  12.965  0.2932  1.6886 -0.8884
  821MPD2    H112136   3.358   0.492  12.572 -1.0907 -1.9595  0.0615
  821MPD2    H212137   3.055   0.393  12.835 -0.6686 -0.0901  0.4321
  821MPD2    H312138   3.156   0.403  12.611 -0.1475 -1.4561  1.1503
  821MPD2     N12139   3.519   0.634  12.748 -0.2662 -0.7892 -0.6754
  821MPD2    H512140   3.550   0.627  12.651  1.3093  1.8853 -0.3488
  821MPD2    N112141   3.170   0.525  13.050 -0.4510  0.2469  0.3970
  821MPD2    H712142   3.228   0.588  13.105  0.1543 -1.1812  1.4073
  822MPD2     C12143   3.367   0.709  15.708 -0.2599  0.0751  0.0532
  822MPD2    C112144   3.366   0.686  15.841  0.7364 -0.1250  0.1807
  822MPD2    C212145   3.274   0.752  15.920 -0.6363  0.6660  0.1192
  822MPD2    C312146   3.179   0.844  15.873 -0.0933  0.2439 -0.8338
  822MPD2    C412147   3.182   0.867  15.732  0.6878  0.3079  0.5000
  822MPD2    C512148   3.278   0.797  15.660  0.7029  0.1641  0.1345
  822MPD2     H12149   3.283   0.743  16.027  0.1815  1.7011  0.1366
  822MPD2    H112150   3.119   0.940  15.683  2.0165  0.1914 -1.4251
  822MPD2    H212151   3.435   0.668  15.634  0.1281  0.2856  0.2912
  822MPD2    H312152   3.291   0.819  15.554  0.6829  0.6243  0.2282
  822MPD2     N12153   3.095   0.914  15.962 -0.7700  0.0326  0.2474
  822MPD2    H512154   3.113   0.898  16.061  1.8638  1.0127 -0.0778
  822MPD2    N112155   3.451   0.588  15.899  0.5825 -0.3867  0.2342
  822MPD2    H712156   3.443   0.576  16.000 -1.9827  2.3449  0.3744
  823MPD2     C12157   2.667   1.006  16.710  0.0027 -0.4621  0.9365
  823MPD2    C112158   2.747   0.938  16.615  0.2185 -0.2197  0.4960
  823MPD2    C212159   2.818   0.829  16.658 -0.2247  0.7604 -0.6010
  823MPD2    C312160   2.801   0.788  16.786  0.0998  0.3806 -0.5257
  823MPD2    C412161   2.713   0.839  16.881 -1.0402 -0.2928 -0.2040
  823MPD2    C512162   2.642   0.950  16.840  0.6091  0.3547  0.5024
  823MPD2     H12163   2.896   0.795  16.591  0.8016 -0.6568  1.3384
  823MPD2    H112164   2.698   0.791  16.977 -1.3153 -0.3417 -0.2696
  823MPD2    H212165   2.612   1.096  16.682  1.2625 -0.1516 -0.5020
  823MPD2    H312166   2.575   1.002  16.907 -1.1320 -1.9573  0.5866
  823MPD2     N12167   2.881   0.686  16.839  0.4993 -0.4020 -0.1124
  823MPD2    H512168   2.848   0.640  16.923  2.5654  1.0007  1.4879
  823MPD2    N112169   2.757   0.996  16.483  0.3974  0.3099  0.2996
  823MPD2    H712170   2.720   1.091  16.479 -0.0744  0.1724  1.2252
  824MPD2     C12171   3.796   4.514  16.119 -0.4478  0.4423  0.3917
  824MPD2    C112172   3.804   4.589  16.010 -0.0184 -0.5673  0.4849
  824MPD2    C212173   3.889   4.555  15.908 -0.4732  0.2128  0.2245
  824MPD2    C312174   3.962   4.439  15.913 -0.4797 -0.3042  0.6978
  824MPD2    C412175   3.963   4.367  16.030  0.2839  0.0795  0.1388
  824MPD2    C512176   3.883   4.409  16.134  0.1818 -0.0400 -0.2156
  824MPD2     H12177   3.901   4.618  15.820 -0.8085 -2.2616 -1.5707
  824MPD2    H112178   4.019   4.278  16.055  1.5970  1.1657  1.0336
  824MPD2    H212179   3.736   4.544  16.205  2.6778 -2.3897  3.5685
  824MPD2    H312180   3.875   4.349  16.224 -2.5185  0.8317  0.1231
  824MPD2     N12181   4.040   4.401  15.794 -0.1880  0.7129  0.0610
  824MPD2    H512182   4.044   4.465  15.715  1.9105 -1.3526 -1.5136
  824MPD2    N112183   3.727   4.710  16.007  0.0388 -0.2391 -0.2399
  824MPD2    H712184   3.668   4.719  16.089  0.2154  1.1408 -0.2669
  825MPD2     C12185   4.470   4.607  15.085 -0.9042  0.3681 -0.2005
  825MPD2    C112186   4.415   4.637  15.206  0.4713 -0.1290  0.4235
  825MPD2    C212187   4.391   0.031  15.241  0.4422  0.1711  0.4245
  825MPD2    C312188   4.426   0.133  15.155 -0.0367  0.0958 -0.7899
  825MPD2    C412189   4.491   0.104  15.036 -0.1762  0.4245  0.0355
  825MPD2    C512190   4.505   4.707  15.001  0.4141 -0.3372  0.4583
  825MPD2     H12191   4.325   0.061  15.322 -0.8016 -1.4458 -0.0132
  825MPD2    H112192   4.514   0.179  14.961  0.0514  1.5817  1.2641
  825MPD2    H212193   4.471   4.504  15.054  1.0554  0.6893 -1.2357
  825MPD2    H312194   4.556   4.680  14.910  1.5782  1.1429  0.6888
  825MPD2     N12195   4.407   0.270  15.180  0.2055 -0.4947 -0.3044
  825MPD2    H512196   4.419   0.339  15.106 -0.4225 -1.8117 -1.6405
  825MPD2    N112197   4.378   4.524  15.280  0.6681  0.2979 -0.1484
  825MPD2    H712198   4.421   4.437  15.251  0.3105  0.3744 -0.9001
  826MPD2     C12199   4.587   0.040  13.584  0.3214  0.2376  0.3620
  826MPD2    C112200   4.568   0.093  13.456  0.3711 -0.8214  0.1114
  826MPD2    C212201   4.454   0.160  13.416  0.4633 -0.1591 -0.2065
  826MPD2    C312202   4.354   0.166  13.511  0.5418  0.4141  0.3314
  826MPD2    C412203   4.373   0.101  13.633  0.4878  0.2155 -0.0478
  826MPD2    C512204   4.490   0.045  13.676 -0.9529 -0.8396  0.1972
  826MPD2     H12205   4.440   0.189  13.313  0.8851 -0.3660 -0.3239
  826MPD2    H112206   4.295   0.106  13.708  0.5949  1.4128 -0.0173
  826MPD2    H212207   4.672   4.711  13.605  0.5151  0.9965  1.9223
  826MPD2    H312208   4.501   0.008  13.777 -2.2297 -1.8676 -0.0345
  826MPD2     N12209   4.229   0.225  13.501 -0.5074 -0.2949  0.4718
  826MPD2    H512210   4.163   0.204  13.574 -1.3996 -0.9087 -0.5164
  826MPD2    N112211   4.677   0.076  13.367 -0.2076  0.3394 -0.3965
  826MPD2    H712212   0.016   0.017  13.403 -0.2994  0.5013  0.0519
  827MPD2     C12213   0.192   1.871   9.727  0.5666 -0.0218 -0.6209
  827MPD2    C112214   0.165   1.776   9.820  1.1682 -0.4181  0.2791
  827MPD2    C212215   0.049   1.706   9.814  0.7909  0.0601 -0.3253
  827MPD2    C312216   4.689   1.730   9.721  0.1554 -0.4214 -0.2826
  827MPD2    C412217   4.711   1.834   9.631 -0.2843 -0.2078 -0.1148
  827MPD2    C512218   0.100   1.896   9.632 -0.5029 -0.4782  0.4059
  827MPD2     H12219   0.030   1.626   9.884 -0.6603  1.7987  1.2683
  827MPD2    H112220   4.636   1.868   9.561  0.6904  0.7506 -0.7059
  827MPD2    H212221   0.275   1.939   9.731  0.5256 -0.1312  2.1116
  827MPD2    H312222   0.117   1.967   9.552 -0.5090 -1.2441 -0.2733
  827MPD2     N12223   4.574   1.653   9.728  0.2060 -0.7211  0.6851
  827MPD2    H512224   4.551   1.588   9.802 -1.4340 -1.0883 -0.1572
  827MPD2    N112225   0.263   1.754   9.915 -0.1870 -0.1339  0.4673
  827MPD2    H712226   0.347   1.808   9.900 -0.2552 -0.5359 -1.3579
  828MPD2     C12227   3.805   1.184  11.524  0.2350  0.1286  0.1239
  828MPD2    C112228   3.717   1.292  11.527 -0.3198 -0.0184  0.8567
  828MPD2    C212229   3.663   1.338  11.409  0.5156  1.0020  0.2131
  828MPD2    C312230   3.690   1.270  11.290 -0.0619 -0.4896 -0.2086
  828MPD2    C412231   3.777   1.164  11.295  0.1451  0.1840 -0.2574
  828MPD2    C512232   3.832   1.121  11.403  0.3511 -0.0746 -0.1550
  828MPD2     H12233   3.598   1.423  11.429 -1.2517 -0.3774  0.4136
  828MPD2    H112234   3.790   1.101  11.207  1.3555  0.4751 -0.2878
  828MPD2    H212235   3.857   1.142  11.609  1.2915  2.0812  0.4498
  828MPD2    H312236   3.892   1.030  11.398  2.4981  1.2731  1.0002
  828MPD2     N12237   3.612   1.289  11.173 -0.1885  0.0635 -0.5972
  828MPD2    H512238   3.626   1.221  11.099 -0.4192 -0.9206  0.2611
  828MPD2    N112239   3.665   1.344  11.647 -0.1244  0.1967  0.4858
  828MPD2    H712240   3.593   1.414  11.633  1.4964  1.6378 -0.6736
  829MPD2     C12241   3.253   1.998  11.464 -0.1967 -0.0812 -0.7961
  829MPD2    C112242   3.225   2.010  11.598  0.5099 -0.5182  0.2710
  829MPD2    C212243   3.281   1.918  11.688  0.8444 -0.0996 -0.0517
  829MPD2    C312244   3.373   1.825  11.636  0.3488  0.0925 -0.0685
  829MPD2    C412245   3.395   1.821  11.497 -0.0748  0.0547  0.6086
  829MPD2    C512246   3.323   1.902  11.412 -0.1458 -0.0833  1.0584
  829MPD2     H12247   3.259   1.917  11.794  2.3632  0.0743  0.2643
  829MPD2    H112248   3.459   1.748  11.449 -0.0304 -0.7455  1.8747
  829MPD2    H212249   3.202   2.056  11.388  0.9636 -1.9705 -3.0238
  829MPD2    H312250   3.331   1.894  11.304  2.1866 -1.6992  1.3446
  829MPD2     N12251   3.436   1.721  11.716  0.5583 -0.4633 -0.0036
  829MPD2    H512252   3.500   1.655  11.672 -0.7658 -0.3675 -2.0419
  829MPD2    N112253   3.140   2.111  11.633  0.1333 -0.1449  0.4248
  829MPD2    H712254   3.117   2.176  11.558  0.3039 -1.2526 -0.5726
  830MPD2     C12255   3.107   3.964  15.067 -0.2833  0.5249  0.1267
  830MPD2    C112256   3.166   4.020  15.172  0.2037 -0.9788 -0.1282
  830MPD2    C212257   3.263   4.119  15.153 -0.0908 -0.3836  0.0425
  830MPD2    C312258   3.291   4.158  15.024 -0.7511  0.0341  0.3174
  830MPD2    C412259   3.228   4.099  14.917  0.8861  0.4887  0.0919
  830MPD2    C512260   3.137   4.008  14.936 -0.7774  0.4354  0.4822
  830MPD2     H12261   3.304   4.169  15.241 -1.2743 -3.9067  2.5926
  830MPD2    H112262   3.265   4.118  14.817  0.9900  1.1867  0.2642
  830MPD2    H212263   3.046   3.876  15.085  0.9641 -0.3427  0.1119
  830MPD2    H312264   3.088   3.960  14.852 -2.7495  1.9558  0.7582
  830MPD2     N12265   3.363   4.273  14.997 -0.2061  0.3193  0.6985
  830MPD2    H512266   3.353   4.310  14.903  3.2523 -2.0165 -0.5784
  830MPD2    N112267   3.136   3.971  15.299 -0.1312 -0.1987  0.0164
  830MPD2    H712268   3.055   3.909  15.303  0.6910 -1.1884  1.5283
  831MPD2     C12269   3.343   1.071  16.347  0.4299  0.3151  0.4346
  831MPD2    C112270   3.372   0.965  16.267 -0.3281 -0.1568 -0.0960
  831MPD2    C212271   3.299   0.843  16.293  0.3025 -0.9076  0.1094
  831MPD2    C312272   3.202   0.835  16.391  0.3279  0.4869  0.8970
  831MPD2    C412273   3.177   0.955  16.466  0.1853 -0.3756 -0.3187
  831MPD2    C512274   3.250   1.066  16.441 -0.5453 -0.8580 -0.5747
  831MPD2     H12275   3.313   0.756  16.229  1.2994  1.1877 -2.5423
  831MPD2    H112276   3.113   0.955  16.553 -0.0068 -0.1685 -0.4614
  831MPD2    H212277   3.389   1.167  16.328  0.4242 -0.4756 -3.6406
  831MPD2    H312278   3.225   1.151  16.504  2.0148 -0.9523  0.5805
  831MPD2     N12279   3.127   0.713  16.408  0.0402  0.0322  0.1227
  831MPD2    H512280   3.062   0.706  16.486 -0.4927 -1.7814 -0.4790
  831MPD2    N112281   3.462   0.988  16.162  0.4569  0.2304  0.1580
  831MPD2    H712282   3.481   1.084  16.133  0.2051  0.3328  0.3273
  832MPD2     C12283   1.621   1.966  17.050  0.2211 -0.4227 -0.5583
  832MPD2    C112284   1.588   2.074  17.130  0.2407 -0.9695  0.6423
  832MPD2    C212285   1.470   2.135  17.121 -0.1215 -0.4681 -0.2570
  832MPD2    C312286   1.372   2.096  17.028 -0.3524  0.3989 -0.1471
  832MPD2    C412287   1.405   1.986  16.954  0.2614 -0.0487  0.2606
  832MPD2    C512288   1.527   1.924  16.964  0.1604 -0.0506 -0.5954
  832MPD2     H12289   1.447   2.216  17.189 -1.1039 -0.6487 -0.3774
  832MPD2    H112290   1.333   1.946  16.884 -0.0415  0.2246  0.4143
  832MPD2    H212291   1.716   1.915  17.064 -0.5318 -0.9679  2.4704
  832MPD2    H312292   1.545   1.843  16.893 -0.2471 -1.9441  1.4741
  832MPD2     N12293   1.239   2.141  17.030  0.3016 -0.4763  0.6443
  832MPD2    H512294   1.181   2.107  16.954  1.4763  1.3384 -1.0598
  832MPD2    N112295   1.698   2.111  17.213  0.3980  0.7362 -0.0104
  832MPD2    H712296   1.775   2.044  17.210  0.6017  0.9223  0.9865
  833MPD2     C12297   3.982   3.439  12.760  0.6505 -0.7193  0.1185
  833MPD2    C112298   4.085   3.528  12.750  0.0265  0.1048  0.3750
  833MPD2    C212299   4.198   3.497  12.677 -0.2137  0.3756  0.5235
  833MPD2    C312300   4.201   3.382  12.593 -0.2692 -0.4756 -0.0428
  833MPD2    C412301   4.098   3.292  12.593 -0.4080  0.0325 -0.3669
  833MPD2    C512302   3.991   3.320  12.683  0.1537  0.5848 -0.5443
  833MPD2     H12303   4.281   3.564  12.700 -0.5925  1.1286 -0.2718
  833MPD2    H112304   4.100   3.203  12.532 -0.4188  1.3326 -2.2521
  833MPD2    H212305   3.901   3.454  12.830 -0.2762 -0.2916 -1.0344
  833MPD2    H312306   3.911   3.248  12.694  0.1181  0.3523 -2.2107
  833MPD2     N12307   4.302   3.361  12.500  0.0788 -0.4159  0.5166
  833MPD2    H512308   4.279   3.300  12.422  0.0048  1.1658 -0.7156
  833MPD2    N112309   4.076   3.640  12.833  0.2773 -0.0972 -0.6204
  833MPD2    H712310   3.985   3.644  12.878  0.7081  0.2899  0.2214
  834MPD2     C12311   4.080   2.920  11.775 -0.5142 -0.5959  0.3075
  834MPD2    C112312   4.129   3.031  11.712 -0.2039 -0.2504 -0.5307
  834MPD2    C212313   4.211   3.127  11.778  0.2033 -0.2905  0.1115
  834MPD2    C312314   4.228   3.114  11.921 -0.2231  0.1973  0.7731
  834MPD2    C412315   4.172   3.001  11.977 -0.9855 -0.4990 -0.5598
  834MPD2    C512316   4.103   2.906  11.909 -0.1665  1.3960  0.0709
  834MPD2     H12317   4.252   3.212  11.726  1.2446 -0.1088  1.2308
  834MPD2    H112318   4.178   3.002  12.085 -0.5689 -1.8890 -0.5673
  834MPD2    H212319   4.020   2.843  11.727 -3.2122  1.5045  0.3126
  834MPD2    H312320   4.058   2.825  11.966 -1.5794  2.2058  0.1148
  834MPD2     N12321   4.279   3.225  11.991 -0.3242 -0.0310  0.1231
  834MPD2    H512322   4.312   3.306  11.941  1.2556  1.5538  3.6831
  834MPD2    N112323   4.085   3.037  11.572  0.0426  0.3953 -0.1822
  834MPD2    H712324   4.013   2.967  11.555 -1.4562  2.0266 -0.6728
  835MPD2     C12325   4.043   1.841  10.537  0.4625 -0.0970 -0.1457
  835MPD2    C112326   3.988   1.798  10.657 -0.0643  0.7148  0.5381
  835MPD2    C212327   4.073   1.784  10.760  0.3850 -0.1975 -0.2751
  835MPD2    C312328   4.209   1.813  10.753 -0.6526  0.2426  0.4674
  835MPD2    C412329   4.262   1.843  10.629  0.2007 -0.0342  0.0158
  835MPD2    C512330   4.173   1.856  10.522 -0.1089  0.0496  0.1062
  835MPD2     H12331   4.027   1.754  10.854 -3.1038  2.5197 -1.1384
  835MPD2    H112332   4.369   1.841  10.610  0.2685 -1.6869  0.4993
  835MPD2    H212333   3.994   1.848  10.441  1.2638  3.8768 -0.2536
  835MPD2    H312334   4.219   1.864  10.424  2.6188  1.7146  1.5148
  835MPD2     N12335   4.298   1.797  10.862 -0.2784 -0.1753 -0.1500
  835MPD2    H512336   4.398   1.811  10.854 -0.2713  0.9853  1.8814
  835MPD2    N112337   3.852   1.762  10.670  0.1361  0.4786  0.1165
  835MPD2    H712338   3.827   1.715  10.756 -3.1084  1.4869 -0.2709
  836MPD2     C12339   4.201   1.333  11.427 -0.4085 -0.0220 -0.2354
  836MPD2    C112340   4.265   1.444  11.482  0.2918 -0.1816  0.7311
  836MPD2    C212341   4.244   1.468  11.614 -0.0897  0.2699 -0.1450
  836MPD2    C312342   4.170   1.374  11.681 -0.1354  0.6633 -0.2881
  836MPD2    C412343   4.120   1.262  11.634  0.5880  0.2006  0.0750
  836MPD2    C512344   4.129   1.243  11.500 -0.0058  1.1280 -0.1496
  836MPD2     H12345   4.287   1.560  11.652 -0.2482 -0.7529  2.4846
  836MPD2    H112346   4.060   1.201  11.700 -0.5359  0.5031 -0.6694
  836MPD2    H212347   4.212   1.311  11.321  3.0895 -0.5981  0.2551
  836MPD2    H312348   4.090   1.150  11.459  1.5143  0.3749  0.1161
  836MPD2     N12349   4.145   1.398  11.821 -0.3990  0.0262 -0.0245
  836MPD2    H512350   4.086   1.334  11.873  0.5228  0.7794  1.9293
  836MPD2    N112351   4.325   1.535  11.394 -0.3118 -0.2861  0.0334
  836MPD2    H712352   4.318   1.514  11.295 -1.7587 -2.7902  0.6731
  837MPD2     C12353   2.290   1.444  10.278 -1.0579  0.2520 -0.0592
  837MPD2    C112354   2.250   1.431  10.147 -0.2778 -0.3410  0.7411
  837MPD2    C212355   2.247   1.537  10.061  0.0040  1.2302  0.1429
  837MPD2    C312356   2.284   1.665  10.104 -0.7302 -0.0884 -0.2020
  837MPD2    C412357   2.332   1.676  10.235  0.4255  0.4764  0.1318
  837MPD2    C512358   2.349   1.561  10.315 -0.4044  0.7119 -0.4952
  837MPD2     H12359   2.192   1.543   9.968  0.9003 -1.8572 -0.5748
  837MPD2    H112360   2.377   1.768  10.271  1.6398 -0.3739  0.7721
  837MPD2    H212361   2.306   1.366  10.351  0.9350 -0.3337 -1.1351
  837MPD2    H312362   2.398   1.580  10.409 -0.0770 -1.8639 -0.1532
  837MPD2     N12363   2.261   1.767  10.015 -0.1657  0.2633 -0.5982
  837MPD2    H512364   2.230   1.736   9.924 -1.0238  0.8750 -0.5091
  837MPD2    N112365   2.179   1.321  10.106 -0.3913  0.2416 -0.0328
  837MPD2    H712366   2.131   1.332  10.017 -1.3037  1.6049  0.6295
  838MPD2     C12367   0.991   4.693  11.758 -0.2118 -0.0108  0.3757
  838MPD2    C112368   0.945   4.563  11.751 -0.2722  0.3565 -0.2131
  838MPD2    C212369   0.833   4.527  11.816 -0.1600  0.2309  0.3947
  838MPD2    C312370   0.749   4.621  11.878  0.4439 -0.3652 -1.1727
  838MPD2    C412371   0.794   0.015  11.890 -0.4114  0.1441 -0.4711
  838MPD2    C512372   0.916   0.047  11.827  0.2860 -0.1630 -0.1518
  838MPD2     H12373   0.795   4.425  11.807  1.0669  0.0956 -3.3794
  838MPD2    H112374   0.750   0.091  11.954 -1.8202 -2.1586  1.3134
  838MPD2    H212375   1.077   0.007  11.715 -0.1218 -0.1813  0.3611
  838MPD2    H312376   0.957   0.147  11.835  1.9075 -0.9973  2.0445
  838MPD2     N12377   0.622   4.581  11.937 -0.0610 -0.2134  0.2957
  838MPD2    H512378   0.594   4.488  11.908  1.5041  0.1753 -2.3993
  838MPD2    N112379   1.017   4.458  11.692  0.2922 -0.0736 -0.4169
  838MPD2    H712380   0.967   4.370  11.682 -0.7261  0.3248  1.1427
  839MPD2     C12381   0.795   3.706  11.908 -0.6070 -0.3648 -0.4791
  839MPD2    C112382   0.805   3.710  11.773  0.2523  0.3117 -0.0647
  839MPD2    C212383   0.896   3.797  11.714 -0.3973 -0.2689 -0.4958
  839MPD2    C312384   0.977   3.874  11.798  0.3941  0.0184 -0.1437
  839MPD2    C412385   0.945   3.894  11.934  0.2505 -0.1498  0.1921
  839MPD2    C512386   0.855   3.802  11.988 -0.8129  0.0829 -0.2033
  839MPD2     H12387   0.905   3.797  11.606  1.1475  0.1805 -0.3604
  839MPD2    H112388   0.996   3.962  12.001 -0.3622  2.0163 -1.5418
  839MPD2    H212389   0.725   3.636  11.952  1.2607  0.0212  3.1486
  839MPD2    H312390   0.843   3.798  12.095  1.0456 -2.9278 -0.0895
  839MPD2     N12391   1.079   3.963  11.749 -0.3724 -0.6962 -0.0297
  839MPD2    H512392   1.136   4.009  11.819  1.7087 -2.4814 -0.5305
  839MPD2    N112393   0.730   3.621  11.689 -0.5802 -0.6113 -0.2629
  839MPD2    H712394   0.743   3.635  11.590  2.7184 -1.6968  0.0216
  840MPD2     C12395   0.877   1.922   9.871 -0.0451 -0.2259  0.0416
  840MPD2    C112396   0.856   1.891  10.007  0.3611 -0.4868 -0.5110
  840MPD2    C212397   0.953   1.948  10.090  0.4803 -0.2202  0.0697
  840MPD2    C312398   1.059   2.029  10.047  0.4549  0.0057 -0.8453
  840MPD2    C412399   1.077   2.043   9.911  0.0124  0.4884 -0.0196
  840MPD2    C512400   0.981   1.998   9.827 -0.1435  0.3766  0.0471
  840MPD2     H12401   0.936   1.934  10.196 -0.2625 -1.9508 -0.2746
  840MPD2    H112402   1.152   2.115   9.880 -1.4306  1.5907 -0.9452
  840MPD2    H212403   0.803   1.889   9.798 -0.5898 -0.6806  0.7912
  840MPD2    H312404   0.991   2.014   9.720 -2.5537  1.0778 -0.0888
  840MPD2     N12405   1.150   2.091  10.136 -0.4072 -0.0488 -0.1837
  840MPD2    H512406   1.220   2.153  10.097  0.1330  1.1634  2.7052
  840MPD2    N112407   0.734   1.824  10.047 -0.3190  0.6792  0.2618
  840MPD2    H712408   0.658   1.822   9.979 -0.0802 -0.3891  0.0119
  841MPD2     C12409   0.294   1.379  14.433 -0.0952 -0.6771 -0.6876
  841MPD2    C112410   0.377   1.270  14.405 -0.5083 -0.4845 -0.1138
  841MPD2    C212411   0.516   1.293  14.409  0.5566 -0.1268 -0.5472
  841MPD2    C312412   0.567   1.413  14.451 -0.3298  0.3686 -0.2775
  841MPD2    C412413   0.480   1.517  14.481  0.1388  0.2926  0.8784
  841MPD2    C512414   0.345   1.502  14.467 -0.2407  0.3857  0.0302
  841MPD2     H12415   0.583   1.210  14.389  0.2360 -0.0661 -1.9204
  841MPD2    H112416   0.521   1.612  14.514 -0.8127  0.6498  1.0150
  841MPD2    H212417   0.190   1.379  14.404  0.4012 -0.0805 -2.4843
  841MPD2    H312418   0.284   1.588  14.489 -2.1153 -0.8823 -0.1371
  841MPD2     N12419   0.708   1.431  14.455  0.2699 -0.6345 -0.5872
  841MPD2    H512420   0.761   1.345  14.442  2.5880  0.4018  1.9586
  841MPD2    N112421   0.330   1.151  14.348  0.2258 -0.4866 -0.7951
  841MPD2    H712422   0.404   1.084  14.333  1.0681 -0.0232  1.2449
  842MPD2     C12423   0.730   2.389  17.100  0.3262 -0.2711  0.4326
  842MPD2    C112424   0.631   2.302  17.055  0.2060 -0.1482  0.0812
  842MPD2    C212425   0.555   2.238  17.150  0.0587  0.6360 -0.0744
  842MPD2    C312426   0.574   2.257  17.285  0.9501  0.2604  0.7955
  842MPD2    C412427   0.682   2.326  17.323 -0.7696  0.6615  0.4760
  842MPD2    C512428   0.767   2.384  17.227 -0.2494 -0.8192  0.1004
  842MPD2     H12429   0.467   2.180  17.125 -1.3668  2.4961  0.6299
  842MPD2    H112430   0.707   2.323  17.429  2.1888 -0.5639 -0.2796
  842MPD2    H212431   0.798   2.446  17.038  2.2790 -0.3859  2.5034
  842MPD2    H312432   0.847   2.446  17.265 -2.2576  1.2175  1.0469
  842MPD2     N12433   0.484   2.201  17.382  0.5588  0.2333 -0.5163
  842MPD2    H512434   0.420   2.135  17.339 -1.0399  1.1697  0.4551
  842MPD2    N112435   0.611   2.293  16.919  0.3292  0.0694 -0.5248
  842MPD2    H712436   0.662   2.366  16.869 -0.0694  0.7258  0.0419
  843MPD2     C12437   2.259   3.023  17.737  1.0177 -0.0065  0.6422
  843MPD2    C112438   2.368   2.944  17.714  0.6590  0.1672 -0.0165
  843MPD2    C212439   2.487   3.001  17.663  0.5885 -1.2233  0.3409
  843MPD2    C312440   2.489   3.135  17.633  0.2117 -0.2182  0.1606
  843MPD2    C412441   2.384   3.219  17.667 -0.4214  0.6034 -0.0621
  843MPD2    C512442   2.273   3.157  17.710 -0.0496  0.6881 -0.4245
  843MPD2     H12443   2.577   2.944  17.645  2.5001  1.0612  2.6261
  843MPD2    H112444   2.382   3.327  17.659 -2.5776  0.6159  0.7198
  843MPD2    H212445   2.163   2.985   0.032  1.6141 -1.6897  0.4623
  843MPD2    H312446   2.190   3.223  17.734  0.0251  1.6089 -2.6859
  843MPD2     N12447   2.600   3.197  17.566 -0.0069 -0.8829  0.5806
  843MPD2    H512448   2.585   3.295  17.542  2.4360 -0.9516 -1.1147
  843MPD2    N112449   2.356   2.807   0.003 -0.5439 -0.2232 -0.2952
  843MPD2    H712450   2.265   2.767   0.022 -1.3666  1.8810  0.1401
  844MPD2     C12451   1.313   2.240  16.604 -0.0323  0.6938 -0.3607
  844MPD2    C112452   1.413   2.146  16.585  0.0813 -0.2183 -0.1772
  844MPD2    C212453   1.529   2.154  16.658 -0.7515 -0.6004  0.9474
  844MPD2    C312454   1.538   2.253  16.757  0.4474  0.0792  0.9085
  844MPD2    C412455   1.439   2.346  16.778 -0.1933 -0.9918  0.2435
  844MPD2    C512456   1.326   2.341  16.699  0.1389  0.5366 -0.4385
  844MPD2     H12457   1.610   2.082  16.648  2.5419  3.0261  1.8510
  844MPD2    H112458   1.439   2.416  16.861 -0.2978  0.4373 -0.9631
  844MPD2    H212459   1.216   2.242  16.556 -1.7455  1.1107  3.0507
  844MPD2    H312460   1.240   2.404  16.723  1.1977  0.8449  2.5643
  844MPD2     N12461   1.656   2.262  16.825 -0.5272 -0.4518 -0.3980
  844MPD2    H512462   1.722   2.186  16.808  1.9621  1.7317 -0.4653
  844MPD2    N112463   1.389   2.038  16.492  0.2772  0.2979 -0.7132
  844MPD2    H712464   1.300   2.030  16.444  0.2498  1.3763 -0.8433
  845MPD2     C12465   2.067   3.071  17.042 -0.1401 -0.3701 -0.1584
  845MPD2    C112466   1.960   3.010  17.105  1.4989  0.1628  0.3917
  845MPD2    C212467   1.959   2.874  17.094 -0.4572 -0.9574  0.1628
  845MPD2    C312468   2.060   2.802  17.042  0.6803  0.2750  0.0456
  845MPD2    C412469   2.161   2.861  16.972 -0.1338 -0.5609  0.1208
  845MPD2    C512470   2.160   2.995  16.967 -0.5231 -0.4524 -0.2628
  845MPD2     H12471   1.873   2.827  17.138 -0.3633 -1.7498 -0.5121
  845MPD2    H112472   2.244   2.800  16.938  0.2284  0.6936 -1.2717
  845MPD2    H212473   2.079   3.178  17.030  0.8712 -0.5174 -0.4201
  845MPD2    H312474   2.236   3.050  16.913 -0.5032  0.7254  0.9854
  845MPD2     N12475   2.059   2.670  17.080 -0.2910 -0.1562  0.2688
  845MPD2    H512476   1.994   2.642  17.153 -0.3235  0.5869  0.5255
  845MPD2    N112477   1.851   3.084  17.156 -0.1834  0.4158  0.3469
  845MPD2    H712478   1.840   3.181  17.130 -0.2850 -0.1739 -1.7508
  846MPD2     C12479   3.272   2.931  13.780  0.7367 -0.1869 -0.7301
  846MPD2    C112480   3.163   3.018  13.780  0.6433 -0.2799  0.4488
  846MPD2    C212481   3.115   3.060  13.901  0.0286  0.1233 -0.3955
  846MPD2    C312482   3.160   3.003  14.021  0.1660  0.4911 -0.5162
  846MPD2    C412483   3.275   2.931  14.017 -0.2159 -0.1166 -0.0005
  846MPD2    C512484   3.330   2.889  13.896  1.0478  0.0541 -0.3365
  846MPD2     H12485   3.022   3.116  13.902  0.0382  0.1280  1.8793
  846MPD2    H112486   3.316   2.881  14.104 -0.0897  0.5153  0.3025
  846MPD2    H212487   3.319   2.895  13.689  1.0001 -0.8027 -0.3506
  846MPD2    H312488   3.412   2.818  13.896  1.7073  0.8185 -2.3749
  846MPD2     N12489   3.100   3.030  14.142  0.1844 -0.2277 -0.2237
  846MPD2    H512490   3.011   3.079  14.140 -0.4700 -1.4352 -1.1477
  846MPD2    N112491   3.105   3.071  13.661  0.3827 -0.1918  0.1888
  846MPD2    H712492   3.042   3.150  13.670  2.9881  2.0672 -1.4485
  847MPD2     C12493   3.759   4.378  14.764 -0.4250  0.1358 -0.2897
  847MPD2    C112494   3.785   4.510  14.777  0.4045  0.1039  0.9022
  847MPD2    C212495   3.824   4.549  14.905 -0.1093  0.5314  0.6198
  847MPD2    C312496   3.826   4.468  15.018 -0.3087  0.3391  0.3792
  847MPD2    C412497   3.789   4.338  15.006  0.1415 -0.6659  0.1212
  847MPD2    C512498   3.755   4.296  14.878  0.2833 -0.0410  0.4862
  847MPD2     H12499   3.856   4.652  14.914 -2.9775  1.4634  0.1987
  847MPD2    H112500   3.781   4.278  15.096 -0.0379 -1.2454 -0.2751
  847MPD2    H212501   3.729   4.328  14.672 -1.5213  2.2983 -1.1191
  847MPD2    H312502   3.702   4.203  14.862  1.5353 -0.7993  0.7196
  847MPD2     N12503   3.851   4.528  15.140  0.2687 -0.4273 -0.3256
  847MPD2    H512504   3.862   4.628  15.127  0.7415 -0.4165  0.2000
  847MPD2    N112505   3.792   4.608  14.677 -0.1389 -0.5176 -0.5394
  847MPD2    H712506   3.829   4.697  14.710  0.3182 -1.5028  1.5572
  848MPD2     C12507   0.851   2.253  16.466 -0.0700 -0.5553  0.0695
  848MPD2    C112508   0.930   2.322  16.555  0.0887  0.1632  0.1759
  848MPD2    C212509   1.004   2.431  16.513  0.0852 -0.0204 -0.1838
  848MPD2    C312510   1.020   2.456  16.379 -1.0192 -0.0705  0.2795
  848MPD2    C412511   0.949   2.379  16.292  0.1752 -0.9095 -0.1434
  848MPD2    C512512   0.859   2.288  16.334  0.4956  0.1098 -0.3850
  848MPD2     H12513   1.058   2.489  16.587 -2.9216  1.1416  1.1023
  848MPD2    H112514   0.957   2.387  16.185  1.0475  2.1285  0.1388
  848MPD2    H212515   0.793   2.168  16.500 -2.1347  1.0582  0.5417
  848MPD2    H312516   0.801   2.229  16.264  0.0704  0.0681  0.0077
  848MPD2     N12517   1.099   2.557  16.329  0.8627 -0.7076  0.0514
  848MPD2    H512518   1.111   2.554  16.228 -0.7473 -1.9678 -0.0906
  848MPD2    N112519   0.936   2.297  16.690 -0.4686 -0.1865  0.5336
  848MPD2    H712520   0.992   2.367  16.738  0.7397 -0.8169  0.0275
  849MPD2     C12521   0.721   2.625  14.552  0.0850 -0.1196 -0.3765
  849MPD2    C112522   0.676   2.514  14.486 -0.8643 -0.6802 -0.3652
  849MPD2    C212523   0.680   2.393  14.550 -0.0215  0.7068  0.1298
  849MPD2    C312524   0.733   2.380  14.675  0.0671  0.7140 -0.0137
  849MPD2    C412525   0.779   2.484  14.746 -0.3041 -0.2544  0.0769
  849MPD2    C512526   0.760   2.609  14.685 -0.0302 -0.4001 -0.3970
  849MPD2     H12527   0.638   2.306  14.502  1.3341  0.0527  0.1314
  849MPD2    H112528   0.822   2.478  14.845 -0.3796  0.7871  0.1762
  849MPD2    H212529   0.713   2.722  14.506 -2.8115  1.2612  3.0952
  849MPD2    H312530   0.779   2.698  14.744  1.8692 -0.7437 -0.4851
  849MPD2     N12531   0.753   2.248  14.729 -0.5226  0.2471  0.3606
  849MPD2    H512532   0.810   2.251  14.813  0.1059 -1.4783 -0.0031
  849MPD2    N112533   0.663   2.525  14.346  0.0887 -0.2463  0.5379
  849MPD2    H712534   0.689   2.615  14.309 -0.6518 -0.1553  0.2389
  850MPD2     C12535   3.196   0.667  14.434  0.3819  0.3480 -0.4662
  850MPD2    C112536   3.195   0.715  14.565  0.1894 -0.2618  0.2485
  850MPD2    C212537   3.312   0.743  14.633 -0.5673  0.7705 -0.0115
  850MPD2    C312538   3.438   0.706  14.576  0.0510 -0.0639 -0.0930
  850MPD2    C412539   3.433   0.657  14.444  0.5994  0.6288 -0.4258
  850MPD2    C512540   3.314   0.647  14.376  0.0404 -0.2958  0.4600
  850MPD2     H12541   3.316   0.783  14.734  0.9795  0.6329 -0.0065
  850MPD2    H112542   3.520   0.624  14.389  0.6307 -0.4443  0.2661
  850MPD2    H212543   3.107   0.642  14.376  0.0760 -1.3010  0.7231
  850MPD2    H312544   3.323   0.593  14.282 -1.9445 -1.2591  0.8203
  850MPD2     N12545   3.560   0.696  14.646  0.5903  0.3283 -0.0532
  850MPD2    H512546   3.641   0.663  14.595 -1.7200  1.3974 -4.4000
  850MPD2    N112547   3.068   0.719  14.621  0.1254 -0.9862 -0.0915
  850MPD2    H712548   2.984   0.693  14.571 -1.0887  4.4224 -0.8434
  851MPD2     C12549   3.065   0.369  15.275  0.8234  0.1761  0.0976
  851MPD2    C112550   3.062   0.362  15.137 -0.0707  0.0403  0.0563
  851MPD2    C212551   3.158   0.280  15.068  1.0859  0.3246  0.5439
  851MPD2    C312552   3.240   0.207  15.149 -0.2623 -0.6383 -0.1739
  851MPD2    C412553   3.241   0.221  15.287  0.3551  0.4056 -0.1609
  851MPD2    C512554   3.149   0.297  15.349 -0.4399 -0.5626 -0.7546
  851MPD2     H12555   3.163   0.273  14.960  0.6712  2.6793  0.3584
  851MPD2    H112556   3.303   0.173  15.362  1.3813  1.5272 -0.3026
  851MPD2    H212557   2.991   0.424  15.331  0.5184  2.0449 -2.1025
  851MPD2    H312558   3.149   0.301  15.457 -0.5323 -0.4523 -0.7588
  851MPD2     N12559   3.343   0.125  15.084 -0.0467  0.6223 -0.7535
  851MPD2    H512560   3.340   0.112  14.984 -0.0492 -2.5437 -0.3322
  851MPD2    N112561   2.971   0.443  15.070  0.9845 -0.2230  0.6043
  851MPD2    H712562   2.912   0.495  15.134  1.4039  1.9307 -0.7536
  852MPD2     C12563   3.550   4.455  11.335  0.2881 -0.4384  0.1834
  852MPD2    C112564   3.489   4.336  11.290 -0.4404 -0.6206 -0.3221
  852MPD2    C212565   3.546   4.277  11.181 -0.3697  0.5090 -0.1749
  852MPD2    C312566   3.670   4.313  11.135 -0.3574  0.2053 -0.1378
  852MPD2    C412567   3.736   4.420  11.187 -0.7446  0.0840  0.2617
  852MPD2    C512568   3.666   4.499  11.279  0.3022  0.3238 -0.7224
  852MPD2     H12569   3.494   4.197  11.130 -1.5935 -1.1631  3.6781
  852MPD2    H112570   3.831   4.449  11.145 -0.9388  1.3553  0.6918
  852MPD2    H212571   3.512   4.510  11.420  1.5953  1.5960 -0.5556
  852MPD2    H312572   3.701   4.587  11.332  1.0513 -2.1350  2.8555
  852MPD2     N12573   3.721   4.235  11.028 -0.3359 -0.1096  0.0995
  852MPD2    H512574   3.655   4.164  10.998  2.0461 -1.3305 -2.2893
  852MPD2    N112575   3.387   4.269  11.358  0.3255  0.3471 -0.4166
  852MPD2    H712576   3.340   4.188  11.320  0.3775  0.5383 -0.8857
  853MPD2     C12577   4.351   2.925  12.558  0.1923 -0.4359  0.0575
  853MPD2    C112578   4.457   2.989  12.506 -0.1883 -0.5528  0.1227
  853MPD2    C212579   4.492   2.962  12.372  0.1905  0.2567  0.1120
  853MPD2    C312580   4.414   2.880  12.296 -0.0239  0.1226 -0.2179
  853MPD2    C412581   4.310   2.817  12.353 -0.0174 -0.8248 -0.3509
  853MPD2    C512582   4.275   2.841  12.487  0.1289 -0.4061 -1.6222
  853MPD2     H12583   4.577   3.008  12.323 -1.1431  0.8097 -1.6922
  853MPD2    H112584   4.257   2.747  12.290 -0.1284  0.2014 -1.4029
  853MPD2    H212585   4.319   2.940  12.661  0.3017  0.7565 -0.0769
  853MPD2    H312586   4.182   2.803  12.528  0.2808  0.4434 -0.4794
  853MPD2     N12587   4.450   2.845  12.164 -0.0713  0.3345  0.1665
  853MPD2    H512588   4.387   2.781  12.116  1.0730  0.1631 -1.0849
  853MPD2    N112589   4.538   3.060  12.595  0.6963  0.4005 -0.5995
  853MPD2    H712590   4.526   3.049  12.696 -2.0036  1.2118 -0.8462
  854MPD2     C12591   1.566   2.814  13.001 -0.8062  0.2063 -0.4255
  854MPD2    C112592   1.670   2.895  12.972 -0.1350 -0.3204  0.2346
  854MPD2    C212593   1.798   2.860  13.021  0.3888 -0.3940 -0.1023
  854MPD2    C312594   1.820   2.741  13.089  0.0836 -0.0717  0.5968
  854MPD2    C412595   1.710   2.664  13.118 -0.2634  0.0041 -0.7287
  854MPD2    C512596   1.583   2.700  13.080 -0.1762  0.3021  0.0835
  854MPD2     H12597   1.878   2.930  12.997 -1.1040  1.8917  1.5991
  854MPD2    H112598   1.715   2.575  13.179  0.8856  0.3137 -0.3770
  854MPD2    H212599   1.462   2.841  12.985 -0.8653 -0.4551 -1.1429
  854MPD2    H312600   1.501   2.637  13.115  1.7395 -1.1827  1.8830
  854MPD2     N12601   1.946   2.711  13.142  0.5330  0.4281  0.1541
  854MPD2    H512602   1.957   2.625  13.194 -1.1984  0.4776  0.5973
  854MPD2    N112603   1.647   3.015  12.906 -0.5894  0.0236 -0.0587
  854MPD2    H712604   1.549   3.040  12.900 -0.5135  0.1632 -0.6930
  855MPD2     C12605   2.047   2.005  13.554 -0.5289 -0.0507  0.7731
  855MPD2    C112606   2.140   2.079  13.628  0.1093  0.0931  1.6133
  855MPD2    C212607   2.175   2.209  13.580 -0.7426 -0.1969  0.0830
  855MPD2    C312608   2.117   2.256  13.459 -0.1311  0.4037 -0.2273
  855MPD2    C412609   2.011   2.185  13.398 -0.0826 -0.3806  0.0682
  855MPD2    C512610   1.981   2.062  13.445 -0.3967 -0.1558 -0.3486
  855MPD2     H12611   2.252   2.270  13.626 -0.6644  1.1826 -1.8846
  855MPD2    H112612   1.980   2.221  13.301  1.0484 -2.4046 -1.0565
  855MPD2    H212613   2.023   1.901  13.574  1.3538 -0.5350  0.5161
  855MPD2    H312614   1.913   1.995  13.394 -1.3349 -1.3704  2.5023
  855MPD2     N12615   2.161   2.369  13.384  0.1651 -0.1440  0.2407
  855MPD2    H512616   2.121   2.376  13.291 -4.3804 -0.7932  2.1351
  855MPD2    N112617   2.216   2.027  13.738  0.0649  0.1053  0.4611
  855MPD2    H712618   2.275   2.089  13.793  0.4451 -0.2747  0.4825
  856MPD2     C12619   4.329   3.415  14.296 -0.9860 -0.4768  1.2310
  856MPD2    C112620   4.329   3.556  14.296 -0.7267  0.1254  0.2098
  856MPD2    C212621   4.208   3.615  14.271 -0.4688  0.5587 -0.4734
  856MPD2    C312622   4.089   3.537  14.248  0.6168  0.4347 -0.2318
  856MPD2    C412623   4.096   3.402  14.248 -0.6413  0.2398  0.1506
  856MPD2    C512624   4.214   3.337  14.276  0.2358  0.1471 -0.3724
  856MPD2     H12625   4.204   3.722  14.254 -1.1021  0.3613 -1.5642
  856MPD2    H112626   4.015   3.336  14.219  1.1276 -1.7430 -0.2930
  856MPD2    H212627   4.417   3.352  14.308  0.3746  1.2198  0.2318
  856MPD2    H312628   4.225   3.230  14.269 -0.3075  0.2047 -2.1020
  856MPD2     N12629   3.958   3.592  14.220  0.8131 -0.1417  0.1847
  856MPD2    H512630   3.893   3.529  14.175  1.0523  0.7805 -1.4439
  856MPD2    N112631   4.436   3.643  14.320 -0.1247  0.7392 -0.0703
  856MPD2    H712632   4.421   3.739  14.290 -0.0797  1.0754  1.0120
  857MPD2     C12633   1.302   0.925  13.208  0.7313  0.0234  0.3701
  857MPD2    C112634   1.415   0.928  13.135 -0.3768  0.2450 -0.0367
  857MPD2    C212635   1.516   0.986  13.207  0.2350  0.0409 -0.2120
  857MPD2    C312636   1.505   1.030  13.336  0.4898  0.5645  1.1902
  857MPD2    C412637   1.386   1.028  13.402  0.5799 -0.0146  0.5731
  857MPD2    C512638   1.283   0.968  13.331 -0.4286  0.0122 -0.3033
  857MPD2     H12639   1.619   0.988  13.172  0.5497 -2.5719  0.5516
  857MPD2    H112640   1.369   1.066  13.502  2.1913 -1.2308  1.2995
  857MPD2    H212641   1.220   0.864  13.172 -0.8552  1.7445  1.0625
  857MPD2    H312642   1.189   0.945  13.380  0.2856  1.7860  1.8942
  857MPD2     N12643   1.626   1.077  13.401  0.0558 -0.2599 -0.9529
  857MPD2    H512644   1.705   1.085  13.337  0.0372  2.0770 -0.6945
  857MPD2    N112645   1.432   0.871  13.002 -0.3390 -0.3737 -0.0810
  857MPD2    H712646   1.355   0.817  12.963  0.0174 -1.6798  1.0365
  858MPD2     C12647   1.729   0.020  16.122  0.2031  0.1739  0.4051
  858MPD2    C112648   1.766   4.638  16.186  0.3566 -0.0940  0.1349
  858MPD2    C212649   1.753   4.636  16.328 -0.1371 -0.3535  0.4956
  858MPD2    C312650   1.722   0.016  16.402  0.0329 -0.5134 -0.0366
  858MPD2    C412651   1.693   0.132  16.337 -0.1250 -1.0754  0.1243
  858MPD2    C512652   1.690   0.132  16.196  0.1067 -0.2051  0.8335
  858MPD2     H12653   1.761   4.541  16.380 -3.4545 -0.1077  1.5107
  858MPD2    H112654   1.672   0.226  16.385  2.0853 -1.0167  0.9966
  858MPD2    H212655   1.721   0.019  16.013  1.6907 -1.8493  0.3057
  858MPD2    H312656   1.667   0.218  16.134 -0.0142  0.3736  1.6812
  858MPD2     N12657   1.722   0.021  16.544  0.0003 -0.1308  0.4034
  858MPD2    H512658   1.688   0.101  16.596  4.0332  0.8863  1.4861
  858MPD2    N112659   1.792   4.523  16.112  0.8270  0.0075  0.2944
  858MPD2    H712660   1.786   4.543  16.012  1.6886  2.5595  0.7451
  859MPD2     C12661   0.674   1.507  15.821  0.2575 -0.7424 -0.5029
  859MPD2    C112662   0.653   1.519  15.686  0.1137 -0.0903 -0.6217
  859MPD2    C212663   0.647   1.407  15.608  0.3869  0.0860  0.0394
  859MPD2    C312664   0.640   1.282  15.665  0.3136 -0.4973  0.3732
  859MPD2    C412665   0.645   1.270  15.804  0.1046  0.2911  0.1275
  859MPD2    C512666   0.666   1.384  15.875  0.4582 -0.5104 -0.0129
  859MPD2     H12667   0.637   1.418  15.501 -0.3938  0.3714  0.1423
  859MPD2    H112668   0.639   1.172  15.850 -0.6197  0.9473  1.4678
  859MPD2    H212669   0.683   1.591  15.889  2.5569 -0.6010 -0.9696
  859MPD2    H312670   0.669   1.369  15.982 -0.8185  0.1894  0.1179
  859MPD2     N12671   0.629   1.162  15.591  0.1103  0.1752  0.2417
  859MPD2    H512672   0.604   1.074  15.636 -1.1844 -1.0328 -2.7594
  859MPD2    N112673   0.656   1.640  15.615 -0.0638  1.2061  0.6777
  859MPD2    H712674   0.640   1.636  15.514 -1.3407  2.7021  0.8080
  860MPD2     C12675   3.081   2.862  11.709 -0.3371  0.0107 -0.7805
  860MPD2    C112676   3.092   2.822  11.840 -0.2298  0.7768 -0.2632
  860MPD2    C212677   2.974   2.808  11.916 -0.0490  0.3013  0.1671
  860MPD2    C312678   2.849   2.818  11.855  0.5337  0.2100 -0.2364
  860MPD2    C412679   2.846   2.842  11.720 -0.0995 -0.4748  0.8083
  860MPD2    C512680   2.960   2.866  11.643  0.5409 -0.3022 -0.1362
  860MPD2     H12681   2.972   2.788  12.022  0.7176  2.8528  0.6445
  860MPD2    H112682   2.749   2.840  11.671 -0.2867 -1.5328  1.2213
  860MPD2    H212683   3.169   2.877  11.648 -1.0086  0.2436 -1.6861
  860MPD2    H312684   2.951   2.886  11.537  1.6209  2.6955  0.3547
  860MPD2     N12685   2.731   2.789  11.931  0.2720 -0.5877  0.0467
  860MPD2    H512686   2.757   2.768  12.027 -1.9740 -1.1387  0.5531
  860MPD2    N112687   3.219   2.789  11.904 -0.4549  0.0065  0.4865
  860MPD2    H712688   3.229   2.775  12.004 -3.3383 -2.4705  0.4108
  861MPD2     C12689   1.821   0.790  10.873  0.3843 -0.3082 -0.6778
  861MPD2    C112690   1.764   0.913  10.911  0.0780  0.3471  0.3176
  861MPD2    C212691   1.681   0.982  10.825  0.5495 -0.2669  0.6475
  861MPD2    C312692   1.642   0.928  10.702 -0.1171  0.0954  0.3296
  861MPD2    C412693   1.677   0.796  10.678 -0.8558  0.6443  0.2036
  861MPD2    C512694   1.772   0.740  10.757 -0.2255 -0.0896  0.2268
  861MPD2     H12695   1.656   1.082  10.858  0.2354  0.2464 -1.1211
  861MPD2    H112696   1.646   0.743  10.588  2.0827 -1.6466  0.5485
  861MPD2    H212697   1.893   0.735  10.932 -0.6315  1.6789  2.4197
  861MPD2    H312698   1.808   0.647  10.715 -0.6325  0.0930 -0.5458
  861MPD2     N12699   1.555   0.995  10.612 -0.3111 -0.5226  0.3233
  861MPD2    H512700   1.512   0.939  10.540  0.6056  0.8098 -1.2435
  861MPD2    N112701   1.797   0.973  11.037 -0.0296 -0.0974 -0.6558
  861MPD2    H712702   1.763   1.068  11.049  0.0905 -0.2487  0.8574
  862MPD2     C12703   1.111   0.909  10.060 -0.4345 -0.0105 -0.2365
  862MPD2    C112704   1.182   0.885  10.184 -0.5438  0.9178  0.6251
  862MPD2    C212705   1.209   0.756  10.210  0.1034 -0.1474  0.4093
  862MPD2    C312706   1.164   0.655  10.136  0.1204  0.8863 -0.1433
  862MPD2    C412707   1.081   0.678  10.030  0.2059 -0.2874 -0.2179
  862MPD2    C512708   1.067   0.807   9.981  0.3953 -0.4211 -0.5252
  862MPD2     H12709   1.267   0.742  10.300 -0.7979 -4.1025  0.3643
  862MPD2    H112710   1.049   0.596   9.967 -2.1973  0.4034  0.1206
  862MPD2    H212711   1.087   1.010  10.028 -2.3108 -0.5151 -0.4033
  862MPD2    H312712   1.011   0.813   9.888  1.0984  0.0616 -0.9212
  862MPD2     N12713   1.189   0.518  10.170 -1.1766 -0.0438  0.1538
  862MPD2    H512714   1.116   0.452  10.146  0.5638 -1.4662 -1.1909
  862MPD2    N112715   1.227   0.986  10.269 -0.4006  0.5475  0.2917
  862MPD2    H712716   1.286   0.962  10.348  2.2240  0.0080 -1.8639
  863MPD2     C12717   4.657   3.321  16.363  0.1623 -0.4417 -0.3817
  863MPD2    C112718   4.661   3.427  16.451  0.2954  0.1268 -0.1175
  863MPD2    C212719   0.038   3.469  16.514  0.4032  0.4886  0.4139
  863MPD2    C312720   0.157   3.407  16.486 -0.3033  0.4553  0.9209
  863MPD2    C412721   0.158   3.298  16.402 -0.8403 -1.1115  0.3801
  863MPD2    C512722   0.045   3.258  16.338  0.0617 -0.0194  0.3072
  863MPD2     H12723   0.032   3.551  16.584  2.0705  0.6073  0.4231
  863MPD2    H112724   0.251   3.245  16.381  1.1848  1.7207  2.1766
  863MPD2    H212725   4.568   3.282  16.315  1.3375 -1.4088 -1.7734
  863MPD2    H312726   0.048   3.187  16.256 -0.4453  0.7658 -0.3910
  863MPD2     N12727   0.274   3.447  16.550  0.1600 -0.7067  0.6151
  863MPD2    H512728   0.355   3.389  16.531 -0.0234 -0.9902  0.6994
  863MPD2    N112729   4.535   3.485  16.480 -0.0235  0.6789  0.0658
  863MPD2    H712730   4.454   3.446  16.432  0.0734  1.3380 -0.6289
  864MPD2     C12731   0.417   4.655  17.034 -0.5174  0.0366 -0.0150
  864MPD2    C112732   0.448   4.581  16.922 -0.2966 -0.0825 -0.7469
  864MPD2    C212733   0.544   4.632  16.836 -0.1151 -1.3018 -0.1152
  864MPD2    C312734   0.592   0.027  16.846  0.3619 -0.4742  0.7180
  864MPD2    C412735   0.534   0.106  16.943 -0.0322  0.1896  0.1941
  864MPD2    C512736   0.456   0.050  17.041 -0.2638 -0.7430 -0.6396
  864MPD2     H12737   0.581   4.569  16.756 -0.1054  1.2197 -2.0949
  864MPD2    H112738   0.560   0.211  16.946  3.2245 -0.6253  0.0429
  864MPD2    H212739   0.343   4.618  17.105  1.4725  0.0918  2.0912
  864MPD2    H312740   0.427   0.118  17.120  0.9479  0.8170 -1.5202
  864MPD2     N12741   0.682   0.088  16.756  0.2564  0.3948 -0.0188
  864MPD2    H512742   0.700   0.187  16.765  1.7844  0.3159 -2.2022
  864MPD2    N112743   0.398   4.449  16.904  0.1528 -0.0893 -0.1107
  864MPD2    H712744   0.347   4.416  16.985 -0.6353 -1.0778 -1.0096
  865MPD2     C12745   0.555   0.437  15.982 -0.3689 -0.0076  0.0358
  865MPD2    C112746   0.530   0.309  16.036 -0.0134  0.6908  0.5044
  865MPD2    C212747   0.589   0.279  16.158 -0.4464  0.1429  0.8069
  865MPD2    C312748   0.669   0.371  16.227 -0.3018  0.3672  0.3188
  865MPD2    C412749   0.675   0.502  16.183 -0.0624 -0.1382 -0.3640
  865MPD2    C512750   0.617   0.530  16.061 -0.3564 -0.7111 -0.2117
  865MPD2     H12751   0.580   0.178  16.195 -2.8259  0.5805  1.4183
  865MPD2    H112752   0.737   0.573  16.236 -0.3722  1.5737 -2.3062
  865MPD2    H212753   0.519   0.460  15.882  0.1218 -2.9448 -0.8222
  865MPD2    H312754   0.628   0.631  16.023  3.4614 -0.6939  0.8929
  865MPD2     N12755   0.739   0.318  16.338  0.2187 -0.0203  0.0017
  865MPD2    H512756   0.709   0.225  16.365  1.6088  0.4929  3.3195
  865MPD2    N112757   0.472   0.211  15.951  0.0990 -0.0162  0.2934
  865MPD2    H712758   0.463   0.233  15.852 -0.5104  1.5733  0.6973
  866MPD2     C12759   2.418   1.682  11.121  0.0581  0.2788  1.1930
  866MPD2    C112760   2.389   1.634  10.999  0.0238  0.2564 -0.3405
  866MPD2    C212761   2.255   1.614  10.968 -0.0416 -0.0698  0.6183
  866MPD2    C312762   2.158   1.648  11.059 -0.0086 -0.7626  0.5697
  866MPD2    C412763   2.193   1.721  11.171  0.7262 -0.6518  0.3067
  866MPD2    C512764   2.323   1.733  11.200 -0.2794  0.7445  0.3637
  866MPD2     H12765   2.226   1.577  10.870 -1.4820  1.4606  0.4754
  866MPD2    H112766   2.123   1.751  11.249 -1.0900 -0.2522 -1.4949
  866MPD2    H212767   2.522   1.701  11.145  0.9150 -1.0393 -1.5118
  866MPD2    H312768   2.346   1.782  11.294  0.9764 -2.3538  1.6510
  866MPD2     N12769   2.020   1.625  11.028 -0.3235 -0.1361 -0.0459
  866MPD2    H512770   1.953   1.656  11.098 -0.0645  0.7509 -0.1877
  866MPD2    N112771   2.500   1.627  10.905 -0.2277  0.0527 -0.5054
  866MPD2    H712772   2.589   1.658  10.943  0.6494 -1.4271 -1.3685
  867MPD2     C12773   3.995   0.346  16.085  0.5114  0.0542  0.3512
  867MPD2    C112774   4.026   0.255  16.181 -0.1286 -0.5334  0.8495
  867MPD2    C212775   4.025   0.288  16.319  0.1626 -0.0077 -0.0156
  867MPD2    C312776   3.991   0.419  16.355 -0.3743 -0.1202 -0.0264
  867MPD2    C412777   3.956   0.512  16.263  0.2194  0.0814  0.4903
  867MPD2    C512778   3.959   0.474  16.134 -0.9146 -0.3572 -0.1395
  867MPD2     H12779   4.037   0.209  16.392  0.2387 -1.3545 -1.4769
  867MPD2    H112780   3.926   0.612  16.291  0.7013  0.2969  0.2223
  867MPD2    H212781   3.999   0.334  15.978  0.6804 -2.3730  0.6368
  867MPD2    H312782   3.932   0.538  16.050  0.1518 -0.4004 -0.5126
  867MPD2     N12783   3.976   0.458  16.492 -0.1561 -0.6186 -0.3448
  867MPD2    H512784   3.981   0.558  16.509 -0.5009 -0.2563 -2.3999
  867MPD2    N112785   4.077   0.131  16.136 -0.4801  0.6009  0.4962
  867MPD2    H712786   4.125   0.122  16.048 -1.0691 -0.4982  0.2910
  868MPD2     C12787   1.703   4.563  13.215  0.7456 -0.2866  0.4317
  868MPD2    C112788   1.663   4.451  13.137  0.0071  0.7854  0.3497
  868MPD2    C212789   1.572   4.368  13.198  0.9102 -0.0963  0.1819
  868MPD2    C312790   1.504   4.397  13.319 -0.8063 -0.1339  0.4103
  868MPD2    C412791   1.539   4.507  13.389  0.5058 -0.0735 -0.1218
  868MPD2    C512792   1.633   4.592  13.334  0.1870  0.0030  0.0913
  868MPD2     H12793   1.548   4.269  13.159  3.1883  0.7592 -3.4271
  868MPD2    H112794   1.491   4.536  13.482  0.9099  0.4033 -0.0638
  868MPD2    H212795   1.780   4.628  13.176  0.5124  0.2178  0.8228
  868MPD2    H312796   1.660   4.675  13.398 -0.4154  0.1844  0.1100
  868MPD2     N12797   1.401   4.317  13.372  0.1967 -0.1786  0.4854
  868MPD2    H512798   1.395   4.223  13.334 -1.0774  0.0438  0.1586
  868MPD2    N112799   1.726   4.421  13.019 -0.0137  0.3108 -0.7287
  868MPD2    H712800   1.817   4.461  12.995  0.9902 -1.9197 -0.6628
  869MPD2     C12801   2.369   1.654   1.151 -0.4159  0.8400  0.0621
  869MPD2    C112802   2.383   1.763   1.068  0.1357  0.6363  0.1900
  869MPD2    C212803   2.507   1.788   1.016 -0.4816  0.2825  0.1914
  869MPD2    C312804   2.613   1.703   1.038 -0.4948 -0.6060  0.9147
  869MPD2    C412805   2.602   1.592   1.112 -0.5668 -0.4102 -0.0845
  869MPD2    C512806   2.478   1.570   1.172 -0.6919  0.1698 -0.4478
  869MPD2     H12807   2.530   1.889   0.984 -2.0358  0.3440 -0.7186
  869MPD2    H112808   2.671   1.514   1.142  0.3847  0.2272 -0.6016
  869MPD2    H212809   2.277   1.632   1.204 -0.2692  0.3588  0.1127
  869MPD2    H312810   2.471   1.492   1.246 -1.1491  0.5002 -0.1411
  869MPD2     N12811   2.745   1.734   0.993 -0.0706 -0.3633 -0.3305
  869MPD2    H512812   2.818   1.672   1.027  0.1222 -1.1007 -2.0494
  869MPD2    N112813   2.269   1.840   1.052 -0.4756  0.3200  0.1359
  869MPD2    H712814   2.188   1.807   1.104  0.0004  1.0899  1.3489
  870MPD2     C12815   2.442   0.160   1.880  0.6698  0.5055  0.0215
  870MPD2    C112816   2.412   0.101   1.753  0.4425 -0.7733 -0.0177
  870MPD2    C212817   2.356   0.190   1.664  0.3056 -0.0354  0.0879
  870MPD2    C312818   2.297   0.308   1.701  0.2484  0.1851  0.5429
  870MPD2    C412819   2.302   0.346   1.839 -0.4897  0.4855  0.1300
  870MPD2    C512820   2.388   0.280   1.920  0.1740 -0.1126  0.5941
  870MPD2     H12821   2.332   0.144   1.569 -0.2064 -1.3186  0.8492
  870MPD2    H112822   2.262   0.442   1.868  2.4796  0.7541  3.3077
  870MPD2    H212823   2.507   0.111   1.952  1.0079  1.8102  0.5964
  870MPD2    H312824   2.410   0.324   2.017  2.1278  0.6399 -0.1942
  870MPD2     N12825   2.234   0.388   1.598  0.1836  0.4786  0.1872
  870MPD2    H512826   2.268   0.366   1.505 -1.8187  2.0900 -0.9245
  870MPD2    N112827   2.466   4.711   1.727  0.2332  0.0376  0.1626
  870MPD2    H712828   2.525   4.664   1.794 -0.9030  0.3324  1.3703
  871MPD2     C12829   3.283   0.364  16.396 -0.2233 -0.0551  0.2474
  871MPD2    C112830   3.279   0.279  16.507  0.0097 -0.3503  0.0417
  871MPD2    C212831   3.292   0.144  16.477 -0.6105 -0.6480  0.5961
  871MPD2    C312832   3.292   0.088  16.348  0.4374 -0.6844 -0.0988
  871MPD2    C412833   3.310   0.180  16.247 -0.6643  0.3025  0.4167
  871MPD2    C512834   3.300   0.317  16.269 -0.2114  0.3191  0.4633
  871MPD2     H12835   3.298   0.076  16.561  0.7420 -0.0007  1.0233
  871MPD2    H112836   3.350   0.157  16.149 -0.0256  1.5949  0.3745
  871MPD2    H212837   3.282   0.472  16.407 -0.8483  0.1267 -1.5805
  871MPD2    H312838   3.310   0.388  16.188  2.3882 -2.6839 -1.8103
  871MPD2     N12839   3.287   4.687  16.330  0.1678 -0.0188  0.3770
  871MPD2    H512840   3.268   4.625  16.409  0.8663 -1.8553 -0.8759
  871MPD2    N112841   3.271   0.337  16.634 -0.9142  0.1765  0.8453
  871MPD2    H712842   3.277   0.439  16.630 -2.4148  0.3103  2.1541
  872MPD2     C12843   4.245   2.553  13.992 -0.5570 -0.1891 -0.3585
  872MPD2    C112844   4.155   2.653  14.021 -0.2169 -0.6185  0.1911
  872MPD2    C212845   4.021   2.621  14.039 -0.0814  0.2957  0.0437
  872MPD2    C312846   3.977   2.490  14.043  0.9723  0.0235 -0.8300
  872MPD2    C412847   4.073   2.390  14.025  0.8199  0.0882  0.6277
  872MPD2    C512848   4.199   2.419  13.984 -0.1340  0.3990 -0.1109
  872MPD2     H12849   3.955   2.707  14.051  0.4465  0.5408  1.2006
  872MPD2    H112850   4.057   2.284  14.044 -1.0059  0.1166 -0.6353
  872MPD2    H212851   4.351   2.565  13.973 -0.7102 -0.2281 -1.2430
  872MPD2    H312852   4.269   2.339  13.964 -1.3689 -0.7761  0.2489
  872MPD2     N12853   3.848   2.455  14.081 -0.7615 -0.5215 -0.0929
  872MPD2    H512854   3.823   2.359  14.099 -0.1534 -0.5811  0.4126
  872MPD2    N112855   4.202   2.786  14.019 -0.4820 -0.3753  0.2722
  872MPD2    H712856   4.139   2.865  14.034  1.1226  1.3232 -1.8570
  873MPD2     C12857   1.094   1.451   0.994 -0.5171 -0.5803  0.0322
  873MPD2    C112858   1.181   1.462   1.104 -0.4286 -0.2876 -0.1547
  873MPD2    C212859   1.170   1.379   1.210  0.1602 -0.0578  0.2491
  873MPD2    C312860   1.067   1.287   1.212 -0.9254 -0.2463  0.6878
  873MPD2    C412861   0.982   1.267   1.104 -0.1123 -0.0686  0.0526
  873MPD2    C512862   1.002   1.346   0.989 -0.1912  0.0958  0.3820
  873MPD2     H12863   1.242   1.385   1.291  0.8456 -0.9191 -0.2948
  873MPD2    H112864   0.915   1.183   1.095 -1.9044  1.2082  1.4360
  873MPD2    H212865   1.112   1.509   0.903 -0.0863  2.2210  1.9110
  873MPD2    H312866   0.939   1.327   0.903  2.4930  1.3689 -1.8539
  873MPD2     N12867   1.055   1.201   1.326  0.6596  0.2614  0.2178
  873MPD2    H512868   0.981   1.132   1.318  1.0705 -0.0580 -0.6949
  873MPD2    N112869   1.271   1.574   1.101 -0.6079  0.0739  0.5518
  873MPD2    H712870   1.273   1.623   1.012  1.4340  0.7389  0.9479
  874MPD2     C12871   0.473   2.671  16.158 -0.0420  0.4224  0.2005
  874MPD2    C112872   0.555   2.616  16.251 -0.1395 -0.2339  0.5608
  874MPD2    C212873   0.690   2.631  16.230  0.3003 -0.3921  0.5064
  874MPD2    C312874   0.740   2.726  16.136  0.2931 -0.0917 -0.3413
  874MPD2    C412875   0.655   2.778  16.037  0.4521  0.5222  0.8000
  874MPD2    C512876   0.519   2.748  16.056 -0.4276  0.2023  0.3472
  874MPD2     H12877   0.757   2.591  16.305  1.2345 -1.2220 -0.7745
  874MPD2    H112878   0.695   2.841  15.959  0.9309 -1.1079 -0.2753
  874MPD2    H212879   0.368   2.643  16.160  0.6290 -2.0943  0.9802
  874MPD2    H312880   0.447   2.798  15.992  2.3874  2.1536 -1.2897
  874MPD2     N12881   0.874   2.756  16.146  0.7310 -0.6264  0.4651
  874MPD2    H512882   0.924   2.725  16.229 -1.7965 -2.6546  1.2178
  874MPD2    N112883   0.497   2.544  16.352  0.6973 -0.1907 -0.0713
  874MPD2    H712884   0.397   2.526  16.349  0.6523  0.1184 -0.3902
  875MPD2     C12885   2.171   1.126  14.452  0.3690 -0.4402  0.2045
  875MPD2    C112886   2.041   1.100  14.481  0.3466 -0.8302 -0.2322
  875MPD2    C212887   1.999   1.126  14.610  0.4003  0.2554 -1.1816
  875MPD2    C312888   2.087   1.190  14.698 -0.4304  0.1210  0.6185
  875MPD2    C412889   2.212   1.225  14.662 -0.4989  0.2036  0.1655
  875MPD2    C512890   2.261   1.185  14.542  0.4830 -0.1604  0.0423
  875MPD2     H12891   1.892   1.111  14.623  1.1582 -3.2297  1.0701
  875MPD2    H112892   2.280   1.269  14.734  0.0889  1.5988 -1.2601
  875MPD2    H212893   2.208   1.115  14.350  2.7396  1.9915  0.8055
  875MPD2    H312894   2.360   1.221  14.518  1.5696 -2.5879  0.8449
  875MPD2     N12895   2.052   1.247  14.827  0.1125  0.2492 -0.3126
  875MPD2    H512896   2.126   1.304  14.867 -1.3740  2.8889 -1.3194
  875MPD2    N112897   1.959   1.043  14.386  0.6250  0.6753  0.0408
  875MPD2    H712898   1.864   1.028  14.416  1.0888 -1.9093  0.1926
  876MPD2     C12899   0.382   2.318  16.032 -0.3943 -0.0782  0.4257
  876MPD2    C112900   0.521   2.317  16.011  0.4359  0.1627 -0.2828
  876MPD2    C212901   0.595   2.205  16.063  0.6556 -0.4236 -0.2793
  876MPD2    C312902   0.540   2.105  16.134  0.0110  0.8802  0.5033
  876MPD2    C412903   0.401   2.104  16.138 -0.3507  0.1843 -0.4886
  876MPD2    C512904   0.324   2.212  16.089 -0.1448  0.8551 -0.2138
  876MPD2     H12905   0.698   2.192  16.033  0.1378 -0.0699 -2.2187
  876MPD2    H112906   0.342   2.021  16.176  0.4643 -0.3071 -0.2972
  876MPD2    H212907   0.323   2.391  15.978 -0.5942 -0.3685  0.2524
  876MPD2    H312908   0.217   2.200  16.074  0.0667 -1.2314 -0.0828
  876MPD2     N12909   0.614   1.990  16.168  0.0856  0.5867 -0.2998
  876MPD2    H512910   0.707   1.991  16.128 -0.6319  0.5498 -1.9909
  876MPD2    N112911   0.578   2.412  15.923  0.2701 -0.6436 -0.3888
  876MPD2    H712912   0.507   2.473  15.883 -0.3056 -1.0177  0.0608
  877MPD2     C12913   0.504   2.743  15.244 -0.5189 -0.2003  0.1412
  877MPD2    C112914   0.631   2.781  15.277  0.3625 -0.0481 -0.0544
  877MPD2    C212915   0.707   2.858  15.194 -0.1027  0.0764 -0.1786
  877MPD2    C312916   0.662   2.894  15.071  0.3474 -0.2550  0.6337
  877MPD2    C412917   0.532   2.860  15.035  0.8661 -0.1183  0.1226
  877MPD2    C512918   0.452   2.797  15.126  0.0593  0.4440 -0.0458
  877MPD2     H12919   0.804   2.888  15.232  0.0942 -2.0975  0.9821
  877MPD2    H112920   0.490   2.890  14.940 -1.6978  0.3016  1.4076
  877MPD2    H212921   0.451   2.662  15.294 -1.0463 -0.4289 -0.7858
  877MPD2    H312922   0.352   2.774  15.090  1.1082 -0.0956 -2.6671
  877MPD2     N12923   0.738   2.959  14.968  0.1318  0.1929 -0.4205
  877MPD2    H512924   0.701   2.969  14.874  2.3046  1.0770 -1.1778
  877MPD2    N112925   0.690   2.738  15.396  0.3609 -0.2210  0.0679
  877MPD2    H712926   0.769   2.800  15.409  0.4739 -0.4471  0.4832
  878MPD2     C12927   1.072   3.045  13.619  0.9577 -0.0330  0.9210
  878MPD2    C112928   1.046   2.931  13.543 -0.2594  0.4133  0.4299
  878MPD2    C212929   0.983   2.822  13.609  0.8471 -0.5459 -0.6628
  878MPD2    C312930   0.946   2.830  13.746 -0.4944 -0.1197  0.3215
  878MPD2    C412931   0.983   2.946  13.811 -0.5136 -0.9704  0.2308
  878MPD2    C512932   1.037   3.059  13.748 -0.4733 -0.1513  0.5805
  878MPD2     H12933   0.972   2.732  13.549  3.5403 -0.5956 -1.0849
  878MPD2    H112934   0.940   2.967  13.908 -0.7874  0.2034 -0.1412
  878MPD2    H212935   1.116   3.138  13.583 -0.1230 -0.3708 -1.2102
  878MPD2    H312936   1.051   3.149  13.805  1.9372 -0.0496 -0.1227
  878MPD2     N12937   0.890   2.712  13.803 -0.6364  0.0362 -0.4481
  878MPD2    H512938   0.880   2.633  13.740  1.5090  1.0024 -2.0397
  878MPD2    N112939   1.075   2.931  13.406 -0.7493 -0.0956  0.4070
  878MPD2    H712940   1.132   3.010  13.378 -1.1627  0.1064  0.1384
  879MPD2     C12941   0.968   2.726  17.337  0.0711 -0.0835  0.7118
  879MPD2    C112942   1.004   2.800  17.222  0.1022 -0.4474  0.5495
  879MPD2    C212943   0.903   2.842  17.139  0.8933  0.2244 -0.0337
  879MPD2    C312944   0.780   2.787  17.143 -0.5199 -0.3718 -0.5745
  879MPD2    C412945   0.743   2.724  17.256 -0.1971 -0.8260  0.0164
  879MPD2    C512946   0.839   2.688  17.347 -0.3387  0.4219 -0.6080
  879MPD2     H12947   0.926   2.905  17.054 -2.3795  1.1667 -0.2520
  879MPD2    H112948   0.648   2.674  17.270 -0.5477  0.5348  2.5531
  879MPD2    H212949   1.045   2.683  17.399 -0.8421 -1.6837  0.7318
  879MPD2    H312950   0.817   2.626  17.434 -0.6132 -0.4725 -1.3156
  879MPD2     N12951   0.693   2.782  17.031  0.0407  0.0125 -0.0467
  879MPD2    H512952   0.599   2.749  17.049  0.1739 -0.9829 -1.1937
  879MPD2    N112953   1.137   2.838  17.216 -0.2858 -0.2730  0.2498
  879MPD2    H712954   1.205   2.789  17.272  0.4072 -1.1468 -1.3753
  880MPD2     C12955   1.918   0.015   0.168  0.0345  0.0040  0.0567
  880MPD2    C112956   2.008   0.052   0.265 -0.2514  0.2339  0.5276
  880MPD2    C212957   2.073   4.689   0.339  0.1357  0.5645 -0.8535
  880MPD2    C312958   2.059   4.559   0.312 -0.2848  0.1267 -0.1611
  880MPD2    C412959   1.977   4.525   0.206  0.6474  0.4072  0.3540
  880MPD2    C512960   1.902   4.614   0.141  0.0524  0.0173 -0.1276
  880MPD2     H12961   2.147   4.723   0.411 -2.2871 -0.0826  1.9575
  880MPD2    H112962   1.961   4.423   0.172 -1.5985  0.3543  1.5498
  880MPD2    H212963   1.859   0.081   0.105  2.6676  0.6351 -1.7380
  880MPD2    H312964   1.847   4.580   0.053  1.1324  2.6291 -1.7799
  880MPD2     N12965   2.133   4.461   0.388 -0.8660  0.8890 -0.1578
  880MPD2    H512966   2.181   4.499   0.469  0.0009 -0.4913 -0.0319
  880MPD2    N112967   2.036   0.188   0.275  0.0393  0.1170 -0.0238
  880MPD2    H712968   1.984   0.259   0.223  0.8741  0.8886  0.1843
  881MPD2     C12969   2.000   1.086  17.616 -0.3251  0.3410  0.0702
  881MPD2    C112970   2.003   0.954  17.579  0.1265 -0.0985 -0.0650
  881MPD2    C212971   1.980   0.855  17.678 -0.2102 -0.5629 -0.2129
  881MPD2    C312972   1.958   0.899   0.073 -0.2423 -0.2651 -0.1825
  881MPD2    C412973   1.926   1.031   0.098  0.2517 -0.2051  0.2780
  881MPD2    C512974   1.943   1.115  17.737  0.1047  0.1364  0.6255
  881MPD2     H12975   2.007   0.754  17.648 -0.3556  0.0783 -2.5053
  881MPD2    H112976   1.891   1.074   0.191  1.6762  1.2100  0.1413
  881MPD2    H212977   2.024   1.162  17.542  0.0386  0.4273  0.2746
  881MPD2    H312978   1.932   1.222   0.010  0.2925  0.2298  0.0082
  881MPD2     N12979   1.964   0.803   0.179 -0.3984 -0.1016  0.0119
  881MPD2    H512980   1.958   0.829   0.277  1.3809  0.0869  0.0715
  881MPD2    N112981   2.053   0.921  17.455 -0.0581 -0.5062  0.4023
  881MPD2    H712982   2.099   0.995  17.404  0.9819 -2.1442 -1.0499
  882MPD2     C12983   0.543   2.900  14.285  0.7926  0.4303  0.3981
  882MPD2    C112984   0.558   2.900  14.425 -0.2992 -0.6137 -1.1710
  882MPD2    C212985   0.468   2.820  14.500  0.0119  0.3733  0.2751
  882MPD2    C312986   0.368   2.741  14.442  0.2660 -0.4998  1.2487
  882MPD2    C412987   0.348   2.754  14.301 -0.1348 -0.1070  0.6866
  882MPD2    C512988   0.440   2.824  14.229  0.2962 -0.0511  0.6865
  882MPD2     H12989   0.492   2.810  14.605 -0.7336  1.9550  0.5817
  882MPD2    H112990   0.263   2.703  14.255 -0.0716 -0.5467  1.0535
  882MPD2    H212991   0.619   2.949  14.226  0.8265  0.6540  0.6262
  882MPD2    H312992   0.426   2.827  14.121  1.3442 -0.7779  0.5301
  882MPD2     N12993   0.292   2.649  14.521 -0.5660 -0.1398  0.3924
  882MPD2    H512994   0.228   2.584  14.475  0.6308 -2.9029  2.6242
  882MPD2    N112995   0.669   2.978  14.475  0.2408 -0.5159  0.7688
  882MPD2    H712996   0.729   3.020  14.405  0.8832 -0.7165  1.2019
  883MPD2     C12997   2.440   2.484  16.202 -0.4194  0.3187  0.0261
  883MPD2    C112998   2.474   2.599  16.142 -0.4275 -0.2207 -0.5749
  883MPD2    C212999   2.577   2.679  16.198  0.3002 -0.2452 -0.1198
  883MPD2    C313000   2.639   2.652  16.320  0.2627  1.3145  0.5770
  883MPD2    C413001   2.596   2.537  16.376 -0.3179  0.0625 -0.7377
  883MPD2    C513002   2.506   2.449  16.315 -0.2439 -0.0414 -1.2107
  883MPD2     H13003   2.608   2.769  16.145  0.4782 -0.5237 -0.4912
  883MPD2    H113004   2.634   2.508  16.474 -1.2887  0.3828 -0.2759
  883MPD2    H213005   2.365   2.415  16.163  0.8995 -1.4776  0.6640
  883MPD2    H313006   2.475   2.359  16.367  0.7769  1.3437  1.7904
  883MPD2     N13007   2.734   2.737  16.382  0.2953 -0.1079 -0.0255
  883MPD2    H513008   2.758   2.818  16.326  0.0559 -0.7273 -1.0264
  883MPD2    N113009   2.420   2.637  16.014 -0.0376 -0.6664 -0.3396
  883MPD2    H713010   2.456   2.721  15.968  2.6351 -1.4111  0.3558
  884MPD2     C13011   4.618   3.344  15.213  0.5783  0.3295 -0.7517
  884MPD2    C113012   4.557   3.439  15.124 -0.5439  0.4870 -0.2461
  884MPD2    C213013   4.425   3.458  15.139 -0.0003 -0.5589 -0.1795
  884MPD2    C313014   4.349   3.392  15.233  0.6795  0.9451  0.8540
  884MPD2    C413015   4.412   3.297  15.301 -0.3971 -0.5846 -0.4073
  884MPD2    C513016   4.547   3.270  15.290  0.3210  0.0765 -0.9207
  884MPD2     H13017   4.380   3.528  15.069  0.4659 -0.0336  0.0368
  884MPD2    H113018   4.362   3.233  15.373 -1.6688 -1.4557 -2.0905
  884MPD2    H213019   4.725   3.326  15.211  0.4423 -0.3441 -2.2372
  884MPD2    H313020   4.593   3.193  15.351  0.4482 -0.0116 -1.1284
  884MPD2     N13021   4.207   3.402  15.237  0.0475 -0.0869 -0.0427
  884MPD2    H513022   4.163   3.452  15.160 -0.6426  1.9460  1.6564
  884MPD2    N113023   4.632   3.518  15.032  0.5466 -0.0495  0.2572
  884MPD2    H713024   4.576   3.577  14.971  1.6319  1.2602  0.5193
  885MPD2     C13025   2.307   3.841  17.486 -0.2687  0.4715  0.1240
  885MPD2    C113026   2.407   3.749  17.470 -0.5581  0.0003  0.2248
  885MPD2    C213027   2.426   3.690  17.349  0.8841 -0.1162  0.5454
  885MPD2    C313028   2.355   3.728  17.239 -0.0912  0.1477 -0.7425
  885MPD2    C413029   2.239   3.808  17.257 -0.4885  0.4996 -0.6023
  885MPD2    C513030   2.222   3.862  17.377 -0.9493  0.9326  0.2242
  885MPD2     H13031   2.503   3.614  17.334  1.1541 -0.2220  2.4938
  885MPD2    H113032   2.176   3.843  17.177  2.0890  1.2919 -2.2673
  885MPD2    H213033   2.290   3.879  17.586 -2.0115  2.6476 -0.9890
  885MPD2    H313034   2.141   3.933  17.391 -2.4351 -0.2136 -2.5602
  885MPD2     N13035   2.400   3.677  17.111  0.1245 -0.1935  0.5313
  885MPD2    H513036   2.480   3.616  17.104 -0.3669 -0.8636  0.7735
  885MPD2    N113037   2.491   3.721  17.582 -0.4632  0.3994 -0.5012
  885MPD2    H713038   2.500   3.791  17.654  1.1242 -2.6237  2.2095
  886MPD2     C13039   4.241   1.925  15.827 -0.8306  0.8208  0.0816
  886MPD2    C113040   4.314   1.893  15.713  0.1778  0.4654  0.2718
  886MPD2    C213041   4.296   1.972  15.595 -0.1431  0.6655 -0.0083
  886MPD2    C313042   4.228   2.085  15.592  0.7247 -0.3398 -0.0287
  886MPD2    C413043   4.162   2.122  15.712 -0.1184  0.3566 -0.1935
  886MPD2    C513044   4.162   2.041  15.825 -0.7733  0.3379  0.7149
  886MPD2     H13045   4.341   1.942  15.501  1.3683  3.6759 -0.2451
  886MPD2    H113046   4.099   2.210  15.723  1.2055  1.6113 -2.6179
  886MPD2    H213047   4.252   1.875  15.923  0.3042  1.3657  0.2331
  886MPD2    H313048   4.107   2.065  15.915 -0.5277 -0.1768  1.0008
  886MPD2     N13049   4.251   2.165  15.478 -0.0052 -0.5711 -0.1930
  886MPD2    H513050   4.307   2.116  15.408  0.0119 -0.2440 -0.4083
  886MPD2    N113051   4.418   1.795  15.721 -0.5981 -0.0526  0.0065
  886MPD2    H713052   4.436   1.759  15.814  0.6702  0.1474 -0.1580
  887MPD2     C13053   0.400   1.973  15.720 -0.9200 -0.0452 -0.3497
  887MPD2    C113054   0.278   1.970  15.656  0.8355 -0.5576 -0.8530
  887MPD2    C213055   0.217   2.086  15.620  0.2756 -0.6746 -1.0056
  887MPD2    C313056   0.288   2.202  15.642 -0.2645 -0.3352 -0.1240
  887MPD2    C413057   0.413   2.202  15.695 -0.8245 -0.3846  0.2241
  887MPD2    C513058   0.469   2.090  15.738  0.5339  0.0203  0.3600
  887MPD2     H13059   0.117   2.087  15.578 -0.0779  0.7384 -0.1308
  887MPD2    H113060   0.470   2.294  15.705 -0.1376 -0.6712 -1.1937
  887MPD2    H213061   0.447   1.885  15.764  0.4815  0.9241  0.1105
  887MPD2    H313062   0.568   2.090  15.782  0.9651  3.5393 -0.5487
  887MPD2     N13063   0.220   2.318  15.610 -0.8113 -0.5489  0.5929
  887MPD2    H513064   0.127   2.311  15.571  0.3205  0.0584 -2.2854
  887MPD2    N113065   0.199   1.848  15.638 -0.6769  0.4535  0.1535
  887MPD2    H713066   0.105   1.848  15.599  0.3265 -2.1897 -2.2094
  888MPD2     C13067   1.780   2.177  14.558  0.2751 -0.3168  0.1068
  888MPD2    C113068   1.750   2.181  14.691  0.5520  0.4085  0.0659
  888MPD2    C213069   1.787   2.287  14.768 -0.5343  0.5773  0.1274
  888MPD2    C313070   1.867   2.381  14.713 -0.2814 -0.5550  0.0108
  888MPD2    C413071   1.900   2.374  14.576 -0.1731 -0.0866 -0.2202
  888MPD2    C513072   1.852   2.272  14.500  0.1145  0.4868  0.2016
  888MPD2     H13073   1.770   2.305  14.873  1.2056 -0.0561  0.5088
  888MPD2    H113074   1.942   2.462  14.528  0.0158 -0.2471 -0.3455
  888MPD2    H213075   1.770   2.088  14.497  0.7953  0.3873 -1.0019
  888MPD2    H313076   1.891   2.262  14.399 -1.8814  1.3222 -0.6445
  888MPD2     N13077   1.920   2.486  14.800  0.0353  0.3883 -0.2779
  888MPD2    H513078   1.884   2.496  14.894 -0.0861 -1.6236 -0.0983
  888MPD2    N113079   1.692   2.072  14.754  0.7274  0.1336 -0.4539
  888MPD2    H713080   1.700   2.072  14.855  3.3640  0.8261 -0.6606
  889MPD2     C13081   1.966   1.627  13.931 -0.3183 -0.4861  0.6506
  889MPD2    C113082   1.872   1.635  13.827  0.0751  0.7230  0.6668
  889MPD2    C213083   1.817   1.763  13.809 -0.0783  0.1257  0.5600
  889MPD2    C313084   1.848   1.877  13.878  0.0023  0.3042 -0.1253
  889MPD2    C413085   1.944   1.866  13.981  0.1162  0.1799 -0.3529
  889MPD2    C513086   2.002   1.745  14.006 -0.5232  0.0675  0.2103
  889MPD2     H13087   1.754   1.792  13.726 -2.5058 -3.2690  1.2290
  889MPD2    H113088   1.990   1.951  14.030  1.6709 -1.8433  1.6944
  889MPD2    H213089   2.024   1.537  13.948  2.5320  1.2336  0.0323
  889MPD2    H313090   2.087   1.745  14.073  0.0542  1.0016 -0.5227
  889MPD2     N13091   1.804   2.004  13.826  0.1408  0.0938 -0.1133
  889MPD2    H513092   1.725   2.008  13.762  1.0742 -1.1511 -1.3374
  889MPD2    N113093   1.871   1.531  13.729  0.0544 -0.6480  0.1692
  889MPD2    H713094   1.797   1.532  13.660 -0.0267 -1.1479  0.2502
  890MPD2     C13095   0.642   3.595  14.457 -0.3327 -0.5928  0.5993
  890MPD2    C113096   0.767   3.614  14.491  0.1662 -0.5431  1.2025
  890MPD2    C213097   0.809   3.576  14.614  0.9851  0.2788  0.4356
  890MPD2    C313098   0.721   3.513  14.705 -0.1374  0.1256  0.5030
  890MPD2    C413099   0.592   3.490  14.668 -0.2153 -0.0202 -0.9375
  890MPD2    C513100   0.549   3.544  14.548 -0.7073  0.1630  0.1785
  890MPD2     H13101   0.911   3.582  14.651  1.5238 -0.5421 -0.9150
  890MPD2    H113102   0.516   3.447  14.733 -0.6066 -0.4119 -1.6389
  890MPD2    H213103   0.601   3.641  14.367  0.7536  0.4889  0.6538
  890MPD2    H313104   0.445   3.532  14.522 -0.7370 -1.1866  0.8821
  890MPD2     N13105   0.772   3.479  14.836  0.1075 -0.4489 -0.0994
  890MPD2    H513106   0.859   3.528  14.856 -1.0217  1.0213  1.2043
  890MPD2    N113107   0.846   3.687  14.401 -0.2052 -0.2722  0.4416
  890MPD2    H713108   0.800   3.713  14.314  2.1009  1.9693 -0.1028
  891MPD2     C13109   3.209   1.566  16.574 -0.0355  0.2720 -0.5639
  891MPD2    C113110   3.218   1.698  16.533 -0.5284 -0.7621 -0.1949
  891MPD2    C213111   3.320   1.785  16.566 -0.4756  0.1569  0.0428
  891MPD2    C313112   3.419   1.729  16.641 -0.2769  0.5365  0.0473
  891MPD2    C413113   3.427   1.594  16.675 -0.0103 -0.0019 -0.7330
  891MPD2    C513114   3.318   1.517  16.646 -0.1287  0.7968  0.7534
  891MPD2     H13115   3.308   1.887  16.531 -2.9070  0.7327  2.5505
  891MPD2    H113116   3.514   1.543  16.716 -0.6147 -1.4056 -1.1967
  891MPD2    H213117   3.133   1.503  16.528 -3.1674  4.0525 -0.5390
  891MPD2    H313118   3.311   1.419  16.692 -2.1219  0.8726  0.6274
  891MPD2     N13119   3.509   1.822  16.700 -0.1324  0.0617  0.0545
  891MPD2    H513120   3.498   1.920  16.677  3.2740 -0.1958 -2.6496
  891MPD2    N113121   3.107   1.740  16.453  0.2846  0.1889  0.4738
  891MPD2    H713122   3.034   1.670  16.441  1.5014 -1.2492  1.5721
  892MPD2     C13123   4.568   3.104  14.963  0.2215 -0.3378 -0.5753
  892MPD2    C113124   4.521   2.993  15.026 -0.4730 -0.1682  0.1634
  892MPD2    C213125   4.583   2.867  15.020 -0.4320  0.0449 -0.2390
  892MPD2    C313126   4.707   2.862  14.957  1.0333 -0.3851  0.5102
  892MPD2    C413127   0.023   2.975  14.897  0.3031  0.7462 -1.6115
  892MPD2    C513128   4.685   3.095  14.901 -0.5091 -0.0007  0.2752
  892MPD2     H13129   4.529   2.782  15.062  0.7370  0.7406  2.7300
  892MPD2    H113130   0.112   2.971  14.835 -0.0523 -0.1038 -2.0644
  892MPD2    H213131   4.514   3.198  14.954 -0.6605 -0.7869 -0.0529
  892MPD2    H313132   4.729   3.186  14.862  0.0369 -0.1293  0.5888
  892MPD2     N13133   0.050   2.741  14.941 -0.4713 -0.1181  0.0256
  892MPD2    H513134   0.133   2.752  14.883  1.3652 -0.0940  2.6473
  892MPD2    N113135   4.389   3.005  15.085  0.2936  0.8315  0.9987
  892MPD2    H713136   4.342   3.090  15.058 -2.1438 -0.8383  0.0544
  893MPD2     C13137   1.336   0.590   1.457  0.1744  0.5339 -0.3390
  893MPD2    C113138   1.263   0.691   1.398 -0.1325  0.5202  0.2427
  893MPD2    C213139   1.122   0.669   1.382  0.0204  0.2977  0.5601
  893MPD2    C313140   1.060   0.561   1.446  0.1369  0.1779  0.2928
  893MPD2    C413141   1.138   0.470   1.508 -0.1958  0.2717  0.0925
  893MPD2    C513142   1.273   0.485   1.513  0.0267 -0.2977 -0.5214
  893MPD2     H13143   1.060   0.748   1.341  1.9380  1.5930  0.1415
  893MPD2    H113144   1.090   0.394   1.568  1.4311 -0.8752 -0.0635
  893MPD2    H213145   1.444   0.592   1.460  0.2273 -0.7566 -1.2228
  893MPD2    H313146   1.332   0.416   1.572 -0.6230  2.1517  2.9744
  893MPD2     N13147   0.924   0.531   1.430  0.1174 -0.4167 -0.5267
  893MPD2    H513148   0.892   0.452   1.486  4.0827 -0.5664  1.5500
  893MPD2    N113149   1.338   0.804   1.361 -0.1707 -0.3759  0.3279
  893MPD2    H713150   1.437   0.813   1.382 -0.7185 -1.1573  3.2688
  894MPD2     C13151   4.077   2.856   0.548 -0.5779 -0.3675 -0.3192
  894MPD2    C113152   4.083   2.946   0.655  0.3651  0.0059 -0.1515
  894MPD2    C213153   4.127   3.073   0.628 -0.5856 -0.2602 -0.1058
  894MPD2    C313154   4.175   3.110   0.506  0.2512 -0.0798 -0.1579
  894MPD2    C413155   4.170   3.017   0.398 -0.4385 -0.7098 -0.3114
  894MPD2    C513156   4.118   2.889   0.424 -0.0366  0.2691  0.4347
  894MPD2     H13157   4.135   3.147   0.707 -0.3826  1.1998 -1.4834
  894MPD2    H113158   4.197   3.041   0.296 -0.9330  0.3777 -0.1849
  894MPD2    H213159   4.032   2.758   0.552  0.9910 -1.0866 -0.5237
  894MPD2    H313160   4.110   2.813   0.347  0.5851  0.8549 -0.2127
  894MPD2     N13161   4.222   3.245   0.490  0.1975  0.2996 -0.0946
  894MPD2    H513162   4.230   3.290   0.581 -1.2501 -1.1051  0.7377
  894MPD2    N113163   4.048   2.909   0.785  0.5119  0.4776  0.2611
  894MPD2    H713164   4.064   2.965   0.867 -1.0220 -1.4820  1.9087
  895MPD2     C13165   4.422   2.653  13.528 -0.5236 -0.1377  0.5716
  895MPD2    C113166   4.334   2.567  13.593  0.1019 -0.3432 -0.1283
  895MPD2    C213167   4.359   2.429  13.600  0.8764 -0.3709 -0.3921
  895MPD2    C313168   4.474   2.381  13.537 -0.1782 -0.2851 -0.2469
  895MPD2    C413169   4.559   2.469  13.480  0.5010  0.5499 -0.7876
  895MPD2    C513170   4.534   2.601  13.470  0.1509 -0.0814  0.5247
  895MPD2     H13171   4.285   2.367  13.648  1.2415  0.1880  0.8915
  895MPD2    H113172   4.647   2.420  13.439  0.2144 -1.6598  1.2956
  895MPD2    H213173   4.405   2.759  13.516  1.0641  0.1574  0.9132
  895MPD2    H313174   4.601   2.670  13.420 -0.4799  1.2227  1.4665
  895MPD2     N13175   4.501   2.244  13.519 -0.8952 -0.2054  0.8745
  895MPD2    H513176   4.579   2.227  13.456 -0.3452  2.0374  0.9504
  895MPD2    N113177   4.214   2.601  13.648 -0.0789 -0.1099  0.7313
  895MPD2    H713178   4.148   2.526  13.666  1.2207 -1.6549 -0.9623
  896MPD2     C13179   1.515   3.959   1.533 -0.0336  0.3126  1.1193
  896MPD2    C113180   1.466   3.952   1.408  0.5427  0.3986  1.2046
  896MPD2    C213181   1.331   3.919   1.392 -0.0510 -0.6555  0.6013
  896MPD2    C313182   1.249   3.889   1.502  0.2848 -0.0764 -0.1442
  896MPD2    C413183   1.302   3.901   1.634  0.7156  0.5219 -0.0701
  896MPD2    C513184   1.436   3.931   1.642  0.3199  0.2192 -0.3689
  896MPD2     H13185   1.291   3.925   1.291 -0.7600  0.9925  0.9838
  896MPD2    H113186   1.242   3.875   1.720  0.9912 -1.7262 -0.5535
  896MPD2    H213187   1.621   3.971   1.554 -0.1776  1.1439  1.3839
  896MPD2    H313188   1.490   3.938   1.736  1.4704  2.1671 -1.1775
  896MPD2     N13189   1.111   3.874   1.480 -0.4753  0.0139 -0.3292
  896MPD2    H513190   1.086   3.894   1.384  2.5342 -0.8558 -1.2938
  896MPD2    N113191   1.559   3.976   1.306 -0.4898 -0.7098 -0.2548
  896MPD2    H713192   1.650   4.013   1.332 -0.3146 -0.5498 -1.0984
  897MPD2     C13193   2.736   2.299  10.503 -0.5105 -0.4192  0.5075
  897MPD2    C113194   2.610   2.302  10.448 -0.4686  0.2001 -0.2195
  897MPD2    C213195   2.513   2.220  10.508  0.8989 -0.3359 -0.6513
  897MPD2    C313196   2.545   2.137  10.616 -0.0094 -0.1324  0.9853
  897MPD2    C413197   2.673   2.146  10.669 -0.1459 -0.3753 -0.1400
  897MPD2    C513198   2.770   2.215  10.603  0.0327  0.6171 -0.3829
  897MPD2     H13199   2.408   2.235  10.488  0.3446 -2.8237  0.5228
  897MPD2    H113200   2.704   2.072  10.742  1.1774 -1.1425 -1.4953
  897MPD2    H213201   2.812   2.364  10.460  0.1472 -1.0013  0.7879
  897MPD2    H313202   2.875   2.196  10.618 -0.0109 -0.3437 -1.2948
  897MPD2     N13203   2.448   2.053  10.676 -0.4797  0.1758 -0.8732
  897MPD2    H513204   2.361   2.042  10.626 -1.4002 -0.3160  0.8184
  897MPD2    N113205   2.577   2.399  10.351  0.1366  0.2131  0.0282
  897MPD2    H713206   2.641   2.478  10.350 -0.0780  0.3702 -1.1089
  898MPD2     C13207   3.937   2.608  16.802  0.2233  0.2811 -0.0648
  898MPD2    C113208   4.013   2.684  16.885 -0.5155  0.1654 -0.4344
  898MPD2    C213209   3.977   2.816  16.900 -0.8020  0.1749 -0.8087
  898MPD2    C313210   3.866   2.860  16.828 -0.0872 -0.4621  1.2624
  898MPD2    C413211   3.786   2.783  16.749  0.1294  0.6250 -0.1504
  898MPD2    C513212   3.825   2.655  16.740 -0.4698 -0.0530  0.1113
  898MPD2     H13213   4.041   2.880  16.960 -0.7155  0.5553 -1.3038
  898MPD2    H113214   3.699   2.816  16.693  0.0337 -0.5962 -0.7155
  898MPD2    H213215   3.959   2.506  16.774 -0.3058  0.1287  0.0685
  898MPD2    H313216   3.763   2.578  16.695  0.1836  0.4313 -1.5951
  898MPD2     N13217   3.830   3.001  16.840 -0.1896 -0.7319 -0.0447
  898MPD2    H513218   3.884   3.053  16.907 -1.4096  0.7181 -0.2007
  898MPD2    N113219   4.130   2.638  16.949  0.4425  0.8874  0.4274
  898MPD2    H713220   4.186   2.712  16.991 -0.0399  1.3148  0.3113
  899MPD2     C13221   0.546   3.080  17.097  0.1403  0.1287 -0.4771
  899MPD2    C113222   0.444   3.147  17.029 -0.0382  0.4280 -0.7520
  899MPD2    C213223   0.312   3.120  17.048  0.2821 -0.0554  0.1826
  899MPD2    C313224   0.275   3.022  17.134 -0.1852  0.0964 -0.2123
  899MPD2    C413225   0.376   2.957  17.215  0.0250 -0.0895  0.3813
  899MPD2    C513226   0.508   2.985  17.194  0.2798 -0.4418 -1.0749
  899MPD2     H13227   0.234   3.173  16.994  0.3502  0.9840  1.1063
  899MPD2    H113228   0.347   2.893  17.298 -1.3239  0.6901  0.5131
  899MPD2    H213229   0.650   3.109  17.083 -0.3117  2.8634  1.7824
  899MPD2    H313230   0.578   2.933  17.259 -0.8201 -0.9091 -0.2588
  899MPD2     N13231   0.142   3.001  17.170 -0.3265  0.3346 -0.1636
  899MPD2    H513232   0.123   2.925  17.235 -3.5701  1.0450 -0.2702
  899MPD2    N113233   0.467   3.260  16.941  0.1445  0.2657  0.5064
  899MPD2    H713234   0.381   3.301  16.906 -0.0619 -0.4554  0.1742
  900MPD2     C13235   0.188   0.335  12.119  0.1837 -0.3310  0.4786
  900MPD2    C113236   0.233   0.237  12.199  0.4212  0.0122 -0.2981
  900MPD2    C213237   0.148   0.131  12.209  1.1139 -0.1968 -0.3508
  900MPD2    C313238   0.021   0.124  12.152  0.4650  0.0807  0.0534
  900MPD2    C413239   4.710   0.224  12.069  0.1138  0.1235  0.5537
  900MPD2    C513240   0.071   0.322  12.049 -0.0790  0.6474  0.3287
  900MPD2     H13241   0.163   0.059  12.288  0.2550  1.1295  1.0029
  900MPD2    H113242   4.617   0.218  12.014  0.7873 -1.7621 -0.3829
  900MPD2    H213243   0.240   0.429  12.104 -0.1555 -0.4267 -1.2925
  900MPD2    H313244   0.026   0.402  11.991 -0.9067 -0.5624 -0.7017
  900MPD2     N13245   4.684   0.005  12.183 -0.1027  0.1114  0.1006
  900MPD2    H513246   0.005   4.667  12.223 -0.4282  0.3648  1.0111
  900MPD2    N113247   0.350   0.253  12.275  0.6133  0.0256  0.5860
  900MPD2    H713248   0.378   0.351  12.277  1.5871 -0.2155 -1.4936
  901MPD2     C13249   0.653   4.376  13.019 -0.7494  0.0684  0.1274
  901MPD2    C113250   0.600   4.347  12.897  0.3593 -0.3332 -0.4585
  901MPD2    C213251   0.578   4.455  12.807  0.0577 -0.2468 -0.2133
  901MPD2    C313252   0.604   4.582  12.854  0.4442 -0.5443  0.6532
  901MPD2    C413253   0.670   4.610  12.977 -0.7635  0.5697  0.3448
  901MPD2    C513254   0.686   4.505  13.060 -1.0039  0.0489 -0.1645
  901MPD2     H13255   0.547   4.437  12.705  1.3035 -2.2405 -0.2488
  901MPD2    H113256   0.692   4.709  13.016  0.4780  0.6615 -0.5784
  901MPD2    H213257   0.672   4.297  13.090 -0.2970 -0.1383 -0.2269
  901MPD2    H313258   0.727   4.524  13.159 -1.7240 -1.3005  0.3814
  901MPD2     N13259   0.579   4.692  12.758 -0.1926  0.7033  0.9778
  901MPD2    H513260   0.531   4.671  12.670  0.6321 -3.4835  1.5078
  901MPD2    N113261   0.583   4.213  12.873  0.0685  0.1475 -0.0489
  901MPD2    H713262   0.569   4.151  12.952 -0.4727 -1.5204 -1.4523
  902MPD2     C13263   3.691   2.579  13.211  0.2299  0.1067 -0.0945
  902MPD2    C113264   3.743   2.657  13.107  0.4181 -0.0042  0.6869
  902MPD2    C213265   3.829   2.605  13.007  0.0047  0.0713 -0.5364
  902MPD2    C313266   3.850   2.468  13.010 -0.2041  0.6984  0.5453
  902MPD2    C413267   3.789   2.389  13.099 -0.4482  0.0656 -0.2251
  902MPD2    C513268   3.716   2.447  13.198  0.5108  0.1810 -0.4874
  902MPD2     H13269   3.863   2.677  12.933  1.8785 -1.7357 -1.4095
  902MPD2    H113270   3.802   2.281  13.106  0.2731  0.3789  3.4845
  902MPD2    H213271   3.636   2.628  13.290  1.5482  0.8490  0.3607
  902MPD2    H313272   3.673   2.386  13.277  0.6372 -0.3484 -0.8263
  902MPD2     N13273   3.950   2.407  12.920 -0.3322 -0.4948  0.4408
  902MPD2    H513274   3.968   2.307  12.919  0.2059 -0.4000  0.3392
  902MPD2    N113275   3.728   2.791  13.131 -0.0213 -0.6599 -0.1105
  902MPD2    H713276   3.651   2.816  13.193  1.2088  0.9855  0.7546
  903MPD2     C13277   4.234   2.410  12.043  0.0902 -0.4013  0.0381
  903MPD2    C113278   4.174   2.471  12.154  0.0766  0.0943 -0.0996
  903MPD2    C213279   4.060   2.553  12.143  1.0745 -0.1338  0.0517
  903MPD2    C313280   4.005   2.565  12.018 -0.5301 -0.4544  0.4256
  903MPD2    C413281   4.067   2.520  11.903 -0.1154 -0.3341  0.1572
  903MPD2    C513282   4.175   2.436  11.923  0.5215 -0.2582 -0.0416
  903MPD2     H13283   4.015   2.605  12.226  2.0416  2.7935 -1.2563
  903MPD2    H113284   4.024   2.527  11.803  2.1855 -1.5948 -0.9110
  903MPD2    H213285   4.315   2.339  12.055  1.5786  1.3868  0.6888
  903MPD2    H313286   4.218   2.392  11.834 -0.5021  0.1995 -0.7668
  903MPD2     N13287   3.892   2.645  12.015 -0.7181  0.0963  0.5253
  903MPD2    H513288   3.868   2.689  12.104 -0.6690  0.2572  0.4592
  903MPD2    N113289   4.218   2.427  12.285  0.4678 -0.6056 -0.1796
  903MPD2    H713290   4.289   2.355  12.284  1.2431  0.1941 -2.2883
  904MPD2     C13291   4.099   1.302  14.356  0.5956  0.3334 -0.1328
  904MPD2    C113292   4.101   1.359  14.232  0.5128  0.3776  0.0789
  904MPD2    C213293   4.214   1.427  14.201 -0.2852  0.5992 -0.2765
  904MPD2    C313294   4.331   1.438  14.275 -0.5996  0.6003 -0.3975
  904MPD2    C413295   4.328   1.361  14.389 -0.5716 -0.1516  0.0336
  904MPD2    C513296   4.213   1.306  14.431  0.0200 -0.3311 -0.6210
  904MPD2     H13297   4.218   1.460  14.097 -0.9197  1.6234  0.0254
  904MPD2    H113298   4.415   1.349  14.454 -0.2269 -0.7558 -0.5406
  904MPD2    H213299   4.016   1.241  14.389  0.2282  1.3085  0.7676
  904MPD2    H313300   4.215   1.244  14.520 -1.0720  0.7770  0.1612
  904MPD2     N13301   4.441   1.519  14.235 -0.0182  0.2340  0.1355
  904MPD2    H513302   4.426   1.587  14.161  0.3917 -0.2374 -0.3873
  904MPD2    N113303   3.996   1.361  14.134  0.2614 -0.9264  0.2269
  904MPD2    H713304   4.009   1.415  14.050 -0.8038 -0.7408  0.1725
  905MPD2     C13305   3.833   1.607  13.387  0.2502 -0.3769  0.6117
  905MPD2    C113306   3.897   1.604  13.501 -0.8338  0.1693 -0.2779
  905MPD2    C213307   4.024   1.652  13.496 -0.1701 -0.0912 -0.3082
  905MPD2    C313308   4.085   1.708  13.387  0.2315 -0.5312  0.7681
  905MPD2    C413309   4.013   1.709  13.275 -0.0091  0.0323  0.1599
  905MPD2    C513310   3.888   1.652  13.274  0.2371 -0.4805 -0.2175
  905MPD2     H13311   4.083   1.646  13.587 -0.4855 -0.9084 -0.1615
  905MPD2    H113312   4.061   1.743  13.183 -0.7453  3.2224  0.9821
  905MPD2    H213313   3.731   1.571  13.397  0.3487 -1.2256 -1.5543
  905MPD2    H313314   3.830   1.647  13.182 -1.9642  0.2539  1.1339
  905MPD2     N13315   4.218   1.766  13.412  0.2711  0.4419  0.0696
  905MPD2    H513316   4.259   1.764  13.504  0.9513 -1.6685 -0.2928
  905MPD2    N113317   3.835   1.541  13.613  0.0282  0.8130 -0.2230
  905MPD2    H713318   3.741   1.509  13.591  0.2067 -0.4044  0.7632
  906MPD2     C13319   1.175   2.286  10.977  0.6717 -0.7052 -0.7398
  906MPD2    C113320   1.167   2.187  10.881 -0.5752 -0.1152 -0.5333
  906MPD2    C213321   1.133   2.057  10.925  1.2707 -0.1479  0.6847
  906MPD2    C313322   1.113   2.035  11.055  0.0463  0.6191  0.6884
  906MPD2    C413323   1.119   2.134  11.146  0.1952 -0.1721 -0.1115
  906MPD2    C513324   1.144   2.263  11.109 -0.4658 -0.0743 -0.5745
  906MPD2     H13325   1.134   1.979  10.850 -1.1038  1.1068 -0.6466
  906MPD2    H113326   1.117   2.123  11.254 -1.3768  0.9689 -0.0227
  906MPD2    H213327   1.196   2.387  10.944  0.6029 -0.4633 -0.0506
  906MPD2    H313328   1.139   2.349  11.175 -2.3660  0.9087 -1.9679
  906MPD2     N13329   1.092   1.898  11.085 -1.3740 -0.2480  0.3570
  906MPD2    H513330   1.069   1.833  11.011 -0.0972 -0.8233  0.4455
  906MPD2    N113331   1.201   2.204  10.747  0.6852  0.3103 -0.1054
  906MPD2    H713332   1.176   2.128  10.684  2.8664 -1.8628  1.6498
  907MPD2     C13333   4.190   0.790  15.846  0.1379  0.3384 -0.9740
  907MPD2    C113334   4.279   0.700  15.799 -0.0866 -0.6822  0.3275
  907MPD2    C213335   4.357   0.634  15.892  0.8226 -0.1865  0.1134
  907MPD2    C313336   4.357   0.673  16.025  0.2579 -0.3325  0.2844
  907MPD2    C413337   4.271   0.774  16.067  0.2832  0.6569 -0.6877
  907MPD2    C513338   4.190   0.833  15.979  0.5770 -0.0113  0.0149
  907MPD2     H13339   4.417   0.547  15.867 -1.6666 -2.7061  2.8738
  907MPD2    H113340   4.262   0.826  16.162  0.3971  0.6627 -0.6795
  907MPD2    H213341   4.133   0.852  15.777  0.4415  0.4413 -1.1325
  907MPD2    H313342   4.124   0.913  16.012  0.5459 -0.6612  1.4826
  907MPD2     N13343   4.439   0.594  16.108 -0.1773  0.1782  0.5998
  907MPD2    H513344   4.484   0.519  16.057 -1.2815 -2.1437  3.0406
  907MPD2    N113345   4.289   0.661  15.664 -0.3735  0.6798  0.4767
  907MPD2    H713346   4.345   0.578  15.647  0.2558  1.2114 -0.0397
  908MPD2     C13347   2.125   2.436   9.462  0.0503  0.1249  0.3684
  908MPD2    C113348   2.145   2.338   9.559 -0.7457 -0.2136 -0.5363
  908MPD2    C213349   2.199   2.381   9.676  0.1621  0.0098  0.3143
  908MPD2    C313350   2.225   2.512   9.708  0.7078  0.5788  0.0538
  908MPD2    C413351   2.198   2.604   9.605 -0.0574  0.4298 -0.2865
  908MPD2    C513352   2.154   2.570   9.485  0.5699  0.2399  0.2185
  908MPD2     H13353   2.212   2.302   9.749 -0.8000 -0.7289 -0.3098
  908MPD2    H113354   2.225   2.708   9.618 -0.7833  0.5976 -0.1657
  908MPD2    H213355   2.083   2.408   9.366 -2.1800  1.8581  0.8446
  908MPD2    H313356   2.136   2.653   9.418 -0.9941  0.9977  1.5845
  908MPD2     N13357   2.277   2.544   9.835  0.0882 -0.2487  0.3120
  908MPD2    H513358   2.291   2.466   9.899  0.2129  0.2600  0.8994
  908MPD2    N113359   2.113   2.207   9.526  0.2470 -0.2901  0.4892
  908MPD2    H713360   2.067   2.198   9.436  1.1368 -1.5715  0.1735
  909MPD2     C13361   2.717   0.203  12.099  0.1786  0.2748  0.5057
  909MPD2    C113362   2.719   0.318  12.017  0.0563 -0.3833  0.3364
  909MPD2    C213363   2.635   0.422  12.047  1.0249 -0.4890 -0.1721
  909MPD2    C313364   2.538   0.400  12.148 -0.4184 -0.1615  0.6800
  909MPD2    C413365   2.544   0.288  12.230 -0.0261  0.2600  0.0875
  909MPD2    C513366   2.628   0.187  12.198  0.3052 -0.2696 -0.2714
  909MPD2     H13367   2.640   0.514  11.990  0.3738  0.9087  2.0242
  909MPD2    H113368   2.469   0.269  12.306 -1.7555 -0.9398 -1.8935
  909MPD2    H213369   2.786   0.120  12.093 -1.4635 -1.0796  0.4338
  909MPD2    H313370   2.634   0.095  12.255 -1.0970 -0.4749 -0.4567
  909MPD2     N13371   2.441   0.505  12.166 -0.0117 -0.2781  0.2891
  909MPD2    H513372   2.455   0.585  12.104  0.9819  0.8429  1.9661
  909MPD2    N113373   2.810   0.339  11.911 -0.0488 -0.1470  0.1759
  909MPD2    H713374   2.805   0.426  11.860 -0.6298 -0.4018 -0.1955
  910MPD2     C13375   3.811   1.629  16.490 -0.2366 -0.0236  0.5380
  910MPD2    C113376   3.887   1.537  16.423 -0.0163  0.0237  0.1788
  910MPD2    C213377   3.857   1.511  16.291 -0.2814 -0.3823  0.4390
  910MPD2    C313378   3.762   1.590  16.229 -0.3181 -0.8402  0.8785
  910MPD2    C413379   3.693   1.687  16.294  0.2496 -0.2080 -0.3037
  910MPD2    C513380   3.715   1.701  16.432 -0.1528  0.1193  0.1496
  910MPD2     H13381   3.916   1.432  16.247 -1.4872 -0.7463 -0.5332
  910MPD2    H113382   3.612   1.743  16.248 -1.0644 -0.8882  1.1640
  910MPD2    H213383   3.833   1.677  16.585 -0.8576  1.3221  0.0056
  910MPD2    H313384   3.669   1.779  16.492 -0.4858 -0.9057  1.2256
  910MPD2     N13385   3.746   1.586  16.089 -0.8928 -0.8055  0.0157
  910MPD2    H513386   3.686   1.654  16.044  0.4494 -0.2311 -0.9273
  910MPD2    N113387   3.984   1.453  16.492 -0.2957  0.2661 -0.3545
  910MPD2    H713388   4.036   1.385  16.437  0.1393 -0.3976  0.8767
  911MPD2     C13389   1.657   1.891  15.928 -0.2194  0.5010  0.0392
  911MPD2    C113390   1.695   1.937  16.055 -0.1799  0.0799  0.1841
  911MPD2    C213391   1.685   2.070  16.081 -0.0478  0.4984 -0.4606
  911MPD2    C313392   1.631   2.158  15.992  0.6355  0.5857 -0.1059
  911MPD2    C413393   1.592   2.111  15.868  0.1283 -0.3238  0.4396
  911MPD2    C513394   1.598   1.977  15.843  0.3082  0.1804  0.3648
  911MPD2     H13395   1.726   2.110  16.173  3.0009 -2.1045 -0.7061
  911MPD2    H113396   1.545   2.171  15.791  0.3526 -1.0490 -0.2653
  911MPD2    H213397   1.663   1.784  15.913 -0.4296  0.6121 -0.8301
  911MPD2    H313398   1.550   1.946  15.751 -0.5556  1.9153  0.2302
  911MPD2     N13399   1.628   2.299  16.019 -0.0094  0.1665  0.2031
  911MPD2    H513400   1.596   2.352  15.938 -1.5528  0.4128  0.9673
  911MPD2    N113401   1.743   1.841  16.148 -0.5656 -0.3993 -0.3100
  911MPD2    H713402   1.759   1.745  16.122  0.0113 -0.4983  0.4089
  912MPD2     C13403   1.275   2.269  15.705 -0.1164  0.2802  0.4815
  912MPD2    C113404   1.250   2.311  15.830  0.4410 -0.5348 -0.1390
  912MPD2    C213405   1.231   2.217  15.933 -0.5644 -0.0831 -0.2270
  912MPD2    C313406   1.253   2.084  15.909  0.2058 -0.3264 -0.0339
  912MPD2    C413407   1.280   2.039  15.786  0.4341 -0.0736  0.2511
  912MPD2    C513408   1.287   2.134  15.684  0.0736  0.3030 -0.0207
  912MPD2     H13409   1.208   2.249  16.034 -0.8842 -3.8095  0.8790
  912MPD2    H113410   1.283   1.932  15.770  2.0493 -0.4479  3.0116
  912MPD2    H213411   1.295   2.340  15.626 -1.5054 -1.2652 -1.2736
  912MPD2    H313412   1.317   2.095  15.588 -1.6454 -0.0106 -0.4318
  912MPD2     N13413   1.255   1.995  16.020  0.6668 -0.2482 -0.5471
  912MPD2    H513414   1.221   2.036  16.106 -1.2947 -1.3088 -0.8060
  912MPD2    N113415   1.261   2.451  15.856 -0.1593  0.0469 -0.3976
  912MPD2    H713416   1.276   2.516  15.779 -1.2361 -0.4390 -1.0199
  913MPD2     C13417   2.479   3.496  10.125 -0.2730  0.4509  0.2093
  913MPD2    C113418   2.473   3.552  10.251  0.0026  0.0435 -0.4042
  913MPD2    C213419   2.459   3.688  10.266 -0.4270  0.3154 -0.5064
  913MPD2    C313420   2.438   3.767  10.156 -0.5703  0.0544 -0.2658
  913MPD2    C413421   2.442   3.715  10.027  0.0900 -0.4691 -0.1519
  913MPD2    C513422   2.468   3.578  10.010  1.0292 -0.3382 -0.4547
  913MPD2     H13423   2.454   3.734  10.364  0.0149 -1.6800  0.4716
  913MPD2    H113424   2.427   3.782   9.943 -0.2916 -0.0713  0.2350
  913MPD2    H213425   2.476   3.388  10.120 -2.3196  0.5701 -1.5220
  913MPD2    H313426   2.474   3.539   9.909  2.2572  2.2215 -1.3752
  913MPD2     N13427   2.422   3.907  10.157 -0.1420  0.3063  0.5290
  913MPD2    H513428   2.375   3.935  10.071  0.7577  3.1163  0.9550
  913MPD2    N113429   2.492   3.471  10.368  1.0435  0.8023  0.2377
  913MPD2    H713430   2.475   3.371  10.357 -1.2681  1.2654 -0.4584
  914MPD2     C13431   0.064   4.021  12.229 -0.0749 -0.2535  0.3085
  914MPD2    C113432   0.192   4.065  12.207  0.0602  0.5029 -0.1394
  914MPD2    C213433   0.296   4.003  12.269  0.1501  0.2992 -0.0058
  914MPD2    C313434   0.268   3.902  12.357  0.0673  0.6519  0.1231
  914MPD2    C413435   0.138   3.850  12.377 -0.4276  0.3675  0.0165
  914MPD2    C513436   0.038   3.925  12.315 -0.4637  0.2062  0.1913
  914MPD2     H13437   0.399   4.034  12.252  1.2115 -2.6388  0.9360
  914MPD2    H113438   0.112   3.775  12.451 -1.8737  0.7183 -0.1285
  914MPD2    H213439   4.713   4.071  12.187 -1.2075 -1.0486  1.7012
  914MPD2    H313440   4.670   3.891  12.322 -0.8171  0.8015 -2.0555
  914MPD2     N13441   0.388   3.856  12.430 -0.3214  0.4162  0.3160
  914MPD2    H513442   0.472   3.912  12.423  1.6044 -2.6483 -1.0183
  914MPD2    N113443   0.217   4.179  12.129 -0.0148  0.2776  0.9950
  914MPD2    H713444   0.149   4.215  12.063  0.9844  1.7647  0.7694
  915MPD2     C13445   2.907   3.394  15.541 -0.1174  0.2729  0.5090
  915MPD2    C113446   2.770   3.376  15.529  0.5834  0.4301 -0.2696
  915MPD2    C213447   2.679   3.449  15.609 -0.6088 -0.1176  0.1271
  915MPD2    C313448   2.734   3.541  15.697 -0.3728 -0.4240  0.4524
  915MPD2    C413449   2.872   3.566  15.705 -0.4679 -0.4469  0.9427
  915MPD2    C513450   2.956   3.487  15.630 -0.2125  0.1636 -0.3321
  915MPD2     H13451   2.575   3.428  15.586 -0.3801 -1.7539  0.6603
  915MPD2    H113452   2.914   3.641  15.771 -0.7508  0.6610 -0.1513
  915MPD2    H213453   2.982   3.351  15.476  3.1325  2.9430  2.4985
  915MPD2    H313454   3.062   3.506  15.623 -0.4463  1.7622  0.4211
  915MPD2     N13455   2.640   3.616  15.772  0.3010  0.1874 -0.3047
  915MPD2    H513456   2.544   3.592  15.747  0.4116 -1.7416  1.0855
  915MPD2    N113457   2.731   3.292  15.422  0.0511  0.1072  0.1889
  915MPD2    H713458   2.803   3.261  15.357  0.1726 -0.1236  0.4309
  916MPD2     C13459   1.018   1.809  15.749  0.4148 -0.3029 -0.4869
  916MPD2    C113460   0.985   1.699  15.821  0.9657  0.9847 -0.0784
  916MPD2    C213461   0.992   1.578  15.761 -0.5890 -0.3252  0.3313
  916MPD2    C313462   1.001   1.566  15.619 -1.1487  0.0506 -0.1371
  916MPD2    C413463   1.025   1.684  15.545 -0.4407  0.0096  0.4071
  916MPD2    C513464   1.036   1.802  15.614 -0.1927 -0.1749  0.2577
  916MPD2     H13465   0.971   1.486  15.815 -0.0249  0.1239  1.3020
  916MPD2    H113466   1.049   1.699  15.440 -0.8659  0.8850  0.4377
  916MPD2    H213467   1.033   1.907  15.792  0.2095 -0.1136 -0.8434
  916MPD2    H313468   1.066   1.892  15.560 -0.2371 -1.2256 -1.5279
  916MPD2     N13469   0.996   1.431  15.559 -0.1282 -0.5723 -0.7128
  916MPD2    H513470   0.972   1.358  15.625  0.7310 -1.2476 -1.1459
  916MPD2    N113471   0.958   1.721  15.961  0.7184  0.3172 -0.1902
  916MPD2    H713472   0.946   1.814  16.000  0.7253  0.4061 -0.3999
  917MPD2     C13473   1.572   3.864  11.265  0.5358 -0.5073  0.2292
  917MPD2    C113474   1.645   3.966  11.318 -0.0609 -0.2607 -0.0623
  917MPD2    C213475   1.719   4.039  11.229  0.3831  0.4788 -0.9030
  917MPD2    C313476   1.713   4.011  11.091  0.1605  0.1970 -0.0690
  917MPD2    C413477   1.643   3.905  11.041  0.6715  0.2519 -0.7045
  917MPD2    C513478   1.577   3.831  11.129 -0.7060 -0.2341  0.2484
  917MPD2     H13479   1.778   4.124  11.262 -0.3135  1.0730 -1.1898
  917MPD2    H113480   1.643   3.879  10.936 -2.9752 -0.2439 -0.5793
  917MPD2    H213481   1.510   3.800  11.327 -0.9646 -0.8543 -1.6521
  917MPD2    H313482   1.520   3.747  11.091  0.8348 -0.7883 -0.7982
  917MPD2     N13483   1.791   4.095  11.006 -0.1911 -0.1120 -0.4722
  917MPD2    H513484   1.861   4.156  11.047  0.0362 -0.7063  0.0202
  917MPD2    N113485   1.628   3.991  11.459  0.2100  0.1999 -0.0011
  917MPD2    H713486   1.569   3.938  11.523  0.4752 -0.6649 -0.4697
  918MPD2     C13487   1.855   0.124  11.899  0.5022  0.7505  0.3860
  918MPD2    C113488   1.931   0.015  11.935 -0.2192  0.0308 -0.0936
  918MPD2    C213489   1.885   4.621  11.928 -0.8682 -0.1611 -0.1705
  918MPD2    C313490   1.755   4.594  11.884  0.0379 -0.4074 -0.0970
  918MPD2    C413491   1.688   4.704  11.835 -0.2229 -0.3574  0.0568
  918MPD2    C513492   1.736   0.097  11.840 -0.0118  0.5065 -0.7977
  918MPD2     H13493   1.956   4.543  11.954 -0.8452  1.2242  3.9092
  918MPD2    H113494   1.587   4.697  11.798 -0.8480  1.2618  1.4544
  918MPD2    H213495   1.896   0.224  11.889 -1.3389  1.4417 -0.2313
  918MPD2    H313496   1.680   0.183  11.803 -1.1095  0.4655  0.7817
  918MPD2     N13497   1.711   4.460  11.866  0.4682 -0.8099 -0.1061
  918MPD2    H513498   1.772   4.380  11.882  0.8516 -0.4725  0.1143
  918MPD2    N113499   2.066   0.028  11.987  0.4293  0.0148 -0.6465
  918MPD2    H713500   2.113   4.677  12.012  2.7973  1.0414 -1.6427
  919MPD2     C13501   1.971   3.198  11.676  0.6577 -0.0670  0.1348
  919MPD2    C113502   2.037   3.088  11.621 -0.1621 -0.4426  0.1618
  919MPD2    C213503   2.054   3.077  11.482  0.2267  0.1951 -0.5423
  919MPD2    C313504   2.006   3.175  11.402  0.4371  0.4564 -0.6888
  919MPD2    C413505   1.938   3.278  11.461  0.3791  0.3407 -0.7906
  919MPD2    C513506   1.919   3.292  11.591 -0.2357  0.9970 -0.0384
  919MPD2     H13507   2.117   2.994  11.452 -1.2454 -1.1260 -0.0201
  919MPD2    H113508   1.884   3.356  11.407 -0.9244 -0.2264 -0.3086
  919MPD2    H213509   1.957   3.195  11.783  0.6205  0.7541  0.1529
  919MPD2    H313510   1.850   3.372  11.614  1.6745  2.1972  1.5056
  919MPD2     N13511   2.006   3.165  11.264 -0.1033  0.2792  0.8137
  919MPD2    H513512   1.956   3.232  11.206 -0.7037  0.2049  1.2480
  919MPD2    N113513   2.094   2.979  11.697  0.0917 -0.5236  0.0132
  919MPD2    H713514   2.140   2.898  11.658  1.8494 -0.7541  2.5600
  920MPD2     C13515   2.132   3.570  10.342 -0.2716  0.8164  0.8261
  920MPD2    C113516   2.047   3.463  10.325  0.9859  0.2053 -0.4613
  920MPD2    C213517   2.022   3.367  10.421 -0.2619  0.1272  0.2491
  920MPD2    C313518   2.062   3.400  10.549  0.2584  0.2590 -0.4146
  920MPD2    C413519   2.138   3.510  10.570 -0.0077  0.0762 -0.8162
  920MPD2    C513520   2.172   3.599  10.465  1.4386 -0.7757  0.6075
  920MPD2     H13521   1.965   3.278  10.397 -0.0643  0.5809 -1.9487
  920MPD2    H113522   2.180   3.531  10.668 -0.1879  0.7193 -0.8714
  920MPD2    H213523   2.156   3.636  10.260  0.7886 -3.1717 -2.0864
  920MPD2    H313524   2.231   3.689  10.475 -2.4558  1.7288  1.0201
  920MPD2     N13525   2.028   3.304  10.648  0.2656  0.5258  0.4720
  920MPD2    H513526   1.974   3.227  10.610  0.1667  2.1225 -2.6380
  920MPD2    N113527   1.981   3.446  10.202 -0.3586  0.3939 -0.4331
  920MPD2    H713528   1.925   3.362  10.197  0.0003  0.0919  0.5238
  921MPD2     C13529   2.423   2.188  16.543 -0.1674  0.1424  0.7674
  921MPD2    C113530   2.455   2.061  16.517  0.2993  0.2857 -0.0915
  921MPD2    C213531   2.353   1.963  16.529  0.0689 -0.0733 -0.0254
  921MPD2    C313532   2.222   2.002  16.571 -0.1009  0.1821  0.0667
  921MPD2    C413533   2.204   2.129  16.592 -0.1440  0.5704  0.6918
  921MPD2    C513534   2.300   2.227  16.585 -0.3248  0.2313 -0.0402
  921MPD2     H13535   2.372   1.860  16.502  2.1432  0.3777 -0.3154
  921MPD2    H113536   2.108   2.164  16.629 -0.0280 -0.6857  2.2246
  921MPD2    H213537   2.497   2.267  16.540  0.0929 -0.1424 -0.2702
  921MPD2    H313538   2.280   2.333  16.602 -2.8775  0.0940 -2.0921
  921MPD2     N13539   2.112   1.914  16.578 -0.6939 -0.2222 -0.4782
  921MPD2    H513540   2.023   1.962  16.584 -0.5206  0.2475 -1.7658
  921MPD2    N113541   2.579   2.036  16.460 -0.3575 -0.5365 -0.0717
  921MPD2    H713542   2.622   2.116  16.415  1.4567 -1.8861 -0.7200
  922MPD2     C13543   3.309   0.383  17.370 -0.4834  0.1293  0.0842
  922MPD2    C113544   3.256   0.310  17.468 -0.2239  0.4203  0.3279
  922MPD2    C213545   3.258   0.171  17.450 -0.3120 -0.2907  0.0974
  922MPD2    C313546   3.302   0.115  17.332 -0.1301  0.2332  0.7010
  922MPD2    C413547   3.352   0.189  17.234 -0.7907 -0.2419 -0.5882
  922MPD2    C513548   3.358   0.324  17.257  0.5698 -0.0686  1.4307
  922MPD2     H13549   3.216   0.103  17.523 -2.9972 -0.8679 -1.9693
  922MPD2    H113550   3.390   0.154  17.139 -1.3440 -0.5583 -0.6893
  922MPD2    H213551   3.336   0.488  17.374  1.2185 -0.2918 -0.7068
  922MPD2    H313552   3.413   0.388  17.188 -2.0424  0.3659 -0.2296
  922MPD2     N13553   3.297   4.705  17.328 -0.1720  0.6050 -0.6870
  922MPD2    H513554   3.262   4.654  17.408 -0.4529 -0.3361 -1.4146
  922MPD2    N113555   3.195   0.366  17.585 -0.0103  0.2551 -0.0277
  922MPD2    H713556   3.159   0.297  17.650 -0.9223  0.5299 -0.2494
  923MPD2     C13557   3.624   2.166   9.145 -0.5118  0.0402  0.1736
  923MPD2    C113558   3.660   2.298   9.123 -0.0388  0.5743  0.1498
  923MPD2    C213559   3.791   2.335   9.099 -0.3416  0.5109  0.5623
  923MPD2    C313560   3.884   2.238   9.074  0.4055  0.1151  0.4371
  923MPD2    C413561   3.850   2.107   9.085  0.6523  0.0975  0.7394
  923MPD2    C513562   3.720   2.068   9.119 -0.0024 -0.7504  0.4831
  923MPD2     H13563   3.818   2.439   9.083  1.8581 -0.3183 -1.0123
  923MPD2    H113564   3.908   2.021   9.055  0.0880  0.6682 -1.9160
  923MPD2    H213565   3.519   2.148   9.166 -0.0960 -2.8353 -0.2649
  923MPD2    H313566   3.694   1.963   9.113 -0.0491 -0.7194  0.1012
  923MPD2     N13567   4.016   2.273   9.037 -0.3344 -0.8935 -0.0812
  923MPD2    H513568   4.073   2.190   9.028 -0.0427 -0.5627 -1.2341
  923MPD2    N113569   3.556   2.387   9.146 -0.2083 -0.0871  0.6412
  923MPD2    H713570   3.472   2.362   9.198 -0.2039 -1.5786 -0.0762
  924MPD2     C13571   0.255   0.089  16.635  0.3275  0.2630  0.3690
  924MPD2    C113572   0.129   0.126  16.597  0.1285 -0.3083 -0.1373
  924MPD2    C213573   0.116   0.174  16.472 -0.2442 -0.5587 -0.1838
  924MPD2    C313574   0.226   0.201  16.391  0.2554  0.3912  0.0044
  924MPD2    C413575   0.353   0.165  16.428 -0.2903 -0.4790 -0.0819
  924MPD2    C513576   0.364   0.100  16.551  0.0622 -0.4882 -0.0857
  924MPD2     H13577   0.017   0.213  16.451  0.4887  1.3608 -0.1478
  924MPD2    H113578   0.441   0.187  16.368 -1.0675 -0.1239 -1.1101
  924MPD2    H213579   0.281   0.049  16.732 -0.6463  0.2032  0.6088
  924MPD2    H313580   0.461   0.080  16.596  0.6279 -0.2990 -1.2148
  924MPD2     N13581   0.220   0.263  16.266 -0.1635 -0.2443 -0.1982
  924MPD2    H513582   0.292   0.241  16.198 -0.1705 -2.2942  0.4413
  924MPD2    N113583   0.020   0.133  16.692 -0.1561  0.3600 -0.2660
  924MPD2    H713584   4.679   0.195  16.666  0.8919  0.9504 -1.9196
  925MPD2     C13585   3.737   2.502  14.794 -0.2662  0.1903 -0.4824
  925MPD2    C113586   3.616   2.553  14.743 -0.3465 -0.3515  0.2241
  925MPD2    C213587   3.529   2.632  14.823  0.0674 -0.4100  0.0388
  925MPD2    C313588   3.567   2.644  14.957 -0.5907 -0.0926  0.3138
  925MPD2    C413589   3.689   2.606  15.007 -0.3014  0.3907 -0.4645
  925MPD2    C513590   3.771   2.522  14.926 -0.4905 -0.5218 -0.4398
  925MPD2     H13591   3.430   2.664  14.793  0.5677  1.0301 -0.0684
  925MPD2    H113592   3.721   2.638  15.106 -1.7712 -3.4198  1.2334
  925MPD2    H213593   3.816   2.453  14.737 -0.1907 -0.1475 -0.0860
  925MPD2    H313594   3.863   2.489  14.972 -0.3534 -4.8650 -3.8565
  925MPD2     N13595   3.478   2.683  15.060  0.1858 -0.5350 -0.5493
  925MPD2    H513596   3.506   2.661  15.155  0.6292  1.7953 -0.1531
  925MPD2    N113597   3.574   2.516  14.615 -0.8255  0.4376  0.2472
  925MPD2    H713598   3.485   2.559  14.591 -1.1414  1.2638  2.8581
  926MPD2     C13599   3.171   0.958  12.969 -0.3397 -0.1303  0.5667
  926MPD2    C113600   3.104   1.074  13.009 -0.6864 -0.0663  0.2722
  926MPD2    C213601   3.147   1.195  12.964  0.2248  0.2824 -0.0384
  926MPD2    C313602   3.246   1.204  12.867  0.5112  0.0779 -0.1654
  926MPD2    C413603   3.312   1.086  12.834  0.4918  0.2755  1.4723
  926MPD2    C513604   3.273   0.963  12.882  0.2138 -0.3027  0.0601
  926MPD2     H13605   3.105   1.287  13.002 -0.2942 -0.1574  0.4387
  926MPD2    H113606   3.391   1.086  12.760  0.3585  0.7831  1.3317
  926MPD2    H213607   3.137   0.856  12.979  0.0608 -0.3963 -0.8776
  926MPD2    H313608   3.316   0.875  12.836  0.3218 -0.0253 -0.3777
  926MPD2     N13609   3.294   1.321  12.813  0.5231  0.5444  0.5901
  926MPD2    H513610   3.385   1.310  12.770  1.0644  1.3075  1.5242
  926MPD2    N113611   2.998   1.073  13.105 -0.1770  0.0217  0.2904
  926MPD2    H713612   2.956   1.164  13.123 -3.1889 -1.5816  1.3226
  927MPD2     C13613   1.830   3.139   0.251  0.1420 -0.3153  0.1921
  927MPD2    C113614   1.881   3.034   0.184  0.5411 -0.2941 -0.1647
  927MPD2    C213615   1.910   3.038   0.044 -0.2177  0.1212 -1.1020
  927MPD2    C313616   1.894   3.162  17.721  0.3737 -0.3251  0.5560
  927MPD2    C413617   1.860   3.276   0.052 -0.1740 -0.3181  0.0103
  927MPD2    C513618   1.813   3.254   0.184  0.5081  0.0130 -0.9220
  927MPD2     H13619   1.943   2.959  17.719  0.1741  0.2756 -1.0878
  927MPD2    H113620   1.831   3.372   0.011  1.2756  0.7618  1.4695
  927MPD2    H213621   1.790   3.124   0.350 -0.9817 -1.2036 -0.3903
  927MPD2    H313622   1.763   3.343   0.219  1.5499  1.2751 -2.6859
  927MPD2     N13623   1.934   3.174  17.586  0.0529  0.0719 -0.1580
  927MPD2    H513624   1.967   3.089  17.541 -0.3529 -1.1086  1.7605
  927MPD2    N113625   1.871   2.901   0.242  0.0038 -0.3187  0.0958
  927MPD2    H713626   1.805   2.893   0.318 -0.0754  1.6939  0.2433
  928MPD2     C13627   4.343   1.217   0.577  0.1637 -0.3317  0.2231
  928MPD2    C113628   4.437   1.210   0.676 -0.4300 -0.8237 -0.2215
  928MPD2    C213629   4.576   1.220   0.645 -0.0251  0.3653  0.4123
  928MPD2    C313630   4.612   1.249   0.510  0.1953 -0.1291 -0.4725
  928MPD2    C413631   4.500   1.263   0.419 -0.1598 -0.1011  0.0898
  928MPD2    C513632   4.371   1.246   0.449  0.2281  0.5001  0.1398
  928MPD2     H13633   4.652   1.210   0.721 -0.8857  3.0325  1.6234
  928MPD2    H113634   4.517   1.265   0.312  3.3422  0.4781  0.6829
  928MPD2    H213635   4.238   1.201   0.600  0.6010 -1.3795  1.4521
  928MPD2    H313636   4.301   1.254   0.366  1.9947 -0.5099 -1.4605
  928MPD2     N13637   0.004   1.275   0.460  0.0989  0.0718 -0.0795
  928MPD2    H513638   0.013   1.287   0.360  0.3691  0.4664 -0.0096
  928MPD2    N113639   4.378   1.200   0.807  0.3491  0.2675 -0.3395
  928MPD2    H713640   4.277   1.198   0.803  0.2527 -1.1569  2.8895
  929MPD2     C13641   0.592   2.110  10.151 -0.1316  0.4440  0.5411
  929MPD2    C113642   0.457   2.096  10.180 -0.4975  0.8117 -0.5502
  929MPD2    C213643   0.361   2.150  10.095 -0.2161 -0.1876  0.6263
  929MPD2    C313644   0.414   2.225   9.985 -0.0677  0.4665  0.5499
  929MPD2    C413645   0.548   2.243   9.972 -0.4730 -0.8676 -0.1668
  929MPD2    C513646   0.639   2.186  10.042  0.6027  0.0335 -0.0691
  929MPD2     H13647   0.254   2.146  10.109 -0.6216  5.8117 -1.0612
  929MPD2    H113648   0.576   2.296   9.882  2.4414 -1.1810  0.5604
  929MPD2    H213649   0.661   2.058  10.217  0.2100 -1.0781 -0.9846
  929MPD2    H313650   0.746   2.196  10.029  0.6372 -1.8427 -1.2361
  929MPD2     N13651   0.336   2.294   9.894  0.0245  0.1634  0.0913
  929MPD2    H513652   0.377   2.342   9.815 -0.3805  1.0032  0.3972
  929MPD2    N113653   0.431   2.026  10.296  0.1411  0.1617  0.3261
  929MPD2    H713654   0.504   2.000  10.361  1.6534  1.0626 -0.9940
  930MPD2     C13655   1.765   4.098  14.064 -0.2307  0.2861  0.0351
  930MPD2    C113656   1.886   4.048  14.029 -0.3217 -0.5993  0.0575
  930MPD2    C213657   1.899   3.918  13.972 -0.1289  0.2468 -0.5012
  930MPD2    C313658   1.781   3.853  13.927 -0.4479  0.2017 -1.3804
  930MPD2    C413659   1.660   3.921  13.956 -0.0731  0.1819 -0.5120
  930MPD2    C513660   1.656   4.031  14.036  0.3476  0.2694 -0.1268
  930MPD2     H13661   1.996   3.872  13.955 -0.4967 -1.0447  0.9221
  930MPD2    H113662   1.567   3.870  13.931 -0.6623  1.2752 -0.5277
  930MPD2    H213663   1.754   4.195  14.111  1.6488  0.5132  0.0321
  930MPD2    H313664   1.559   4.070  14.065  0.2249 -1.1683  1.4000
  930MPD2     N13665   1.782   3.735  13.850  0.4675 -0.0208  0.5379
  930MPD2    H513666   1.696   3.703  13.808  0.9899  0.7865 -1.1631
  930MPD2    N113667   2.000   4.142  14.044 -0.3318  0.7334  0.7917
  930MPD2    H713668   1.975   4.239  14.057 -2.5310  0.2973 -0.0845
  931MPD2     C13669   2.268   2.213   0.491  0.5374 -0.5183  0.5830
  931MPD2    C113670   2.231   2.341   0.513 -0.5238  0.3142 -0.4520
  931MPD2    C213671   2.281   2.412   0.625  0.3210 -0.9875  0.0581
  931MPD2    C313672   2.345   2.350   0.725 -0.2303  0.4776  0.0587
  931MPD2    C413673   2.388   2.225   0.699 -0.0924  0.1688 -0.6918
  931MPD2    C513674   2.348   2.157   0.586 -0.0175  0.2094  0.1394
  931MPD2     H13675   2.255   2.516   0.639 -1.0002 -1.2992 -0.0513
  931MPD2    H113676   2.456   2.171   0.764 -0.9062 -0.0291 -0.0109
  931MPD2    H213677   2.241   2.161   0.400 -0.2194 -0.1885  0.6181
  931MPD2    H313678   2.371   2.054   0.563  2.0610  0.7115 -0.0251
  931MPD2     N13679   2.378   2.413   0.845  0.7806 -0.1125  0.0463
  931MPD2    H513680   2.435   2.367   0.916 -0.4288 -0.3276  0.8957
  931MPD2    N113681   2.136   2.412   0.427  0.7538 -0.2906 -0.0911
  931MPD2    H713682   2.119   2.510   0.447 -0.8920 -0.5740 -0.0754
  932MPD2     C13683   3.853   2.591  11.062 -0.3437 -0.7756 -0.6042
  932MPD2    C113684   3.907   2.638  11.183 -0.3710  0.5477 -0.0982
  932MPD2    C213685   3.923   2.545  11.284  0.1306 -0.2970 -0.1014
  932MPD2    C313686   3.887   2.411  11.267  0.4879  0.3047  0.0289
  932MPD2    C413687   3.829   2.370  11.151 -0.0959  0.5480 -0.0200
  932MPD2    C513688   3.809   2.461  11.053 -0.1515 -0.1625  0.9832
  932MPD2     H13689   3.964   2.584  11.376 -1.5000  2.0216 -0.3488
  932MPD2    H113690   3.802   2.266  11.141  0.4285  0.2749  1.4829
  932MPD2    H213691   3.825   2.652  10.977  3.4062  0.3083 -1.0732
  932MPD2    H313692   3.769   2.427  10.958 -2.1620  1.5785  1.1964
  932MPD2     N13693   3.898   2.315  11.367  0.2599  0.1318 -1.1712
  932MPD2    H513694   3.864   2.223  11.339  1.2639 -0.7385  0.4667
  932MPD2    N113695   3.934   2.775  11.213 -0.4124 -0.4260  0.0824
  932MPD2    H713696   3.975   2.790  11.304 -0.6121 -1.4436  0.3423
  933MPD2     C13697   3.932   1.742   1.278 -0.6826 -0.5070  0.3532
  933MPD2    C113698   3.991   1.687   1.170 -0.9348 -0.7307  0.2387
  933MPD2    C213699   3.980   1.762   1.050  1.1001  0.3627  0.6851
  933MPD2    C313700   3.896   1.869   1.033 -0.3461  0.4139 -0.2057
  933MPD2    C413701   3.816   1.909   1.139 -0.4802 -0.2483 -0.5037
  933MPD2    C513702   3.845   1.849   1.259  0.1673 -0.0848 -0.8990
  933MPD2     H13703   4.048   1.728   0.973  1.0643 -1.7523  1.5685
  933MPD2    H113704   3.745   1.991   1.133 -0.8834 -0.6798 -1.6365
  933MPD2    H213705   3.952   1.700   1.376 -1.4453  2.2467  1.6921
  933MPD2    H313706   3.795   1.881   1.350  5.3199 -0.8478  2.2582
  933MPD2     N13707   3.896   1.946   0.907  0.0942 -0.0984 -0.2565
  933MPD2    H513708   3.962   1.917   0.835 -3.1800  0.1300 -3.3421
  933MPD2    N113709   4.080   1.582   1.184 -0.0576 -0.2167  0.2294
  933MPD2    H713710   4.095   1.548   1.279 -0.2693  0.4189  0.4904
  934MPD2     C13711   0.804   3.490   1.467 -0.3813  0.1476  0.2719
  934MPD2    C113712   0.870   3.435   1.366 -0.3884 -0.1607  0.6510
  934MPD2    C213713   0.801   3.373   1.265  0.8651 -0.6689  0.2582
  934MPD2    C313714   0.661   3.373   1.264  0.4894  0.0516  0.4049
  934MPD2    C413715   0.600   3.437   1.365  0.2707  0.5564  0.0897
  934MPD2    C513716   0.671   3.491   1.469  0.1392  0.1681 -0.3516
  934MPD2     H13717   0.859   3.332   1.183 -0.4914 -0.8856 -0.5907
  934MPD2    H113718   0.493   3.453   1.364  0.0805 -0.5842  1.8827
  934MPD2    H213719   0.857   3.550   1.541 -1.7032  2.5595 -0.7188
  934MPD2    H313720   0.627   3.551   1.548 -1.0910 -0.8428 -0.2824
  934MPD2     N13721   0.580   3.312   1.160  0.8122 -0.6962  0.3131
  934MPD2    H513722   0.486   3.312   1.198  0.1262  3.0356 -1.3484
  934MPD2    N113723   1.009   3.451   1.361  0.2846  1.2313  0.8892
  934MPD2    H713724   1.050   3.420   1.273 -2.5352  1.6300 -0.5942
  935MPD2     C13725   0.676   2.436   0.634 -0.3042  0.5411 -0.2055
  935MPD2    C113726   0.566   2.507   0.585  0.3181  0.1991 -0.7698
  935MPD2    C213727   0.528   2.634   0.642 -0.2969 -0.4575 -0.5737
  935MPD2    C313728   0.590   2.686   0.750 -0.1800 -0.2804 -0.4113
  935MPD2    C413729   0.698   2.614   0.798 -0.3312  0.5633 -0.9202
  935MPD2    C513730   0.745   2.496   0.740  0.4285 -0.7932 -0.5961
  935MPD2     H13731   0.445   2.689   0.600 -1.3484 -1.0199  0.7682
  935MPD2    H113732   0.739   2.640   0.894  0.1329 -0.6072 -0.8048
  935MPD2    H213733   0.711   2.344   0.587 -0.1357  1.1519 -1.2679
  935MPD2    H313734   0.835   2.450   0.780 -0.6280 -1.2477  1.2870
  935MPD2     N13735   0.551   2.804   0.825 -0.0837 -0.2318  0.4036
  935MPD2    H513736   0.595   2.823   0.914 -2.5685 -1.0931  1.7847
  935MPD2    N113737   0.494   2.463   0.471 -0.0297  0.5134 -0.4093
  935MPD2    H713738   0.428   2.529   0.430 -0.6883 -1.4004 -2.4293
  936MPD2     C13739   0.407   0.992  12.455  0.1575 -0.1666  0.2095
  936MPD2    C113740   0.326   1.103  12.476  0.4486 -0.6319 -0.0552
  936MPD2    C213741   0.341   1.212  12.400 -0.0297 -0.9886  0.3632
  936MPD2    C313742   0.435   1.216  12.297 -0.4814 -0.2210 -0.6815
  936MPD2    C413743   0.510   1.100  12.272 -0.3848  0.1248 -0.7148
  936MPD2    C513744   0.495   0.990  12.351  0.7501  0.4911 -0.3530
  936MPD2     H13745   0.270   1.294  12.413  1.3054  0.2138  0.0472
  936MPD2    H113746   0.589   1.104  12.198  1.2115 -0.8249  0.9273
  936MPD2    H213747   0.394   0.899  12.509  0.0282  0.6826  1.6362
  936MPD2    H313748   0.541   0.895  12.329  0.9960  0.3837  0.6177
  936MPD2     N13749   0.445   1.340  12.229 -0.4317 -0.1609  0.5226
  936MPD2    H513750   0.367   1.403  12.250 -0.4516  0.1798 -0.5793
  936MPD2    N113751   0.230   1.119  12.570  0.3067 -0.5170 -0.2032
  936MPD2    H713752   0.169   1.200  12.561 -0.2427 -0.6019  3.0695
  937MPD2     C13753   2.430   2.458  11.486 -0.0543  0.5004  0.5562
  937MPD2    C113754   2.471   2.570  11.559  1.3228  1.0031  0.0908
  937MPD2    C213755   2.555   2.658  11.496  0.0564 -0.5253 -0.7120
  937MPD2    C313756   2.608   2.634  11.368  0.3771 -0.1488  0.0230
  937MPD2    C413757   2.562   2.526  11.303 -0.1388  1.3104 -0.2443
  937MPD2    C513758   2.477   2.436  11.360  0.0676 -0.4314  0.4329
  937MPD2     H13759   2.586   2.748  11.549 -0.8947 -0.4516 -0.2818
  937MPD2    H113760   2.584   2.505  11.199 -2.1816 -1.5636 -0.1104
  937MPD2    H213761   2.355   2.388  11.520 -0.8899  1.5753  0.9210
  937MPD2    H313762   2.443   2.344  11.314  4.4111 -1.2612 -1.1347
  937MPD2     N13763   2.693   2.726  11.312  0.2480  0.2400  0.1522
  937MPD2    H513764   2.721   2.802  11.373  2.6961  0.7460 -1.5760
  937MPD2    N113765   2.410   2.624  11.673 -0.2233 -0.1446  0.2113
  937MPD2    H713766   2.452   2.711  11.706  0.7530 -0.0779 -1.1891
  938MPD2     C13767   4.717   3.705   0.186 -1.1652  0.3645 -0.0755
  938MPD2    C113768   4.723   3.676   0.322  0.1840  0.9298  0.1194
  938MPD2    C213769   4.712   3.544   0.365 -0.7045  0.6232  0.2579
  938MPD2    C313770   4.692   3.443   0.275 -0.1990  0.1540 -0.2256
  938MPD2    C413771   4.685   3.468   0.142  0.5259 -1.1480  0.1530
  938MPD2    C513772   4.692   3.602   0.101  1.4711  0.5407  0.3485
  938MPD2     H13773   4.701   3.521   0.471 -0.0673 -0.3010  0.1226
  938MPD2    H113774   4.674   3.393   0.064  0.4957 -0.1573 -0.7946
  938MPD2    H213775   4.725   3.805   0.145  0.4997  0.4679  0.5090
  938MPD2    H313776   4.676   3.631  17.737  0.1324  2.5705  1.1300
  938MPD2     N13777   4.666   3.309   0.311 -0.3844  0.8336 -0.5029
  938MPD2    H513778   4.665   3.251   0.227  2.0530  0.4732 -0.2709
  938MPD2    N113779   4.733   3.779   0.417 -0.4802 -0.1183  0.0651
  938MPD2    H713780   0.017   3.744   0.510 -0.3698 -0.6518 -0.1585
  939MPD2     C13781   1.127   3.977   0.553 -0.1276 -0.4054  0.5231
  939MPD2    C113782   1.125   4.113   0.589  0.7154  0.1303 -0.5435
  939MPD2    C213783   1.089   4.206   0.487 -0.3262  0.5615 -0.1459
  939MPD2    C313784   1.047   4.164   0.363 -0.4600 -0.1516 -0.6099
  939MPD2    C413785   1.050   4.027   0.330  0.0599  0.1311 -0.3285
  939MPD2    C513786   1.087   3.938   0.423  0.0610  0.7441  0.3585
  939MPD2     H13787   1.075   4.312   0.505 -1.5133  0.3493  0.2200
  939MPD2    H113788   1.027   3.981   0.234  1.9594 -1.1789 -0.1485
  939MPD2    H213789   1.160   3.901   0.623  1.4610 -1.8450 -1.8039
  939MPD2    H313790   1.076   3.832   0.402  1.3451  0.4308  1.3206
  939MPD2     N13791   1.013   4.269   0.272  0.2312  0.2583 -0.0600
  939MPD2    H513792   0.998   4.364   0.307 -1.0202  0.3301 -0.7934
  939MPD2    N113793   1.161   4.153   0.718  0.9524  0.2405  0.4462
  939MPD2    H713794   1.203   4.079   0.774  0.5300  0.0885  0.5664
  940MPD2     C13795   0.418   1.450  12.739  0.6616  0.4335  0.4348
  940MPD2    C113796   0.464   1.341  12.810 -0.1293 -0.3553 -0.4327
  940MPD2    C213797   0.561   1.255  12.757  0.2785  0.3076 -0.2925
  940MPD2    C313798   0.617   1.291  12.635 -0.7236 -0.0955 -0.7253
  940MPD2    C413799   0.578   1.404  12.576 -0.0474  0.1504  0.4241
  940MPD2    C513800   0.477   1.479  12.622 -0.0806  0.5616 -0.1782
  940MPD2     H13801   0.602   1.173  12.816  0.2924  0.3525 -0.2400
  940MPD2    H113802   0.625   1.439  12.485 -2.4547 -1.6031 -1.5026
  940MPD2    H213803   0.344   1.519  12.777 -0.0082 -0.8083  1.3801
  940MPD2    H313804   0.447   1.566  12.564 -0.7781 -0.6018 -1.5570
  940MPD2     N13805   0.719   1.218  12.572 -0.2411  0.0859 -0.0250
  940MPD2    H513806   0.753   1.253  12.483 -0.3626 -0.9242 -0.4687
  940MPD2    N113807   0.405   1.321  12.929 -0.2298 -0.3030 -0.4246
  940MPD2    H713808   0.419   1.231  12.975 -0.5306  0.2565  0.7636
  941MPD2     C13809   4.028   0.725  10.524  0.2435 -0.1138  0.3300
  941MPD2    C113810   4.169   0.727  10.528 -1.0059  0.0218 -0.1303
  941MPD2    C213811   4.237   0.617  10.575 -0.9374  0.0806 -0.2644
  941MPD2    C313812   4.173   0.499  10.609  0.3902 -1.2091  0.3886
  941MPD2    C413813   4.041   0.492  10.594  0.1328 -0.4275 -0.2484
  941MPD2    C513814   3.968   0.602  10.555 -0.6014  0.0573  0.1808
  941MPD2     H13815   4.345   0.619  10.571 -1.0168  0.2258 -2.5142
  941MPD2    H113816   3.982   0.404  10.619  1.3527 -1.2140 -0.1747
  941MPD2    H213817   3.962   0.810  10.509 -1.3038 -1.2760  0.5718
  941MPD2    H313818   3.860   0.593  10.552 -0.7071  0.7154  2.0243
  941MPD2     N13819   4.245   0.382  10.645 -0.1808 -0.0870 -0.3920
  941MPD2    H513820   4.183   0.304  10.664 -0.1161 -0.8290 -3.1923
  941MPD2    N113821   4.243   0.842  10.492  0.2380  0.1498 -0.0381
  941MPD2    H713822   4.342   0.839  10.515 -0.0420 -1.4625  0.9758
  942MPD2     C13823   3.672   2.898   9.343 -0.6237 -0.0148  0.8022
  942MPD2    C113824   3.642   2.823   9.457  0.3267  0.4497  0.4101
  942MPD2    C213825   3.703   2.705   9.468  0.7149 -0.4237  0.5409
  942MPD2    C313826   3.794   2.654   9.370 -0.2406 -0.1670 -0.2446
  942MPD2    C413827   3.828   2.729   9.265 -0.5760 -0.3190 -0.0809
  942MPD2    C513828   3.765   2.849   9.255 -0.3040  0.2553 -0.0834
  942MPD2     H13829   3.687   2.646   9.557 -1.0670 -2.2151 -0.9580
  942MPD2    H113830   3.906   2.712   9.193 -1.6272 -0.4616 -1.1935
  942MPD2    H213831   3.629   2.995   9.321  1.7191  0.3378 -2.1425
  942MPD2    H313832   3.794   2.911   9.171 -0.2493 -0.1458 -0.3586
  942MPD2     N13833   3.852   2.528   9.367  0.2791 -0.4053  0.6958
  942MPD2    H513834   3.935   2.514   9.310 -0.8124  0.9039 -1.2091
  942MPD2    N113835   3.555   2.861   9.562  0.0987  0.0183  0.3749
  942MPD2    H713836   3.548   2.788   9.632  0.0738 -1.6804 -1.3793
  943MPD2     C13837   2.902   0.998  10.405 -1.0491 -0.1109 -0.3502
  943MPD2    C113838   2.888   0.870  10.440 -0.5533  0.0920 -0.4237
  943MPD2    C213839   2.862   0.854  10.577 -0.7284 -0.1000 -0.0258
  943MPD2    C313840   2.852   0.960  10.667  0.4623 -0.7266 -0.2475
  943MPD2    C413841   2.870   1.088  10.625  0.6970 -0.4929  0.8637
  943MPD2    C513842   2.896   1.105  10.493  0.3299  0.6659  0.0609
  943MPD2     H13843   2.836   0.759  10.621 -0.4130  1.3388  3.2100
  943MPD2    H113844   2.865   1.179  10.684 -2.9115  0.2661 -0.6417
  943MPD2    H213845   2.922   1.019  10.300  0.4418  1.0942  0.1719
  943MPD2    H313846   2.907   1.203  10.449 -0.8913  1.7239  2.1132
  943MPD2     N13847   2.837   0.943  10.808  0.0391 -0.4324  0.2945
  943MPD2    H513848   2.793   1.024  10.849  1.6369  0.9507 -0.7206
  943MPD2    N113849   2.902   0.770  10.342  0.7621  0.8443 -0.3071
  943MPD2    H713850   2.932   0.794  10.248  0.1262  0.3985 -0.6255
  944MPD2     C13851   2.633   3.767  10.813  0.4047 -0.1863  0.4724
  944MPD2    C113852   2.697   3.862  10.740 -0.2067  0.5422 -1.0572
  944MPD2    C213853   2.721   3.985  10.799  0.0919  0.1655  0.2526
  944MPD2    C313854   2.676   4.004  10.928  0.5305 -0.2061  1.5870
  944MPD2    C413855   2.613   3.904  11.000  0.1747  0.2910  1.1486
  944MPD2    C513856   2.603   3.783  10.947 -0.0187  0.1603  0.4025
  944MPD2     H13857   2.777   4.057  10.740 -1.5996  0.3838 -1.0833
  944MPD2    H113858   2.591   3.919  11.105 -1.5943 -1.4203  1.0049
  944MPD2    H213859   2.604   3.672  10.770  0.1512  0.1297 -0.0558
  944MPD2    H313860   2.563   3.699  11.003  2.8828 -1.1013  0.6025
  944MPD2     N13861   2.702   4.130  10.984 -0.1719  0.4862  0.0923
  944MPD2    H513862   2.738   4.203  10.924 -0.1899 -1.1231 -1.8575
  944MPD2    N113863   2.728   3.832  10.611 -0.3820 -0.1750 -0.1350
  944MPD2    H713864   2.696   3.742  10.576 -0.6056  0.6992 -2.2079
    1TMC1    C113865   1.398   0.006  14.293 -0.6144 -0.5906 -0.3339
    1TMC1    C213866   1.520   0.002  14.343  0.5780 -0.5912  0.6491
    1TMC1    C313867   1.612   4.669  14.273  0.3301 -0.1213 -0.1038
    1TMC1    C413868   1.358   4.671  14.183  0.5791 -0.2257 -0.6098
    1TMC1    C513869   1.454   4.608  14.109 -0.5686 -0.6588 -0.1234
    1TMC1    C613870   1.582   4.590  14.162  0.8103 -0.3167 -0.2489
    1TMC1     C13871   1.291   0.057  14.374  0.1704 -0.0047  0.1642
    1TMC1     O13872   1.311   0.037  14.496 -0.1674 -1.0662  0.1704
    1TMC1     H13873   1.545   0.076  14.418  0.9379 -0.9971  0.9322
    1TMC1    H113874   1.255   4.675  14.151  0.7269  2.6950 -0.7824
    1TMC1    H213875   1.654   4.529  14.109  1.5035 -0.2678  0.6407
    1TMC1    C713876   1.410   4.500  14.026  0.9723 -0.3388  0.3463
    1TMC1    C813877   1.741   4.672  14.337 -0.1743 -0.4494 -0.2644
    1TMC1    O113878   1.491   4.457  13.945 -0.3239 -0.1234  0.1001
    1TMC1    O213879   1.751   4.729  14.442 -0.1749  0.1790 -0.0923
    1TMC1    O313880   1.314   4.417  14.087 -0.2381 -0.1404  0.2437
    1TMC1    H313881   1.273   4.455  14.167  1.1895 -1.7836  1.7753
    1TMC1    O513882   1.808   4.552  14.316  0.4796 -0.1752  0.1958
    1TMC1    H513883   1.787   4.510  14.230 -2.4943 -0.0775  0.8494
    2MPD2     C13884   0.850   0.274  14.491  0.0243 -0.5229  0.7643
    2MPD2    C113885   0.887   0.321  14.364  0.3761 -0.1062  0.2476
    2MPD2    C213886   0.996   0.256  14.300  0.1990  0.1708 -0.0665
    2MPD2    C313887   1.084   0.173  14.370 -0.4190 -0.0605 -0.2961
    2MPD2    C413888   1.056   0.143  14.506 -0.3698 -0.6187  0.2132
    2MPD2    C513889   0.942   0.190  14.557  0.1619 -0.4727 -0.2281
    2MPD2     H13890   1.016   0.271  14.195 -0.2766 -0.7845 -0.2998
    2MPD2    H113891   1.100   0.064  14.567  1.6947 -0.6456 -1.3073
    2MPD2    H213892   0.769   0.310  14.553 -0.7402 -0.1205 -0.4761
    2MPD2    H313893   0.903   0.151  14.651 -0.1108  0.1852 -0.0682
    2MPD2     N13894   1.196   0.124  14.307  0.1850 -0.2978  0.2437
    2MPD2    H513895   1.197   0.135  14.206  1.8499 -0.0999  0.2853
    2MPD2    N113896   0.795   0.402  14.303  0.0107  0.3843 -0.3705
    2MPD2    H713897   0.722   0.449  14.356  0.1869  1.3454 -0.9823
    3TMC2    C113898   0.733   0.577  14.155 -0.1292  0.3618  0.6935
    3TMC2    C213899   0.705   0.655  14.261  0.1135 -0.0908 -0.1153
    3TMC2    C313900   0.648   0.772  14.224  0.1352 -0.2304  0.1557
    3TMC2    C413901   0.722   0.621  14.025  0.0040  0.3310 -0.0797
    3TMC2    C513902   0.680   0.748  13.997  0.0474 -0.2013  0.0109
    3TMC2    C613903   0.635   0.825  14.101  0.5993 -0.0183  0.8738
    3TMC2     C13904   0.816   0.462  14.180  0.1083 -0.2909  0.5719
    3TMC2     O13905   0.885   0.427  14.089  0.0219 -0.5714  0.1165
    3TMC2     H13906   0.712   0.627  14.366 -0.6737 -0.1832 -0.0813
    3TMC2    H113907   0.759   0.563  13.941  1.2471 -0.5894  1.0978
    3TMC2    H213908   0.584   0.920  14.092  0.4815  0.0346  2.0338
    3TMC2    C713909   0.734   0.815  13.877  0.0072  0.0115 -0.3444
    3TMC2    C813910   0.630   0.867  14.322  0.7919 -0.1123  0.8785
    3TMC2    O113911   0.823   0.753  13.818 -0.4584 -0.1498 -0.4787
    3TMC2    O213912   0.542   0.949  14.310 -0.4153  0.5187  0.0565
    3TMC2    O513913   0.760   0.900  14.351 -0.3406  0.8078  0.2481
    3TMC2    H513914   0.818   0.822  14.341 -1.9112 -0.3468  0.0780
    4TMC2    C113915   0.479   1.731  13.564 -0.5797 -0.3505  0.0524
    4TMC2    C213916   0.371   1.769  13.637 -0.7472 -0.4358  0.4240
    4TMC2    C313917   0.336   1.693  13.741 -0.2439 -0.9207  0.3404
    4TMC2    C413918   0.561   1.633  13.607  0.2368  0.4953  0.7390
    4TMC2    C513919   0.522   1.558  13.717 -0.1031 -0.2545 -0.6646
    4TMC2    C613920   0.400   1.579  13.781  0.3218 -0.1052  0.0547
    4TMC2     C13921   0.519   1.794  13.438  0.0757  0.0355 -0.4275
    4TMC2     O13922   0.638   1.806  13.404  0.4600 -0.8634  0.5496
    4TMC2     H13923   0.313   1.857  13.615  0.6976  0.2240 -0.6884
    4TMC2    H113924   0.653   1.616  13.553 -1.9224  0.2035 -2.8318
    4TMC2    H213925   0.366   1.513  13.860 -2.0560  1.6867  0.5048
    4TMC2    C713926   0.591   1.436  13.754 -0.5867  0.0042  0.2295
    4TMC2    C813927   0.192   1.714  13.785 -0.3286  0.3424  0.0835
    4TMC2    O113928   0.561   1.385  13.861 -0.5010  0.3310 -0.5890
    4TMC2    O213929   0.176   1.819  13.844  0.4334 -0.2635 -0.1521
    4TMC2    O513930   0.145   1.594  13.817 -0.2322 -0.5872  0.1714
    4TMC2    H513931   0.182   1.523  13.761  2.5646  1.2112 -0.2525
    5MPD2     C13932   0.384   2.058  13.014  0.1587  0.5062  0.6253
    5MPD2    C113933   0.267   2.027  13.080  0.3547 -0.2195 -0.5300
    5MPD2    C213934   0.276   1.941  13.193 -0.0112 -0.1390 -0.0029
    5MPD2    C313935   0.400   1.901  13.247 -0.0757 -0.1350 -0.3336
    5MPD2    C413936   0.514   1.944  13.186  0.6321 -0.2603 -0.6920
    5MPD2    C513937   0.500   2.012  13.072  0.3666 -0.3421 -0.7634
    5MPD2     H13938   0.187   1.905  13.244  0.5895 -1.0548  0.3903
    5MPD2    H113939   0.611   1.904  13.214 -0.0273 -0.2819  1.5553
    5MPD2    H213940   0.387   2.107  12.918 -1.3662  0.1637  0.4069
    5MPD2    H313941   0.590   2.054  13.027  0.8360 -0.9641 -0.4034
    5MPD2     N13942   0.400   1.828  13.369  0.1338  0.1123 -0.5167
    5MPD2    H513943   0.315   1.806  13.421  0.2060  0.6887 -0.1569
    5MPD2    N113944   0.142   2.049  13.015  0.3145  0.3179 -1.0708
    5MPD2    H713945   0.146   2.113  12.936  0.9083  1.0596 -0.4431
    6MPD1     C13946   4.073   3.473  13.614 -0.1984 -0.0876  0.2413
    6MPD1    C113947   4.158   3.508  13.510  0.0833 -0.9226  0.1424
    6MPD1    C213948   4.214   3.401  13.436 -0.3181  0.0736  0.9902
    6MPD1    C313949   4.173   3.273  13.460  0.5461 -0.0459 -0.1878
    6MPD1    C413950   4.072   3.245  13.550 -0.3528 -0.5638  0.0816
    6MPD1    C513951   4.023   3.347  13.626 -0.0822 -0.2749 -0.0521
    6MPD1     H13952   4.277   3.424  13.350 -1.1051 -2.3683 -0.2345
    6MPD1    H113953   4.036   3.144  13.567  1.1539 -1.1206 -0.0102
    6MPD1    H213954   4.036   3.552  13.679  0.3160 -1.0827  1.7548
    6MPD1    H313955   3.949   3.324  13.702  1.0136  0.6816  1.2941
    6MPD1     N13956   4.205   3.156  13.387  0.0655 -0.0036 -0.2133
    6MPD1    H513957   4.136   3.082  13.396 -0.4819  0.5042 -0.2342
    6MPD1    N113958   4.211   3.637  13.491  0.7669 -0.3208 -0.2535
    6MPD1    H613959   4.237   3.645  13.393  0.8104 -1.5988 -0.3535
    6MPD1    H713960   4.137   3.706  13.500 -0.2888 -1.4114 -0.4836
    7MPD2     C13961   4.097   2.404  13.374 -0.3603 -0.4079 -0.4041
    7MPD2    C113962   4.145   2.451  13.253 -0.1006  0.1230 -0.5712
    7MPD2    C213963   4.195   2.360  13.161 -0.0585  0.6558 -0.1781
    7MPD2    C313964   4.199   2.231  13.189 -0.3253 -0.3574  0.0212
    7MPD2    C413965   4.140   2.185  13.306 -0.0323 -0.1166  0.0907
    7MPD2    C513966   4.084   2.273  13.397  0.3989  0.1905  0.7791
    7MPD2     H13967   4.231   2.402  13.068 -0.9847  0.6792 -0.5151
    7MPD2    H113968   4.138   2.077  13.316 -1.2859 -0.0904  0.1690
    7MPD2    H213969   4.059   2.476  13.445  4.1858  2.1748 -0.6121
    7MPD2    H313970   4.034   2.240  13.487  0.0611 -2.8126 -0.4909
    7MPD2     N13971   4.257   2.133  13.106  0.2550 -0.2005 -0.5437
    7MPD2    H513972   4.249   2.037  13.138 -0.8397  0.0574 -0.0597
    7MPD2    N113973   4.177   2.582  13.226 -0.0362 -0.2310  0.1665
    7MPD2    H713974   4.257   2.586  13.164 -0.4467 -1.7184 -0.4760
    8TMC3    C113975   4.412   2.065  12.941 -0.3973 -0.1789  0.2016
    8TMC3    C213976   4.523   2.047  13.026 -0.5376  0.3151 -0.6031
    8TMC3    C313977   4.641   2.039  12.968  0.0432  0.4778  0.2107
    8TMC3    C413978   4.429   2.088  12.807  0.4704 -0.2974  0.0472
    8TMC3    C513979   4.556   2.091  12.749  0.5651 -0.2959  0.4122
    8TMC3    C613980   4.659   2.061  12.832  0.3755 -0.6721 -0.3097
    8TMC3     C13981   4.311   2.160  12.987 -0.1740  0.4418  0.4939
    8TMC3     O13982   4.329   2.263  12.920 -0.0768 -0.3693 -0.1257
    8TMC3     H13983   4.505   2.029  13.131 -0.2949 -2.7910 -1.0938
    8TMC3    H113984   4.344   2.124  12.749  2.0473  0.3090 -1.8742
    8TMC3    H213985   0.022   2.040  12.792  1.1839  2.4301  0.0782
    8TMC3    C713986   4.579   2.201  12.664  0.6411  0.0832 -0.2027
    8TMC3    C813987   0.018   1.999  13.052  0.6499  0.8976 -0.7950
    8TMC3    O113988   4.664   2.194  12.579 -0.1885  0.1298  0.4427
    8TMC3    O213989   4.715   1.953  13.160 -0.2104  0.1699 -0.2736
    9TMC3    C113990   4.306   3.020  13.233  0.0927  0.4693 -0.6103
    9TMC3    C213991   4.363   2.997  13.111 -0.1725  0.5067  0.1934
    9TMC3    C313992   4.346   2.884  13.040  0.8482  0.4038 -0.1770
    9TMC3    C413993   4.226   2.924  13.286  0.6867  0.5144 -0.7458
    9TMC3    C513994   4.197   2.816  13.207 -0.7918  0.9285  0.4301
    9TMC3    C613995   4.248   2.797  13.081 -0.3429 -0.5504  0.3785
    9TMC3     C13996   4.308   3.151  13.292 -1.0629 -0.3586  0.0570
    9TMC3     O13997   4.397   3.233  13.259 -0.2814  0.4563  0.1311
    9TMC3     H13998   4.428   3.078  13.080  2.8206 -1.2159  2.0273
    9TMC3    H113999   4.178   2.929  13.383  2.0272 -2.7531  0.1029
    9TMC3    H214000   4.209   2.718  13.017 -1.9973  0.8629 -0.3454
    9TMC3    C714001   4.135   2.701  13.277 -0.5285 -0.8109  0.0482
    9TMC3    C814002   4.417   2.871  12.907  0.0728  0.2212  0.0121
    9TMC3    O114003   4.056   2.717  13.370 -0.2391  0.3847  0.2954
    9TMC3    O214004   4.489   2.965  12.867  0.8232  0.1235  0.2651
   10MPD2     C14005   4.617   2.493  12.597  0.1119  0.5914 -0.1272
   10MPD2    C114006   4.525   2.445  12.684 -0.1566 -0.4150 -0.1761
   10MPD2    C214007   4.456   2.535  12.764  0.1058  0.0189 -0.1016
   10MPD2    C314008   4.484   2.668  12.770 -0.4760  0.4896  0.2196
   10MPD2    C414009   4.577   2.719  12.675 -0.0277  0.0880  0.5624
   10MPD2    C514010   4.642   2.630  12.591  0.0560  0.2923 -0.6394
   10MPD2     H14011   4.403   2.480  12.840 -0.0227  0.3148  0.0219
   10MPD2    H114012   4.606   2.823  12.674 -0.9437  0.3397  0.0016
   10MPD2    H214013   4.689   2.425  12.555 -0.3729 -0.2199  0.3666
   10MPD2    H314014   4.727   2.666  12.533 -0.6873  0.3951 -1.6692
   10MPD2     N14015   4.416   2.739  12.867 -0.0829 -0.4660 -0.2612
   10MPD2    H514016   4.369   2.675  12.931  0.3469 -0.7840 -0.2609
   10MPD2    N114017   4.513   2.309  12.719  0.2824 -0.5578  0.2486
   10MPD2    H714018   4.447   2.279  12.791  1.0131 -0.8778  0.7792
   11MPD2     C14019   0.804   0.995  13.646  0.8587  0.7126  0.8765
   11MPD2    C114020   0.724   1.025  13.754  0.2099 -0.0488  0.9695
   11MPD2    C214021   0.662   1.150  13.753  0.7207  0.6257 -0.0736
   11MPD2    C314022   0.693   1.243  13.648 -0.0694 -0.5039  0.3736
   11MPD2    C414023   0.768   1.208  13.539 -0.6084  0.1475 -0.0818
   11MPD2    C514024   0.830   1.085  13.542  0.1196  0.1899 -0.2335
   11MPD2     H14025   0.605   1.176  13.842  0.0070  0.5518 -0.5017
   11MPD2    H114026   0.791   1.271  13.454 -0.7935  1.7495  1.0447
   11MPD2    H214027   0.859   0.901  13.652  3.4374  2.0868 -1.2223
   11MPD2    H314028   0.911   1.074  13.471  0.9979 -0.1801  0.8271
   11MPD2     N14029   0.639   1.374  13.644  0.4028  0.0383  0.2732
   11MPD2    H514030   0.637   1.421  13.554 -1.0994  2.7403  1.7164
   11MPD2    N114031   0.689   0.942  13.854 -0.0071 -0.1653  0.7985
   11MPD2    H714032   0.621   0.982  13.919 -0.4769  0.4146 -0.0510
    1MPD1     C14033   3.053   2.020  16.732 -0.4736 -0.3887  0.5568
    1MPD1    C114034   2.926   2.024  16.682 -0.4760  0.0330  0.1804
    1MPD1    C214035   2.904   2.119  16.592 -0.3488  0.0152 -0.7002
    1MPD1    C314036   3.003   2.188  16.524  0.3163 -0.4932 -0.4022
    1MPD1    C414037   3.130   2.179  16.571  0.4700  0.1093 -0.2424
    1MPD1    C514038   3.148   2.103  16.679  0.0082 -1.0306 -0.4125
    1MPD1     H14039   2.799   2.134  16.566 -0.5808  3.3415  2.1292
    1MPD1    H114040   3.208   2.248  16.542 -0.7769  1.2340 -0.9067
    1MPD1    H214041   3.076   1.970  16.825  0.0707 -0.5332  0.3426
    1MPD1    H314042   3.237   2.112  16.740 -0.8081  5.1010 -0.1977
    1MPD1     N14043   2.984   2.270  16.411 -0.8924  0.0658  0.5722
    1MPD1    H514044   3.067   2.318  16.378  0.1538 -1.3437  1.1345
    1MPD1    N114045   2.813   1.966  16.747 -0.4578 -0.2937  0.4747
    1MPD1    H614046   2.835   1.887  16.807  2.5782  0.6742  0.6142
    1MPD1    H714047   2.738   1.939  16.684  0.9249 -0.6594 -1.0090
    2MPD1     C14048   3.391   2.885  15.760  0.4994 -0.0399 -0.0631
    2MPD1    C114049   3.441   2.793  15.853 -0.2651 -0.2355  0.2597
    2MPD1    C214050   3.348   2.733  15.928  0.3212 -0.1849  0.0873
    2MPD1    C314051   3.216   2.762  15.911  0.5508  1.2603 -0.2183
    2MPD1    C414052   3.168   2.859  15.822  0.0217  0.1271  0.5600
    2MPD1    C514053   3.257   2.922  15.742  0.0088 -0.9634 -0.2583
    2MPD1     H14054   3.379   2.651  15.993  1.9547 -1.3954 -2.2304
    2MPD1    H114055   3.065   2.893  15.822 -0.7301 -2.1632 -2.4102
    2MPD1    H214056   3.451   2.926  15.680  0.0046 -2.1381 -1.5084
    2MPD1    H314057   3.224   2.996  15.670 -2.0551 -0.6131  1.0145
    2MPD1     N14058   3.106   2.698  15.973 -0.4671 -0.1331 -0.0422
    2MPD1    H514059   3.015   2.712  15.932  0.4991 -0.2731 -2.2311
    2MPD1    N114060   3.582   2.762  15.854  0.7934 -0.3641  0.0630
    2MPD1    H614061   3.616   2.731  15.945 -0.3760 -0.9939  0.2790
    2MPD1    H714062   3.646   2.824  15.806  1.5212 -0.8712  0.3690
    3TMC3    C114063   2.988   2.534  16.107  0.1082 -0.0958  0.1905
    3TMC3    C214064   2.905   2.512  16.001 -0.4416  0.6911 -0.7097
    3TMC3    C314065   2.804   2.435  16.022  0.8679 -0.1359  0.0707
    3TMC3    C414066   2.986   2.464  16.224  0.1233 -0.2547  0.7314
    3TMC3    C514067   2.878   2.380  16.239  0.0562  0.0112 -0.5196
    3TMC3    C614068   2.782   2.372  16.140  0.0094  0.0966 -0.6117
    3TMC3     C14069   3.115   2.611  16.080  0.6353  0.0551 -0.4327
    3TMC3     O14070   3.209   2.590  16.158 -0.2092  0.0280  0.5318
    3TMC3     H14071   2.891   2.581  15.918 -1.3914  2.8293  1.1999
    3TMC3    H114072   3.045   2.492  16.311  1.5853 -3.1196  0.6329
    3TMC3    H214073   2.701   2.301  16.148  0.6795 -1.0772 -4.1514
    3TMC3    C714074   2.863   2.285  16.345 -0.0901  0.0198 -0.6515
    3TMC3    C814075   2.703   2.404  15.916 -0.0052 -0.5015 -0.2821
    3TMC3    O114076   2.756   2.234  16.364 -0.1915 -0.1363 -0.1719
    3TMC3    O214077   2.602   2.354  15.964  0.3353 -0.1259  0.0778
    4MPD1     C14078   2.485   2.388  15.450  0.2227 -0.0628  0.0386
    4MPD1    C114079   2.609   2.431  15.433  0.3751  0.0224  0.1327
    4MPD1    C214080   2.693   2.450  15.546 -0.3292 -0.0847  0.1409
    4MPD1    C314081   2.643   2.425  15.673  0.3040  0.0051 -0.4992
    4MPD1    C414082   2.513   2.383  15.684  0.9254  0.2404  0.1432
    4MPD1    C514083   2.437   2.359  15.575  0.7570 -0.5047 -0.0319
    4MPD1     H14084   2.787   2.503  15.546  0.7653 -2.0278 -0.0845
    4MPD1    H114085   2.481   2.348  15.781  1.1097  0.2247  0.1980
    4MPD1    H214086   2.417   2.373  15.367  0.6404  0.6900 -0.4400
    4MPD1    H314087   2.344   2.304  15.571  0.4275  0.1569 -1.5821
    4MPD1     N14088   2.733   2.442  15.783  0.6299  0.3273  0.1840
    4MPD1    H514089   2.824   2.478  15.756  0.2559  1.0445 -0.1049
    4MPD1    N114090   2.665   2.441  15.309  0.3128 -0.3874  0.9602
    4MPD1    H614091   2.587   2.458  15.245  0.4370  2.2069  1.4618
    4MPD1    H714092   2.736   2.514  15.310  0.1976 -0.2625 -1.2558
    1TCq1    O114093   0.716   0.686  12.132 -0.8866  0.1580 -0.5071
    1TCq1    C114094   0.609   0.613  12.107  0.0583  0.1961 -0.5999
    1TCq1    O214095   0.588   0.501  12.149 -0.3085  0.0169 -0.2687
    1TCq1    C214096   0.498   0.710  12.078 -0.6698  0.3290  0.1346
    1TCq1    C314097   0.384   0.698  12.144 -0.2982  0.3752 -0.0989
    1TCq1    C414098   0.275   0.777  12.106  0.3989 -0.5785 -0.0250
    1TCq1    C514099   0.296   0.903  12.049  0.2760  0.2583  0.1060
    1TCq1    C614100   0.424   0.926  11.999 -0.1609 -0.3860  0.5464
    1TCq1    C714101   0.523   0.831  12.011  0.1886 -1.0207  0.2580
    1TCq1    C814102   0.456   1.047  11.921  0.2133 -0.3317  0.2105
    1TCq1    O414103   0.573   1.047  11.876  0.1122 -0.2603 -0.0996
    1TCq1    C914104   0.154   0.767  12.195  1.1272  0.3987  0.3000
    1TCq1    O514105   0.168   0.692  12.293 -0.4520 -0.2353 -0.4905
    1TCq1    O614106   0.060   0.853  12.175 -0.3321 -0.3613  0.3378
    1TCq1    H114107   0.723   0.784  12.133 -0.5534  0.1142  0.4742
    1TCq1    H214108   0.357   0.599  12.179  0.0821  0.4442  0.3912
    1TCq1    H314109   0.209   0.965  12.028  1.9261  3.0687  1.5160
    1TCq1    H414110   0.623   0.845  11.972  0.8910  0.4999  2.6094
    2MPD1     C14111   0.367   1.525  11.745  0.3941  0.5004  0.7517
    2MPD1    C114112   0.261   1.484  11.815  0.4482  0.4565 -0.2247
    2MPD1    C214113   0.260   1.366  11.878  0.7266 -0.0487  0.3630
    2MPD1    C314114   0.366   1.285  11.865  0.1731 -0.0118  0.8346
    2MPD1    C414115   0.481   1.325  11.801 -0.2456  0.4463  0.5513
    2MPD1    C514116   0.479   1.446  11.740 -0.0629 -0.2620 -0.5717
    2MPD1     H14117   0.172   1.338  11.935  1.3924 -0.5031  1.1786
    2MPD1    H114118   0.562   1.257  11.780  0.0580  1.0026 -0.0904
    2MPD1    H214119   0.362   1.615  11.684  1.2466 -1.0821 -1.6664
    2MPD1    H314120   0.556   1.483  11.674  0.6326  1.5136  1.2286
    2MPD1     N14121   0.359   1.149  11.918 -0.0540  0.3913  0.1161
    2MPD1    H514122   0.269   1.126  11.960 -0.1303 -0.6536 -0.6299
    2MPD1    N114123   0.145   1.564  11.814  0.1117  0.5983  0.0161
    2MPD1    H614124   0.080   1.542  11.889 -0.2009 -2.1999 -1.0823
    2MPD1    H714125   0.164   1.664  11.809 -1.0191  0.8915  1.6561
    1TMC1    C114126   4.663   2.329   0.988 -0.0640 -0.4123 -0.3084
    1TMC1    C214127   4.544   2.395   1.010  0.0057  0.2609  0.6084
    1TMC1    C314128   4.470   2.433   0.902  0.0712 -0.0116 -0.0895
    1TMC1    C414129   4.722   2.331   0.866 -0.1373 -0.2560  1.0959
    1TMC1    C514130   4.651   2.386   0.764  0.2021  0.3324  0.2560
    1TMC1    C614131   4.529   2.433   0.780  0.1894 -0.0509 -0.3118
    1TMC1     C14132   4.730   2.277   1.102  0.4223  0.2094 -0.0155
    1TMC1     O14133   4.694   2.323   1.208 -0.7866  0.1274 -0.2716
    1TMC1     H14134   4.495   2.379   1.105 -1.4250 -0.1813 -0.1971
    1TMC1    H114135   0.093   2.314   0.851 -0.6677 -2.9147  0.5045
    1TMC1    H214136   4.478   2.471   0.692  2.2342  0.0215 -1.4779
    1TMC1    C714137   4.697   2.375   0.627 -0.2337 -0.3125 -0.1408
    1TMC1    C814138   4.370   2.534   0.933 -0.0102 -0.2458  0.1528
    1TMC1    O114139   4.688   2.471   0.553  0.2942  0.0801  0.0684
    1TMC1    O214140   4.344   2.625   0.858 -0.3694  0.9368  0.0078
    1TMC1    O314141   0.053   2.279   0.625  0.4820 -0.1420 -0.1852
    1TMC1    H314142   0.049   2.216   0.701  0.1826  0.7719  0.5516
    1TMC1    O514143   4.297   2.485   1.033 -0.0540  0.4600  0.3650
    1TMC1    H514144   4.316   2.391   1.056 -1.0945 -0.2686 -1.7016
    2MPD1     C14145   0.419   2.094   1.324  0.3337  0.0311 -0.8768
    2MPD1    C114146   0.383   2.011   1.223 -0.0737  0.0791  0.5588
    2MPD1    C214147   0.279   2.045   1.136  0.1270  0.4518 -0.9679
    2MPD1    C314148   0.198   2.155   1.162 -0.2992 -0.0932 -0.2532
    2MPD1    C414149   0.233   2.231   1.267  0.2516  0.8254 -0.5889
    2MPD1    C514150   0.341   2.204   1.345 -0.6134 -0.4640 -0.3975
    2MPD1     H14151   0.242   1.971   1.065 -0.4401  0.6605 -0.8905
    2MPD1    H114152   0.173   2.315   1.299 -1.7713 -0.2197 -1.6450
    2MPD1    H214153   0.499   2.075   1.395 -1.1967 -0.3651  0.7485
    2MPD1    H314154   0.362   2.272   1.427  1.1325 -0.5395 -0.7850
    2MPD1     N14155   0.091   2.183   1.074  0.1201 -1.1038 -0.1961
    2MPD1    H514156   0.083   2.132   0.987 -0.6024 -0.6425 -0.4038
    2MPD1    N114157   0.445   1.889   1.211  0.1466 -0.9616 -0.7014
    2MPD1    H614158   0.538   1.892   1.252 -0.5363 -1.6829  0.8662
    2MPD1    H714159   0.456   1.853   1.116 -0.9597 -3.0005 -0.0686
    1MPD1     C14160   1.253   2.001  11.635 -0.3181  0.6415 -0.1041
    1MPD1    C114161   1.273   2.110  11.711 -0.2441 -0.0583  0.8523
    1MPD1    C214162   1.391   2.179  11.700  0.1710 -0.0566 -0.1168
    1MPD1    C314163   1.499   2.118  11.631  1.1195 -0.3744 -0.1322
    1MPD1    C414164   1.478   1.993  11.569  0.3544  0.5698  0.2207
    1MPD1    C514165   1.353   1.946  11.562  0.3982  0.4742 -0.0144
    1MPD1     H14166   1.405   2.277  11.744 -1.2844 -0.0822  0.3971
    1MPD1    H114167   1.549   1.938  11.508 -1.8761 -1.7028 -0.3137
    1MPD1    H214168   1.160   1.947  11.642  0.7639 -1.1954 -0.0121
    1MPD1    H314169   1.341   1.857  11.501 -0.5609  2.3705 -2.5797
    1MPD1     N14170   1.626   2.195  11.620  1.2274 -0.3604 -0.3188
    1MPD1    H514171   1.635   2.285  11.665 -1.9213  0.1692 -0.7419
    1MPD1    N114172   1.158   2.170  11.775 -0.1047 -0.2121  0.2030
    1MPD1    H614173   1.096   2.090  11.787  1.1375 -0.6950  3.2588
    1MPD1    H714174   1.181   2.202  11.869  0.7718 -0.1276 -0.0468
    2MPD1     C14175   0.147   2.837  11.981 -0.3552  0.1828 -0.2905
    2MPD1    C114176   0.235   2.933  11.935  1.6093  0.0558  0.1177
    2MPD1    C214177   0.287   2.913  11.807  0.0030  0.1177  0.7414
    2MPD1    C314178   0.235   2.821  11.716 -0.8222  0.0096 -0.2025
    2MPD1    C414179   0.135   2.736  11.761  0.2034  0.4418 -0.6304
    2MPD1    C514180   0.100   2.743  11.893  0.9710 -0.2641 -0.4836
    2MPD1     H14181   0.380   2.963  11.784  0.6165  0.6103  4.1899
    2MPD1    H114182   0.083   2.672  11.691 -1.2837 -1.5362  2.2674
    2MPD1    H214183   0.111   2.833  12.084 -0.6396  0.3716 -0.3833
    2MPD1    H314184   0.034   2.671  11.941 -2.6356  1.1122 -3.3565
    2MPD1     N14185   0.282   2.798  11.587  0.7819  0.5914  0.0517
    2MPD1    H514186   0.237   2.724  11.534 -1.2751  0.3277  2.1387
    2MPD1    N114187   0.297   3.027  12.018  0.3026 -1.0441 -0.0568
    2MPD1    H614188   0.217   3.070  12.064 -0.9041  0.4355 -3.4795
    2MPD1    H714189   0.340   3.104  11.966  0.8592 -1.3767 -0.0910
    3MPD1     C14190   0.021   2.415  10.769  0.0174 -0.7992 -0.0594
    3MPD1    C114191   0.151   2.447  10.737 -0.9848  0.6809 -0.3130
    3MPD1    C214192   0.246   2.463  10.834  0.0743 -1.1094  0.1083
    3MPD1    C314193   0.208   2.470  10.965  0.5022 -0.2063  0.3566
    3MPD1    C414194   0.081   2.427  10.994 -0.5273 -0.1453 -0.1555
    3MPD1    C514195   4.727   2.406  10.899 -0.8728  0.6587  0.4394
    3MPD1     H14196   0.350   2.473  10.804  0.7361 -0.7750  2.4899
    3MPD1    H114197   0.044   2.417  11.096 -1.0948 -1.7930 -0.5285
    3MPD1    H214198   4.683   2.393  10.693 -1.6869 -0.7429  1.5834
    3MPD1    H314199   4.623   2.390  10.925 -0.4953 -3.1676 -0.4326
    3MPD1     N14200   0.306   2.522  11.058 -0.2374  0.0356  0.1943
    3MPD1    H514201   0.395   2.552  11.019 -0.1703 -0.4082  0.0076
    3MPD1    N114202   0.176   2.454  10.603 -0.3378 -0.0212  0.1594
    3MPD1    H614203   0.237   2.530  10.573 -1.2916  1.2349  1.4095
    3MPD1    H714204   0.092   2.445  10.547  0.6405  3.0993 -1.8314
    4MPD2     C14205   1.769   2.755  11.765 -0.0026  0.3606  0.6072
    4MPD2    C114206   1.828   2.718  11.645 -0.2823 -0.1254  0.7381
    4MPD2    C214207   1.801   2.787  11.528 -0.1200 -0.0927 -0.5947
    4MPD2    C314208   1.725   2.900  11.527 -0.0737 -0.0615  0.0221
    4MPD2    C414209   1.684   2.942  11.652  0.3813 -0.1282 -0.6122
    4MPD2    C514210   1.699   2.872  11.763  0.2487  0.1875  0.4106
    4MPD2     H14211   1.850   2.756  11.436  3.1688 -1.3430  1.6053
    4MPD2    H114212   1.636   3.039  11.660  2.0935  0.5802  1.0779
    4MPD2    H214213   1.791   2.717  11.864 -0.9141 -1.5372  0.0906
    4MPD2    H314214   1.657   2.903  11.858 -0.3145 -0.1511  0.2722
    4MPD2     N14215   1.690   2.953  11.405  0.0479 -0.2870  0.0581
    4MPD2    H514216   1.737   2.915  11.324 -1.9552 -1.9098 -0.3666
    4MPD2    N114217   1.906   2.601  11.628 -0.0590  0.2583 -0.2527
    4MPD2    H714218   1.947   2.592  11.536  2.3647  0.5904  0.8181
    5TMC3    C114219   1.976   2.395  11.637  0.2689  0.0353  0.5740
    5TMC3    C214220   1.881   2.293  11.649 -0.6267  0.0591 -0.2397
    5TMC3    C314221   1.835   2.241  11.529  0.0833  1.1382 -0.1905
    5TMC3    C414222   2.030   2.432  11.514  0.9739 -0.0586  0.9519
    5TMC3    C514223   1.990   2.362  11.404 -0.2470  0.1097  0.5575
    5TMC3    C614224   1.889   2.271  11.410 -0.2612  0.2266  0.0079
    5TMC3     C14225   1.936   2.505  11.721 -0.1352 -0.2516 -0.3070
    5TMC3     O14226   1.890   2.485  11.836 -0.1423  0.5288 -0.1024
    5TMC3     H14227   1.824   2.275  11.739 -0.2237 -1.0028 -0.1976
    5TMC3    H114228   2.103   2.512  11.504  0.7528 -0.2251 -1.9007
    5TMC3    H214229   1.833   2.238  11.324  1.0571  1.5910 -1.3776
    5TMC3    C714230   2.013   2.434  11.278 -0.4468  0.4855  0.3121
    5TMC3    C814231   1.713   2.168  11.524 -0.3487 -0.8214 -0.5906
    5TMC3    O114232   2.053   2.547  11.290  0.2468 -0.3698  0.0108
    5TMC3    O214233   1.702   2.088  11.434  0.5057  0.5769 -0.2359
    6TMC3    C114234   0.452   2.750  11.431 -0.1289 -0.3228  0.3148
    6TMC3    C214235   0.354   2.689  11.361 -0.4611  0.6316 -0.0220
    6TMC3    C314236   0.390   2.610  11.254  0.0187  0.8400 -0.9938
    6TMC3    C414237   0.582   2.760  11.394 -0.8973  0.0793  0.8018
    6TMC3    C514238   0.615   2.686  11.289  0.2133  0.1075 -0.8298
    6TMC3    C614239   0.523   2.605  11.221 -0.8185 -0.3352  0.7952
    6TMC3     C14240   0.412   2.836  11.541 -0.8163 -0.1776  0.3228
    6TMC3     O14241   0.496   2.912  11.584  0.3062  0.5217  0.2636
    6TMC3     H14242   0.247   2.692  11.380 -1.0128 -1.9044 -2.6983
    6TMC3    H114243   0.653   2.830  11.436  0.2293 -0.6402  0.0959
    6TMC3    H214244   0.561   2.536  11.147 -1.4390  2.3445 -1.9769
    6TMC3    C714245   0.753   2.693  11.247  0.1812 -1.0125  0.3222
    6TMC3    C814246   0.286   2.528  11.192 -0.1769  0.4286  0.4125
    6TMC3    O114247   0.841   2.738  11.316  0.1662  0.3232 -0.2893
    6TMC3    O214248   0.186   2.514  11.258 -0.1276 -0.3703  0.1254
    7MPD2     C14249   1.764   2.519  10.842 -0.8995  0.2195  0.4068
    7MPD2    C114250   1.781   2.610  10.953 -0.1009  0.5300 -0.3816
    7MPD2    C214251   1.858   2.557  11.057  0.1591  0.1507  0.3173
    7MPD2    C314252   1.909   2.423  11.057 -0.0773  0.6604  0.4050
    7MPD2    C414253   1.879   2.338  10.954 -0.4516 -0.4403 -0.0259
    7MPD2    C514254   1.814   2.391  10.841  0.2961  0.2231 -0.0352
    7MPD2     H14255   1.877   2.614  11.147  2.5045 -1.7646  1.0490
    7MPD2    H114256   1.919   2.237  10.950 -1.1663 -0.6931 -0.7723
    7MPD2    H214257   1.694   2.548  10.764 -0.6257 -1.1067 -0.3250
    7MPD2    H314258   1.787   2.337  10.751 -1.6655  1.0666  0.0246
    7MPD2     N14259   1.959   2.363  11.176  0.3269  0.3296  0.0177
    7MPD2    H514260   1.974   2.263  11.184  0.8713  0.4072 -0.0135
    7MPD2    N114261   1.717   2.735  10.956 -0.6880 -0.3198  0.5175
    7MPD2    H714262   1.658   2.764  10.878  0.7234  1.1214 -0.0171
    8TMC3    C114263   1.620   2.925  11.060 -0.2533 -0.5056  0.1832
    8TMC3    C214264   1.491   2.891  11.036  0.1506 -0.1663  0.1186
    8TMC3    C314265   1.389   2.948  11.110  0.1837 -0.3091  0.1574
    8TMC3    C414266   1.647   3.013  11.158 -0.1031  0.1305  0.2667
    8TMC3    C514267   1.547   3.053  11.243  0.5072  0.4920 -0.6189
    8TMC3    C614268   1.415   3.023  11.217  0.3394 -0.3754 -0.5019
    8TMC3     C14269   1.714   2.818  11.066  0.1391  0.0189 -0.4455
    8TMC3     O14270   1.776   2.809  11.172 -0.0021  0.4683 -0.5343
    8TMC3     H14271   1.461   2.819  10.961 -0.3061 -0.7302  0.8387
    8TMC3    H114272   1.750   3.041  11.179 -0.5348  2.0752 -0.2635
    8TMC3    H214273   1.338   3.059  11.284  0.0447 -0.9465 -0.5365
    8TMC3    C714274   1.582   3.031  11.387  0.0100 -0.5928 -0.3665
    8TMC3    C814275   1.257   2.882  11.106  0.0490  0.3044 -0.1818
    8TMC3    O114276   1.491   3.056  11.468  0.7219  0.3477 -0.0028
    8TMC3    O214277   1.180   2.921  11.195 -0.1739  0.0261  0.7378
    9MPD2     C14278   1.100   2.654  10.857 -0.3685  0.1191  0.8012
    9MPD2    C114279   1.103   2.726  10.977  0.5005 -0.0559  0.2599
    9MPD2    C214280   0.989   2.725  11.059 -0.1682  0.1703  0.4568
    9MPD2    C314281   0.871   2.660  11.033 -0.3366  0.3145 -0.8039
    9MPD2    C414282   0.874   2.598  10.906  0.1883  0.1513  0.4993
    9MPD2    C514283   0.983   2.585  10.833 -0.0276 -0.4580 -0.1476
    9MPD2     H14284   0.997   2.778  11.154  0.7164  0.1192  0.4154
    9MPD2    H114285   0.790   2.541  10.869 -0.2398  0.5873  0.8126
    9MPD2    H214286   1.188   2.646  10.794  0.4876  3.6483  1.5186
    9MPD2    H314287   0.970   2.523  10.745  3.1499  1.0221 -1.6718
    9MPD2     N14288   0.765   2.639  11.121  0.7323  0.3838 -0.0293
    9MPD2    H514289   0.683   2.592  11.083  3.1241 -2.8042 -1.2519
    9MPD2    N114290   1.223   2.800  10.998 -0.2178  0.1698 -0.2907
    9MPD2    H714291   1.292   2.781  10.926 -1.6703  0.2561 -1.7033
    1MPD1     C14292   0.579   1.844  16.686 -0.1050  0.0199  0.7058
    1MPD1    C114293   0.691   1.769  16.726 -0.0333 -0.2575  0.2164
    1MPD1    C214294   0.676   1.639  16.774 -0.1112 -0.3162 -0.2458
    1MPD1    C314295   0.547   1.592  16.796  0.5891 -0.0956 -0.6658
    1MPD1    C414296   0.436   1.660  16.746  0.9316 -0.2989  0.4299
    1MPD1    C514297   0.457   1.783  16.692 -0.6985  0.0104  0.7645
    1MPD1     H14298   0.761   1.583  16.812  1.5960  1.3434 -1.5776
    1MPD1    H114299   0.341   1.608  16.759 -0.0456  0.8095 -2.3278
    1MPD1    H214300   0.589   1.946  16.652  1.0080 -0.2271  0.2913
    1MPD1    H314301   0.372   1.848  16.671  0.6942  1.6076 -0.0054
    1MPD1     N14302   0.510   1.474  16.859 -0.4263 -0.7572 -0.3132
    1MPD1    H514303   0.412   1.451  16.861 -0.7932  0.8488  0.0620
    1MPD1    N114304   0.815   1.827  16.701  0.4454 -0.1595 -0.2693
    1MPD1    H614305   0.892   1.801  16.762 -0.9738 -1.5303  0.9383
    1MPD1    H714306   0.805   1.928  16.710  0.5739 -0.0422 -1.4165
    2TMC2    C114307   0.339   1.156  17.050  0.5918  1.0133 -0.3509
    2TMC2    C214308   0.416   1.049  17.078  0.2499  0.5366 -0.1697
    2TMC2    C314309   0.551   1.057  17.050 -0.2114 -0.2936 -0.0704
    2TMC2    C414310   0.389   1.265  16.980  0.3752  0.0749 -0.1419
    2TMC2    C514311   0.525   1.261  16.959 -0.4162  0.2701  0.3491
    2TMC2    C614312   0.612   1.162  16.997 -0.3089 -0.5969  0.7439
    2TMC2     C14313   0.203   1.163  17.099  0.1962  0.4187  0.2911
    2TMC2     O14314   0.131   1.244  17.042 -0.7337 -0.3995  0.2212
    2TMC2     H14315   0.366   0.967  17.128  1.1226  0.6939  0.9801
    2TMC2    H114316   0.318   1.333  16.935  1.0242  1.4974  0.9675
    2TMC2    H214317   0.718   1.163  16.974 -0.7677 -0.6695 -1.3658
    2TMC2    C714318   0.594   1.379  16.907  0.3890  0.2464  0.5139
    2TMC2    C814319   0.642   0.955  17.093  0.9800  0.2670  0.6050
    2TMC2    O114320   0.712   1.382  16.901 -0.4021 -0.5693  0.3141
    2TMC2    O214321   0.758   0.982  17.120 -0.0361  0.6511  0.2319
    2TMC2    O514322   0.620   0.852  17.009  0.2686 -0.1790  0.6190
    2TMC2    H514323   0.528   0.839  16.976  1.8837  1.3284 -4.3913
    3MPD1     C14324   4.548   0.999  17.395  0.4204  0.1910 -0.7025
    3MPD1    C114325   4.666   0.980  17.465  0.0596  0.4730  0.1664
    3MPD1    C214326   0.048   1.004  17.393  0.1512  0.0046 -0.1524
    3MPD1    C314327   0.048   1.064  17.271  0.1909 -0.1361  0.2845
    3MPD1    C414328   4.661   1.088  17.205 -0.2225 -0.3459 -0.0264
    3MPD1    C514329   4.545   1.059  17.267 -0.2621  0.3256 -0.1299
    3MPD1     H14330   0.146   0.984  17.436  0.0366 -2.5488 -1.0908
    3MPD1    H114331   4.661   1.127  17.104 -1.4138  1.9041  0.8387
    3MPD1    H214332   4.454   0.966  17.439  0.9700  1.5260  1.4795
    3MPD1    H314333   4.454   1.071  17.209 -0.8787 -3.0179  0.1848
    3MPD1     N14334   0.174   1.094  17.218  0.0614  0.2944 -0.1052
    3MPD1    H514335   0.254   1.054  17.267 -1.5885 -1.0561  1.4995
    3MPD1    N114336   4.661   0.893  17.572  0.0649  0.5758 -0.0991
    3MPD1    H614337   4.583   0.914  17.634  1.1138  2.3083  0.6097
    3MPD1    H714338   0.010   0.903  17.628 -1.1749  2.4980  1.4336
    1TMC1    C114339   4.549   0.350  12.865  0.0668 -0.1486  0.1971
    1TMC1    C214340   4.564   0.217  12.905  0.1971 -0.2011 -0.4707
    1TMC1    C314341   4.474   0.123  12.870 -0.2951 -0.1893  0.2231
    1TMC1    C414342   4.447   0.384  12.786 -0.7265  0.2854  0.6756
    1TMC1    C514343   4.350   0.290  12.763 -0.8611  0.1995 -0.4416
    1TMC1    C614344   4.360   0.160  12.805  0.3569 -0.0728  0.0883
    1TMC1     C14345   4.667   0.439  12.859 -0.4711 -0.8172 -0.3120
    1TMC1     O14346   4.651   0.522  12.769  0.0191  0.3213  0.4309
    1TMC1     H14347   4.654   0.185  12.957 -0.1148 -2.3011 -1.2335
    1TMC1    H114348   4.433   0.490  12.772  0.4078  0.5000  1.2101
    1TMC1    H214349   4.275   0.094  12.793 -2.0702  2.6298  2.2628
    1TMC1    C714350   4.228   0.352  12.712  0.1557  0.1730 -0.4715
    1TMC1    C814351   4.467   0.008  12.963 -0.0920 -0.5295  0.3821
    1TMC1    O114352   4.114   0.323  12.739  0.0081 -0.6617 -0.9249
    1TMC1    O214353   4.568   4.689  13.013 -0.3190 -0.1169 -0.3560
    1TMC1    O314354   4.255   0.443  12.618 -0.1037 -0.1261 -0.1690
    1TMC1    H314355   4.345   0.441  12.580  0.4085  0.7231  1.0199
    1TMC1    O514356   4.365   0.040  13.036  0.3183  0.3162 -0.2722
    1TMC1    H514357   4.313   0.116  13.000 -1.0994 -0.5708 -0.0983
    2MPD2     C14358   0.133   0.640  12.944 -0.0848 -0.1070  0.3726
    2MPD2    C114359   0.085   0.534  13.022 -0.0337  0.2575 -0.8240
    2MPD2    C214360   0.126   0.525  13.153  0.3331 -0.0744 -0.2700
    2MPD2    C314361   0.214   0.617  13.205 -0.5994  0.0937 -0.4402
    2MPD2    C414362   0.258   0.724  13.128 -0.1842 -0.0428  0.2122
    2MPD2    C514363   0.217   0.732  13.000 -0.3276 -0.4236  0.8740
    2MPD2     H14364   0.083   0.438  13.201 -1.2993  0.1800 -1.2842
    2MPD2    H114365   0.325   0.801  13.166  0.0138 -0.4683  0.7236
    2MPD2    H214366   0.110   0.654  12.839 -2.4559 -1.4923  0.7008
    2MPD2    H314367   0.241   0.822  12.944 -0.8747  0.8194  2.6375
    2MPD2     N14368   0.254   0.612  13.340  0.0263  0.3693 -0.1320
    2MPD2    H514369   0.308   0.686  13.382 -1.5718  1.2473  0.4068
    2MPD2    N114370   0.004   0.432  12.977  0.1883 -0.8259 -0.2092
    2MPD2    H714371   4.709   0.362  13.043  0.0809  0.0005  0.6177
    3TCq1    O114372   0.389   0.877  13.673  0.0645  0.0516  0.1115
    3TCq1    C114373   0.362   0.807  13.786  0.2926 -0.2851  0.1912
    3TCq1    O214374   0.400   0.834  13.900 -1.1116 -0.3032  0.1140
    3TCq1    C214375   0.328   0.675  13.737  1.0435  0.1895 -0.2312
    3TCq1    C314376   0.380   0.573  13.806  0.8856  0.2008 -0.0023
    3TCq1    C414377   0.361   0.447  13.755 -1.1690  0.5879 -0.1154
    3TCq1    C514378   0.292   0.422  13.634  0.0415  0.3068 -0.3811
    3TCq1    C614379   0.256   0.534  13.561  0.1657  0.3137  0.0111
    3TCq1    C714380   0.285   0.665  13.605  0.4160 -0.3326 -0.1719
    3TCq1    C814381   0.222   0.510  13.425 -0.6243 -0.1977 -0.3153
    3TCq1    O414382   0.181   0.398  13.400 -0.1041  0.2805  0.2406
    3TCq1    C914383   0.420   0.330  13.825 -0.0501  0.4313 -0.0363
    3TCq1    O514384   0.394   0.215  13.778  0.1417  0.1113 -0.1767
    3TCq1    O614385   0.505   0.345  13.915  0.0169 -0.2344  0.0849
    3TCq1    H114386   0.374   0.815  13.598  1.4008 -0.2033  0.0531
    3TCq1    H214387   0.414   0.593  13.907  1.1763  1.2305 -0.2961
    3TCq1    H314388   0.268   0.321  13.600 -0.5246  0.4739 -0.4736
    3TCq1    H414389   0.235   0.746  13.555  1.4477 -0.9229 -2.1398
    1MPD2     C14390   3.160   1.499  15.219  0.1256 -0.5144 -0.1065
    1MPD2    C114391   3.070   1.456  15.127 -0.0742  0.1105 -0.4624
    1MPD2    C214392   3.117   1.414  15.001 -0.4810 -0.4492 -0.0034
    1MPD2    C314393   3.252   1.434  14.962  0.7074  0.1684  0.0494
    1MPD2    C414394   3.337   1.471  15.062 -0.3952  0.4061 -0.1928
    1MPD2    C514395   3.285   1.500  15.183 -0.9549 -0.3241  0.3605
    1MPD2     H14396   3.047   1.388  14.922 -1.2347 -1.6421  1.0534
    1MPD2    H114397   3.444   1.484  15.046 -0.1132 -1.2929  0.3060
    1MPD2    H214398   3.120   1.525  15.317  1.3995  0.1678  0.2290
    1MPD2    H314399   3.358   1.516  15.262 -0.9228  0.5697  0.1508
    1MPD2     N14400   3.292   1.411  14.833  0.4093 -0.5414 -0.3001
    1MPD2    H514401   3.213   1.396  14.771  0.0570  1.5240 -0.3351
    1MPD2    N114402   2.934   1.444  15.163  0.4609  0.1301 -0.4030
    1MPD2    H714403   2.915   1.473  15.258 -0.3942 -0.6558 -0.3347
    2TMC3    C114404   2.712   1.362  15.127 -0.9546 -0.0629  0.7253
    2TMC3    C214405   2.646   1.239  15.098 -0.4730  0.0916  0.4138
    2TMC3    C314406   2.537   1.242  15.017 -0.6275  0.4561  0.3943
    2TMC3    C414407   2.656   1.474  15.069  0.4062 -0.4501  0.4624
    2TMC3    C514408   2.553   1.466  14.984 -0.6917  0.0293  0.0558
    2TMC3    C614409   2.486   1.349  14.962 -0.0179  0.5713  0.2088
    2TMC3     C14410   2.848   1.362  15.088  0.3523 -0.5504 -0.4875
    2TMC3     O14411   2.870   1.291  14.995 -0.2137  0.2246 -0.2765
    2TMC3     H14412   2.701   1.147  15.112  0.2185  0.5450  0.6977
    2TMC3    H114413   2.690   1.574  15.094 -4.7271  1.6809 -1.0884
    2TMC3    H214414   2.430   1.342  14.870  1.8016  0.9347 -0.9258
    2TMC3    C714415   2.541   1.572  14.886 -0.4010 -0.5268  0.3952
    2TMC3    C814416   2.542   1.139  14.919 -0.0863  0.5062 -0.3453
    2TMC3    O114417   2.434   1.587  14.832  0.9064  0.3749 -0.8764
    2TMC3    O214418   2.437   1.090  14.877 -0.8105  0.6843 -0.0960
    3TCq1    O114419   3.324   2.011  14.189 -0.0394  0.2856 -0.2360
    3TCq1    C114420   3.412   2.055  14.281  0.0029 -0.4808  0.2784
    3TCq1    O214421   3.533   2.050  14.259 -0.4349  0.0196  0.0905
    3TCq1    C214422   3.359   2.056  14.417  0.3449 -0.6071  0.5271
    3TCq1    C314423   3.445   2.044  14.525  0.2381 -1.0454 -0.4047
    3TCq1    C414424   3.398   2.044  14.651  0.6200  0.3850  0.3878
    3TCq1    C514425   3.262   2.031  14.680  0.8363 -0.0430 -0.4180
    3TCq1    C614426   3.175   2.034  14.573  0.1195 -0.5183  0.5804
    3TCq1    C714427   3.227   2.066  14.449  0.7863 -0.8380  0.2872
    3TCq1    C814428   3.030   2.045  14.586  0.0514  0.5568  0.0514
    3TCq1    O414429   2.972   2.115  14.502 -0.7259 -0.2482  0.0706
    3TCq1    C914430   3.489   2.062  14.763 -0.0606  0.6085 -0.0093
    3TCq1    O514431   3.608   2.095  14.734  0.0162 -0.3705 -0.0634
    3TCq1    O614432   3.458   2.005  14.874 -0.3706 -0.0785 -0.2629
    3TCq1    H114433   3.238   1.981  14.226 -0.9245 -0.3584 -2.7607
    3TCq1    H214434   3.549   2.068  14.508 -0.5799  2.7228 -0.0714
    3TCq1    H314435   3.238   2.029  14.786  0.0332  0.1887 -0.5943
    3TCq1    H414436   3.157   2.076  14.367  1.7745  1.0142 -0.3230
    4MPD2     C14437   2.747   1.922  14.564 -0.6206 -0.9371  0.0005
    4MPD2    C114438   2.842   1.884  14.660 -0.0874 -0.0824  0.0487
    4MPD2    C214439   2.802   1.796  14.762 -0.0683 -0.4941 -0.1675
    4MPD2    C314440   2.671   1.746  14.767  0.1365 -1.2061 -0.4249
    4MPD2    C414441   2.580   1.776  14.664 -0.0170 -0.0778 -0.0330
    4MPD2    C514442   2.620   1.867  14.572 -0.1817  0.2496 -0.3546
    4MPD2     H14443   2.865   1.765  14.845 -0.0486  1.7174  0.6544
    4MPD2    H114444   2.487   1.722  14.653 -0.1768 -0.0314  1.1115
    4MPD2    H214445   2.771   1.994  14.487 -0.1351 -0.5333  0.5289
    4MPD2    H314446   2.541   1.906  14.508  1.1032  1.1425 -1.3835
    4MPD2     N14447   2.656   1.643  14.865  0.6355 -0.3622  0.1580
    4MPD2    H514448   2.742   1.620  14.915  0.8946  1.8643  0.7669
    4MPD2    N114449   2.978   1.940  14.663 -0.2681  0.6124  0.4119
    4MPD2    H714450   3.046   1.902  14.727  1.0062  0.5056 -1.0139
    5TMC2    C114451   3.231   1.260  14.550 -0.6369 -0.6811 -0.7120
    5TMC2    C214452   3.308   1.154  14.541 -0.6971  0.3629 -0.1370
    5TMC2    C314453   3.440   1.179  14.549  0.6327 -0.1938 -0.0857
    5TMC2    C414454   3.285   1.381  14.598  0.7087 -0.3575 -0.0386
    5TMC2    C514455   3.415   1.396  14.634  0.2598  0.5633  0.2975
    5TMC2    C614456   3.493   1.294  14.600 -0.6228 -0.1815 -0.1628
    5TMC2     C14457   3.093   1.242  14.586 -0.0101  0.1121  0.4972
    5TMC2     O14458   3.068   1.317  14.683 -0.0812 -1.0086  0.6322
    5TMC2     H14459   3.272   1.052  14.534 -0.3601  0.1836  0.7325
    5TMC2    H114460   3.221   1.468  14.598 -0.1297 -0.9667  1.3105
    5TMC2    H214461   3.599   1.301  14.619 -0.4262  1.1666 -1.8708
    5TMC2    C714462   3.424   1.411  14.781 -0.0081 -0.5997 -0.4589
    5TMC2    C814463   3.513   1.068  14.592  0.5228 -0.0078 -0.2315
    5TMC2    O114464   3.532   1.394  14.838 -0.3355  0.2588 -0.1472
    5TMC2    O214465   3.554   1.063  14.704  0.0670 -0.8781 -0.8850
    5TMC2    O514466   3.580   1.034  14.482  0.0947 -0.5488  0.4912
    5TMC2    H514467   3.543   1.083  14.406 -2.7863  0.9978  2.8715
    6MPD2     C14468   2.657   0.985  14.676 -0.8603 -0.2668  0.0066
    6MPD2    C114469   2.725   1.081  14.740  0.3775 -0.0224 -0.2053
    6MPD2    C214470   2.843   1.136  14.690  0.3015  0.2643  0.1664
    6MPD2    C314471   2.900   1.089  14.575  0.0421  0.5051 -0.0472
    6MPD2    C414472   2.844   0.985  14.514 -0.3727  0.1577 -0.1876
    6MPD2    C514473   2.716   0.946  14.559 -1.0987  0.0099  0.3550
    6MPD2     H14474   2.885   1.216  14.750  0.6332 -2.8146  4.0518
    6MPD2    H114475   2.876   0.946  14.417 -2.0056 -1.1045 -0.2145
    6MPD2    H214476   2.555   0.952  14.695 -0.9811  0.0915 -0.0299
    6MPD2    H314477   2.660   0.876  14.498  0.1481  2.2022 -3.3049
    6MPD2     N14478   3.023   1.142  14.529 -0.1267 -0.2106 -0.5783
    6MPD2    H514479   3.067   1.085  14.457  0.7463  1.2337 -1.1754
    6MPD2    N114480   2.672   1.143  14.855 -0.1293  0.0177  0.6030
    6MPD2    H714481   2.742   1.203  14.897  1.5922 -0.7438 -1.2118
  945NH4     N114482   4.328   2.495  15.680 -0.1088 -0.1283  0.2009
  945NH4     H214483   4.273   2.415  15.644 -0.9871  1.1130 -1.2154
  945NH4     H314484   4.405   2.514  15.612 -2.4337  1.4584 -2.0118
  945NH4     H414485   4.365   2.477  15.776 -1.1479  0.5375  0.7193
  945NH4     H514486   4.261   2.574  15.672  1.8529  1.5257 -0.2430
  946SOD     NA14487   1.490   2.457   4.182 -0.7656  0.0944  0.0872
  947SOD     NA14488   3.471   1.009  14.922  0.0599 -0.4604  0.0729
  948SOD     NA14489   0.911   3.076  11.808  0.0044 -0.1986 -0.4828
  949SOD     NA14490   0.085   3.878  16.195  0.1170 -0.5953 -0.2916
  950SOD     NA14491   1.082   0.882  14.205 -0.4868 -0.2803 -0.0235
  951SOD     NA14492   4.542   0.495  11.560  0.3338  0.4686 -0.0985
  952SOD     NA14493   2.416   3.521  13.216  0.3403  0.2502  0.4177
  953SOL     OW14494   0.715   1.643   5.146 -0.0871 -0.3557 -0.3908
  953SOL    HW114495   0.685   1.553   5.155 -0.4201 -0.2019 -0.0196
  953SOL    HW214496   0.734   1.667   5.236 -0.4695  0.8249 -0.6160
  954SOL     OW14497   3.124   0.789  14.103  0.1184 -0.2510  0.1133
  954SOL    HW114498   3.172   0.708  14.085 -1.2634 -1.2174  0.8015
  954SOL    HW214499   3.039   0.761  14.068  0.7982 -1.8124 -0.2794
  955SOL     OW14500   1.523   1.616   8.094  0.5934  0.3902  0.4726
  955SOL    HW114501   1.613   1.646   8.084  0.1004  0.9039 -2.5445
  955SOL    HW214502   1.502   1.636   8.185  0.7617 -1.3784  0.9015
  956SOL     OW14503   1.299   0.074   8.564 -0.4785 -0.0701  0.5316
  956SOL    HW114504   1.248   0.146   8.527  1.0567  1.3101  1.1278
  956SOL    HW214505   1.307   0.092   8.657  0.0096  1.1566  0.2474
  957SOL     OW14506   3.689   3.647  14.625  0.1929  0.1910  0.0996
  957SOL    HW114507   3.629   3.573  14.630 -1.6000  1.5205 -1.3873
  957SOL    HW214508   3.748   3.623  14.696 -0.2468 -0.2089  0.3252
  958SOL     OW14509   1.489   1.374   7.263 -0.7243  0.4303  0.3660
  958SOL    HW114510   1.399   1.353   7.237  0.3275 -2.9355 -0.4688
  958SOL    HW214511   1.481   1.445   7.327  0.4882 -1.1980  2.2862
  959SOL     OW14512   2.614   4.367   4.842 -0.1079 -0.1280 -0.0211
  959SOL    HW114513   2.657   4.428   4.902  1.9599 -0.2613 -1.3536
  959SOL    HW214514   2.694   4.330   4.804 -1.3014 -2.5339 -0.2421
  960SOL     OW14515   2.845   3.530   2.739 -0.9829  0.2702 -0.4297
  960SOL    HW114516   2.911   3.590   2.705  1.8540 -2.8209 -0.3069
  960SOL    HW214517   2.883   3.446   2.716 -1.2263 -0.2956  1.2246
  961SOL     OW14518   4.733   1.605   2.868  0.0440 -0.4595 -0.2007
  961SOL    HW114519   0.040   1.653   2.797  0.3539  0.3193  0.5114
  961SOL    HW214520   4.646   1.605   2.830  0.2750 -1.3376 -0.7350
  962SOL     OW14521   1.635   0.451  11.564  0.3141  0.1012  0.0884
  962SOL    HW114522   1.622   0.388  11.635 -0.3761 -1.0922 -1.0793
  962SOL    HW214523   1.552   0.449  11.516  0.3738  1.4668 -0.0794
  963SOL     OW14524   1.584   4.511   8.948 -0.3036  0.7083 -0.5813
  963SOL    HW114525   1.600   4.436   9.006  0.8668  0.7270 -0.8831
  963SOL    HW214526   1.665   4.562   8.945 -0.1531  0.3885 -1.9014
  964SOL     OW14527   1.027   0.782   7.939 -0.8667 -0.0871 -0.6632
  964SOL    HW114528   1.043   0.833   8.018  0.8956 -3.5808  1.2539
  964SOL    HW214529   1.098   0.719   7.954 -1.6453 -0.6520  0.6269
  965SOL     OW14530   2.634   3.722   2.541  0.2863  0.5502  0.8152
  965SOL    HW114531   2.543   3.694   2.533  0.3251  0.4524  0.7240
  965SOL    HW214532   2.686   3.647   2.570 -0.2565 -1.1067 -2.4690
  966SOL     OW14533   1.614   3.205  12.270 -0.1830 -0.2981 -0.0956
  966SOL    HW114534   1.629   3.127  12.216  0.6292 -0.9603  1.0748
  966SOL    HW214535   1.681   3.195  12.337 -0.5674 -0.9331  0.2000
  967SOL     OW14536   3.982   3.697  10.035 -0.1079 -0.3915 -0.0159
  967SOL    HW114537   3.901   3.683  10.083  0.6535 -0.5590  1.2205
  967SOL    HW214538   3.963   3.784  10.000  2.8712 -0.4602 -1.8174
  968SOL     OW14539   0.768   1.881   6.320  0.1664  0.0566  0.5735
  968SOL    HW114540   0.731   1.818   6.382 -0.1257 -1.7048 -1.3878
  968SOL    HW214541   0.732   1.965   6.349 -1.5708 -0.9147  1.2257
  969SOL     OW14542   3.401   0.779   8.012 -0.0750 -0.3226 -0.3905
  969SOL    HW114543   3.425   0.719   8.083  2.6497  0.1969 -0.8387
  969SOL    HW214544   3.399   0.865   8.054  1.9259 -0.5738  0.2328
  970SOL     OW14545   3.487   2.194   6.769 -0.8475 -0.0969 -0.2195
  970SOL    HW114546   3.443   2.248   6.703 -0.0711  0.5762 -0.1813
  970SOL    HW214547   3.458   2.239   6.848  1.8981  3.6552 -1.3556
  971SOL     OW14548   4.215   1.955  14.361 -0.5587 -0.4034  0.3792
  971SOL    HW114549   4.180   1.873  14.396  0.3325 -0.8472  0.2325
  971SOL    HW214550   4.295   1.946  14.413  0.6294  2.6835 -0.9113
  972SOL     OW14551   1.554   3.135   1.445  0.0092 -0.3470 -0.0773
  972SOL    HW114552   1.586   3.194   1.376  0.6340 -0.5464  0.0370
  972SOL    HW214553   1.600   3.056   1.416  1.1316  0.0753  0.5372
  973SOL     OW14554   2.560   3.355  11.700  0.2878 -0.1288  0.4778
  973SOL    HW114555   2.650   3.386  11.697 -0.4399  1.9620  0.5695
  973SOL    HW214556   2.514   3.438  11.688  1.9202  0.6039 -0.6337
  974SOL     OW14557   2.516   3.316   2.161  0.4814 -0.0932  0.3102
  974SOL    HW114558   2.596   3.263   2.159 -1.1138 -2.4491 -1.2447
  974SOL    HW214559   2.458   3.240   2.155 -2.3285  1.9634  1.3451
  975SOL     OW14560   0.711   1.801   6.031 -0.6451  0.0452 -0.0869
  975SOL    HW114561   0.707   1.811   6.126 -1.4367 -0.6032 -0.0480
  975SOL    HW214562   0.798   1.763   6.019  0.6344  2.3483  1.9097
  976SOL     OW14563   3.162   4.569  11.359 -0.6341 -0.3013 -0.0483
  976SOL    HW114564   3.122   4.557  11.444  0.0631 -2.6192 -0.0322
  976SOL    HW214565   3.218   4.647  11.362  1.7171 -1.9689 -0.2953
  977SOL     OW14566   0.980   4.235  10.605 -0.3704 -0.3628 -0.2629
  977SOL    HW114567   0.971   4.323  10.570  0.2441 -0.4879 -0.7326
  977SOL    HW214568   0.926   4.185  10.544 -0.8348  0.3280 -0.4217
  978SOL     OW14569   4.315   3.337   2.290 -0.3655  0.1881  0.2122
  978SOL    HW114570   4.329   3.247   2.261  0.9688  1.2411 -2.3288
  978SOL    HW214571   4.220   3.343   2.300 -0.2795 -0.2003  1.3479
  979SOL     OW14572   4.038   4.026   5.709 -0.1417  0.4923  0.0978
  979SOL    HW114573   4.035   4.119   5.731  0.8333 -0.0750  2.6191
  979SOL    HW214574   4.093   4.025   5.630  0.4010  0.1838  0.4812
  980SOL     OW14575   2.469   0.583   6.554 -0.1480 -0.2317 -0.3605
  980SOL    HW114576   2.419   0.507   6.524 -0.4770 -0.7919  1.5896
  980SOL    HW214577   2.424   0.603   6.636  0.1355  0.2251 -0.3157
  981SOL     OW14578   0.574   1.796   0.076 -0.1485 -0.0997 -0.0515
  981SOL    HW114579   0.574   1.883   0.035 -0.9193 -0.4938 -0.8650
  981SOL    HW214580   0.610   1.751  17.740  0.0269  0.3692 -0.2450
  982SOL     OW14581   2.281   3.861   0.830 -0.4428  0.0854  0.0266
  982SOL    HW114582   2.227   3.783   0.839 -1.2068  0.4704 -1.2707
  982SOL    HW214583   2.258   3.916   0.905  2.1496  0.5076  0.5225
  983SOL     OW14584   3.232   1.835   5.472 -0.8774  0.1597  0.0887
  983SOL    HW114585   3.226   1.931   5.472  1.4542  0.3148 -0.1740
  983SOL    HW214586   3.150   1.809   5.515 -1.3927  0.2986 -0.8176
  984SOL     OW14587   1.785   0.389   3.440  0.0324 -0.6388 -0.4341
  984SOL    HW114588   1.880   0.380   3.441 -0.1115 -2.2069  0.8583
  984SOL    HW214589   1.759   0.334   3.515  0.5233 -0.2088  0.0501
  985SOL     OW14590   4.553   0.717   5.772  0.0536  0.1178  0.9512
  985SOL    HW114591   4.640   0.721   5.734 -1.1646  0.3456 -1.8299
  985SOL    HW214592   4.561   0.703   5.867 -1.6118  0.4390  1.1500
  986SOL     OW14593   0.709   1.550   7.633 -0.5770 -0.5721 -0.3355
  986SOL    HW114594   0.678   1.599   7.557 -0.5515 -0.3606 -0.2098
  986SOL    HW214595   0.649   1.583   7.701 -2.1695  2.2051 -3.1031
  987SOL     OW14596   1.563   0.823   7.535  0.6007  0.5777 -0.2279
  987SOL    HW114597   1.514   0.772   7.600 -0.9133  0.9415 -1.0871
  987SOL    HW214598   1.510   0.800   7.459  1.3062 -3.7085  0.5420
  988SOL     OW14599   2.887   3.380   1.812 -0.0027  0.1795 -0.1630
  988SOL    HW114600   2.844   3.462   1.838 -0.7925 -0.0141 -0.8506
  988SOL    HW214601   2.834   3.354   1.737 -0.7916  0.2872  0.3545
  989SOL     OW14602   3.870   1.056  14.452 -0.1832 -0.0773 -0.0718
  989SOL    HW114603   3.829   1.143  14.452  1.7075  0.8189 -0.8702
  989SOL    HW214604   3.796   0.997  14.460  0.2031 -0.5191  0.2301
  990SOL     OW14605   3.642   1.403   4.074  0.1598  0.3326  0.1556
  990SOL    HW114606   3.664   1.377   4.163 -0.2573  1.9515  0.7366
  990SOL    HW214607   3.568   1.344   4.060  0.0289  0.2402  1.2524
  991SOL     OW14608   1.504   4.073   2.504  0.1450  0.1539  0.2798
  991SOL    HW114609   1.579   4.017   2.490  0.7091  0.6160  1.5235
  991SOL    HW214610   1.426   4.023   2.481  0.7183  0.9469 -3.5461
  992SOL     OW14611   0.664   0.704  11.770 -0.0100 -0.4872 -0.0023
  992SOL    HW114612   0.641   0.637  11.706  1.2840 -1.6388  0.7319
  992SOL    HW214613   0.760   0.700  11.776  0.1502 -1.9256 -4.1095
  993SOL     OW14614   1.148   0.551   8.021 -0.0257 -0.4306 -0.5185
  993SOL    HW114615   1.068   0.506   8.048  0.2103 -0.3597  0.3165
  993SOL    HW214616   1.182   0.496   7.950 -2.2362  1.4077 -3.0070
  994SOL     OW14617   0.753   1.089   3.328 -0.2300  0.2151 -0.0961
  994SOL    HW114618   0.783   1.020   3.269 -2.3812 -0.4927 -0.3790
  994SOL    HW214619   0.768   1.047   3.413  1.2142  1.3305  0.1898
  995SOL     OW14620   2.784   1.246   8.039 -0.6631  0.0621 -0.1575
  995SOL    HW114621   2.725   1.301   8.091  0.8995 -1.3997  3.1446
  995SOL    HW214622   2.760   1.273   7.950 -0.0899 -0.3694 -0.4463
  996SOL     OW14623   1.117   0.824   7.666  0.7588 -0.4773 -0.2482
  996SOL    HW114624   1.077   0.806   7.751 -2.5502  1.8969 -1.3593
  996SOL    HW214625   1.192   0.880   7.686  2.5145 -2.7384 -0.4399
  997SOL     OW14626   0.700   2.922   4.232  0.2346 -0.4707 -0.0486
  997SOL    HW114627   0.659   2.999   4.271  0.6149 -0.9866  1.3703
  997SOL    HW214628   0.638   2.902   4.162  0.9946  1.5490 -1.3068
  998SOL     OW14629   0.282   4.345   3.282 -0.5286  0.5570  0.2862
  998SOL    HW114630   0.267   4.317   3.192 -0.0517  0.5335  0.2157
  998SOL    HW214631   0.368   4.387   3.279 -0.0041 -0.6603 -1.6583
  999SOL     OW14632   2.991   0.541   8.738  0.1605 -0.2204  0.0112
  999SOL    HW114633   2.924   0.518   8.803  1.1280  0.6048  1.2887
  999SOL    HW214634   2.996   0.637   8.741 -0.1821 -0.1532 -1.5162
 1000SOL     OW14635   2.796   2.907   5.377 -0.2403  0.0477 -0.1469
 1000SOL    HW114636   2.719   2.951   5.342 -0.1225  0.1175 -0.3161
 1000SOL    HW214637   2.856   2.978   5.356 -2.1313  1.4577 -0.8131
 1001SOL     OW14638   3.045   0.515   4.406  0.1476 -0.7095 -0.0017
 1001SOL    HW114639   3.032   0.459   4.483  1.7738 -0.5852  0.3607
 1001SOL    HW214640   2.966   0.493   4.357 -0.7165 -0.7247  1.3942
 1002SOL     OW14641   0.506   1.147   2.799  0.0562  0.2345  0.1832
 1002SOL    HW114642   0.583   1.151   2.855  1.3706 -1.3396 -1.5301
 1002SOL    HW214643   0.543   1.131   2.712  2.9975  1.5304  1.2008
 1003SOL     OW14644   2.599   4.573  13.978 -0.2582 -0.1518 -0.5198
 1003SOL    HW114645   2.613   4.656  14.024  1.1410  0.5185 -2.1586
 1003SOL    HW214646   2.556   4.606  13.899  0.6753  1.4565 -0.3538
 1004SOL     OW14647   3.736   2.817   5.877  0.0123  0.2073 -0.1772
 1004SOL    HW114648   3.704   2.903   5.850  1.2532  0.6577 -0.2365
 1004SOL    HW214649   3.799   2.806   5.806 -2.0663  0.9569 -2.1360
 1005SOL     OW14650   3.585   2.070   3.448 -0.2084 -0.6569  0.0689
 1005SOL    HW114651   3.624   1.987   3.420  1.8885  0.5005 -0.4029
 1005SOL    HW214652   3.660   2.126   3.431 -2.5074  1.8816 -1.7442
 1006SOL     OW14653   0.349   4.287   2.218  0.8170  0.3464  0.4499
 1006SOL    HW114654   0.381   4.198   2.208  0.1124  0.1614 -0.1317
 1006SOL    HW214655   0.402   4.329   2.150 -0.5011  0.7820 -0.2898
 1007SOL     OW14656   1.955   1.422   5.124  0.1968  0.4748  0.1890
 1007SOL    HW114657   2.004   1.391   5.048  1.4079 -0.3326  1.2846
 1007SOL    HW214658   1.879   1.368   5.143  0.2581  0.0005 -0.9116
 1008SOL     OW14659   1.442   1.435   5.328  0.1351 -0.4710 -0.1273
 1008SOL    HW114660   1.406   1.397   5.408  0.8565 -0.5126  0.1843
 1008SOL    HW214661   1.532   1.404   5.343 -0.4591 -1.1497  2.0199
 1009SOL     OW14662   3.303   2.534   3.249 -0.2878  0.7367 -0.2143
 1009SOL    HW114663   3.210   2.546   3.231 -0.4066  1.9469  1.2466
 1009SOL    HW214664   3.318   2.585   3.328  0.3142  0.2447 -0.0064
 1010SOL     OW14665   0.094   3.819   4.056 -0.1271  0.1960 -0.1147
 1010SOL    HW114666   0.184   3.803   4.026  0.3037 -0.1899  1.4232
 1010SOL    HW214667   0.097   3.814   4.151  0.0917  1.8359 -0.0382
 1011SOL     OW14668   4.728   2.157   1.642 -0.5517 -0.3885  0.0969
 1011SOL    HW114669   0.055   2.111   1.699  0.9890  3.1065  1.2651
 1011SOL    HW214670   0.014   2.116   1.558 -0.7049  1.0641 -0.6530
 1012SOL     OW14671   1.713   1.039   7.569  0.2996  0.4127  0.0868
 1012SOL    HW114672   1.657   0.964   7.549  2.8254 -1.0769 -1.4372
 1012SOL    HW214673   1.641   1.102   7.578  0.9379  1.0093  1.0190
 1013SOL     OW14674   2.011   2.288   8.228  0.1053 -0.3512  0.4700
 1013SOL    HW114675   2.048   2.339   8.300  0.0970 -0.0923  0.2909
 1013SOL    HW214676   2.030   2.335   8.147 -0.4405 -1.5099 -0.3294
 1014SOL     OW14677   0.229   0.828   2.094 -0.2117 -0.1490  0.0256
 1014SOL    HW114678   0.177   0.817   2.174  1.7392 -0.4091  1.2533
 1014SOL    HW214679   0.164   0.852   2.028 -1.2380  0.5924  1.2954
 1015SOL     OW14680   2.029   4.402   1.948  0.6072 -0.5935  0.6544
 1015SOL    HW114681   2.060   4.460   2.018  2.3506  1.2019 -1.5917
 1015SOL    HW214682   2.002   4.324   1.996  0.5261 -1.2226 -0.4177
 1016SOL     OW14683   1.861   4.208   2.515 -0.1874  0.3075  0.4746
 1016SOL    HW114684   1.838   4.117   2.535 -1.1674  0.1903 -1.1870
 1016SOL    HW214685   1.944   4.187   2.473 -1.7171 -1.7640 -1.5076
 1017SOL     OW14686   0.501   0.711   9.611 -0.1889 -0.1625  0.0086
 1017SOL    HW114687   0.523   0.659   9.534  1.7997  0.7110 -0.0023
 1017SOL    HW214688   0.415   0.674   9.632  0.6312 -1.8023  0.4286
 1018SOL     OW14689   2.182   2.626   8.479  0.2348  0.2065 -0.4706
 1018SOL    HW114690   2.254   2.674   8.520 -0.4157  1.7312 -1.1110
 1018SOL    HW214691   2.168   2.682   8.402  1.9910  0.3002 -0.7159
 1019SOL     OW14692   2.990   2.189   3.571 -0.3519  0.3945 -0.1153
 1019SOL    HW114693   2.966   2.235   3.652 -0.1755  0.4444 -0.0927
 1019SOL    HW214694   2.912   2.139   3.547  1.9267 -2.7543 -0.9574
 1020SOL     OW14695   2.414   0.709   6.835 -0.0902  0.9541 -0.2940
 1020SOL    HW114696   2.492   0.764   6.835  1.1127 -0.7710 -0.2310
 1020SOL    HW214697   2.421   0.688   6.928  0.0801 -1.5829 -0.8710
 1021SOL     OW14698   2.317   0.873   6.057  0.0010 -0.2152  0.0256
 1021SOL    HW114699   2.345   0.822   6.132  3.8518 -0.1618 -1.3633
 1021SOL    HW214700   2.232   0.829   6.049  0.1942 -0.4207 -0.9000
 1022SOL     OW14701   2.017   2.117   9.265 -0.3197 -0.2094 -1.0862
 1022SOL    HW114702   1.967   2.169   9.202  1.6741  0.0316 -2.4405
 1022SOL    HW214703   2.108   2.136   9.245  0.1186  0.0459  1.2040
 1023SOL     OW14704   1.246   1.975   3.067 -0.0498  0.4704  0.5579
 1023SOL    HW114705   1.201   1.966   3.151  0.8810 -0.3360  0.9555
 1023SOL    HW214706   1.173   2.029   3.037 -0.1300 -0.6198 -1.1649
 1024SOL     OW14707   3.165   1.854  11.052 -0.7601 -0.1340 -0.5061
 1024SOL    HW114708   3.118   1.807  10.983 -0.7094  0.7808 -1.1621
 1024SOL    HW214709   3.221   1.920  11.013 -1.6507 -0.2968 -2.0472
 1025SOL     OW14710   3.282   4.538   5.643  0.0447 -0.0366 -0.3796
 1025SOL    HW114711   3.372   4.568   5.632  0.2981  0.1608  2.1259
 1025SOL    HW214712   3.296   4.444   5.656  1.4545 -0.0848 -2.3668
 1026SOL     OW14713   2.800   1.591   6.767 -0.0671  0.0287 -0.5547
 1026SOL    HW114714   2.808   1.624   6.857 -0.8419 -2.9381  0.6111
 1026SOL    HW214715   2.707   1.569   6.765  0.7296 -3.5961  1.9090
 1027SOL     OW14716   2.995   1.636   9.609 -0.6541  0.2337 -0.1286
 1027SOL    HW114717   3.019   1.553   9.650 -0.7853 -1.2392 -3.0426
 1027SOL    HW214718   2.965   1.600   9.525  0.4836  1.7482 -1.1913
 1028SOL     OW14719   4.380   3.062   3.266  0.1307  0.1664  0.2272
 1028SOL    HW114720   4.322   3.120   3.314  0.2876 -0.0192  0.6440
 1028SOL    HW214721   4.387   3.000   3.338 -3.1121  1.0244  1.2484
 1029SOL     OW14722   1.406   1.519   0.452  0.3067  0.1861 -0.1813
 1029SOL    HW114723   1.342   1.488   0.517 -0.8435  0.1673 -1.3231
 1029SOL    HW214724   1.421   1.612   0.473  0.0960 -0.1069  1.2341
 1030SOL     OW14725   1.328   1.346   5.542  0.1116  0.0486  0.6117
 1030SOL    HW114726   1.256   1.338   5.479 -0.2888 -0.0216  1.0816
 1030SOL    HW214727   1.325   1.258   5.578  0.0700 -0.7330 -1.2887
 1031SOL     OW14728   0.409   3.000   5.190 -0.0752  0.0565 -0.1018
 1031SOL    HW114729   0.485   2.956   5.153 -0.8397 -0.3445 -1.1729
 1031SOL    HW214730   0.339   2.949   5.150 -0.3365  1.4375 -1.4249
 1032SOL     OW14731   1.506   2.960  13.391 -0.1764 -0.1113 -0.3090
 1032SOL    HW114732   1.600   2.944  13.382 -0.2502  0.2907 -1.6754
 1032SOL    HW214733   1.472   2.879  13.430  0.2996 -0.9559 -1.6558
 1033SOL     OW14734   2.271   4.113   4.342  0.0133 -0.2404  0.2469
 1033SOL    HW114735   2.242   4.176   4.408  1.6472 -1.0126  1.6924
 1033SOL    HW214736   2.288   4.164   4.262  4.0820 -1.7701  0.1395
 1034SOL     OW14737   0.214   4.027   1.552  0.6599  0.2657  0.1661
 1034SOL    HW114738   0.180   4.009   1.639 -1.7801  0.5101 -0.7318
 1034SOL    HW214739   0.185   4.115   1.529  2.7203  0.5954 -1.1979
 1035SOL     OW14740   1.788   0.600   8.520 -0.3690 -0.1966 -0.8214
 1035SOL    HW114741   1.772   0.506   8.513  0.8457 -0.5463  1.1843
 1035SOL    HW214742   1.743   0.634   8.443 -3.0990 -1.8921  0.0406
 1036SOL     OW14743   2.543   4.544   6.884  0.1609 -0.7343  1.0228
 1036SOL    HW114744   2.516   4.586   6.966  0.1486 -0.1637  0.7237
 1036SOL    HW214745   2.603   4.482   6.926 -1.5894 -1.2552  2.7647
 1037SOL     OW14746   4.639   0.209  15.815 -0.2621 -0.2884 -0.0103
 1037SOL    HW114747   4.643   0.129  15.868 -0.0624 -1.2361 -1.4588
 1037SOL    HW214748   4.619   0.167  15.732  3.0800 -0.8428 -0.5416
 1038SOL     OW14749   1.090   0.821   7.405 -0.2969  0.0265 -0.4099
 1038SOL    HW114750   1.114   0.805   7.496 -2.8663  0.3411  0.3180
 1038SOL    HW214751   1.027   0.891   7.421 -0.2029 -0.2229  1.0371
 1039SOL     OW14752   0.726   3.805   2.356 -0.3590 -0.0726  0.1795
 1039SOL    HW114753   0.671   3.753   2.415 -0.0254 -0.4501  0.1564
 1039SOL    HW214754   0.705   3.891   2.392 -1.2068 -0.1346 -0.1534
 1040SOL     OW14755   4.339   0.354   7.526  0.2720  0.3195  0.1387
 1040SOL    HW114756   4.387   0.275   7.500  0.2516  0.2270  0.3892
 1040SOL    HW214757   4.407   0.420   7.542  0.9347  0.6781 -4.1371
 1041SOL     OW14758   1.778   1.305   7.171 -0.1761  0.1221  0.1813
 1041SOL    HW114759   1.700   1.314   7.225  1.2414 -0.0153  2.2256
 1041SOL    HW214760   1.799   1.214   7.189  1.2493  0.3831 -0.1991
 1042SOL     OW14761   2.794   0.545   2.658 -0.0529  0.8214 -0.9431
 1042SOL    HW114762   2.716   0.500   2.691  2.4033 -1.5262  1.6251
 1042SOL    HW214763   2.856   0.511   2.723 -1.0342  1.0539  0.1213
 1043SOL     OW14764   2.229   0.495  14.826 -0.2710  0.0821 -0.1969
 1043SOL    HW114765   2.213   0.436  14.900 -0.3992  0.8606  0.3906
 1043SOL    HW214766   2.242   0.573  14.880  0.7951 -0.6052  0.5272
 1044SOL     OW14767   4.224   0.451   5.791 -0.2546  0.1272  0.1507
 1044SOL    HW114768   4.214   0.501   5.872 -1.5115 -0.5143  0.3819
 1044SOL    HW214769   4.191   0.518   5.731 -0.0067  1.1514  1.1552
 1045SOL     OW14770   4.038   4.735  16.605 -0.5928  0.2573  0.3100
 1045SOL    HW114771   4.036   0.095  16.608  0.0819  0.3212 -1.1691
 1045SOL    HW214772   4.039   4.726  16.509  1.0220 -0.1369  0.3621
 1046SOL     OW14773   3.995   1.922  16.133 -0.0127 -0.1302 -0.4650
 1046SOL    HW114774   3.949   1.942  16.051  0.8146  1.1506 -0.6217
 1046SOL    HW214775   4.052   1.999  16.132 -0.1437 -0.0364 -0.7683
 1047SOL     OW14776   3.739   0.966  13.818 -0.3718  0.1741 -0.3310
 1047SOL    HW114777   3.694   0.930  13.741 -0.2175  0.6540 -0.6439
 1047SOL    HW214778   3.668   0.974  13.881 -0.4157 -1.8440 -0.1377
 1048SOL     OW14779   3.489   3.126   8.361  0.3193  0.2250 -0.6735
 1048SOL    HW114780   3.505   3.108   8.268 -1.0040  1.1530 -1.0814
 1048SOL    HW214781   3.491   3.039   8.401  0.0415  0.5988  0.1521
 1049SOL     OW14782   2.281   0.069  16.459  0.0525 -0.0027  0.2161
 1049SOL    HW114783   2.333   0.069  16.378  1.0721  2.0008  0.8821
 1049SOL    HW214784   2.271   4.709  16.468  0.0286 -0.1156 -0.9289
 1050SOL     OW14785   0.829   2.472   8.821  0.2172 -0.6704 -0.2300
 1050SOL    HW114786   0.848   2.561   8.791  0.4884  0.1049  2.2194
 1050SOL    HW214787   0.743   2.454   8.782 -0.7976 -1.1006  2.2066
 1051SOL     OW14788   0.830   1.990   4.425  0.0305 -0.3858  0.5450
 1051SOL    HW114789   0.870   2.072   4.454 -1.3272  0.6274 -0.4342
 1051SOL    HW214790   0.739   2.019   4.416 -0.9169 -3.1362  1.3280
 1052SOL     OW14791   1.171   2.430   2.373  0.5150  0.0835  0.2924
 1052SOL    HW114792   1.224   2.380   2.311  2.1744  3.0842 -0.7332
 1052SOL    HW214793   1.100   2.369   2.393  1.0160 -0.9870 -1.1915
 1053SOL     OW14794   1.364   4.399   3.452  0.0936  0.0173 -0.0777
 1053SOL    HW114795   1.372   4.479   3.505 -0.1831  0.7032 -1.0623
 1053SOL    HW214796   1.417   4.431   3.379  1.5721 -1.2521  0.4569
 1054SOL     OW14797   1.278   4.644  13.239  0.1044  0.1145  0.7755
 1054SOL    HW114798   1.272   4.591  13.319 -1.5006  0.1831  0.6876
 1054SOL    HW214799   1.314   4.565  13.199 -1.7977 -1.0688  1.4159
 1055SOL     OW14800   3.795   2.266   1.159  0.0075  0.2591 -0.5722
 1055SOL    HW114801   3.745   2.347   1.163 -0.0967  0.2489 -1.7177
 1055SOL    HW214802   3.770   2.226   1.076 -1.4111 -0.0037 -0.0080
 1056SOL     OW14803   0.555   4.282   9.297 -0.2463 -0.2292 -0.0959
 1056SOL    HW114804   0.630   4.240   9.255  0.7146 -0.3515  1.7088
 1056SOL    HW214805   0.482   4.223   9.281 -0.2550 -0.3743  0.4680
 1057SOL     OW14806   2.671   3.104  11.705  0.0717 -0.4141  0.1308
 1057SOL    HW114807   2.593   3.048  11.714 -1.0071  0.7375 -1.9694
 1057SOL    HW214808   2.632   3.190  11.687  0.7218 -0.0357  0.5417
 1058SOL     OW14809   4.401   0.763  11.856 -0.3360 -0.6110  0.0066
 1058SOL    HW114810   4.333   0.717  11.906  1.1132 -0.3985  2.1778
 1058SOL    HW214811   4.458   0.690  11.831 -0.7677  0.8509 -5.2784
 1059SOL     OW14812   1.833   0.142   6.212 -0.1801  0.0692 -0.6207
 1059SOL    HW114813   1.797   0.116   6.297  2.4933  0.0495  0.4963
 1059SOL    HW214814   1.905   0.193   6.247 -1.4857  0.9455  0.7964
 1060SOL     OW14815   0.465   2.369   6.607 -0.2509 -0.4970 -0.1163
 1060SOL    HW114816   0.394   2.431   6.587 -1.0815 -1.1201  0.9244
 1060SOL    HW214817   0.508   2.358   6.523  0.4754 -3.0405  0.6001
 1061SOL     OW14818   0.582   3.678   8.065  0.4079 -0.1879  0.0271
 1061SOL    HW114819   0.576   3.633   8.149  0.4723 -3.0858 -1.5114
 1061SOL    HW214820   0.497   3.719   8.057  0.4602 -0.2720 -0.9528
 1062SOL     OW14821   4.435   2.905   6.104  0.1589  1.1055  0.5075
 1062SOL    HW114822   4.393   2.987   6.128  0.4858  1.7734 -1.1937
 1062SOL    HW214823   4.427   2.848   6.181  0.4828  0.0056 -0.2683
 1063SOL     OW14824   0.645   0.350   8.976 -0.3866 -0.4000 -0.1528
 1063SOL    HW114825   0.572   0.326   8.919 -1.7818 -1.1724  1.9741
 1063SOL    HW214826   0.601   0.412   9.034 -0.3451 -0.5567  0.0446
 1064SOL     OW14827   4.148   4.458   2.523  0.0829 -0.2838 -0.5295
 1064SOL    HW114828   4.187   4.370   2.521  0.8930  0.0485  0.8487
 1064SOL    HW214829   4.220   4.519   2.535  0.1872 -0.5059 -0.0181
 1065SOL     OW14830   2.968   4.087   0.461 -0.0417 -0.2114 -0.2665
 1065SOL    HW114831   2.899   4.028   0.429 -0.4148  0.6919 -1.1356
 1065SOL    HW214832   2.940   4.170   0.423 -2.4846 -0.6474  0.5580
 1066SOL     OW14833   3.040   4.451  10.287 -0.9630  0.1726  0.3039
 1066SOL    HW114834   3.077   4.527  10.331  0.0696 -0.4084  0.4435
 1066SOL    HW214835   2.998   4.403  10.359 -0.3174  0.4033  0.8312
 1067SOL     OW14836   0.932   0.482  13.294  0.2138  0.1465  0.1890
 1067SOL    HW114837   0.852   0.445  13.331  0.2806  0.0278  0.2122
 1067SOL    HW214838   0.915   0.496  13.201 -0.1757 -1.0734  0.0853
 1068SOL     OW14839   2.756   2.799   6.002  0.1857  0.4653 -0.5901
 1068SOL    HW114840   2.762   2.779   5.909  1.0114  0.2990 -0.5046
 1068SOL    HW214841   2.732   2.711   6.031  0.3497  0.9942  1.1406
 1069SOL     OW14842   0.410   1.994   2.325 -0.3144  0.1926  0.2902
 1069SOL    HW114843   0.370   1.991   2.412  1.2742  1.3342  1.0645
 1069SOL    HW214844   0.457   1.911   2.321  2.4824  1.9373 -2.6061
 1070SOL     OW14845   3.128   1.263   2.176  0.1989  0.0257  0.4683
 1070SOL    HW114846   3.139   1.260   2.271 -3.3118  1.7200  0.9459
 1070SOL    HW214847   3.079   1.182   2.161 -0.1944  0.3747 -0.1227
 1071SOL     OW14848   4.726   3.594   8.317 -0.4965  0.1748  0.7718
 1071SOL    HW114849   4.664   3.643   8.263  0.8145 -0.7195 -1.5375
 1071SOL    HW214850   0.069   3.569   8.268 -1.7812 -1.0213 -0.6917
 1072SOL     OW14851   3.705   0.825   4.097 -0.3295  0.5209 -0.2734
 1072SOL    HW114852   3.750   0.910   4.096  0.0924  0.2842 -1.1949
 1072SOL    HW214853   3.616   0.845   4.126  0.0177 -0.3720  1.4069
 1073SOL     OW14854   3.493   3.188  14.440  0.0883  0.2286 -0.0034
 1073SOL    HW114855   3.420   3.192  14.501 -1.0964  1.0047 -1.4711
 1073SOL    HW214856   3.473   3.270  14.395  0.2985  0.0962 -0.3390
 1074SOL     OW14857   0.744   2.458   3.705 -0.2967  0.4636  0.5324
 1074SOL    HW114858   0.768   2.541   3.746  0.6748 -0.4639  1.8420
 1074SOL    HW214859   0.743   2.497   3.618 -0.8519 -0.4686  0.1237
 1075SOL     OW14860   0.412   4.177  17.322 -0.7237  0.1067 -0.0651
 1075SOL    HW114861   0.323   4.203  17.298 -0.6153  0.7950  0.2876
 1075SOL    HW214862   0.428   4.105  17.261  0.4031  0.8369 -0.6185
 1076SOL     OW14863   4.328   0.239  15.831  0.1012 -0.3150  0.1824
 1076SOL    HW114864   4.394   0.197  15.776 -1.1987 -0.0637 -1.5729
 1076SOL    HW214865   4.249   0.191  15.804 -1.7988  3.1918 -0.4573
 1077SOL     OW14866   0.393   2.621   3.799  0.2505 -0.0278  0.3098
 1077SOL    HW114867   0.362   2.693   3.745 -1.6578 -0.9788  0.1193
 1077SOL    HW214868   0.432   2.672   3.869  0.0290  0.9184 -0.2617
 1078SOL     OW14869   1.672   4.216  14.825  0.0140  0.5950 -0.5483
 1078SOL    HW114870   1.760   4.240  14.855  0.4333  0.2519 -1.5011
 1078SOL    HW214871   1.700   4.142  14.771  1.4492  0.9869 -0.3472
 1079SOL     OW14872   4.059   1.416   2.848 -0.2564 -0.0386  0.4286
 1079SOL    HW114873   4.111   1.389   2.773 -0.0864 -0.1388  0.5842
 1079SOL    HW214874   4.045   1.510   2.832  1.9638  0.3137  0.5568
 1080SOL     OW14875   3.817   2.688  13.464 -0.4841  0.1648  0.3112
 1080SOL    HW114876   3.807   2.647  13.378  1.1124 -2.5453  1.3994
 1080SOL    HW214877   3.911   2.710  13.461 -0.3397 -0.5053 -0.1767
 1081SOL     OW14878   0.562   0.727  11.440  0.3649  0.2564 -0.2899
 1081SOL    HW114879   0.574   0.637  11.468 -0.7033 -0.3288 -1.6863
 1081SOL    HW214880   0.597   0.724  11.351 -0.6257 -0.8139 -0.6467
 1082SOL     OW14881   3.981   3.632   8.848  0.0951  0.5151  0.6636
 1082SOL    HW114882   4.028   3.549   8.862 -0.9100 -0.2662 -0.6703
 1082SOL    HW214883   3.951   3.621   8.758  2.4743  1.2229 -0.2229
 1083SOL     OW14884   4.377   2.974   5.447  0.0801 -0.3949 -0.2305
 1083SOL    HW114885   4.286   2.994   5.424  0.3987  1.5249  0.2104
 1083SOL    HW214886   4.358   2.932   5.531 -2.4288  1.9264  0.3403
 1084SOL     OW14887   3.367   0.696   8.408  0.3609  0.0368  0.2136
 1084SOL    HW114888   3.302   0.732   8.349 -0.1498 -0.0212  0.7417
 1084SOL    HW214889   3.369   0.608   8.369 -3.1011  0.7288 -1.5005
 1085SOL     OW14890   3.803   3.467  16.107 -0.0094  0.4314  0.0549
 1085SOL    HW114891   3.719   3.426  16.088 -0.2191  1.1146 -0.4817
 1085SOL    HW214892   3.811   3.520  16.028 -0.2491  0.8459  0.3056
 1086SOL     OW14893   0.965   3.475   6.404  0.0991  0.3549 -0.0242
 1086SOL    HW114894   0.987   3.395   6.451 -1.2526  0.0191  0.0220
 1086SOL    HW214895   0.943   3.540   6.471 -1.9601 -1.4661  1.0988
 1087SOL     OW14896   0.180   3.678   4.935  0.2355  0.0808  0.4617
 1087SOL    HW114897   0.244   3.704   5.001  1.2306 -0.9494 -0.1016
 1087SOL    HW214898   0.139   3.596   4.961 -0.4866  0.4459  0.4562
 1088SOL     OW14899   4.171   0.234   4.297 -0.0954  0.5916  0.1357
 1088SOL    HW114900   4.253   0.281   4.280 -1.3361  2.0747 -1.7015
 1088SOL    HW214901   4.134   0.231   4.209 -1.0207 -0.5011  0.5796
 1089SOL     OW14902   4.610   1.279  11.797  0.1812  0.3182  0.0913
 1089SOL    HW114903   4.650   1.340  11.735 -2.2235  2.1723  0.3898
 1089SOL    HW214904   4.557   1.228  11.736  0.5451 -0.1381  0.1506
 1090SOL     OW14905   4.669   0.012  17.534 -0.3276 -0.3993  0.0442
 1090SOL    HW114906   4.613   0.029  17.459  1.3921 -1.2946 -1.4695
 1090SOL    HW214907   4.685   4.653  17.522  0.6320 -0.2448  0.0421
 1091SOL     OW14908   3.945   0.191  11.841 -0.2469 -0.7245 -0.8349
 1091SOL    HW114909   3.992   0.140  11.776 -1.9861 -2.7290 -0.5370
 1091SOL    HW214910   3.928   0.124  11.908  2.0363  1.5500  2.0065
 1092SOL     OW14911   3.557   2.406   5.307  0.0187 -0.7262  0.5493
 1092SOL    HW114912   3.586   2.498   5.314 -2.2650  0.0063  0.2650
 1092SOL    HW214913   3.639   2.365   5.279 -1.1040 -0.3175 -3.2715
 1093SOL     OW14914   3.702   1.489   0.385  0.5019  0.0801 -0.1820
 1093SOL    HW114915   3.676   1.577   0.413  1.6463 -0.5569  2.9327
 1093SOL    HW214916   3.739   1.462   0.469  0.8975 -0.1801 -0.4407
 1094SOL     OW14917   2.315   2.672   2.786  0.5330  0.5796 -0.0865
 1094SOL    HW114918   2.251   2.696   2.853  1.3879 -0.8177  1.2172
 1094SOL    HW214919   2.329   2.747   2.728  0.7167  1.2961  0.8797
 1095SOL     OW14920   3.747   3.231   6.199  0.3993  0.2272 -0.1438
 1095SOL    HW114921   3.793   3.154   6.231 -3.2546 -0.7840  2.6994
 1095SOL    HW214922   3.679   3.244   6.266 -1.2925 -0.5956 -1.7215
 1096SOL     OW14923   0.350   3.983   1.293  0.2502  0.4159 -0.3588
 1096SOL    HW114924   0.341   4.060   1.237 -2.4172  2.0335  2.3803
 1096SOL    HW214925   0.278   3.997   1.353  0.5736  1.6941 -0.2691
 1097SOL     OW14926   3.726   2.838   8.505 -0.4800 -0.4966  0.6495
 1097SOL    HW114927   3.638   2.846   8.468  1.0248  2.4039 -2.3702
 1097SOL    HW214928   3.748   2.748   8.480 -2.8818 -1.0704  0.5373
 1098SOL     OW14929   1.895   3.973   0.788 -0.3501 -0.3508 -0.3537
 1098SOL    HW114930   1.834   3.958   0.716  0.0691 -1.9816 -0.3722
 1098SOL    HW214931   1.897   4.068   0.790 -1.7392 -0.3150 -0.5626
 1099SOL     OW14932   4.597   4.593   4.189 -0.8073  0.6991 -0.6744
 1099SOL    HW114933   4.616   4.664   4.251 -2.1569 -0.1119  0.6807
 1099SOL    HW214934   4.510   4.564   4.217 -0.6583  0.7503 -0.1547
 1100SOL     OW14935   0.337   1.388   2.313  0.5682  0.2197  0.3955
 1100SOL    HW114936   0.312   1.301   2.342  0.1283 -0.2714 -1.4189
 1100SOL    HW214937   0.421   1.363   2.274 -0.0859 -0.4069 -0.6212
 1101SOL     OW14938   1.669   0.307   2.532  0.5790  0.5932  0.3327
 1101SOL    HW114939   1.658   0.224   2.580  2.7086  0.4078  0.4961
 1101SOL    HW214940   1.592   0.298   2.476  2.9822 -2.4627 -2.4902
 1102SOL     OW14941   1.877   2.274   3.581 -0.0455 -0.1090  0.0107
 1102SOL    HW114942   1.861   2.183   3.607  2.8019 -1.2755 -2.2337
 1102SOL    HW214943   1.848   2.315   3.662  1.9885 -1.8614  1.6426
 1103SOL     OW14944   4.165   1.307   6.406 -0.0806  0.0789  0.1282
 1103SOL    HW114945   4.235   1.362   6.442  0.1457  0.8573 -1.4929
 1103SOL    HW214946   4.216   1.262   6.338 -0.9427 -0.1286 -0.3703
 1104SOL     OW14947   2.236   3.561   7.991 -0.8621  0.3912 -0.0626
 1104SOL    HW114948   2.272   3.638   7.947 -0.7199  0.0749 -0.4912
 1104SOL    HW214949   2.289   3.495   7.947  0.0343  1.2342 -0.2607
 1105SOL     OW14950   1.724   2.520   2.107 -0.0199 -0.0752 -0.2171
 1105SOL    HW114951   1.763   2.524   2.020 -2.2064 -0.4918 -1.2086
 1105SOL    HW214952   1.780   2.448   2.136  0.0923  0.3633  0.6741
 1106SOL     OW14953   1.122   3.501   3.938 -0.0293  0.2117 -0.0206
 1106SOL    HW114954   1.192   3.548   3.981 -0.3301 -1.6156  2.4526
 1106SOL    HW214955   1.157   3.457   3.860 -1.9916  1.7016 -1.7440
 1107SOL     OW14956   4.697   2.907   6.287  0.0748  0.4689 -0.0707
 1107SOL    HW114957   4.694   2.970   6.359  0.1868  0.3858  0.0054
 1107SOL    HW214958   4.659   2.962   6.218 -0.0099 -0.8540 -1.0704
 1108SOL     OW14959   2.997   4.174   6.629 -0.4054 -0.5161  0.4140
 1108SOL    HW114960   2.979   4.259   6.671  1.2671  1.2890 -2.4935
 1108SOL    HW214961   3.028   4.202   6.543 -3.0735  1.0212 -0.0791
 1109SOL     OW14962   1.426   4.586   7.974  0.2520  0.2024  0.0766
 1109SOL    HW114963   1.497   4.527   7.950 -0.1529 -0.7005  1.1131
 1109SOL    HW214964   1.386   4.621   7.894  0.0197  1.6944  0.8329
 1110SOL     OW14965   0.975   2.922   6.008  0.0767  0.0451 -0.1193
 1110SOL    HW114966   1.047   2.879   6.054  0.8762  2.1531  0.6373
 1110SOL    HW214967   0.903   2.874   6.049  0.8083  0.0544  1.1866
 1111SOL     OW14968   1.288   2.603   7.644  0.3461 -0.3651 -0.3712
 1111SOL    HW114969   1.314   2.694   7.661 -0.5447  0.6121 -4.3058
 1111SOL    HW214970   1.356   2.538   7.660  1.8613  1.2156 -0.3420
 1112SOL     OW14971   2.694   3.478   4.496 -0.6668 -0.1658  0.0585
 1112SOL    HW114972   2.671   3.505   4.585 -1.8348 -0.7366 -0.0687
 1112SOL    HW214973   2.735   3.392   4.505 -0.3673 -0.1716 -1.3320
 1113SOL     OW14974   1.954   0.866   2.221  0.0242  0.2892 -0.3220
 1113SOL    HW114975   1.945   0.871   2.126  2.1294  0.7971 -0.5057
 1113SOL    HW214976   1.920   0.780   2.246  0.3442 -0.1564 -1.4068
 1114SOL     OW14977   2.887   1.087   9.503 -0.1981  0.1588  0.2131
 1114SOL    HW114978   2.982   1.072   9.506 -0.3938 -1.1512 -0.5427
 1114SOL    HW214979   2.874   1.128   9.589 -0.7184 -0.0054  0.2149
 1115SOL     OW14980   0.455   0.297   4.921  0.1987  0.2390  0.4684
 1115SOL    HW114981   0.385   0.232   4.918  2.5234 -2.2166 -0.0730
 1115SOL    HW214982   0.408   0.374   4.888 -0.5966 -0.9346 -1.1471
 1116SOL     OW14983   3.367   1.605   0.740 -0.2076  0.4916 -0.2204
 1116SOL    HW114984   3.314   1.615   0.661  0.0611  0.9636 -0.3381
 1116SOL    HW214985   3.457   1.627   0.717  0.2352 -1.1880 -0.1177
 1117SOL     OW14986   4.230   1.751   4.274  0.0853  0.1561  0.5213
 1117SOL    HW114987   4.166   1.822   4.271  0.4787  0.4313 -1.2782
 1117SOL    HW214988   4.295   1.800   4.324  0.5602  1.3755 -1.3009
 1118SOL     OW14989   4.066   3.965   2.595 -0.6962 -0.0028 -0.0026
 1118SOL    HW114990   4.029   3.951   2.508 -0.2558  0.2443 -0.2279
 1118SOL    HW214991   4.009   3.910   2.649  0.7498 -0.4052  1.1068
 1119SOL     OW14992   2.421   3.694   6.944 -0.2230  0.1945  0.3050
 1119SOL    HW114993   2.336   3.654   6.959  0.6557 -2.4154 -1.5339
 1119SOL    HW214994   2.473   3.665   7.019 -1.4082  0.2603  1.1359
 1120SOL     OW14995   0.738   1.139   1.988 -0.1190 -0.2224  0.1331
 1120SOL    HW114996   0.732   1.201   1.916  0.4121 -1.6243 -1.1107
 1120SOL    HW214997   0.831   1.120   1.996  0.0915  0.9759  0.5380
 1121SOL     OW14998   2.790   1.531   3.048 -0.1548 -0.5694 -0.3965
 1121SOL    HW114999   2.785   1.476   2.970  0.1554 -0.1712 -0.6921
 1121SOL    HW215000   2.844   1.476   3.104 -0.3779  1.5660  1.9124
 1122SOL     OW15001   4.712   0.235   8.300 -0.8683 -0.0008  0.6212
 1122SOL    HW115002   0.007   0.145   8.315  1.5970  0.4168 -1.8817
 1122SOL    HW215003   0.044   0.285   8.346  0.5682  0.4727 -2.0439
 1123SOL     OW15004   3.279   4.446   7.241 -0.6859  0.6368 -0.6306
 1123SOL    HW115005   3.367   4.482   7.236 -0.5936  0.2199 -1.9818
 1123SOL    HW215006   3.224   4.524   7.232 -0.0606  1.2552  0.9355
 1124SOL     OW15007   1.756   1.415   1.883  0.1055  0.0258  0.4733
 1124SOL    HW115008   1.829   1.469   1.853  0.7064 -0.3408  1.2675
 1124SOL    HW215009   1.721   1.386   1.799 -0.0048 -0.1454  0.5779
 1125SOL     OW15010   3.428   1.822   9.322 -0.9103  0.3536  0.1458
 1125SOL    HW115011   3.367   1.760   9.361  1.2879 -0.0028  3.0669
 1125SOL    HW215012   3.512   1.777   9.333 -0.5707  1.1933  1.1021
 1126SOL     OW15013   0.543   3.661   2.827 -0.7290  0.0944  0.2721
 1126SOL    HW115014   0.522   3.625   2.913  1.3190 -2.7187 -0.4224
 1126SOL    HW215015   0.585   3.745   2.845  1.6726 -1.1098  0.3123
 1127SOL     OW15016   2.092   4.044   7.238 -0.4633  0.1973 -0.1164
 1127SOL    HW115017   2.094   3.968   7.179 -2.1173  0.1683 -0.1166
 1127SOL    HW215018   2.052   3.996   7.311  0.0345 -0.2767 -0.1469
 1128SOL     OW15019   1.195   3.206   7.755 -0.0229  0.2281  0.8531
 1128SOL    HW115020   1.114   3.252   7.732  0.6683  0.1519 -1.8569
 1128SOL    HW215021   1.180   3.117   7.724  0.3761 -0.3450  2.3448
 1129SOL     OW15022   0.409   2.138   6.992 -0.4972 -0.7080  0.0604
 1129SOL    HW115023   0.358   2.075   6.941 -0.8541  0.2276 -0.7274
 1129SOL    HW215024   0.393   2.104   7.081 -0.3267  0.5481  0.5662
 1130SOL     OW15025   2.526   3.279   8.563 -0.1626  0.2895  0.4586
 1130SOL    HW115026   2.596   3.323   8.610 -1.9368  1.1330  2.3030
 1130SOL    HW215027   2.476   3.352   8.526 -1.1342 -0.4210  0.3466
 1131SOL     OW15028   0.592   1.146   5.980 -0.0949  0.4806 -0.3583
 1131SOL    HW115029   0.579   1.053   5.993  3.4237  0.3095  1.9716
 1131SOL    HW215030   0.509   1.188   6.004 -0.5434 -0.4413 -0.3268
 1132SOL     OW15031   0.093   0.977   0.680  0.6056  0.2239 -0.2532
 1132SOL    HW115032   0.109   1.047   0.743 -0.4297 -0.4363  0.7449
 1132SOL    HW215033   0.145   0.909   0.722 -0.8993 -0.2432  0.8237
 1133SOL     OW15034   0.929   1.216  13.903  0.7677  0.1345  0.5694
 1133SOL    HW115035   0.852   1.182  13.857 -0.2569 -0.2327  2.5498
 1133SOL    HW215036   0.911   1.310  13.916 -1.2623 -0.5722  2.8536
 1134SOL     OW15037   2.218   4.100   6.705 -0.1155  0.1724 -0.7076
 1134SOL    HW115038   2.197   4.071   6.616 -2.9107 -3.4648  1.1333
 1134SOL    HW215039   2.267   4.026   6.739  0.8040  1.4008  0.6644
 1135SOL     OW15040   0.296   0.761   8.528  0.3412 -0.2116  0.0156
 1135SOL    HW115041   0.262   0.765   8.438 -0.7067  1.5655  0.4864
 1135SOL    HW215042   0.239   0.833   8.555 -0.8087 -0.4833 -1.6981
 1136SOL     OW15043   1.848   2.095   7.315 -0.6231  0.0637 -0.1580
 1136SOL    HW115044   1.786   2.101   7.387 -2.0745 -0.1742 -1.3711
 1136SOL    HW215045   1.833   2.001   7.302  0.6385 -0.3807  1.6854
 1137SOL     OW15046   1.994   2.978   3.569 -0.2991 -0.4121  0.9085
 1137SOL    HW115047   1.903   2.979   3.598 -0.5477 -0.6047  0.1399
 1137SOL    HW215048   2.030   3.037   3.635  2.8966 -1.6269  0.2419
 1138SOL     OW15049   3.432   2.745   1.996 -0.4573 -1.3561 -0.5669
 1138SOL    HW115050   3.462   2.826   2.036 -3.0568 -0.5723 -0.2508
 1138SOL    HW215051   3.375   2.716   2.067 -0.7951  1.2651  0.2151
 1139SOL     OW15052   3.221   3.081   8.268 -0.1798 -0.2604  0.3716
 1139SOL    HW115053   3.315   3.099   8.267 -0.3055  0.3058 -1.6236
 1139SOL    HW215054   3.224   3.007   8.329 -1.2968 -0.8895 -0.3550
 1140SOL     OW15055   3.259   2.485   7.333 -0.1100  0.1456  0.3322
 1140SOL    HW115056   3.335   2.428   7.347 -1.4909 -1.4177  1.4317
 1140SOL    HW215057   3.269   2.508   7.241 -2.5839 -1.3509 -0.3160
 1141SOL     OW15058   0.258   2.860   4.261  0.8016 -0.2000 -0.4428
 1141SOL    HW115059   0.228   2.777   4.300  1.1736 -0.2985 -0.3672
 1141SOL    HW215060   0.177   2.881   4.214  0.1207 -1.9819 -0.0832
 1142SOL     OW15061   1.341   0.519   8.963  0.3769  0.1386 -0.1599
 1142SOL    HW115062   1.355   0.607   8.928  0.4557  0.0790 -0.2772
 1142SOL    HW215063   1.250   0.508   8.936 -0.0340  2.1503  0.4043
 1143SOL     OW15064   1.994   2.938  17.455 -0.7815  0.3185  0.0204
 1143SOL    HW115065   2.028   2.853  17.484  0.8099  0.8592 -0.2477
 1143SOL    HW215066   1.955   2.904  17.374  0.4353  0.2763 -0.5517
 1144SOL     OW15067   2.791   3.961   4.981 -0.3444 -0.2376  0.8598
 1144SOL    HW115068   2.733   3.947   4.906  0.7595  0.0629 -0.0417
 1144SOL    HW215069   2.758   3.908   5.054  0.6187  2.9963  3.5951
 1145SOL     OW15070   1.803   1.526   7.607 -0.0766 -0.3296  0.4897
 1145SOL    HW115071   1.753   1.477   7.672 -3.2521  1.6482 -0.4538
 1145SOL    HW215072   1.894   1.506   7.630  0.2675 -0.3096 -0.8827
 1146SOL     OW15073   3.886   1.155   9.621 -0.9261  0.1221  0.4541
 1146SOL    HW115074   3.936   1.156   9.702  0.8087 -0.6005 -0.5896
 1146SOL    HW215075   3.954   1.181   9.559  1.1440  0.4614  2.8952
 1147SOL     OW15076   4.175   3.592   1.182 -0.2701  0.8546 -0.4022
 1147SOL    HW115077   4.209   3.620   1.267 -1.4959  0.6680  0.1527
 1147SOL    HW215078   4.211   3.503   1.178  1.3513  1.5242 -1.0186
 1148SOL     OW15079   4.669   3.004   4.801  0.2669 -0.6253  0.1657
 1148SOL    HW115080   4.647   2.977   4.891  0.0839  2.1091  0.9262
 1148SOL    HW215081   4.734   2.938   4.775  0.6066  0.4942 -1.8172
 1149SOL     OW15082   4.480   0.694   7.865  0.1233  0.1239 -0.0732
 1149SOL    HW115083   4.387   0.697   7.889  0.0358 -0.1331 -0.3849
 1149SOL    HW215084   4.508   0.779   7.900 -0.5630  0.0965  0.5479
 1150SOL     OW15085   3.742   3.226   9.526  0.3750  0.0489  0.2437
 1150SOL    HW115086   3.660   3.176   9.522  0.5510 -0.2364  0.2493
 1150SOL    HW215087   3.738   3.270   9.611 -0.2352 -1.0611  0.7875
 1151SOL     OW15088   2.483   1.505   9.090 -0.1234  0.6557  0.3539
 1151SOL    HW115089   2.523   1.545   9.168 -1.7498  0.2106  1.4187
 1151SOL    HW215090   2.463   1.576   9.029 -1.3991 -0.1125 -0.1178
 1152SOL     OW15091   3.737   3.736   8.906 -0.1850 -0.3526 -0.1087
 1152SOL    HW115092   3.757   3.695   8.990 -1.5940  0.3132  0.5602
 1152SOL    HW215093   3.824   3.746   8.868  0.2876 -0.4455  0.9533
 1153SOL     OW15094   1.030   1.992   1.027 -0.3697 -0.3180 -0.0753
 1153SOL    HW115095   1.056   2.000   0.936  2.6285  0.3541  0.8489
 1153SOL    HW215096   1.015   2.086   1.041  2.9856  0.2446 -0.2206
 1154SOL     OW15097   1.631   1.601   3.814  0.0275  0.5271 -0.7649
 1154SOL    HW115098   1.712   1.556   3.838 -0.0842  1.3857  1.1949
 1154SOL    HW215099   1.632   1.589   3.719 -1.1452 -0.9138 -0.5849
 1155SOL     OW15100   0.519   4.094  10.762  0.2079 -0.0268  0.1506
 1155SOL    HW115101   0.549   4.026  10.702  0.5322  2.1208 -2.0978
 1155SOL    HW215102   0.569   4.165  10.722 -1.2495  1.7432  1.4576
 1156SOL     OW15103   3.471   0.890   4.226  0.1763  0.0206 -0.3436
 1156SOL    HW115104   3.387   0.844   4.222  1.3778 -2.1866 -0.1324
 1156SOL    HW215105   3.474   0.924   4.316  3.3977 -0.8409 -0.1095
 1157SOL     OW15106   0.474   2.044   6.113  0.2438  0.2857  0.2983
 1157SOL    HW115107   0.396   2.077   6.068  1.2595 -0.8446 -2.2207
 1157SOL    HW215108   0.528   2.006   6.044 -0.7048 -0.7005  0.0946
 1158SOL     OW15109   3.782   3.510   1.672  0.0508  0.2306  0.5022
 1158SOL    HW115110   3.805   3.575   1.739  2.8556 -0.5238  0.2489
 1158SOL    HW215111   3.836   3.541   1.599 -1.1508 -0.3139 -0.6221
 1159SOL     OW15112   1.772   1.658  17.214  0.1485 -0.3427  0.4969
 1159SOL    HW115113   1.810   1.671  17.127  2.1300 -3.4227  0.9345
 1159SOL    HW215114   1.799   1.574  17.248 -1.7771 -0.8474  0.8011
 1160SOL     OW15115   0.856   4.430   1.716  0.3928  0.4229 -0.3112
 1160SOL    HW115116   0.784   4.442   1.654 -1.3654 -2.1983  1.2345
 1160SOL    HW215117   0.904   4.356   1.680 -1.2968 -0.1819 -1.3551
 1161SOL     OW15118   2.114   3.739  11.569 -0.2809  0.0378 -0.4023
 1161SOL    HW115119   2.099   3.833  11.576  0.3617 -0.0239  1.8110
 1161SOL    HW215120   2.205   3.736  11.598 -0.2805 -1.7862 -0.5886
 1162SOL     OW15121   3.332   3.485   6.956  0.1726  0.2040 -0.8012
 1162SOL    HW115122   3.249   3.467   7.000  0.8554 -2.4757 -0.6506
 1162SOL    HW215123   3.392   3.439   7.014 -0.1182  0.1974 -0.5059
 1163SOL     OW15124   4.021   2.007  14.159 -0.7574  0.0215  0.4719
 1163SOL    HW115125   3.948   2.032  14.215 -1.3267 -1.3649  0.3558
 1163SOL    HW215126   4.086   1.988  14.227  0.2943 -2.1575 -1.1042
 1164SOL     OW15127   3.911   0.560   1.516  0.3179  0.0940  0.2308
 1164SOL    HW115128   3.890   0.623   1.585  0.0086 -1.0915  1.2074
 1164SOL    HW215129   3.821   0.533   1.497  0.1554  0.9583 -0.2532
 1165SOL     OW15130   2.055   3.119   1.067  0.5713 -0.4559  0.1162
 1165SOL    HW115131   2.083   3.173   0.993 -1.8194 -1.0337 -1.1939
 1165SOL    HW215132   1.961   3.108   1.056  0.8112  0.4440 -2.7048
 1166SOL     OW15133   1.299   0.172  14.746 -0.7865  0.0825 -0.0002
 1166SOL    HW115134   1.361   0.235  14.710  1.0018 -2.4597 -1.4159
 1166SOL    HW215135   1.285   0.104  14.679 -1.6676  0.6281 -0.3689
 1167SOL     OW15136   3.918   4.569  16.766  0.2848  0.5792 -0.5017
 1167SOL    HW115137   3.956   4.637  16.710  0.3986 -0.3662 -1.5476
 1167SOL    HW215138   3.884   4.517  16.694 -0.9067 -2.1043  2.0098
 1168SOL     OW15139   2.380   3.987   7.963  0.4253  0.3364  0.0452
 1168SOL    HW115140   2.390   3.952   8.052  1.4733 -0.9390 -0.5574
 1168SOL    HW215141   2.307   3.930   7.940  0.3004  0.8412 -0.8060
 1169SOL     OW15142   2.135   0.812   8.247 -0.6896  0.1660  0.5976
 1169SOL    HW115143   2.056   0.831   8.197 -1.6507 -3.4819  0.7395
 1169SOL    HW215144   2.189   0.881   8.208 -0.2249 -0.7122 -0.3064
 1170SOL     OW15145   4.172   4.402   2.103  0.4316  0.2442 -0.1961
 1170SOL    HW115146   4.166   4.498   2.107  2.7770  0.4113 -1.0130
 1170SOL    HW215147   4.233   4.399   2.030  0.4036 -0.5411 -0.1820
 1171SOL     OW15148   3.593   4.367   3.764 -0.4053 -0.1174 -0.2326
 1171SOL    HW115149   3.563   4.441   3.710  1.3016 -0.4056 -1.5702
 1171SOL    HW215150   3.508   4.323   3.775 -0.9175  1.1210  0.7553
 1172SOL     OW15151   2.825   2.731   1.707 -0.1269 -0.0423  0.3092
 1172SOL    HW115152   2.782   2.654   1.742 -1.0892 -0.4328 -1.7187
 1172SOL    HW215153   2.894   2.757   1.768 -0.8302 -0.5077  1.2780
 1173SOL     OW15154   1.073   0.279  16.835 -0.8251 -0.4714 -0.2406
 1173SOL    HW115155   1.045   0.191  16.861  1.6598 -0.8952  0.9949
 1173SOL    HW215156   1.123   0.293  16.916 -0.5069  0.4635 -0.5994
 1174SOL     OW15157   1.679   0.372   7.578 -0.4022  0.0913  0.6368
 1174SOL    HW115158   1.646   0.297   7.628  0.9169 -0.7942  0.1703
 1174SOL    HW215159   1.614   0.380   7.509 -1.1534  0.8843  1.4369
 1175SOL     OW15160   1.852   1.427   4.206 -0.3211  0.0030  0.4178
 1175SOL    HW115161   1.932   1.473   4.233  0.9064 -0.5727 -2.3030
 1175SOL    HW215162   1.844   1.357   4.271 -0.5520 -0.7695 -0.4541
 1176SOL     OW15163   0.502   0.302  11.951 -0.5928 -0.3658  0.0025
 1176SOL    HW115164   0.537   0.367  12.012 -1.8355  3.3454 -3.2884
 1176SOL    HW215165   0.523   0.215  11.986  2.5342  0.9849  1.5476
 1177SOL     OW15166   0.053   2.711   5.363 -0.1133  0.0727 -0.0723
 1177SOL    HW115167   4.705   2.683   5.401 -0.5012  1.6910  0.2278
 1177SOL    HW215168   0.034   2.804   5.372 -0.1231 -0.0026  0.6695
 1178SOL     OW15169   1.768   4.164   1.412  0.0901  0.2740 -0.0311
 1178SOL    HW115170   1.837   4.163   1.478  0.2347 -2.8061 -0.2486
 1178SOL    HW215171   1.754   4.259   1.411  0.1527  0.2976  0.8348
 1179SOL     OW15172   0.092   3.310  17.442  0.2189  0.5115 -0.2692
 1179SOL    HW115173   0.017   3.261  17.476  1.5672 -0.2152  1.5811
 1179SOL    HW215174   0.049   3.364  17.375 -2.0834  0.6720  1.3385
 1180SOL     OW15175   3.321   3.165   7.889  0.5591 -0.3101  0.1149
 1180SOL    HW115176   3.386   3.163   7.819 -1.2399 -2.5712 -1.4836
 1180SOL    HW215177   3.283   3.252   7.882  1.1699 -0.0186  0.5055
 1181SOL     OW15178   0.272   2.170   6.686 -0.4078 -0.0286 -0.4251
 1181SOL    HW115179   0.329   2.096   6.664 -0.9932 -0.4200 -0.6117
 1181SOL    HW215180   0.328   2.244   6.661  2.0449 -1.9110 -0.4790
 1182SOL     OW15181   3.066   3.153   4.932 -0.3703  0.0582  0.1821
 1182SOL    HW115182   3.032   3.099   5.004  1.7424 -1.8712 -0.2653
 1182SOL    HW215183   3.134   3.095   4.897 -1.5532 -1.3361  0.1976
 1183SOL     OW15184   1.026   4.501   9.915 -0.2761  0.2852  0.3591
 1183SOL    HW115185   0.944   4.543   9.890  0.3323  0.9953 -0.4268
 1183SOL    HW215186   0.999   4.414   9.944 -1.3073  0.6011  0.3428
 1184SOL     OW15187   1.955   1.107   2.393 -0.0914 -0.2041 -0.6927
 1184SOL    HW115188   1.883   1.077   2.449 -1.8789 -0.9247 -3.3964
 1184SOL    HW215189   1.949   1.045   2.321  0.0027 -1.6973  0.5913
 1185SOL     OW15190   1.581   0.227   6.660  0.3111  0.7020  0.0691
 1185SOL    HW115191   1.646   0.165   6.694  0.1718 -0.3038 -1.5079
 1185SOL    HW215192   1.535   0.177   6.592  1.0305 -0.1313  0.2033
 1186SOL     OW15193   0.560   2.905   2.002  0.2917 -0.7082 -0.1408
 1186SOL    HW115194   0.541   2.857   2.083  0.7792 -0.1505  0.2957
 1186SOL    HW215195   0.652   2.930   2.008  0.2302 -0.7611  0.9928
 1187SOL     OW15196   3.867   0.051  10.159  0.1612 -0.2264  0.1561
 1187SOL    HW115197   3.916   0.117  10.207  0.3122  0.8603 -1.4921
 1187SOL    HW215198   3.847   0.103  10.081  0.0769  0.6097  0.7417
 1188SOL     OW15199   1.441   3.654   2.944 -0.2142  0.0734 -0.0148
 1188SOL    HW115200   1.346   3.661   2.934 -0.2043 -1.7235 -1.4456
 1188SOL    HW215201   1.456   3.559   2.953 -2.5276 -0.3622 -0.7126
 1189SOL     OW15202   2.690   1.979   7.740  0.2344 -0.5259 -0.1290
 1189SOL    HW115203   2.689   2.020   7.827 -1.9006  0.4994 -0.6429
 1189SOL    HW215204   2.718   2.051   7.683  4.3578 -1.7285  0.4043
 1190SOL     OW15205   3.139   3.403  14.205 -0.3438 -0.4069 -0.2378
 1190SOL    HW115206   3.059   3.353  14.189  0.8140 -2.1479 -0.5840
 1190SOL    HW215207   3.109   3.487  14.239 -1.1871 -1.2686  1.1141
 1191SOL     OW15208   4.520   2.980  15.662  0.1894 -0.0359 -0.2373
 1191SOL    HW115209   4.577   3.012  15.592  0.5245 -2.9890 -1.2992
 1191SOL    HW215210   4.474   3.061  15.683  2.3278  0.5012  2.3502
 1192SOL     OW15211   3.082   2.154   6.837 -0.3465  0.1561 -0.2115
 1192SOL    HW115212   3.143   2.187   6.904  0.0849 -0.5096 -0.2751
 1192SOL    HW215213   2.996   2.176   6.870 -0.8623 -3.3390  0.7685
 1193SOL     OW15214   2.744   3.000   4.236  0.3764  0.2769  0.0853
 1193SOL    HW115215   2.725   3.034   4.149  1.6133  1.3505  0.2347
 1193SOL    HW215216   2.823   2.950   4.216 -0.2798 -0.7279  0.0365
 1194SOL     OW15217   4.530   3.910   5.336  0.5369 -0.4612  0.3525
 1194SOL    HW115218   4.539   3.980   5.401  1.9658 -0.5876  0.2775
 1194SOL    HW215219   4.462   3.855   5.376  0.2407 -0.4572 -0.1518
 1195SOL     OW15220   4.294   2.761   4.591  0.2902  0.4041 -0.4295
 1195SOL    HW115221   4.336   2.676   4.604  0.1069 -0.2969 -4.4847
 1195SOL    HW215222   4.235   2.741   4.518  0.8746 -2.7034 -0.0436
 1196SOL     OW15223   3.917   2.340   6.601  0.2103  0.3580 -0.2023
 1196SOL    HW115224   3.845   2.394   6.634 -0.9206 -2.0273  1.1977
 1196SOL    HW215225   3.869   2.282   6.541  0.8000 -0.4417  0.0976
 1197SOL     OW15226   1.062   2.479   8.480  0.4067  0.3492  0.1148
 1197SOL    HW115227   1.031   2.396   8.445 -2.3213  0.9957  0.9959
 1197SOL    HW215228   1.144   2.481   8.431 -0.4239 -2.2091 -1.3641
 1198SOL     OW15229   0.054   1.843   6.687 -0.0566 -0.4079  0.4458
 1198SOL    HW115230   0.030   1.932   6.714 -1.5329 -0.5270 -0.4876
 1198SOL    HW215231   0.147   1.858   6.700 -0.3859  3.0992 -0.9930
 1199SOL     OW15232   2.755   0.679   4.547 -0.2510 -0.4666  0.2024
 1199SOL    HW115233   2.669   0.671   4.588  0.3366  2.0827  1.8894
 1199SOL    HW215234   2.821   0.687   4.615  1.7507 -1.8476 -1.5836
 1200SOL     OW15235   4.396   3.855   8.978 -0.0383  0.5162 -0.0221
 1200SOL    HW115236   4.396   3.891   8.889 -0.5110  0.1727 -0.1619
 1200SOL    HW215237   4.306   3.822   8.988 -0.2014  0.9527 -0.0405
 1201SOL     OW15238   4.254   3.503   5.536 -0.2884 -0.0731  0.3933
 1201SOL    HW115239   4.330   3.518   5.592  0.8458 -0.0313 -1.1215
 1201SOL    HW215240   4.278   3.425   5.485 -1.9174  0.0419 -0.5422
 1202SOL     OW15241   2.726   2.236   5.984 -0.3098  0.0159 -0.5300
 1202SOL    HW115242   2.748   2.152   5.945  1.8848 -0.0003  0.7592
 1202SOL    HW215243   2.721   2.286   5.903 -4.0073 -0.6418 -0.7307
 1203SOL     OW15244   4.104   3.629   0.764 -0.0931 -0.2596  0.1777
 1203SOL    HW115245   4.103   3.582   0.847 -4.5710 -1.1819 -0.3648
 1203SOL    HW215246   4.059   3.569   0.704 -1.7281  0.2773  0.8628
 1204SOL     OW15247   4.013   3.934   9.883  0.1042  0.2793 -0.5708
 1204SOL    HW115248   4.068   3.895   9.815 -0.8871  0.3241 -1.4009
 1204SOL    HW215249   3.971   4.015   9.855  0.9647  0.5648 -1.0393
 1205SOL     OW15250   1.061   2.065   4.871 -0.0454 -0.2321 -0.7326
 1205SOL    HW115251   1.137   2.054   4.814  1.4514  1.5871  0.9226
 1205SOL    HW215252   1.083   1.996   4.934 -0.0186  0.1139 -0.3690
 1206SOL     OW15253   3.722   0.431  17.215  0.1006  0.0690  0.2373
 1206SOL    HW115254   3.653   0.403  17.155  1.1332 -1.0407 -0.4386
 1206SOL    HW215255   3.785   0.360  17.207 -0.2440 -0.5679  3.2844
 1207SOL     OW15256   3.705   4.594   2.759  0.5856 -0.4589  0.5331
 1207SOL    HW115257   3.800   4.584   2.764  0.4489 -1.3166  1.5095
 1207SOL    HW215258   3.686   4.542   2.681 -0.5584  0.7088  0.0350
 1208SOL     OW15259   2.587   0.952  11.978  0.0623 -0.5047  0.0320
 1208SOL    HW115260   2.602   0.980  12.069  0.4940  0.3446 -0.3015
 1208SOL    HW215261   2.600   1.036  11.934 -0.5650 -0.2852  0.2700
 1209SOL     OW15262   0.524   1.689   7.860 -0.1537  0.1224 -0.0478
 1209SOL    HW115263   0.526   1.599   7.894 -2.3257  0.0358 -0.1489
 1209SOL    HW215264   0.585   1.727   7.923  0.4908  1.8829 -1.7454
 1210SOL     OW15265   4.550   0.107   0.850 -0.7098 -0.1324 -0.2293
 1210SOL    HW115266   4.554   0.118   0.755  2.0587 -1.4038 -0.2799
 1210SOL    HW215267   4.578   0.016   0.858  0.4632  0.4629  2.1751
 1211SOL     OW15268   3.989   3.039   3.680  0.2200  0.1042 -0.2747
 1211SOL    HW115269   3.996   3.134   3.681  0.0620  0.1128  0.0014
 1211SOL    HW215270   3.894   3.039   3.664 -0.0586  0.6739  1.4128
 1212SOL     OW15271   1.085   0.753  16.435  0.4598 -0.1721 -0.1735
 1212SOL    HW115272   1.087   0.670  16.387  0.5680  0.5036 -1.3393
 1212SOL    HW215273   0.997   0.786  16.415  0.4976 -0.4185 -0.7421
 1213SOL     OW15274   1.446   4.395   7.679 -0.1817 -0.1584  0.1334
 1213SOL    HW115275   1.496   4.463   7.633 -0.1564 -0.3490 -0.1204
 1213SOL    HW215276   1.485   4.317   7.639 -0.2094 -1.5965  2.9421
 1214SOL     OW15277   2.195   1.100   3.082  0.1656 -0.3596 -0.0179
 1214SOL    HW115278   2.243   1.090   2.999 -2.1525 -0.5576 -1.3457
 1214SOL    HW215279   2.256   1.064   3.146  0.1596  0.4243  0.4235
 1215SOL     OW15280   1.389   2.669   4.852  0.1917  0.4384  0.3753
 1215SOL    HW115281   1.353   2.608   4.917  0.6875 -0.9613 -0.6622
 1215SOL    HW215282   1.324   2.739   4.851  0.1827  0.4419  0.9243
 1216SOL     OW15283   3.507   3.102   8.094 -0.7121  0.2448 -0.1978
 1216SOL    HW115284   3.555   3.032   8.048 -0.5884 -1.2953  2.2749
 1216SOL    HW215285   3.448   3.127   8.024  0.3714 -1.7072 -1.8290
 1217SOL     OW15286   0.473   1.098  17.671  0.0498 -0.0948 -0.1066
 1217SOL    HW115287   0.545   1.083  17.732  0.1355 -0.5885 -0.3340
 1217SOL    HW215288   0.405   1.142  17.723  1.0222 -0.1247  1.2015
 1218SOL     OW15289   3.232   3.628  15.354 -0.2001 -0.2132 -0.0980
 1218SOL    HW115290   3.162   3.631  15.289 -0.8533  0.5042  0.6328
 1218SOL    HW215291   3.219   3.548  15.407 -0.5728 -0.6218 -0.8111
 1219SOL     OW15292   4.368   4.264   2.595  0.1118  0.5653  0.0389
 1219SOL    HW115293   4.358   4.245   2.689  1.6981 -1.8813 -0.3134
 1219SOL    HW215294   4.426   4.198   2.559  1.8297  1.7264  0.6700
 1220SOL     OW15295   0.399   0.467   5.962 -0.4829 -0.1986 -0.1857
 1220SOL    HW115296   0.483   0.422   5.975  0.4856  1.4178 -0.8269
 1220SOL    HW215297   0.424   0.552   5.998 -0.6402 -0.0475 -0.4339
 1221SOL     OW15298   0.101   4.036   2.337 -0.2024  0.9193  0.0648
 1221SOL    HW115299   0.149   3.961   2.370 -0.6372  0.9274  0.7064
 1221SOL    HW215300   0.039   3.987   2.283 -2.1113  2.5989  0.7177
 1222SOL     OW15301   3.625   0.278   3.058 -0.0769  0.0747  0.4492
 1222SOL    HW115302   3.669   0.263   3.141  0.8678 -0.9824 -0.2414
 1222SOL    HW215303   3.649   0.197   3.012  0.1019 -0.6059  1.7521
 1223SOL     OW15304   4.144   1.690   5.560 -0.3090 -0.5004  0.4753
 1223SOL    HW115305   4.168   1.775   5.597  0.6671 -0.4232 -0.3576
 1223SOL    HW215306   4.139   1.647   5.646 -1.7733  0.5515  0.9129
 1224SOL     OW15307   3.688   2.583   1.783 -0.3443  0.2848 -0.0237
 1224SOL    HW115308   3.667   2.609   1.872 -0.6886  1.8276 -0.5620
 1224SOL    HW215309   3.643   2.499   1.769  1.4294 -0.9721  1.8718
 1225SOL     OW15310   2.717   0.466   7.198 -0.4091 -0.3159  0.2645
 1225SOL    HW115311   2.649   0.533   7.210  0.2203  0.1779  1.0365
 1225SOL    HW215312   2.773   0.473   7.275 -0.0365 -1.2781  0.0727
 1226SOL     OW15313   3.802   0.098  11.138 -0.2021  1.1940  0.3444
 1226SOL    HW115314   3.791   0.099  11.043  2.5481 -1.1180 -0.0046
 1226SOL    HW215315   3.740   0.163  11.171 -3.3387 -1.7621  0.3485
 1227SOL     OW15316   1.298   3.980  10.811 -0.0015 -0.4852 -0.0309
 1227SOL    HW115317   1.343   4.058  10.844  0.9428 -1.5121  1.1122
 1227SOL    HW215318   1.271   3.936  10.892  1.0672 -1.0529  0.0183
 1228SOL     OW15319   1.977   0.372   0.864  0.1757  0.2568 -0.0025
 1228SOL    HW115320   1.993   0.453   0.913 -0.9857 -1.2351  2.8890
 1228SOL    HW215321   1.960   0.414   0.780 -0.7961  0.7759  0.4439
 1229SOL     OW15322   0.819   4.240   0.913  0.4708 -0.1397 -0.2002
 1229SOL    HW115323   0.806   4.272   0.824 -1.4345 -0.1401  0.0714
 1229SOL    HW215324   0.863   4.316   0.952 -1.8081  1.3829 -0.5864
 1230SOL     OW15325   3.236   3.139  11.614 -0.0577  0.1986  0.1587
 1230SOL    HW115326   3.240   3.059  11.561 -1.0812  0.2042  0.0742
 1230SOL    HW215327   3.147   3.169  11.599 -0.3032 -1.0188 -0.8851
 1231SOL     OW15328   2.976   0.335  11.256  0.3608 -0.3439 -0.1743
 1231SOL    HW115329   2.943   0.246  11.243  2.0435 -0.8699 -0.7839
 1231SOL    HW215330   2.948   0.385  11.180 -3.2787  0.9047  1.9884
 1232SOL     OW15331   2.049   2.946   8.796  0.2249 -0.3446  0.2853
 1232SOL    HW115332   2.065   3.020   8.853 -1.3942 -0.0705  0.3783
 1232SOL    HW215333   2.130   2.953   8.745  0.1297 -0.8974  0.0505
 1233SOL     OW15334   2.056   4.134  16.291  0.7597 -0.5997  0.1720
 1233SOL    HW115335   2.086   4.181  16.369  2.0789 -0.4518 -0.4174
 1233SOL    HW215336   1.972   4.100  16.321  1.3527 -3.4795 -1.4948
 1234SOL     OW15337   2.521   2.978   5.273  0.1733 -0.1995  0.1417
 1234SOL    HW115338   2.493   3.053   5.327 -1.2868 -0.5155 -0.1794
 1234SOL    HW215339   2.444   2.954   5.221  0.8022  0.4297 -1.0903
 1235SOL     OW15340   0.041   3.383   2.481  0.4865 -0.0821 -0.2095
 1235SOL    HW115341   0.095   3.431   2.418  0.5340 -0.8459 -0.7416
 1235SOL    HW215342   0.085   3.383   2.567  0.6729  1.7081 -0.3102
 1236SOL     OW15343   4.112   3.593   9.162 -0.3960 -0.7267 -0.9690
 1236SOL    HW115344   4.119   3.503   9.192 -2.7203 -0.8010 -0.6830
 1236SOL    HW215345   4.155   3.583   9.077  2.0173 -0.7982  0.2566
 1237SOL     OW15346   0.509   4.637   4.126  1.0673  0.5043 -0.5162
 1237SOL    HW115347   0.548   4.724   4.139 -0.2663  0.4605  3.7288
 1237SOL    HW215348   0.536   4.624   4.035 -2.2071 -0.4811 -1.3233
 1238SOL     OW15349   2.354   1.738  12.010  0.0079  0.1515 -0.0341
 1238SOL    HW115350   2.432   1.771  11.965 -0.1128  1.0568  0.4195
 1238SOL    HW215351   2.370   1.646  12.028  0.9461  0.0441 -1.4898
 1239SOL     OW15352   1.012   0.554   7.438  0.1346  0.5047  0.7693
 1239SOL    HW115353   1.023   0.624   7.503  0.2678  0.5618  0.6876
 1239SOL    HW215354   1.046   0.593   7.357 -0.4990 -1.1467 -0.2685
 1240SOL     OW15355   2.487   2.495   1.932  0.0422  0.2372  0.5077
 1240SOL    HW115356   2.456   2.499   2.023  2.5669  0.8538  1.3403
 1240SOL    HW215357   2.413   2.443   1.902 -0.1726  2.4941 -2.8549
 1241SOL     OW15358   3.310   3.787   6.110 -0.4046 -0.6073  0.6097
 1241SOL    HW115359   3.374   3.724   6.076 -0.0177  0.2405 -0.2356
 1241SOL    HW215360   3.362   3.815   6.186 -2.5573 -0.6076  2.0664
 1242SOL     OW15361   0.215   2.014   7.933 -0.3941 -0.2785  0.3506
 1242SOL    HW115362   0.310   2.006   7.928 -0.4114 -0.5157  0.4241
 1242SOL    HW215363   0.201   1.942   7.995 -0.1410  0.4282  1.2387
 1243SOL     OW15364   0.431   2.313  14.961  0.0692  0.1025  0.1839
 1243SOL    HW115365   0.490   2.365  15.016  2.2378 -3.2339  1.0524
 1243SOL    HW215366   0.439   2.223  14.991 -0.5207  0.1380  0.4296
 1244SOL     OW15367   3.449   3.041   7.155 -0.1045  0.1121  0.0854
 1244SOL    HW115368   3.366   3.088   7.156  1.0060  2.1236 -1.9302
 1244SOL    HW215369   3.447   3.016   7.247  0.5626 -1.3882 -0.3011
 1245SOL     OW15370   1.809   0.623   7.358  0.4007  0.1151  0.4178
 1245SOL    HW115371   1.895   0.611   7.398  0.2208 -2.0591  0.1260
 1245SOL    HW215372   1.765   0.692   7.409 -2.7110 -0.7058 -1.1683
 1246SOL     OW15373   1.374   1.835   0.515 -0.6010 -0.2930  0.3678
 1246SOL    HW115374   1.443   1.857   0.577  0.5359  1.4229 -1.5018
 1246SOL    HW215375   1.343   1.915   0.472 -0.5736 -0.6869 -0.3993
 1247SOL     OW15376   0.661   0.626  17.640  0.0870  0.6632 -0.5529
 1247SOL    HW115377   0.650   0.544  17.593  2.0616 -0.6402  1.2532
 1247SOL    HW215378   0.600   0.605  17.710  0.8570  1.3583  0.3362
 1248SOL     OW15379   1.762   0.673   2.135  0.7858  0.1391 -0.0108
 1248SOL    HW115380   1.748   0.656   2.042 -1.2157  0.3349  0.2567
 1248SOL    HW215381   1.735   0.590   2.173 -1.4543  0.5176 -0.7827
 1249SOL     OW15382   3.966   0.669   8.606 -0.5649 -0.6888 -0.9417
 1249SOL    HW115383   3.996   0.621   8.683 -0.8356 -1.5492 -1.3656
 1249SOL    HW215384   3.912   0.734   8.651 -1.1757 -2.4195  0.8141
 1250SOL     OW15385   2.423   0.759   5.846 -0.2572  0.3215  0.2658
 1250SOL    HW115386   2.348   0.700   5.849  0.2218 -0.1471  2.4688
 1250SOL    HW215387   2.391   0.805   5.923 -2.4896 -0.3730 -0.2389
 1251SOL     OW15388   0.713   3.604   9.169 -0.7366 -0.6811  0.5450
 1251SOL    HW115389   0.659   3.540   9.122  1.1468  0.0388 -2.5718
 1251SOL    HW215390   0.740   3.659   9.096 -2.1154 -1.5408 -0.6359
 1252SOL     OW15391   1.272   0.682  16.083 -0.4974  0.5714 -0.3011
 1252SOL    HW115392   1.313   0.679  16.170  0.3147  1.2154 -0.6600
 1252SOL    HW215393   1.185   0.645  16.097 -0.4528  0.2778 -0.8021
 1253SOL     OW15394   4.444   0.031   3.498  0.0875 -0.0721 -0.4273
 1253SOL    HW115395   4.387   0.061   3.569  0.1160  0.3304 -0.5780
 1253SOL    HW215396   4.453   4.678   3.535  2.4394  0.4383  0.2101
 1254SOL     OW15397   3.331   2.557   4.009  0.3005  0.0948  0.7808
 1254SOL    HW115398   3.250   2.536   3.962  0.3517  0.9174  0.3155
 1254SOL    HW215399   3.363   2.631   3.958  0.9336 -1.6907 -1.4306
 1255SOL     OW15400   0.854   1.064  12.989 -0.2801  0.0096 -0.5768
 1255SOL    HW115401   0.854   1.160  12.986 -0.9792  0.0720  1.2176
 1255SOL    HW215402   0.813   1.048  12.905 -2.9575  1.8407  0.3693
 1256SOL     OW15403   0.509   4.529  14.168  0.3969  0.4909 -0.4726
 1256SOL    HW115404   0.543   4.440  14.163 -2.1224 -0.4121 -1.5876
 1256SOL    HW215405   0.590   4.577  14.147  0.9502 -1.2518 -2.3454
 1257SOL     OW15406   0.241   3.367   2.245 -0.0198 -0.5060  0.0720
 1257SOL    HW115407   0.312   3.379   2.308  0.3302 -1.4824 -0.1246
 1257SOL    HW215408   0.209   3.279   2.264  3.9778 -1.7078  1.2041
 1258SOL     OW15409   1.729   3.112  15.928  0.0885  0.1626 -0.1180
 1258SOL    HW115410   1.705   3.183  15.869 -2.9848  0.1322  1.1479
 1258SOL    HW215411   1.822   3.128  15.946  0.1074 -1.9852  1.8074
 1259SOL     OW15412   0.362   2.763   7.955  0.2012  0.3728 -0.3173
 1259SOL    HW115413   0.455   2.754   7.978 -0.1602 -0.0293  0.9779
 1259SOL    HW215414   0.320   2.680   7.976 -2.3805  1.7163 -0.2247
 1260SOL     OW15415   0.621   2.867   6.484  0.3233  0.0242  0.1250
 1260SOL    HW115416   0.557   2.809   6.526 -1.5936  2.4959  0.5929
 1260SOL    HW215417   0.615   2.942   6.543  1.0305  0.6741 -0.6288
 1261SOL     OW15418   0.193   3.553   4.693  0.0704 -0.5356 -0.2599
 1261SOL    HW115419   0.136   3.608   4.639 -3.6288 -0.8990  3.2619
 1261SOL    HW215420   0.205   3.604   4.773 -0.6038 -0.1334 -0.4172
 1262SOL     OW15421   1.166   1.502   8.059 -0.0339 -0.1185 -0.2742
 1262SOL    HW115422   1.139   1.426   8.007  0.7366  1.1729 -2.5790
 1262SOL    HW215423   1.096   1.498   8.124  0.7803 -2.0447  0.4972
 1263SOL     OW15424   4.298   2.233   3.350 -0.2942 -0.6771  0.5594
 1263SOL    HW115425   4.314   2.314   3.302  2.7543 -1.5463  0.1249
 1263SOL    HW215426   4.203   2.235   3.348 -0.2250  1.6052 -0.4032
 1264SOL     OW15427   0.143   0.610   7.047  0.5979  0.2608  0.2025
 1264SOL    HW115428   0.083   0.536   7.057 -0.0065  0.8599  1.0775
 1264SOL    HW215429   0.206   0.586   7.115  1.1578 -0.6250 -0.6389
 1265SOL     OW15430   2.180   2.195   7.167  0.3041  0.1755 -0.3353
 1265SOL    HW115431   2.205   2.287   7.171  1.0462 -0.1045  1.3423
 1265SOL    HW215432   2.102   2.201   7.112  1.1275 -0.4551 -1.5680
 1266SOL     OW15433   2.749   1.045  17.709  0.1777  0.5709  0.4413
 1266SOL    HW115434   2.839   1.017  17.693  0.2320  0.8831  0.1969
 1266SOL    HW215435   2.747   1.084   0.057  0.1958  2.8105 -0.5661
 1267SOL     OW15436   1.118   1.756  11.797  0.2572  0.0026 -0.5691
 1267SOL    HW115437   1.057   1.770  11.724 -0.3386 -0.6346 -0.1981
 1267SOL    HW215438   1.081   1.824  11.854 -0.3407 -0.1400 -0.7784
 1268SOL     OW15439   1.318   3.054   7.959 -0.4150  0.0924  0.3837
 1268SOL    HW115440   1.283   3.115   7.895  0.5606 -0.7757 -0.9655
 1268SOL    HW215441   1.242   3.009   7.996  0.3322 -1.5357 -0.0505
 1269SOL     OW15442   0.920   3.027  12.248  0.3869 -0.1008 -0.8546
 1269SOL    HW115443   0.906   3.092  12.179  0.8394  1.0638  0.1518
 1269SOL    HW215444   0.891   2.946  12.205  1.0696 -0.8051  0.0081
 1270SOL     OW15445   1.637   0.787  11.305  0.6009 -0.1175  0.7682
 1270SOL    HW115446   1.694   0.725  11.349  0.9700 -1.2299 -1.2688
 1270SOL    HW215447   1.599   0.849  11.367 -0.5208  1.3744 -1.4238
 1271SOL     OW15448   3.345   2.215   9.320 -0.2651  0.6828  0.2566
 1271SOL    HW115449   3.414   2.184   9.378  2.8925  0.2509 -3.7201
 1271SOL    HW215450   3.277   2.148   9.329 -0.3373  0.7002 -0.1711
 1272SOL     OW15451   0.548   3.112   9.020  0.2557  0.2133 -0.4295
 1272SOL    HW115452   0.464   3.080   8.988 -0.9956 -0.0287  3.1201
 1272SOL    HW215453   0.602   3.037   8.995  0.4090  0.1660  0.0327
 1273SOL     OW15454   3.407   0.954   4.947  0.2495  0.0503  0.1638
 1273SOL    HW115455   3.446   1.034   4.983  1.0961 -0.6377  0.7787
 1273SOL    HW215456   3.487   0.905   4.928 -0.3085 -0.7949  0.0149
 1274SOL     OW15457   2.424   2.870   2.087 -0.9729 -0.3314 -0.7843
 1274SOL    HW115458   2.377   2.953   2.086  0.8351  0.6747 -0.9956
 1274SOL    HW215459   2.415   2.837   2.177 -1.3105  2.0618  0.0589
 1275SOL     OW15460   3.899   0.978   7.920  0.6854 -0.0916  0.2715
 1275SOL    HW115461   3.966   0.946   7.980  2.4137  2.0880 -0.4966
 1275SOL    HW215462   3.912   1.073   7.928  1.1583 -0.2633  1.5780
 1276SOL     OW15463   0.797   4.692   4.093 -0.3327 -0.3602  0.2419
 1276SOL    HW115464   0.790   0.051   4.081 -1.2952 -0.3396  0.9783
 1276SOL    HW215465   0.843   4.670   4.012  0.6580 -0.3326  0.7952
 1277SOL     OW15466   4.077   1.231  12.672 -0.5496 -0.3547 -0.4670
 1277SOL    HW115467   4.146   1.259  12.733 -0.7203  1.8292 -1.2662
 1277SOL    HW215468   4.122   1.213  12.590 -0.8809 -1.1080 -0.4814
 1278SOL     OW15469   3.299   3.469   4.514 -0.1102  0.6258  0.5016
 1278SOL    HW115470   3.331   3.379   4.504 -1.0844  0.5103 -1.4923
 1278SOL    HW215471   3.212   3.463   4.475 -0.0380  0.0653  0.4238
 1279SOL     OW15472   2.630   0.907   6.779 -0.1909  0.1558  0.2392
 1279SOL    HW115473   2.663   0.860   6.703 -1.5781 -0.4415  0.0061
 1279SOL    HW215474   2.700   0.970   6.796  1.7602 -2.1212  0.6380
 1280SOL     OW15475   2.752   3.441   5.411 -0.0832  0.4691  0.2473
 1280SOL    HW115476   2.818   3.509   5.404  1.1068 -0.5984  1.0780
 1280SOL    HW215477   2.694   3.479   5.478  0.0577 -0.3866  0.8622
 1281SOL     OW15478   4.311   2.065   5.275 -0.1670 -0.0991 -0.0426
 1281SOL    HW115479   4.249   2.055   5.203 -0.0408  0.9960 -0.3057
 1281SOL    HW215480   4.281   2.147   5.314 -0.5349 -0.2193 -0.0815
 1282SOL     OW15481   3.821   0.431   1.843  0.5146  0.2972 -0.5268
 1282SOL    HW115482   3.914   0.417   1.827  1.0349  3.6039 -0.4993
 1282SOL    HW215483   3.800   0.498   1.778 -4.2382  0.6763  1.3976
 1283SOL     OW15484   4.020   3.529   1.507 -0.3680  0.1348 -0.0636
 1283SOL    HW115485   4.111   3.539   1.480  0.2197 -2.9566  0.7215
 1283SOL    HW215486   4.015   3.434   1.521 -0.1885 -0.0042 -0.9319
 1284SOL     OW15487   4.370   2.200   2.954 -0.2074  0.3485 -0.4021
 1284SOL    HW115488   4.423   2.201   2.874 -0.5088 -2.5227 -0.6531
 1284SOL    HW215489   4.426   2.164   3.022  0.1421 -0.7224 -1.2633
 1285SOL     OW15490   4.381   0.382  10.044 -0.6517  0.1693 -0.1367
 1285SOL    HW115491   4.380   0.291  10.016 -1.0151  0.6014 -1.5258
 1285SOL    HW215492   4.464   0.390  10.091 -1.4562 -1.3010  1.5359
 1286SOL     OW15493   3.442   0.817   3.632  0.1482  0.1650 -0.0108
 1286SOL    HW115494   3.424   0.911   3.630  1.7378  0.5052  1.4222
 1286SOL    HW215495   3.512   0.818   3.697 -0.7207  1.5871  0.9099
 1287SOL     OW15496   4.572   2.243   2.788 -0.3214 -0.4754 -0.3776
 1287SOL    HW115497   4.520   2.321   2.769 -0.1459 -0.2681 -0.0210
 1287SOL    HW215498   4.660   2.277   2.769 -0.5521  0.1254 -0.3779
 1288SOL     OW15499   1.348   0.781   8.843  0.0685 -0.4023 -0.7676
 1288SOL    HW115500   1.305   0.812   8.923 -1.6816 -0.3507 -1.7295
 1288SOL    HW215501   1.270   0.804   8.792 -0.1735 -0.3897 -0.3956
 1289SOL     OW15502   4.706   3.319   4.410 -0.3662  0.3909  0.6198
 1289SOL    HW115503   4.625   3.367   4.392 -1.3492 -0.2716  3.2952
 1289SOL    HW215504   0.047   3.376   4.394 -1.4324  0.3922 -4.5831
 1290SOL     OW15505   0.861   1.005   8.340  0.6799  0.1451 -0.1962
 1290SOL    HW115506   0.864   1.098   8.318  0.2559  0.2849  0.3449
 1290SOL    HW215507   0.917   0.966   8.273  2.4084  1.4235  0.5064
 1291SOL     OW15508   0.878   0.264   0.970  0.5959  0.0614 -0.4729
 1291SOL    HW115509   0.959   0.256   1.020 -0.6054 -1.0351  1.2994
 1291SOL    HW215510   0.914   0.291   0.886  2.7518 -2.0910 -0.2473
 1292SOL     OW15511   0.533   3.627   2.113  0.2703 -0.2313  1.0757
 1292SOL    HW115512   0.595   3.696   2.092 -1.2505 -0.2251 -3.4308
 1292SOL    HW215513   0.455   3.678   2.088  1.9330  2.1706  0.8121
 1293SOL     OW15514   1.159   0.138   4.112 -0.7178 -0.1488  0.3156
 1293SOL    HW115515   1.188   0.047   4.122 -0.5459 -0.0241  0.9193
 1293SOL    HW215516   1.077   0.116   4.068 -1.0469 -1.4093  1.5609
 1294SOL     OW15517   3.625   2.013  15.110  0.6948  0.2217 -0.4174
 1294SOL    HW115518   3.590   2.026  15.022  1.6835  2.3630 -0.4795
 1294SOL    HW215519   3.580   1.929  15.121 -3.0050  2.5358  2.0645
 1295SOL     OW15520   4.151   1.594   5.173 -0.0508  0.1831 -0.0833
 1295SOL    HW115521   4.071   1.637   5.205 -0.3281 -1.1830  1.0393
 1295SOL    HW215522   4.127   1.555   5.089 -1.0145 -2.7209  1.5591
 1296SOL     OW15523   4.569   1.761   7.836 -0.2064 -0.4451 -0.5814
 1296SOL    HW115524   4.597   1.771   7.745 -0.1281  0.5943 -0.4416
 1296SOL    HW215525   4.549   1.852   7.859  0.6310 -0.3724 -0.1442
 1297SOL     OW15526   0.041   1.773  12.112 -0.3011  0.1390  0.0602
 1297SOL    HW115527   4.705   1.751  12.052 -0.2363 -0.7262  0.3005
 1297SOL    HW215528   0.121   1.780  12.059 -0.7286 -2.0507 -0.8317
 1298SOL     OW15529   2.051   0.614   3.083  0.2568  0.2866 -0.5710
 1298SOL    HW115530   1.972   0.566   3.059 -0.9382  1.5081  0.8946
 1298SOL    HW215531   2.018   0.687   3.135 -2.0788 -0.0432 -1.5990
 1299SOL     OW15532   1.099   2.397  17.449 -0.4889  0.0232  0.0988
 1299SOL    HW115533   1.188   2.419  17.479 -0.7579  1.6182 -0.2617
 1299SOL    HW215534   1.118   2.312  17.410  0.5699 -0.4963  1.7332
 1300SOL     OW15535   1.076   4.252   7.984  0.0213 -0.2771  0.1776
 1300SOL    HW115536   1.012   4.182   7.998 -1.3775  1.0573  0.4082
 1300SOL    HW215537   1.076   4.288   8.072  1.5252 -0.2018  0.1424
 1301SOL     OW15538   4.346   1.573   3.125 -0.1365 -0.3936 -0.4316
 1301SOL    HW115539   4.257   1.543   3.110  0.9257 -2.9695 -1.6720
 1301SOL    HW215540   4.334   1.664   3.097 -0.1360 -0.8786 -2.0116
 1302SOL     OW15541   0.110   1.113   9.269  0.0803 -0.0695  0.2648
 1302SOL    HW115542   0.122   1.206   9.289 -1.3649  0.2103 -0.1958
 1302SOL    HW215543   0.063   1.119   9.186 -0.0900 -0.3437  0.3414
 1303SOL     OW15544   3.257   2.179   2.398  0.4975  0.5536 -0.4888
 1303SOL    HW115545   3.225   2.190   2.487 -0.2052 -1.0398 -0.5600
 1303SOL    HW215546   3.338   2.131   2.417  0.5576  0.9008  0.1241
 1304SOL     OW15547   1.599   0.275   3.014 -0.6804  0.0466  0.0022
 1304SOL    HW115548   1.690   0.250   2.998 -0.5495  1.1822 -1.0301
 1304SOL    HW215549   1.557   0.190   2.999  0.7240 -0.8436  1.2135
 1305SOL     OW15550   1.623   1.493  16.324  0.1455  0.0350 -0.0911
 1305SOL    HW115551   1.614   1.535  16.238  1.0924  1.9729  0.7834
 1305SOL    HW215552   1.609   1.400  16.306 -2.0740  0.2768  0.4623
 1306SOL     OW15553   3.577   3.801   5.785 -0.0305 -0.1151 -0.4859
 1306SOL    HW115554   3.583   3.718   5.737  3.8261 -0.2834  0.2563
 1306SOL    HW215555   3.569   3.870   5.720 -1.6331 -0.2874 -0.4673
 1307SOL     OW15556   2.841   1.894   6.166  0.9179 -0.1472  0.0321
 1307SOL    HW115557   2.903   1.960   6.136  3.6054 -2.2623  0.9355
 1307SOL    HW215558   2.758   1.920   6.125  2.8571  1.0444 -3.0721
 1308SOL     OW15559   1.607   3.936  13.642 -0.7682  0.1930  0.1400
 1308SOL    HW115560   1.625   4.026  13.671 -0.0538  0.3558 -0.8305
 1308SOL    HW215561   1.513   3.920  13.649 -0.9244  0.5264 -1.3285
 1309SOL     OW15562   2.773   1.698  15.903 -0.1537  0.2261  0.0522
 1309SOL    HW115563   2.762   1.604  15.891 -0.4901  0.4580 -1.4181
 1309SOL    HW215564   2.688   1.731  15.930 -1.4055 -2.7330 -0.2646
 1310SOL     OW15565   2.336   3.328   6.548  0.5597  0.6084  0.2045
 1310SOL    HW115566   2.315   3.403   6.492 -2.5009 -1.2678 -1.2154
 1310SOL    HW215567   2.404   3.367   6.602  1.0745  1.3441 -0.9716
 1311SOL     OW15568   0.875   1.080  10.469  0.0408  0.1976  0.2623
 1311SOL    HW115569   0.832   1.001  10.437 -1.2379  0.7338  0.6967
 1311SOL    HW215570   0.852   1.062  10.560 -0.2040 -1.0861 -0.0507
 1312SOL     OW15571   2.400   2.218   3.967 -0.4325 -0.2939  0.0968
 1312SOL    HW115572   2.473   2.241   3.909 -0.4036  1.4344  0.8270
 1312SOL    HW215573   2.432   2.140   4.011  0.0336 -0.8332 -1.1829
 1313SOL     OW15574   1.209   1.532   7.109 -0.0532 -0.0487 -0.4713
 1313SOL    HW115575   1.259   1.510   7.030 -0.9173 -0.6387 -0.8556
 1313SOL    HW215576   1.209   1.448   7.156  2.5896  0.0483 -0.2863
 1314SOL     OW15577   4.352   2.378   6.916  0.7860 -0.5313  1.0461
 1314SOL    HW115578   4.274   2.389   6.863  0.8857  1.5275  1.3222
 1314SOL    HW215579   4.367   2.284   6.925  0.5467 -0.7917 -1.3637
 1315SOL     OW15580   4.434   3.182   0.094 -0.0941 -0.0366  0.9024
 1315SOL    HW115581   4.393   3.228   0.020  0.0271 -0.7712  0.3718
 1315SOL    HW215582   4.363   3.196   0.157  0.1977  0.2403  1.1639
 1316SOL     OW15583   3.949   3.921  16.169 -0.3946  0.1984 -0.9367
 1316SOL    HW115584   3.909   3.834  16.172  2.4084 -1.0627  0.1255
 1316SOL    HW215585   3.924   3.958  16.253  2.0778  2.0921 -1.0412
 1317SOL     OW15586   1.905   2.575   2.546 -0.7591  0.5689 -0.1275
 1317SOL    HW115587   1.837   2.514   2.517  0.5358 -0.6140 -0.6908
 1317SOL    HW215588   1.907   2.626   2.465 -0.5156 -0.5913 -0.8558
 1318SOL     OW15589   0.977   2.401   2.987  0.5639  0.3476 -0.6405
 1318SOL    HW115590   1.026   2.417   3.068 -0.2526  0.1976 -0.1147
 1318SOL    HW215591   0.916   2.475   2.984  0.3464  0.2354  1.1785
 1319SOL     OW15592   3.011   3.294   0.697 -1.0278 -0.1067  0.1181
 1319SOL    HW115593   2.943   3.229   0.712  3.2565 -4.8875 -1.0862
 1319SOL    HW215594   3.076   3.264   0.761  1.4270 -0.5307 -2.5177
 1320SOL     OW15595   2.486   0.554  15.738  0.5887 -0.3674  0.3562
 1320SOL    HW115596   2.485   0.478  15.796 -1.1800  0.6177  1.6241
 1320SOL    HW215597   2.546   0.618  15.775 -1.0069  0.4763  1.4963
 1321SOL     OW15598   1.922   0.993   3.169  0.2574 -0.1867 -0.0137
 1321SOL    HW115599   1.985   1.065   3.162  0.0752 -0.0580 -0.3366
 1321SOL    HW215600   1.931   0.979   3.263  0.8862 -0.7190 -0.1498
 1322SOL     OW15601   2.665   2.960   2.311  0.1988  0.2304  0.0450
 1322SOL    HW115602   2.615   2.885   2.344  2.6679 -0.8871  1.2570
 1322SOL    HW215603   2.617   3.028   2.357  0.5018  1.4850 -1.5099
 1323SOL     OW15604   2.051   0.004   9.152  0.2870  0.2034 -0.2966
 1323SOL    HW115605   2.101   0.059   9.092  2.7721  0.0111  1.6257
 1323SOL    HW215606   2.036   0.063   9.225  2.4258 -1.4236  1.4581
 1324SOL     OW15607   2.155   0.651   8.453 -0.5077 -0.2480  0.1585
 1324SOL    HW115608   2.090   0.677   8.518 -0.2784 -0.3083  0.4138
 1324SOL    HW215609   2.143   0.708   8.378  0.5323  0.2745  0.3907
 1325SOL     OW15610   1.536   3.776   4.277 -0.3308 -0.5241  0.4636
 1325SOL    HW115611   1.612   3.826   4.247 -1.2655  0.1345 -0.7909
 1325SOL    HW215612   1.560   3.741   4.363  1.9858 -0.9448 -0.3456
 1326SOL     OW15613   3.870   0.169   2.036 -0.3393 -0.2610 -0.1774
 1326SOL    HW115614   3.947   0.205   2.079 -0.9096  2.2154 -1.2487
 1326SOL    HW215615   3.814   0.166   2.114 -0.4503 -0.2637 -0.2577
 1327SOL     OW15616   4.266   4.296   7.516 -0.1821 -0.2839 -0.1025
 1327SOL    HW115617   4.208   4.317   7.443 -0.4332  1.0027  0.4646
 1327SOL    HW215618   4.350   4.275   7.476 -0.6117  0.1804 -1.2434
 1328SOL     OW15619   0.428   3.392   3.365  0.2380  0.3677  0.3339
 1328SOL    HW115620   0.367   3.466   3.361  0.3256  0.4431  0.3898
 1328SOL    HW215621   0.488   3.416   3.436  1.2134 -2.7382  0.5437
 1329SOL     OW15622   3.983   1.093   4.820 -0.3366  0.3384  0.3337
 1329SOL    HW115623   4.030   1.151   4.760  0.4507 -0.1644  0.4546
 1329SOL    HW215624   3.905   1.147   4.830 -1.7345 -1.3294 -1.3835
 1330SOL     OW15625   3.981   1.963   1.878 -0.0487 -0.1354 -0.4709
 1330SOL    HW115626   4.060   1.994   1.833  0.3142  0.8249  0.8250
 1330SOL    HW215627   3.920   2.036   1.875  0.7688  0.6201  1.7751
 1331SOL     OW15628   0.155   1.642   4.567 -0.2296  0.6145  0.0077
 1331SOL    HW115629   0.117   1.730   4.565 -4.4066 -1.1694  0.3435
 1331SOL    HW215630   0.147   1.631   4.662 -1.5394 -5.1867 -0.8096
 1332SOL     OW15631   2.475   2.084   4.464  0.3703 -0.3837 -0.2157
 1332SOL    HW115632   2.441   2.168   4.497 -1.3390 -1.3573  0.4971
 1332SOL    HW215633   2.433   2.014   4.513 -1.7793 -0.8176 -2.6522
 1333SOL     OW15634   2.728   4.374  10.786 -0.3166  0.1651 -0.3032
 1333SOL    HW115635   2.676   4.350  10.709 -0.5139 -1.2311  0.2694
 1333SOL    HW215636   2.663   4.413  10.845 -1.2806 -1.1569 -0.4924
 1334SOL     OW15637   1.160   1.598   3.426  0.0792 -0.3893 -0.3072
 1334SOL    HW115638   1.160   1.506   3.402  1.4022 -0.3553 -0.4517
 1334SOL    HW215639   1.083   1.599   3.483  1.6629  2.1585  1.7738
 1335SOL     OW15640   3.369   1.991   7.189  0.4666 -0.2792  0.0915
 1335SOL    HW115641   3.313   2.068   7.184 -2.0836 -2.0292  1.3049
 1335SOL    HW215642   3.455   2.024   7.163  0.0850  1.0521  0.5445
 1336SOL     OW15643   1.239   3.961   4.007 -0.2668  0.0528  0.0853
 1336SOL    HW115644   1.299   4.013   4.060  0.3200  1.1527 -1.6357
 1336SOL    HW215645   1.274   3.971   3.918  0.8781  1.5861  0.7112
 1337SOL     OW15646   3.846   2.026  15.921 -0.0673 -0.5758  0.8727
 1337SOL    HW115647   3.839   1.941  15.876 -3.0815  0.5292 -0.7504
 1337SOL    HW215648   3.802   2.083  15.858  1.4876 -0.4084 -0.0537
 1338SOL     OW15649   4.600   3.217  17.530  0.2472 -0.3232  0.2130
 1338SOL    HW115650   4.529   3.282  17.537  0.9152  0.5369 -1.0115
 1338SOL    HW215651   4.559   3.140  17.568 -1.5327  0.8687  0.7151
 1339SOL     OW15652   3.621   0.664   6.183  0.3063 -0.0214  0.0982
 1339SOL    HW115653   3.672   0.587   6.208  0.0153 -1.1331 -2.6545
 1339SOL    HW215654   3.671   0.699   6.109  1.2995  2.0726  1.7906
 1340SOL     OW15655   2.165   1.427   4.101 -0.2392  0.0330 -0.3107
 1340SOL    HW115656   2.136   1.498   4.158 -3.8283 -2.0737  0.4963
 1340SOL    HW215657   2.140   1.458   4.014  1.4779 -0.1516 -0.8785
 1341SOL     OW15658   2.847   4.373   7.319 -0.1229 -0.0668  0.4271
 1341SOL    HW115659   2.852   4.430   7.396 -0.1178 -0.2211  0.5390
 1341SOL    HW215660   2.792   4.427   7.261  1.0477  0.8884  0.2067
 1342SOL     OW15661   3.495   0.606   9.886 -0.2168  0.0772 -0.6358
 1342SOL    HW115662   3.542   0.656   9.953 -0.1191  0.3917 -0.9405
 1342SOL    HW215663   3.474   0.666   9.814 -0.6767 -0.1570 -0.6927
 1343SOL     OW15664   4.192   3.564   9.923  0.1691  0.1155 -0.2480
 1343SOL    HW115665   4.107   3.596   9.953  0.9677  2.2856 -0.2885
 1343SOL    HW215666   4.163   3.478   9.894 -1.1970  0.4160  0.1961
 1344SOL     OW15667   4.299   0.908   3.619 -0.2396 -0.2951 -0.1403
 1344SOL    HW115668   4.249   0.894   3.538 -0.6258  1.1167 -0.1417
 1344SOL    HW215669   4.242   0.861   3.680 -2.2821  0.1720 -1.7160
 1345SOL     OW15670   1.107   2.562   1.785  0.5369  0.4006  0.0093
 1345SOL    HW115671   1.153   2.487   1.821 -0.6960 -0.3980 -0.0707
 1345SOL    HW215672   1.025   2.566   1.834 -0.8258 -1.2401 -2.1169
 1346SOL     OW15673   3.609   4.468  10.838  0.3951  0.4918 -0.2830
 1346SOL    HW115674   3.533   4.494  10.889 -0.6053  0.1881 -1.6121
 1346SOL    HW215675   3.645   4.395  10.888  1.9851  1.6609  0.2689
 1347SOL     OW15676   1.840   1.570   5.671 -0.7241  0.1154 -0.0235
 1347SOL    HW115677   1.834   1.545   5.579 -0.0822 -0.3428  0.0580
 1347SOL    HW215678   1.898   1.646   5.664 -0.5886  0.3103  3.5953
 1348SOL     OW15679   3.546   3.291   6.379  0.6203 -0.1609  0.8135
 1348SOL    HW115680   3.487   3.300   6.304  0.3773 -1.4877  0.8304
 1348SOL    HW215681   3.535   3.380   6.412  0.8920  0.3511 -0.4960
 1349SOL     OW15682   4.577   4.386  17.325 -0.0016  0.3291 -0.3977
 1349SOL    HW115683   4.661   4.431  17.334  0.7001 -0.9042 -0.7281
 1349SOL    HW215684   4.569   4.346  17.411  0.0889  0.0687 -0.5100
 1350SOL     OW15685   3.629   1.618   3.066 -0.7284  0.5426  0.0485
 1350SOL    HW115686   3.625   1.589   3.157 -0.6363 -1.2513 -0.5048
 1350SOL    HW215687   3.600   1.708   3.073 -3.0346 -0.2271  0.4502
 1351SOL     OW15688   0.253   2.950  15.341  0.5750  0.0080 -0.8686
 1351SOL    HW115689   0.326   2.949  15.279  2.0942 -1.1833  0.9346
 1351SOL    HW215690   0.216   3.038  15.351  0.3337 -0.1512 -0.3411
 1352SOL     OW15691   3.130   0.177  12.144 -0.6859  0.6801  0.0895
 1352SOL    HW115692   3.096   0.242  12.204 -0.5222 -1.0044  2.0085
 1352SOL    HW215693   3.050   0.139  12.108 -0.5688 -1.8203  2.4474
 1353SOL     OW15694   3.643   0.204   1.816 -0.1394  0.1317  0.1277
 1353SOL    HW115695   3.556   0.210   1.853 -0.1932 -1.0067  0.1964
 1353SOL    HW215696   3.686   0.288   1.833  0.9973  0.1288 -2.5904
 1354SOL     OW15697   3.252   0.929   5.273 -0.4366  0.2298 -0.3883
 1354SOL    HW115698   3.273   0.991   5.203  0.6859  0.9540  0.6019
 1354SOL    HW215699   3.341   0.895   5.274 -0.7485 -0.5721 -0.2033
 1355SOL     OW15700   0.846   4.235  11.642 -0.8476  0.4523  0.1368
 1355SOL    HW115701   0.807   4.194  11.719  1.9168 -1.8318  0.2864
 1355SOL    HW215702   0.767   4.241  11.589 -0.5076 -0.7186 -0.4898
 1356SOL     OW15703   0.672   4.559   2.657 -0.1559 -0.0411  0.0867
 1356SOL    HW115704   0.704   4.572   2.746  1.0984 -0.4378 -0.3003
 1356SOL    HW215705   0.655   4.466   2.671 -0.5282 -0.1109 -0.8268
 1357SOL     OW15706   0.017   4.297   1.025  0.1782 -0.2978  0.1357
 1357SOL    HW115707   0.034   4.364   1.091  2.6463 -0.0194 -0.7799
 1357SOL    HW215708   4.733   4.226   1.085 -1.8877 -0.9771 -1.3466
 1358SOL     OW15709   4.150   2.431   1.492 -0.3295  0.7745  0.7297
 1358SOL    HW115710   4.057   2.433   1.515 -0.5647 -0.6642 -0.0408
 1358SOL    HW215711   4.145   2.481   1.411 -1.1183 -0.9973 -0.3083
 1359SOL     OW15712   3.795   2.603  16.397 -0.1326 -0.0492 -0.1447
 1359SOL    HW115713   3.888   2.591  16.414  0.4062  2.4048 -1.4068
 1359SOL    HW215714   3.761   2.515  16.415  0.9957 -0.0448  1.9180
 1360SOL     OW15715   0.212   3.028  14.378 -0.4640 -0.7255 -0.4388
 1360SOL    HW115716   0.202   2.994  14.290  0.2262 -1.7165 -0.1360
 1360SOL    HW215717   0.161   2.967  14.430  0.1819  0.8227  2.0321
 1361SOL     OW15718   2.689   1.531   2.653  0.5295  0.1647 -0.2520
 1361SOL    HW115719   2.681   1.544   2.558  0.3078 -2.6572 -0.6251
 1361SOL    HW215720   2.750   1.602   2.669 -0.3222  1.2194 -1.7406
 1362SOL     OW15721   3.329   2.671  11.483 -0.0710 -0.1987 -0.2060
 1362SOL    HW115722   3.278   2.740  11.526 -1.2498 -1.0830 -0.1804
 1362SOL    HW215723   3.340   2.611  11.557 -2.9318  0.7517  0.9682
 1363SOL     OW15724   3.584   3.981   2.348  0.0195  0.3555 -0.8883
 1363SOL    HW115725   3.662   3.993   2.293 -0.3722  1.6438 -1.1788
 1363SOL    HW215726   3.620   4.025   2.425 -0.4101  1.1722 -1.1487
 1364SOL     OW15727   1.869   0.514   7.945 -0.1811 -0.1589 -0.3305
 1364SOL    HW115728   1.885   0.466   8.026  1.3053  1.3571  0.2642
 1364SOL    HW215729   1.954   0.550   7.921 -0.9642  1.0660 -1.2562
 1365SOL     OW15730   2.702   1.981   6.715 -0.5257 -0.2154  0.4065
 1365SOL    HW115731   2.645   2.026   6.777 -1.2988 -2.3323  1.2297
 1365SOL    HW215732   2.647   1.907   6.689  1.2246 -0.9189 -1.3061
 1366SOL     OW15733   0.177   4.278   1.447 -0.5520 -0.4034  0.6374
 1366SOL    HW115734   0.088   4.265   1.416  0.1577 -0.3412 -1.4506
 1366SOL    HW215735   0.225   4.272   1.364 -0.6839 -0.6470  0.5796
 1367SOL     OW15736   1.272   0.865   2.831 -0.3952 -0.5037  0.4054
 1367SOL    HW115737   1.361   0.834   2.847 -0.0101 -0.6435 -2.0618
 1367SOL    HW215738   1.263   0.904   2.744 -0.1550 -3.0943 -0.7987
 1368SOL     OW15739   1.802   4.066   6.344 -0.0908  0.4264  0.0791
 1368SOL    HW115740   1.753   3.998   6.392  0.6925 -1.3434 -1.6215
 1368SOL    HW215741   1.792   4.039   6.253  0.2575  0.2910  0.0791
 1369SOL     OW15742   4.691   0.394   2.675  0.0452 -0.1446  0.9934
 1369SOL    HW115743   4.728   0.314   2.637  0.9197  0.9919 -0.5501
 1369SOL    HW215744   4.645   0.427   2.599 -3.3049 -1.3264  2.5295
 1370SOL     OW15745   1.249   0.506  16.435  0.3466 -0.1587  0.1943
 1370SOL    HW115746   1.181   0.508  16.502 -1.6509  0.2881 -1.8336
 1370SOL    HW215747   1.288   0.594  16.436  0.3128 -0.1463  0.6418
 1371SOL     OW15748   1.626   1.586   5.859  0.2423 -0.7116  1.0188
 1371SOL    HW115749   1.673   1.576   5.776 -1.0527 -0.2267  0.2316
 1371SOL    HW215750   1.684   1.542   5.921  0.3125 -1.2488  0.5609
 1372SOL     OW15751   4.377   0.504   3.786 -0.8972 -0.7673 -0.2958
 1372SOL    HW115752   4.431   0.567   3.833 -1.7495 -1.8551  2.1422
 1372SOL    HW215753   4.412   0.428   3.832  1.1232 -0.7355 -1.8136
 1373SOL     OW15754   2.518   3.568   7.297 -0.0633  0.1456  0.1865
 1373SOL    HW115755   2.564   3.652   7.303  1.2329 -0.4176 -1.9025
 1373SOL    HW215756   2.428   3.601   7.298  0.5881  1.9309 -0.6329
 1374SOL     OW15757   0.343   4.129   6.026 -0.4031  0.1528 -0.3776
 1374SOL    HW115758   0.325   4.119   5.932 -0.0034 -1.2722 -0.2972
 1374SOL    HW215759   0.258   4.130   6.069  0.1931 -1.5064  0.8270
 1375SOL     OW15760   3.805   2.959   4.120 -0.3373  0.1576  0.4008
 1375SOL    HW115761   3.788   2.985   4.210  2.9151  0.0896  1.0404
 1375SOL    HW215762   3.810   2.866   4.142  0.4138 -0.1707 -1.1056
 1376SOL     OW15763   1.753   4.580   3.069  0.4204 -0.8102 -0.3358
 1376SOL    HW115764   1.836   4.576   3.023  0.9665 -0.4900  0.6157
 1376SOL    HW215765   1.785   4.638   3.138  0.0877 -2.0781  0.8860
 1377SOL     OW15766   2.582   1.561   5.263  0.3841 -0.2142 -0.0546
 1377SOL    HW115767   2.653   1.618   5.234  0.4165  0.7572  1.9577
 1377SOL    HW215768   2.621   1.499   5.324  0.3314 -0.3170 -0.1257
 1378SOL     OW15769   4.725   0.894   7.375  0.9820 -0.8301  0.1413
 1378SOL    HW115770   4.726   0.975   7.325  1.2313 -0.1971  1.1690
 1378SOL    HW215771   4.672   0.840   7.317  0.6057 -0.9258  0.5765
 1379SOL     OW15772   2.944   0.350  14.273 -0.6788 -0.5067 -0.2125
 1379SOL    HW115773   2.903   0.318  14.194  0.0975 -0.8476 -0.4826
 1379SOL    HW215774   3.038   0.348  14.256 -0.3319  0.4174  1.5140
 1380SOL     OW15775   3.685   2.922   7.910  0.3139  0.2414  0.4418
 1380SOL    HW115776   3.649   2.834   7.897  0.9554  0.2598 -1.5071
 1380SOL    HW215777   3.767   2.906   7.957 -0.4995 -2.7182  0.8686
 1381SOL     OW15778   0.710   3.750   9.547 -0.7980  0.1656  0.1510
 1381SOL    HW115779   0.682   3.750   9.455 -0.2157  0.3752 -0.0247
 1381SOL    HW215780   0.747   3.837   9.562  1.8045 -0.8600 -0.3479
 1382SOL     OW15781   0.254   2.733   7.401  0.4034 -0.2753  0.3686
 1382SOL    HW115782   0.243   2.679   7.480 -0.2022 -0.3112  0.2588
 1382SOL    HW215783   0.267   2.825   7.424  0.9772  0.7372 -4.0113
 1383SOL     OW15784   4.350   2.458   3.191  0.1501 -0.0883 -0.1349
 1383SOL    HW115785   4.390   2.391   3.136 -0.4541 -1.3243  0.9046
 1383SOL    HW215786   4.410   2.532   3.186  0.6493 -0.3704  1.4306
 1384SOL     OW15787   4.258   4.258   8.567  0.0120  1.0558  0.2256
 1384SOL    HW115788   4.167   4.283   8.581  0.0046 -0.4429  2.9067
 1384SOL    HW215789   4.244   4.200   8.492 -0.8248  0.8048  0.5772
 1385SOL     OW15790   3.487   3.121  10.436 -0.0872 -0.7932 -0.0890
 1385SOL    HW115791   3.526   3.208  10.440 -0.1943 -0.8004  1.2077
 1385SOL    HW215792   3.397   3.148  10.420  0.0658  0.4195  1.0628
 1386SOL     OW15793   1.812   2.466   9.484  0.0366 -0.1291 -0.3272
 1386SOL    HW115794   1.863   2.447   9.562  2.2350 -2.3097 -2.3238
 1386SOL    HW215795   1.810   2.561   9.493 -0.6089 -0.0797 -0.9401
 1387SOL     OW15796   2.081   1.152   6.478  0.2865 -0.0780  0.0753
 1387SOL    HW115797   2.032   1.179   6.400 -2.1370 -1.4013  1.1576
 1387SOL    HW215798   2.129   1.076   6.445 -0.1158  0.6172 -2.1354
 1388SOL     OW15799   1.901   1.592   4.835  0.2587 -0.1262 -0.3077
 1388SOL    HW115800   1.831   1.552   4.783 -0.4042 -1.0205  1.2792
 1388SOL    HW215801   1.977   1.558   4.787  0.2400  1.5407 -1.5414
 1389SOL     OW15802   2.881   2.158   4.654 -0.4096  0.0202 -0.2866
 1389SOL    HW115803   2.904   2.251   4.653 -0.3556  0.0278  1.8051
 1389SOL    HW215804   2.917   2.137   4.740 -0.0244  1.8314 -0.0009
 1390SOL     OW15805   0.861   1.186   6.159 -0.7165 -0.2795 -0.3303
 1390SOL    HW115806   0.876   1.147   6.245  2.2971 -0.5735 -0.9974
 1390SOL    HW215807   0.777   1.145   6.137  0.0719 -1.6255 -0.8255
 1391SOL     OW15808   1.915   3.634   0.207  0.3677  0.0180  0.6627
 1391SOL    HW115809   1.840   3.671   0.254 -0.2178 -0.5447  0.1787
 1391SOL    HW215810   1.974   3.615   0.280  0.8015 -0.2097  0.2518
 1392SOL     OW15811   0.400   2.103   7.261 -0.6497 -0.1002  0.1917
 1392SOL    HW115812   0.474   2.155   7.292  0.0503 -1.0229  0.0750
 1392SOL    HW215813   0.326   2.155   7.292 -1.2565 -1.7347  1.4984
 1393SOL     OW15814   2.151   0.407   4.238  0.3813 -0.1349 -0.6124
 1393SOL    HW115815   2.235   0.379   4.275 -0.8006  0.3576  2.4573
 1393SOL    HW215816   2.165   0.374   4.150  0.4710 -1.6471 -0.0291
 1394SOL     OW15817   3.495   1.090   7.322 -0.7457 -0.7113 -0.3773
 1394SOL    HW115818   3.446   1.030   7.378 -0.4157  0.1288  0.7998
 1394SOL    HW215819   3.549   1.027   7.274  1.7902 -0.4767  2.1675
 1395SOL     OW15820   2.185   3.577  13.156  0.2123 -0.0961 -0.0632
 1395SOL    HW115821   2.146   3.604  13.074  1.1360  0.1327 -0.4285
 1395SOL    HW215822   2.120   3.621  13.210  0.6988  0.4914  0.0361
 1396SOL     OW15823   0.069   1.338   6.694  0.2020  0.5532  0.7370
 1396SOL    HW115824   0.112   1.370   6.614  0.7955 -0.3786  0.6936
 1396SOL    HW215825   0.139   1.289   6.736 -1.2724 -1.4108  0.8932
 1397SOL     OW15826   3.267   4.383  15.365 -0.0138 -0.1479 -0.6564
 1397SOL    HW115827   3.285   4.401  15.457 -1.4528  1.8520 -0.7809
 1397SOL    HW215828   3.351   4.406  15.325  1.0061 -1.5801  0.6389
 1398SOL     OW15829   3.288   2.446  10.786 -0.0234 -0.0072  0.0384
 1398SOL    HW115830   3.370   2.427  10.742  1.2942  2.0103  1.5991
 1398SOL    HW215831   3.305   2.398  10.867  0.8467 -1.8969 -1.2882
 1399SOL     OW15832   1.802   0.690   2.861  0.1812  0.6642  0.6257
 1399SOL    HW115833   1.775   0.782   2.857  1.6789  1.1205  1.2394
 1399SOL    HW215834   1.776   0.659   2.948 -1.8697  3.2766  0.9340
 1400SOL     OW15835   2.412   2.949   8.167 -0.2638  1.0749 -0.3310
 1400SOL    HW115836   2.503   2.922   8.155 -0.6605 -0.5696  0.2638
 1400SOL    HW215837   2.392   3.023   8.110  1.1121  0.0608 -2.1340
 1401SOL     OW15838   2.570   4.171   7.824  0.0323  0.1482  0.3003
 1401SOL    HW115839   2.648   4.187   7.876 -0.5016  1.1793  0.7865
 1401SOL    HW215840   2.508   4.149   7.893 -0.3806 -2.0583 -0.7698
 1402SOL     OW15841   2.995   4.439   5.014 -0.3869 -0.8158 -0.3725
 1402SOL    HW115842   2.997   4.516   5.071  0.7748 -0.9859 -0.1760
 1402SOL    HW215843   2.900   4.426   5.012 -0.6897  1.6863 -2.8155
 1403SOL     OW15844   1.922   4.129   8.428  0.0128  0.0335 -0.2251
 1403SOL    HW115845   1.928   4.167   8.340 -1.4836  1.8134  0.4380
 1403SOL    HW215846   1.847   4.177   8.463  0.3403 -0.6860  1.4709
 1404SOL     OW15847   1.561   2.290   3.262 -0.3403 -0.2319 -0.4718
 1404SOL    HW115848   1.604   2.345   3.198  2.5490 -2.6234 -0.5679
 1404SOL    HW215849   1.552   2.210   3.211 -1.6861 -0.2587 -0.1943
 1405SOL     OW15850   2.292   0.813  12.931 -0.0977 -0.3932 -0.3925
 1405SOL    HW115851   2.328   0.789  13.017 -1.4817 -0.2562  0.2313
 1405SOL    HW215852   2.203   0.831  12.960  0.2713 -2.0542  1.7867
 1406SOL     OW15853   4.490   3.532   5.217  0.3385  0.0047  0.2122
 1406SOL    HW115854   4.584   3.514   5.217  0.3641  0.1290 -0.9484
 1406SOL    HW215855   4.455   3.452   5.256 -1.6894  1.6040  1.6602
 1407SOL     OW15856   3.378   0.447   3.876  0.9447 -0.5097 -0.2767
 1407SOL    HW115857   3.411   0.518   3.931  2.2868 -1.8025  0.6069
 1407SOL    HW215858   3.360   0.498   3.798 -1.5790  1.2963  1.4675
 1408SOL     OW15859   3.318   4.066   3.569 -0.6118  0.4537 -0.1535
 1408SOL    HW115860   3.264   4.009   3.515  0.9845 -0.8328 -0.4067
 1408SOL    HW215861   3.351   4.122   3.499 -1.0785 -0.7843 -1.3474
 1409SOL     OW15862   0.458   4.115   8.788 -0.2058  0.9594  0.3225
 1409SOL    HW115863   0.392   4.073   8.732  0.3234 -0.9160  1.0933
 1409SOL    HW215864   0.464   4.201   8.747  2.8084  0.9203  0.7185
 1410SOL     OW15865   0.333   3.899   3.821  0.6471  0.4090 -0.2476
 1410SOL    HW115866   0.374   3.973   3.775  1.4402 -1.8456 -3.1932
 1410SOL    HW215867   0.388   3.882   3.898 -1.4689  1.6153  1.5072
 1411SOL     OW15868   2.243   4.662  10.863  0.0713 -0.2434  0.0557
 1411SOL    HW115869   2.207   4.726  10.923  2.1433  0.9317  0.0510
 1411SOL    HW215870   2.231   4.581  10.913  2.7870 -1.2281 -0.8645
 1412SOL     OW15871   3.576   1.261  12.738 -0.9513  0.5136 -0.9425
 1412SOL    HW115872   3.640   1.213  12.687  0.6807  0.6123  1.0139
 1412SOL    HW215873   3.630   1.299  12.807 -1.7008  0.2746 -0.2260
 1413SOL     OW15874   0.211   0.877   0.335 -0.0411 -0.5329  0.1146
 1413SOL    HW115875   0.207   0.785   0.359 -1.8817 -0.8813 -1.4562
 1413SOL    HW215876   0.269   0.878   0.258  1.0661 -0.8410  0.9431
 1414SOL     OW15877   0.368   0.565   5.201 -0.4751 -0.0158 -0.6655
 1414SOL    HW115878   0.282   0.543   5.238 -0.6717  1.8395 -0.0209
 1414SOL    HW215879   0.348   0.619   5.125  0.0522  1.4209  0.2124
 1415SOL     OW15880   0.085   4.413   4.919  0.1034 -0.5042 -0.0175
 1415SOL    HW115881   0.175   4.446   4.923 -0.3580  0.9040 -1.2175
 1415SOL    HW215882   0.053   4.444   5.004  4.0961  0.9636  0.9444
 1416SOL     OW15883   1.340   0.391  16.711  0.9078  0.0404  0.5255
 1416SOL    HW115884   1.297   0.434  16.637 -1.2441 -1.5687  0.8376
 1416SOL    HW215885   1.261   0.371  16.762  0.5042  0.6413  0.1369
 1417SOL     OW15886   0.151   1.282   8.327  0.5946  0.0638  0.5009
 1417SOL    HW115887   0.092   1.244   8.262 -0.1540 -1.8232  2.3107
 1417SOL    HW215888   0.107   1.365   8.338 -0.3282 -0.0173 -2.5147
 1418SOL     OW15889   4.723   3.999   8.543 -0.5836 -0.5089 -0.1595
 1418SOL    HW115890   4.631   4.023   8.553 -0.4269 -0.1799  0.5277
 1418SOL    HW215891   0.018   4.068   8.483 -1.1270 -1.5474 -1.6019
 1419SOL     OW15892   2.069   3.749   6.198  0.7410  0.2181 -0.0082
 1419SOL    HW115893   2.005   3.717   6.135  0.2482 -1.0881  1.1471
 1419SOL    HW215894   2.049   3.843   6.201  2.0665  0.4105  2.5398
 1420SOL     OW15895   0.131   0.576   0.082 -0.3200 -0.2444 -0.2091
 1420SOL    HW115896   0.102   0.600   0.171  0.1691  1.2947 -0.4754
 1420SOL    HW215897   0.173   0.493   0.105 -0.6822 -0.4593 -0.3264
 1421SOL     OW15898   3.598   0.389  14.105  0.4302 -0.3141  0.0608
 1421SOL    HW115899   3.545   0.309  14.114  1.9577 -0.9575  3.3611
 1421SOL    HW215900   3.538   0.450  14.063  0.6264 -0.4349 -0.3894
 1422SOL     OW15901   2.356   3.726  14.961  0.3192  0.0369  0.0218
 1422SOL    HW115902   2.355   3.667  14.886 -1.5632  0.0526  0.0279
 1422SOL    HW215903   2.414   3.674  15.017 -1.2061 -2.2138 -0.4728
 1423SOL     OW15904   0.238   3.107  17.500 -0.2384  0.3054  0.1058
 1423SOL    HW115905   0.327   3.141  17.510 -0.5248  1.4942 -1.2685
 1423SOL    HW215906   0.195   3.189  17.476 -3.5297 -0.5982  2.8894
 1424SOL     OW15907   3.881   0.742   7.780  0.8873  0.3206 -0.2394
 1424SOL    HW115908   3.881   0.688   7.859  0.5622  2.8178  1.4581
 1424SOL    HW215909   3.870   0.824   7.828 -0.8534  0.2141 -0.4418
 1425SOL     OW15910   2.815   1.402   6.393  0.0122 -0.0477  0.4547
 1425SOL    HW115911   2.774   1.331   6.442 -0.8291 -0.3665 -0.7218
 1425SOL    HW215912   2.855   1.453   6.464 -2.1753  1.3735  0.6715
 1426SOL     OW15913   4.273   3.154   6.062 -0.0074 -0.4681  0.4163
 1426SOL    HW115914   4.240   3.240   6.035 -4.5264 -2.3478  0.0455
 1426SOL    HW215915   4.188   3.112   6.074  0.5429 -1.3874  1.1234
 1427SOL     OW15916   0.795   4.364   0.685  0.5567  0.4331  0.3764
 1427SOL    HW115917   0.704   4.392   0.690  1.5285  3.6153  0.2308
 1427SOL    HW215918   0.854   4.440   0.682  0.3574  0.5583 -0.4128
 1428SOL     OW15919   2.911   2.096   7.258  0.5588  0.6122 -0.5402
 1428SOL    HW115920   2.912   2.141   7.173 -0.1079 -0.1445 -0.9439
 1428SOL    HW215921   2.862   2.015   7.242 -0.5676  0.7939  1.9153
 1429SOL     OW15922   1.200   2.715   9.406  0.1841  0.1278  0.2956
 1429SOL    HW115923   1.277   2.772   9.400 -0.3663  0.8591  0.1084
 1429SOL    HW215924   1.191   2.694   9.313  0.8631  2.1405 -0.2394
 1430SOL     OW15925   4.277   2.397   7.511 -0.5864 -0.1619  0.5526
 1430SOL    HW115926   4.299   2.469   7.451 -0.4971  0.8743  1.8320
 1430SOL    HW215927   4.363   2.374   7.546 -0.1074  0.1477 -0.4300
 1431SOL     OW15928   1.031   1.736  16.883 -0.1894 -0.3007  0.3016
 1431SOL    HW115929   1.100   1.738  16.950 -0.7898  2.9428  0.8185
 1431SOL    HW215930   0.977   1.677  16.936 -0.3137 -0.7105 -0.2820
 1432SOL     OW15931   2.204   2.511   5.207  0.2267  0.6167  0.5028
 1432SOL    HW115932   2.189   2.452   5.281  0.6493 -1.9074 -1.4415
 1432SOL    HW215933   2.120   2.510   5.160  0.9017 -0.2018 -0.6751
 1433SOL     OW15934   2.481   0.786   9.610 -0.3658 -0.1294 -0.0193
 1433SOL    HW115935   2.566   0.823   9.586  0.3924 -2.3947 -0.7807
 1433SOL    HW215936   2.476   0.714   9.547 -3.0714 -0.3785  0.4978
 1434SOL     OW15937   1.509   3.376  10.376 -0.4066  0.2632  0.0435
 1434SOL    HW115938   1.499   3.350  10.284 -1.1745 -0.4137  0.3201
 1434SOL    HW215939   1.550   3.298  10.412 -2.4759  0.0028  1.8442
 1435SOL     OW15940   3.820   4.263   1.509 -0.2932  0.1199  0.0612
 1435SOL    HW115941   3.808   4.199   1.579 -2.3061 -0.8776 -1.1951
 1435SOL    HW215942   3.728   4.288   1.499 -0.3109  0.2430  0.5546
 1436SOL     OW15943   2.884   0.707  17.650 -0.0007  0.2418 -0.2015
 1436SOL    HW115944   2.872   0.636  17.587  1.1074  1.8662 -2.2389
 1436SOL    HW215945   2.892   0.783  17.592  0.1015 -0.4262 -1.0571
 1437SOL     OW15946   4.501   2.122   1.388  0.0010  0.2680 -0.4564
 1437SOL    HW115947   4.492   2.051   1.323  0.5671 -0.1776 -0.0508
 1437SOL    HW215948   4.567   2.174   1.343 -0.3011  2.9288  2.2487
 1438SOL     OW15949   1.543   4.735   8.531 -0.0570 -0.2702  0.4037
 1438SOL    HW115950   1.570   4.719   8.440 -1.9542  1.7152 -0.4978
 1438SOL    HW215951   1.448   0.005   8.524 -0.0630  2.0263  2.6859
 1439SOL     OW15952   0.671   4.098   5.305  0.4014  0.3347 -0.6397
 1439SOL    HW115953   0.731   4.076   5.234 -2.2886 -2.4101 -2.1001
 1439SOL    HW215954   0.586   4.116   5.265  0.6044  0.9896 -0.7739
 1440SOL     OW15955   4.352   0.542   1.555 -0.5548 -0.3806 -0.6457
 1440SOL    HW115956   4.426   0.592   1.522 -0.0004 -0.4798  0.4550
 1440SOL    HW215957   4.277   0.580   1.509 -1.2428 -0.4720  0.4010
 1441SOL     OW15958   0.770   3.192   8.726 -0.3695  0.0960  0.6736
 1441SOL    HW115959   0.808   3.133   8.791 -0.4080  0.4024  0.9754
 1441SOL    HW215960   0.711   3.126   8.690  0.8694 -1.4066  1.4120
 1442SOL     OW15961   4.560   0.561  12.074 -0.4453  0.1917  0.5849
 1442SOL    HW115962   4.492   0.498  12.097 -0.7222  0.5330  0.6997
 1442SOL    HW215963   4.572   0.609  12.156 -3.5258 -0.3344  1.3258
 1443SOL     OW15964   4.213   1.074   2.631  0.0523 -0.0676 -0.1599
 1443SOL    HW115965   4.289   1.060   2.687 -0.6725  3.5102  1.7657
 1443SOL    HW215966   4.255   1.076   2.545  0.6655  2.4983  0.1811
 1444SOL     OW15967   3.219   2.603   6.798 -0.1297 -0.2081  1.2230
 1444SOL    HW115968   3.221   2.547   6.721  0.6388  0.3379  0.8451
 1444SOL    HW215969   3.154   2.668   6.772 -1.0619 -1.4211  0.5445
 1445SOL     OW15970   0.373   2.311  14.689  0.2612 -0.1964  0.0604
 1445SOL    HW115971   0.457   2.267  14.678  0.2354 -0.2700  0.1619
 1445SOL    HW215972   0.375   2.321  14.784 -0.3126 -1.4581  0.1959
 1446SOL     OW15973   2.383   0.865   8.038 -0.1985 -0.2502 -0.1498
 1446SOL    HW115974   2.445   0.931   8.007 -0.1586 -0.6580 -0.9199
 1446SOL    HW215975   2.411   0.797   7.977  0.9139  0.3685 -0.3300
 1447SOL     OW15976   0.298   2.137  11.608  0.1993 -0.6980 -0.1344
 1447SOL    HW115977   0.234   2.196  11.648  0.2294 -1.2641  0.7281
 1447SOL    HW215978   0.306   2.182  11.523 -0.0985 -1.4557 -0.5581
 1448SOL     OW15979   1.756   3.239   9.199 -0.4258 -0.0235  0.2318
 1448SOL    HW115980   1.787   3.318   9.155 -1.7517  0.2009 -0.3058
 1448SOL    HW215981   1.713   3.272   9.277 -0.3849  2.6535 -0.8832
 1449SOL     OW15982   1.299   0.933   9.059 -0.4668  0.0905  0.4161
 1449SOL    HW115983   1.239   1.006   9.078  1.5379  1.4185  1.6739
 1449SOL    HW215984   1.324   0.917   9.150 -1.5810  0.8715  0.8757
 1450SOL     OW15985   2.344   0.419   8.567  0.1919 -1.0272 -0.0589
 1450SOL    HW115986   2.400   0.451   8.638  0.4084  0.1443 -0.7499
 1450SOL    HW215987   2.401   0.417   8.490 -0.6208 -3.0268 -0.6142
 1451SOL     OW15988   3.387   3.219   4.388 -0.3018  0.4799 -0.4135
 1451SOL    HW115989   3.370   3.126   4.405 -0.9882  0.6545 -0.1573
 1451SOL    HW215990   3.458   3.231   4.452 -2.6169  1.7805  1.9091
 1452SOL     OW15991   0.281   2.390   6.884  0.2285 -0.6816 -0.1374
 1452SOL    HW115992   0.298   2.299   6.859  0.8000 -0.2729 -1.2644
 1452SOL    HW215993   0.372   2.411   6.860  0.4677  0.9028  2.1288
 1453SOL     OW15994   1.540   3.871   9.229  0.7675  0.2343 -0.3382
 1453SOL    HW115995   1.463   3.876   9.285  0.3913  1.3254 -0.9452
 1453SOL    HW215996   1.510   3.897   9.142  0.4294  1.7983  0.2454
 1454SOL     OW15997   2.740   3.904   9.545 -0.2987 -0.1760 -0.6077
 1454SOL    HW115998   2.714   3.859   9.625  1.1532  1.1172  0.5740
 1454SOL    HW215999   2.777   3.984   9.583  0.7538 -1.2137  0.5035
 1455SOL     OW16000   0.158   4.585   8.038  0.5225 -0.0304  0.1910
 1455SOL    HW116001   0.220   4.531   8.087  0.2852  0.4467  1.0364
 1455SOL    HW216002   0.102   4.514   8.007 -0.6501  1.2206 -0.5865
 1456SOL     OW16003   0.366   2.683   7.131  0.2768 -0.3504  0.5140
 1456SOL    HW116004   0.336   2.687   7.222  1.3381 -1.4452  0.9064
 1456SOL    HW216005   0.319   2.745   7.076 -0.7454  0.2478  2.0617
 1457SOL     OW16006   1.865   4.591   5.613 -0.0716 -0.1783 -0.3729
 1457SOL    HW116007   1.820   4.610   5.696 -1.0130 -0.6820 -0.7757
 1457SOL    HW216008   1.936   4.654   5.627  0.5633 -1.0559  0.3350
 1458SOL     OW16009   1.876   4.312   9.183 -0.0078 -0.2143  0.4294
 1458SOL    HW116010   1.895   4.219   9.193 -0.9542 -0.5388 -0.7232
 1458SOL    HW216011   1.961   4.355   9.176 -0.6247  0.8171 -0.7671
 1459SOL     OW16012   3.060   0.357  12.325 -0.3858 -0.0003  0.1164
 1459SOL    HW116013   3.084   0.289  12.389  0.7787  0.1048 -0.2212
 1459SOL    HW216014   2.981   0.394  12.366  0.2741  0.8379  0.6252
 1460SOL     OW16015   0.295   1.624   2.419  0.0353  0.0911  0.9537
 1460SOL    HW116016   0.373   1.680   2.424  0.2520 -0.1455  0.1762
 1460SOL    HW216017   0.325   1.545   2.375 -0.2791  1.4894 -1.7584
 1461SOL     OW16018   2.192   1.044   8.139  0.2050 -0.7029  0.1804
 1461SOL    HW116019   2.236   0.996   8.069  0.8716  1.6048 -0.9789
 1461SOL    HW216020   2.144   1.113   8.094 -0.4453 -1.3960 -0.1840
 1462SOL     OW16021   3.821   2.692   3.469 -0.0188  0.4776  0.3629
 1462SOL    HW116022   3.811   2.645   3.387  1.9509 -1.0745  1.0110
 1462SOL    HW216023   3.892   2.752   3.445  0.9387 -0.3365  1.1230
 1463SOL     OW16024   2.736   1.219   5.139  0.4867 -0.6215  0.2113
 1463SOL    HW116025   2.729   1.237   5.232 -0.8068 -0.9504  0.1834
 1463SOL    HW216026   2.719   1.124   5.140 -0.7158 -0.4349 -1.4578
 1464SOL     OW16027   4.268   4.125   6.516  0.2378  0.2276 -0.5311
 1464SOL    HW116028   4.290   4.096   6.604 -0.7934  1.7107  0.2291
 1464SOL    HW216029   4.353   4.122   6.473  1.2246  0.4735  1.4207
 1465SOL     OW16030   3.696   3.062   7.376 -0.2158 -0.5619  0.3606
 1465SOL    HW116031   3.615   3.031   7.415  0.0286  1.3354  2.4157
 1465SOL    HW216032   3.765   3.008   7.415  1.2553  1.7347  0.9768
 1466SOL     OW16033   0.910   0.963   1.217 -0.4454  0.7610  0.0195
 1466SOL    HW116034   0.884   0.872   1.233  0.3145  0.2865 -1.4429
 1466SOL    HW216035   1.004   0.957   1.203 -0.9936  0.4810 -3.6470
 1467SOL     OW16036   1.564   1.969  13.687  0.6922  0.1596 -0.1239
 1467SOL    HW116037   1.569   1.907  13.614 -0.6170  0.8808 -0.8225
 1467SOL    HW216038   1.487   2.017  13.655 -0.2834 -0.3470  1.4961
 1468SOL     OW16039   1.182   2.066   2.242 -0.2763  0.4021 -0.7524
 1468SOL    HW116040   1.176   1.992   2.181  1.4870 -1.5487  1.4479
 1468SOL    HW216041   1.190   2.142   2.186 -0.7170  0.9206 -0.1065
 1469SOL     OW16042   0.655   0.398   5.986 -0.3375 -0.3586  0.4885
 1469SOL    HW116043   0.725   0.403   5.920  0.6341 -0.9900  1.4631
 1469SOL    HW216044   0.655   0.304   6.007  0.1403 -0.6656 -0.8830
 1470SOL     OW16045   2.237   3.222  16.528 -0.6848  0.5777  0.2833
 1470SOL    HW116046   2.298   3.212  16.455 -1.6456 -1.2359 -0.2533
 1470SOL    HW216047   2.282   3.289  16.580  0.8950  0.2822 -0.7324
 1471SOL     OW16048   4.708   4.698  13.929 -0.0672 -0.1367 -0.2884
 1471SOL    HW116049   4.656   4.700  14.009 -1.3507 -2.0764 -1.0614
 1471SOL    HW216050   0.019   0.047  13.933 -2.6991  1.2803  0.3793
 1472SOL     OW16051   1.321   3.311   7.097  0.4072 -0.1580 -0.0969
 1472SOL    HW116052   1.350   3.236   7.046 -1.1018 -0.0970 -1.0660
 1472SOL    HW216053   1.392   3.369   7.070  0.3063  0.0441  0.0758
 1473SOL     OW16054   4.729   1.954  12.338 -0.7513 -0.6865  0.8758
 1473SOL    HW116055   4.675   1.900  12.396 -0.6050 -3.4312 -1.5618
 1473SOL    HW216056   0.012   1.895  12.265  2.3409  2.4774 -0.9590
 1474SOL     OW16057   0.593   3.013   8.608 -0.1048  0.0626 -0.5964
 1474SOL    HW116058   0.567   2.927   8.639  2.6725 -0.8829 -0.9075
 1474SOL    HW216059   0.512   3.059   8.588  0.5396  1.4205 -0.1170
 1475SOL     OW16060   0.162   0.520   7.464 -0.3165  0.1381 -0.0723
 1475SOL    HW116061   0.090   0.457   7.467  0.1472 -0.3294  1.7128
 1475SOL    HW216062   0.136   0.569   7.386  0.1346  0.8393  0.2161
 1476SOL     OW16063   3.603   2.546   2.050 -0.1978 -0.3182 -0.1932
 1476SOL    HW116064   3.528   2.599   2.023  0.7206  1.1391  0.1144
 1476SOL    HW216065   3.560   2.465   2.078 -0.2326  0.4461  1.9721
 1477SOL     OW16066   2.765   3.676   5.184  0.6734  0.1721 -0.0223
 1477SOL    HW116067   2.702   3.633   5.126  0.4604 -0.3208  0.5677
 1477SOL    HW216068   2.847   3.653   5.139  1.0785  0.5640  0.5222
 1478SOL     OW16069   4.687   1.473  10.441 -0.1999  0.3444  0.6766
 1478SOL    HW116070   4.697   1.545  10.503 -1.2635  0.7067  0.4301
 1478SOL    HW216071   4.671   1.517  10.357  2.6195  2.3255  1.1599
 1479SOL     OW16072   1.234   3.165   4.716 -0.3278 -0.4405 -1.1473
 1479SOL    HW116073   1.163   3.177   4.652  0.0274 -0.6779 -1.5858
 1479SOL    HW216074   1.285   3.245   4.712  0.5883 -0.9144  1.1739
 1480SOL     OW16075   2.096   3.513   8.902 -0.3575  0.0219  0.2057
 1480SOL    HW116076   2.013   3.464   8.901  1.0321 -2.3426  1.1709
 1480SOL    HW216077   2.074   3.589   8.849 -0.2246 -1.4347 -1.9251
 1481SOL     OW16078   4.201   3.840   7.403 -0.1596  0.2190  0.2255
 1481SOL    HW116079   4.265   3.790   7.352 -3.1848 -2.7572 -0.6174
 1481SOL    HW216080   4.262   3.868   7.472  0.7340  0.1480 -0.5304
 1482SOL     OW16081   4.498   0.843   5.471  0.4668 -0.5135 -0.5487
 1482SOL    HW116082   4.497   0.876   5.561  0.9634  0.5792 -0.9389
 1482SOL    HW216083   4.413   0.866   5.433 -0.0295 -0.1615  0.7927
 1483SOL     OW16084   2.746   0.384  15.281 -0.0600 -0.1903  0.3764
 1483SOL    HW116085   2.763   0.290  15.293  0.4566  0.2562  3.1934
 1483SOL    HW216086   2.693   0.410  15.357  2.9942  1.1293  2.0185
 1484SOL     OW16087   1.025   4.175   2.655  0.3936  0.5101  0.3620
 1484SOL    HW116088   0.978   4.257   2.642  1.5938  1.1782  0.1973
 1484SOL    HW216089   1.020   4.141   2.565  0.7532 -1.3610  1.0450
 1485SOL     OW16090   0.555   4.306   7.909  0.2039  0.0449 -0.0899
 1485SOL    HW116091   0.483   4.361   7.939 -0.9625 -0.8451 -1.2636
 1485SOL    HW216092   0.566   4.341   7.820 -0.3542  1.2722  0.3202
 1486SOL     OW16093   2.587   1.933   0.581  0.0426  0.0001 -0.4909
 1486SOL    HW116094   2.631   1.927   0.666  0.2921 -1.0594 -0.6982
 1486SOL    HW216095   2.663   1.967   0.532  0.7165  1.0064  1.2598
 1487SOL     OW16096   3.803   4.045   2.143 -0.8762  0.0229 -0.6806
 1487SOL    HW116097   3.744   4.030   2.068 -2.7539  1.0339  0.5807
 1487SOL    HW216098   3.864   4.111   2.110  0.3749  0.7769  3.1071
 1488SOL     OW16099   1.245   3.693   0.269  0.1903 -0.1400 -0.5862
 1488SOL    HW116100   1.162   3.669   0.227  0.0304 -0.9313  0.1860
 1488SOL    HW216101   1.289   3.610   0.250  0.6356 -0.3717  1.4678
 1489SOL     OW16102   0.806   2.824   5.070  0.1710  0.2055  0.0339
 1489SOL    HW116103   0.713   2.802   5.073  0.5910 -1.6248 -0.5105
 1489SOL    HW216104   0.790   2.919   5.073 -0.3274  0.0668  1.5550
 1490SOL     OW16105   4.327   2.357   0.075  0.3263 -0.1705 -0.0880
 1490SOL    HW116106   4.309   2.447   0.102  1.1146 -0.3646  1.0828
 1490SOL    HW216107   4.422   2.361   0.073  0.2414  1.5355 -0.7976
 1491SOL     OW16108   2.430   1.044   1.694  0.4243 -0.6497  0.2425
 1491SOL    HW116109   2.390   1.115   1.743  1.9518  0.3407  0.0479
 1491SOL    HW216110   2.474   1.093   1.624  1.6267  0.3919  1.7370
 1492SOL     OW16111   4.017   0.977   8.722 -0.3269 -0.0273  0.5815
 1492SOL    HW116112   3.932   0.964   8.764 -1.3417  0.1688 -1.4089
 1492SOL    HW216113   4.061   0.894   8.740 -2.5147 -1.3360 -0.1112
 1493SOL     OW16114   2.070   0.065   4.456 -0.7622  0.1872  0.1439
 1493SOL    HW116115   2.140   0.066   4.390 -0.6059 -1.0174  0.2907
 1493SOL    HW216116   1.988   0.080   4.409 -0.8428 -0.0959  0.1938
 1494SOL     OW16117   0.449   1.158   9.392 -0.9983 -0.3552 -0.0515
 1494SOL    HW116118   0.522   1.098   9.409 -0.1392  0.8096  0.3867
 1494SOL    HW216119   0.484   1.247   9.404 -2.1996  0.4359 -2.4559
 1495SOL     OW16120   0.922   4.488   4.702 -0.0883 -0.7097 -0.4479
 1495SOL    HW116121   0.894   4.577   4.683  0.9601 -0.5004 -0.9582
 1495SOL    HW216122   0.834   4.457   4.725 -0.8216  2.2729  0.7315
 1496SOL     OW16123   1.578   0.653  11.053 -0.2865 -0.2328  0.0609
 1496SOL    HW116124   1.597   0.688  11.140  1.5212  0.8316 -0.7533
 1496SOL    HW216125   1.565   0.731  10.999 -0.5969 -0.3370 -0.0105
 1497SOL     OW16126   0.269   2.592   2.414  0.3950  0.1619 -0.0362
 1497SOL    HW116127   0.204   2.532   2.452  2.2200 -2.9482 -1.8594
 1497SOL    HW216128   0.312   2.622   2.495  2.0608  0.1503 -0.9203
 1498SOL     OW16129   4.402   0.465  10.335  0.0798  0.6397  0.4803
 1498SOL    HW116130   4.412   0.463  10.430 -1.1248  2.0654  0.6323
 1498SOL    HW216131   4.489   0.434  10.310 -0.9165 -0.6923 -1.3618
 1499SOL     OW16132   2.605   2.607   8.499 -0.0742  0.1370  0.1446
 1499SOL    HW116133   2.654   2.686   8.475  0.2219 -0.5298 -1.4623
 1499SOL    HW216134   2.526   2.641   8.540 -0.6973  1.1530 -1.8808
 1500SOL     OW16135   0.305   2.375  14.430 -0.1939 -0.0230  0.1787
 1500SOL    HW116136   0.384   2.391  14.378 -0.1783 -0.1348  0.1683
 1500SOL    HW216137   0.336   2.369  14.521 -2.5079 -1.1595  0.8758
 1501SOL     OW16138   1.891   1.215   8.609  0.5676  0.3505 -0.3438
 1501SOL    HW116139   1.936   1.183   8.532 -1.8495 -1.0271 -1.1840
 1501SOL    HW216140   1.881   1.133   8.658 -0.5024 -0.2467 -1.5571
 1502SOL     OW16141   0.073   3.598   8.578  0.2977 -0.2135 -0.4767
 1502SOL    HW116142   0.043   3.507   8.589 -1.0566  0.2760 -0.0687
 1502SOL    HW216143   0.056   3.600   8.484  0.7422 -0.0224 -0.5522
 1503SOL     OW16144   4.631   1.038   5.694 -0.2285  0.1166  0.0829
 1503SOL    HW116145   4.622   1.063   5.786 -0.5548  0.1916  0.0334
 1503SOL    HW216146   4.537   1.038   5.673 -0.1644 -0.8005 -0.2275
 1504SOL     OW16147   0.526   3.811  10.058 -0.2038  0.3148  0.0031
 1504SOL    HW116148   0.431   3.814  10.048 -0.2429 -2.0956 -0.3600
 1504SOL    HW216149   0.540   3.755  10.134 -0.6241  3.0432  2.1110
 1505SOL     OW16150   3.942   0.329   7.260  0.0761 -0.0549 -0.0128
 1505SOL    HW116151   3.953   0.414   7.304  1.1255 -1.1837  1.9138
 1505SOL    HW216152   3.945   0.353   7.168 -1.2893  0.1033 -0.0149
 1506SOL     OW16153   0.690   0.469   4.651 -0.1764  0.1009 -0.1129
 1506SOL    HW116154   0.688   0.528   4.575  2.2631  0.7225  0.3057
 1506SOL    HW216155   0.752   0.399   4.628 -0.3196 -0.4017  1.0166
 1507SOL     OW16156   0.885   2.598   6.592  0.1848 -0.1349  0.3849
 1507SOL    HW116157   0.963   2.634   6.634 -0.8261  2.0767  0.3537
 1507SOL    HW216158   0.854   2.666   6.532  1.0847  1.0630  1.2677
 1508SOL     OW16159   2.171   2.012   7.359 -0.1022 -0.8648 -0.1145
 1508SOL    HW116160   2.151   2.075   7.428 -2.9015 -2.3067  0.3544
 1508SOL    HW216161   2.151   2.056   7.276  0.2508 -3.9616 -1.8749
 1509SOL     OW16162   3.842   0.398   8.739  0.3786  0.4722  0.3968
 1509SOL    HW116163   3.766   0.447   8.709 -0.0439  1.9901  3.9366
 1509SOL    HW216164   3.802   0.316   8.769 -1.3540  1.3366  0.4185
 1510SOL     OW16165   1.677   0.439   4.339 -0.3978  0.2213  0.3692
 1510SOL    HW116166   1.770   0.461   4.334 -0.0089 -1.6106 -0.4245
 1510SOL    HW216167   1.628   0.512   4.300 -0.8359  0.5742  1.5790
 1511SOL     OW16168   0.240   1.222   5.646 -0.0460  0.2394 -0.0211
 1511SOL    HW116169   0.206   1.212   5.735 -0.4284  1.8464  0.0145
 1511SOL    HW216170   0.203   1.308   5.624 -0.6437  0.3662  1.5245
 1512SOL     OW16171   2.975   0.860   5.585 -0.1561 -0.0916 -0.0810
 1512SOL    HW116172   2.984   0.886   5.493  0.4278 -0.9608 -0.2666
 1512SOL    HW216173   3.063   0.826   5.602 -1.2400 -2.7230  0.3350
 1513SOL     OW16174   1.445   0.275  11.764  0.3764 -0.1929 -0.2746
 1513SOL    HW116175   1.414   0.263  11.854 -1.6892  2.8748 -0.5379
 1513SOL    HW216176   1.405   0.198  11.724  0.8564 -1.2398  1.2882
 1514SOL     OW16177   1.108   2.047   0.760 -0.6835  0.4935 -0.0492
 1514SOL    HW116178   1.200   2.074   0.765  0.5020 -3.5562  0.3243
 1514SOL    HW216179   1.074   2.095   0.684  1.2463 -1.6063 -2.2641
 1515SOL     OW16180   0.664   1.945  10.435 -0.0237  0.1667 -1.0677
 1515SOL    HW116181   0.739   1.898  10.397 -0.2257  0.2773 -1.6049
 1515SOL    HW216182   0.683   1.913  10.523 -0.5145  1.3583 -0.5305
 1516SOL     OW16183   2.488   2.324   4.604 -0.0611  0.0897  0.6959
 1516SOL    HW116184   2.476   2.410   4.562 -0.7177 -1.1650 -1.6751
 1516SOL    HW216185   2.561   2.337   4.664  0.4398 -2.2529  0.5894
 1517SOL     OW16186   4.473   3.243   9.307 -0.4231 -0.0747 -0.6109
 1517SOL    HW116187   4.438   3.166   9.353 -0.7057  0.1983 -0.3726
 1517SOL    HW216188   4.420   3.318   9.334 -0.1769 -0.6854  1.6214
 1518SOL     OW16189   3.893   2.241   4.273 -0.0272 -0.0396  0.0696
 1518SOL    HW116190   3.813   2.229   4.222 -0.6302  2.7702  0.3781
 1518SOL    HW216191   3.941   2.304   4.220 -0.3275  0.1227 -0.0053
 1519SOL     OW16192   2.772   1.810  12.723 -0.0212  1.0315 -0.1574
 1519SOL    HW116193   2.823   1.781  12.647 -1.6233 -1.0162 -0.4461
 1519SOL    HW216194   2.843   1.836  12.782 -0.2976  0.1616  0.5460
 1520SOL     OW16195   3.703   2.226  10.689 -0.1239 -0.0269 -0.2075
 1520SOL    HW116196   3.654   2.304  10.716  1.2162  0.5618  0.5137
 1520SOL    HW216197   3.639   2.192  10.626 -0.2739 -1.6509  0.8238
 1521SOL     OW16198   1.447   1.276   7.843 -0.1379  0.0691  0.2624
 1521SOL    HW116199   1.419   1.230   7.764 -0.7224 -3.5589  2.5768
 1521SOL    HW216200   1.453   1.368   7.819 -1.3912 -0.2785 -1.4245
 1522SOL     OW16201   0.450   2.197  12.531  0.2019 -0.3901 -0.4143
 1522SOL    HW116202   0.491   2.278  12.501  2.9606 -1.5289  0.2056
 1522SOL    HW216203   0.380   2.240  12.580  1.3806 -2.9002  3.5509
 1523SOL     OW16204   0.604   1.875   2.723 -0.0113  0.2794 -0.4119
 1523SOL    HW116205   0.561   1.838   2.800  1.6668 -1.5317 -0.3431
 1523SOL    HW216206   0.690   1.892   2.761 -0.3316  1.0839 -0.0462
 1524SOL     OW16207   3.521   4.452   4.548  0.2686  0.0316 -0.6564
 1524SOL    HW116208   3.471   4.371   4.536 -0.5630  0.4130  0.3508
 1524SOL    HW216209   3.493   4.482   4.634  0.1123 -1.0240 -0.3365
 1525SOL     OW16210   0.415   1.372   7.824 -0.0415  0.3802  0.3943
 1525SOL    HW116211   0.407   1.346   7.732  0.5510 -0.6415  0.6283
 1525SOL    HW216212   0.324   1.391   7.845 -0.3645  0.8566 -1.3914
 1526SOL     OW16213   3.143   0.549   7.994 -0.0044 -0.5438 -0.3319
 1526SOL    HW116214   3.092   0.526   8.072 -1.3909  1.5810 -0.6189
 1526SOL    HW216215   3.228   0.535   8.035 -0.3005  0.5797  0.6490
 1527SOL     OW16216   2.805   4.707  15.692  0.0436 -0.1799 -0.3590
 1527SOL    HW116217   2.878   4.715  15.632  0.7420 -0.5503  0.4433
 1527SOL    HW216218   2.824   0.044  15.752 -0.3329 -0.6283  0.3001
 1528SOL     OW16219   0.873   3.835   2.117  0.6994  0.3283 -0.7179
 1528SOL    HW116220   0.807   3.867   2.055 -0.1724 -0.5757 -0.2529
 1528SOL    HW216221   0.823   3.821   2.197  0.2369  0.6594 -0.9540
 1529SOL     OW16222   1.349   1.415  15.035  0.8303  0.5860 -0.1356
 1529SOL    HW116223   1.362   1.423  15.130  1.6275  0.1109 -0.2013
 1529SOL    HW216224   1.322   1.323  15.037 -0.7671  1.0177 -2.1036
 1530SOL     OW16225   1.332   3.279  13.686 -0.1504 -0.0841  0.4635
 1530SOL    HW116226   1.318   3.316  13.773  0.8910  1.8885 -0.1906
 1530SOL    HW216227   1.334   3.188  13.714 -0.9313  0.3069  1.7690
 1531SOL     OW16228   1.239   1.888   5.903  0.4440 -0.1899 -0.4933
 1531SOL    HW116229   1.326   1.877   5.941  0.3198 -1.0744 -0.4622
 1531SOL    HW216230   1.195   1.947   5.964  2.3205  0.0484  0.6322
 1532SOL     OW16231   2.844   0.983   3.737  0.4461 -0.0873  0.2494
 1532SOL    HW116232   2.781   0.975   3.665 -1.2854 -1.0260  1.8718
 1532SOL    HW216233   2.923   1.008   3.689  1.2065  0.1137  1.6121
 1533SOL     OW16234   3.493   0.805   5.602 -0.1364 -0.2357  0.5424
 1533SOL    HW116235   3.408   0.765   5.621 -1.9296  3.7285  0.8951
 1533SOL    HW216236   3.466   0.868   5.535  0.7169 -1.2849 -0.7739
 1534SOL     OW16237   2.658   3.953   2.068  0.2728 -0.6642 -0.1050
 1534SOL    HW116238   2.599   3.892   2.112 -0.2555  1.2991  1.9189
 1534SOL    HW216239   2.737   3.931   2.118  0.0797  1.2690  1.0645
 1535SOL     OW16240   1.793   3.101   1.024 -0.1006  0.1631  0.1738
 1535SOL    HW116241   1.699   3.090   1.011 -0.2098  0.1472  1.0217
 1535SOL    HW216242   1.804   3.142   0.938 -0.7116  0.5988  0.3014
 1536SOL     OW16243   3.782   2.653  15.603 -0.3632 -0.1990 -0.4020
 1536SOL    HW116244   3.813   2.699  15.681  0.1439 -1.6222  0.2376
 1536SOL    HW216245   3.822   2.707  15.534  1.0418  1.3072  1.6045
 1537SOL     OW16246   4.671   3.752   3.607 -0.4415 -0.0192  0.4545
 1537SOL    HW116247   4.670   3.747   3.703  0.5559 -3.5485  0.2846
 1537SOL    HW216248   4.614   3.826   3.587  0.0746  0.1944 -0.2133
 1538SOL     OW16249   2.188   0.616   5.974 -0.2144  0.7078  0.3269
 1538SOL    HW116250   2.107   0.646   6.014 -0.6203  0.8498 -0.5853
 1538SOL    HW216251   2.216   0.550   6.037 -2.4030 -1.1111 -0.6010
 1539SOL     OW16252   4.062   0.680  11.857 -0.4864 -0.2320 -0.9771
 1539SOL    HW116253   4.066   0.606  11.796 -0.4302 -0.6522 -0.4656
 1539SOL    HW216254   3.997   0.651  11.920 -0.0133 -0.5675 -0.6439
 1540SOL     OW16255   0.037   1.686  14.979 -0.2675  0.0658  0.0984
 1540SOL    HW116256   4.710   1.657  14.913 -0.0372 -0.1748 -0.0136
 1540SOL    HW216257   0.110   1.711  14.922 -0.9716  0.3555 -0.6866
 1541SOL     OW16258   4.316   3.814   5.446 -0.0416 -0.1945  0.0006
 1541SOL    HW116259   4.300   3.723   5.470 -0.2470 -0.7176 -2.1460
 1541SOL    HW216260   4.299   3.862   5.528  0.2393 -2.6362  1.5027
 1542SOL     OW16261   0.353   0.932   4.763 -0.2652  0.2736  0.6552
 1542SOL    HW116262   0.402   1.011   4.787  0.8427 -0.8267  2.0170
 1542SOL    HW216263   0.419   0.889   4.708 -0.5423 -1.0327  1.3554
 1543SOL     OW16264   0.965   1.457   8.225  0.5819 -0.1026 -0.5641
 1543SOL    HW116265   0.995   1.440   8.314  1.4966 -2.3347 -1.2919
 1543SOL    HW216266   0.909   1.381   8.207 -0.6222  1.1107 -1.8933
 1544SOL     OW16267   2.361   3.485   2.682  0.2973  0.1115 -0.0599
 1544SOL    HW116268   2.440   3.445   2.720  0.8134  1.2544  0.0915
 1544SOL    HW216269   2.295   3.422   2.709  0.6940 -1.1951 -2.1313
 1545SOL     OW16270   1.225   3.461   8.020  0.2824  0.4774  0.3399
 1545SOL    HW116271   1.165   3.406   7.971  0.4677 -0.4561  1.1726
 1545SOL    HW216272   1.232   3.415   8.103 -0.4481  1.2041  0.8041
 1546SOL     OW16273   3.287   0.752   5.866  0.1689  0.2924  0.3781
 1546SOL    HW116274   3.348   0.699   5.816  0.9009  1.8097 -0.3306
 1546SOL    HW216275   3.264   0.684   5.930 -2.2397  0.1473 -0.6248
 1547SOL     OW16276   3.580   2.023  12.765 -0.2850  0.2493 -0.5805
 1547SOL    HW116277   3.573   2.094  12.701 -1.3556 -1.1771 -2.0672
 1547SOL    HW216278   3.666   1.995  12.734  0.0075  1.0223 -0.4551
 1548SOL     OW16279   1.250   4.554   6.321  0.1872  0.9968 -0.0764
 1548SOL    HW116280   1.333   4.566   6.367  0.1573 -0.3734  0.3413
 1548SOL    HW216281   1.226   4.641   6.288 -0.1467  0.9841  0.1303
 1549SOL     OW16282   3.845   2.634   3.756  0.3986 -0.1191  0.1892
 1549SOL    HW116283   3.817   2.700   3.819 -1.6690 -0.7653 -0.0471
 1549SOL    HW216284   3.827   2.666   3.668 -0.1450  0.3106  0.4542
 1550SOL     OW16285   3.633   1.929   8.644 -0.2313 -0.1618 -0.3456
 1550SOL    HW116286   3.728   1.925   8.655 -0.3751  0.2337  1.0704
 1550SOL    HW216287   3.627   1.879   8.562 -3.5117  1.3649 -1.0388
 1551SOL     OW16288   4.448   1.605  15.299 -0.6302  0.4749  0.6362
 1551SOL    HW116289   4.515   1.673  15.290 -1.5489  1.4044  0.7174
 1551SOL    HW216290   4.441   1.582  15.207  2.9585 -0.1856  0.5504
 1552SOL     OW16291   0.169   0.371   1.931 -0.4357 -0.2804  0.3480
 1552SOL    HW116292   0.235   0.422   1.977  0.4708 -0.4557 -0.7836
 1552SOL    HW216293   0.215   0.288   1.945 -1.2091 -0.5674  1.2548
 1553SOL     OW16294   0.574   1.876   5.012  0.0209  0.0641  0.0788
 1553SOL    HW116295   0.615   1.942   4.956  0.5553  0.5078  1.0003
 1553SOL    HW216296   0.614   1.890   5.098 -0.9286  1.6323  0.2796
 1554SOL     OW16297   3.218   1.536   6.747  0.8655  0.0609  0.2146
 1554SOL    HW116298   3.158   1.582   6.688 -0.4289 -1.4202  0.3498
 1554SOL    HW216299   3.152   1.471   6.773  0.0158  2.0330  2.9881
 1555SOL     OW16300   0.109   2.672  13.996  0.2266 -0.3012 -0.2480
 1555SOL    HW116301   0.044   2.643  14.060 -0.7400  0.2020 -0.9981
 1555SOL    HW216302   0.083   2.761  13.973  0.7020 -0.6436 -2.1307
 1556SOL     OW16303   2.939   0.864   2.833 -0.7107  0.3499  0.0600
 1556SOL    HW116304   2.844   0.880   2.834 -1.2224 -2.6472  1.5311
 1556SOL    HW216305   2.960   0.858   2.740 -0.7808  0.0127  0.0654
 1557SOL     OW16306   4.236   4.119  10.133 -0.3519  0.4273 -0.4395
 1557SOL    HW116307   4.285   4.037  10.127  0.8782  1.0495  0.9502
 1557SOL    HW216308   4.158   4.084  10.175  0.3761 -1.8544 -0.9578
 1558SOL     OW16309   2.782   4.349   0.342 -0.3530  0.3056 -0.3413
 1558SOL    HW116310   2.702   4.355   0.290 -1.5582 -1.0701  1.3605
 1558SOL    HW216311   2.845   4.394   0.285 -0.7404  1.0298 -0.1880
 1559SOL     OW16312   2.253   1.400   6.451 -0.1295 -0.2085 -0.4029
 1559SOL    HW116313   2.173   1.356   6.422 -0.0915  0.2514 -1.2075
 1559SOL    HW216314   2.309   1.384   6.375 -0.3182  1.8213 -0.9639
 1560SOL     OW16315   0.575   0.968  11.210 -0.4877  0.0509 -0.0291
 1560SOL    HW116316   0.652   0.925  11.173 -1.2033 -0.4007 -0.9910
 1560SOL    HW216317   0.522   0.890  11.220 -0.7703  0.3826  1.0702
 1561SOL     OW16318   2.793   0.595   3.821  0.0760 -0.1545 -0.2136
 1561SOL    HW116319   2.838   0.512   3.835 -0.6147 -0.3273  1.0019
 1561SOL    HW216320   2.714   0.577   3.872  0.5524  0.9744  0.9140
 1562SOL     OW16321   1.138   0.083   6.831 -0.2687 -0.0928  0.3973
 1562SOL    HW116322   1.072   0.097   6.899  1.1071  0.9134  1.5360
 1562SOL    HW216323   1.218   0.061   6.879 -0.2562 -1.4776 -0.2691
 1563SOL     OW16324   1.382   0.873   0.464 -0.5372 -0.5781  1.1454
 1563SOL    HW116325   1.322   0.943   0.488 -0.4077  0.0151 -0.2681
 1563SOL    HW216326   1.322   0.810   0.425  0.4044 -1.4251  1.0670
 1564SOL     OW16327   0.271   2.076   7.646  0.4385  0.0016  0.2524
 1564SOL    HW116328   0.356   2.120   7.639  0.4005  0.2763  1.5012
 1564SOL    HW216329   0.248   2.066   7.738 -2.6894  1.3313 -0.4046
 1565SOL     OW16330   0.798   1.167  16.318  0.3170 -0.0845 -0.3762
 1565SOL    HW116331   0.782   1.238  16.379 -2.3843 -1.1995  0.2239
 1565SOL    HW216332   0.850   1.204  16.247 -0.4796 -0.5937 -1.2207
 1566SOL     OW16333   4.648   1.197   2.824 -0.0916  0.0371 -0.1040
 1566SOL    HW116334   4.701   1.217   2.901 -0.5793  1.3715 -0.1175
 1566SOL    HW216335   4.719   1.220   2.765  0.1831 -1.1102 -0.2343
 1567SOL     OW16336   0.944   3.295  11.733  0.1768  0.5616  0.0208
 1567SOL    HW116337   0.949   3.367  11.670 -2.1661  2.2314  1.7273
 1567SOL    HW216338   0.987   3.350  11.800 -0.9228  1.1146  0.2786
 1568SOL     OW16339   2.379   3.414   1.827  0.5943  0.2663 -0.0457
 1568SOL    HW116340   2.421   3.328   1.833 -3.1987 -1.6316 -0.1629
 1568SOL    HW216341   2.423   3.441   1.747  0.6366  1.6972  0.4646
 1569SOL     OW16342   3.585   1.352  13.564  0.1169  0.3094 -0.3469
 1569SOL    HW116343   3.531   1.274  13.560  1.2291 -0.4745 -0.1332
 1569SOL    HW216344   3.523   1.421  13.539 -1.0081 -0.5403  0.1337
 1570SOL     OW16345   1.751   1.153   3.664 -0.2635 -0.4490 -0.4213
 1570SOL    HW116346   1.703   1.108   3.734  1.4178  0.1662  1.1359
 1570SOL    HW216347   1.839   1.165   3.701 -1.5524 -0.2099  2.5167
 1571SOL     OW16348   4.514   3.765   1.429  0.3605  0.2060  0.1735
 1571SOL    HW116349   4.603   3.791   1.402  0.2497  0.8637  0.4314
 1571SOL    HW216350   4.520   3.812   1.512  1.2880  1.2939 -0.4900
 1572SOL     OW16351   3.986   1.010  15.521  0.3373  0.3978 -0.4186
 1572SOL    HW116352   3.986   1.068  15.597 -2.3125 -1.6117  1.1237
 1572SOL    HW216353   4.056   0.947  15.533  1.4696  1.7558  0.1246
 1573SOL     OW16354   0.977   1.089   6.412  0.5801  0.1836  0.5400
 1573SOL    HW116355   0.999   1.022   6.478 -1.4741  0.0753  1.1050
 1573SOL    HW216356   1.052   1.065   6.357  0.6968  0.1936  0.6939
 1574SOL     OW16357   2.175   3.079   6.239  0.3865  0.3950  0.0369
 1574SOL    HW116358   2.207   3.000   6.284  0.9451  0.0860 -0.9112
 1574SOL    HW216359   2.128   3.040   6.166 -1.4459 -0.6526  1.7847
 1575SOL     OW16360   3.539   3.460   3.719  0.3592  0.1908  0.0909
 1575SOL    HW116361   3.492   3.381   3.693  3.4755 -1.5745 -0.0224
 1575SOL    HW216362   3.568   3.483   3.631  0.4152 -0.0892  0.0368
 1576SOL     OW16363   4.346   0.378   2.048  0.0624  0.0119 -0.2644
 1576SOL    HW116364   4.390   0.378   1.963  0.7729  2.2571  0.1109
 1576SOL    HW216365   4.414   0.349   2.109 -0.7753 -1.7929 -0.1997
 1577SOL     OW16366   2.167   0.188   9.002  0.4719 -0.2166 -0.1710
 1577SOL    HW116367   2.248   0.198   8.952  0.3281 -0.0671 -0.3725
 1577SOL    HW216368   2.133   0.275   8.983 -0.2345 -0.8064 -1.6665
 1578SOL     OW16369   2.463   3.103   4.735  0.4304 -0.2310 -0.5372
 1578SOL    HW116370   2.502   3.155   4.805  0.2221  1.4171 -1.6605
 1578SOL    HW216371   2.518   3.025   4.736  0.1394 -0.4212  1.8673
 1579SOL     OW16372   3.712   2.367  12.101 -0.2158 -0.0654 -0.3700
 1579SOL    HW116373   3.791   2.359  12.047 -1.0861  0.0231 -1.6415
 1579SOL    HW216374   3.698   2.273  12.115  2.2637 -0.2020  1.2111
 1580SOL     OW16375   0.444   3.259   4.124 -0.1588 -0.6176  0.0413
 1580SOL    HW116376   0.358   3.274   4.162  1.3755  3.7161  1.7933
 1580SOL    HW216377   0.500   3.330   4.155 -0.6125  0.1309 -0.8456
 1581SOL     OW16378   2.687   0.294   0.431 -0.1874  0.2543  0.1176
 1581SOL    HW116379   2.729   0.217   0.393  2.5433  2.4536 -1.3195
 1581SOL    HW216380   2.660   0.265   0.518 -1.6280  0.0915 -0.3770
 1582SOL     OW16381   1.364   0.539  11.775  0.2657 -0.4104 -0.0498
 1582SOL    HW116382   1.398   0.453  11.798  2.4942  0.1406 -1.2810
 1582SOL    HW216383   1.417   0.602  11.824 -0.5199  0.5422 -0.4158
 1583SOL     OW16384   2.971   0.063   9.663 -0.0467  1.2697  0.2183
 1583SOL    HW116385   2.908   0.067   9.735  0.0882 -0.8263  0.4454
 1583SOL    HW216386   2.964   4.704   9.645  1.1954  1.4383 -1.1368
 1584SOL     OW16387   1.669   4.379   4.541 -0.0694 -0.1055  0.2041
 1584SOL    HW116388   1.734   4.412   4.479 -1.6904  0.2252 -1.3251
 1584SOL    HW216389   1.718   4.345   4.616 -0.6563 -1.8813 -0.2213
 1585SOL     OW16390   2.878   0.886   8.479  0.0435 -0.1870 -0.0865
 1585SOL    HW116391   2.869   0.950   8.550 -0.9744 -0.9215  0.4378
 1585SOL    HW216392   2.811   0.918   8.419  2.5854  0.1495 -2.7755
 1586SOL     OW16393   2.063   3.147   7.390  0.1512 -0.5992  0.3073
 1586SOL    HW116394   2.037   3.076   7.449  1.3920 -2.7183 -1.6949
 1586SOL    HW216395   1.974   3.176   7.369  0.5041  0.4561  0.2907
 1587SOL     OW16396   1.291   0.475   0.708 -0.0879  0.1875 -0.0453
 1587SOL    HW116397   1.249   0.396   0.674  1.4727 -0.0132 -1.4836
 1587SOL    HW216398   1.221   0.540   0.719  0.0645  0.8122 -2.7875
 1588SOL     OW16399   1.135   3.710   7.165 -0.1058  0.0621 -0.3991
 1588SOL    HW116400   1.055   3.736   7.211 -0.4525  0.2259 -1.0977
 1588SOL    HW216401   1.110   3.697   7.073 -0.7689  2.9993 -0.6386
 1589SOL     OW16402   2.189   2.144   5.622  0.3542  0.2075 -0.0117
 1589SOL    HW116403   2.097   2.120   5.620  0.5041 -0.4016  0.4652
 1589SOL    HW216404   2.229   2.080   5.561  0.6597 -1.5498  2.0415
 1590SOL     OW16405   1.136   4.689  13.547 -0.8939 -0.3837  0.2281
 1590SOL    HW116406   1.163   4.609  13.501  2.3423  1.9823 -2.0103
 1590SOL    HW216407   1.115   0.007  13.470  0.5525  0.2906  0.2930
 1591SOL     OW16408   3.995   4.137   3.087  0.0849 -0.3340  0.0675
 1591SOL    HW116409   4.054   4.203   3.050 -1.2705  0.7464 -0.1837
 1591SOL    HW216410   4.032   4.119   3.173 -0.7389 -1.2348  0.2325
 1592SOL     OW16411   4.362   0.113   6.978 -0.2542 -0.0541 -0.2125
 1592SOL    HW116412   4.380   0.164   7.056 -2.3657 -0.5098  0.5644
 1592SOL    HW216413   4.269   0.127   6.958 -0.9716 -3.0283  1.0699
 1593SOL     OW16414   4.157   0.738   0.040 -0.5587 -0.1116  0.0965
 1593SOL    HW116415   4.182   0.714   0.129  0.2249 -0.8584 -0.3309
 1593SOL    HW216416   4.205   0.671  17.731 -2.2672 -1.3432  0.0836
 1594SOL     OW16417   0.621   0.344   0.229  0.3832 -0.1517 -0.6634
 1594SOL    HW116418   0.598   0.305   0.314 -0.1349  2.3317  0.3335
 1594SOL    HW216419   0.709   0.307   0.225 -0.4402 -2.1762 -0.1884
 1595SOL     OW16420   0.794   3.473  15.731  0.1902 -0.4841 -0.0490
 1595SOL    HW116421   0.807   3.567  15.748 -3.1056  0.1785 -1.1212
 1595SOL    HW216422   0.878   3.461  15.688 -1.1074  0.3462 -2.8447
 1596SOL     OW16423   2.662   4.406   6.514  0.1796  0.0228 -0.3196
 1596SOL    HW116424   2.568   4.403   6.532  0.1206  0.1848 -0.6028
 1596SOL    HW216425   2.660   4.499   6.494 -3.6361  0.3370  1.4500
 1597SOL     OW16426   1.913   1.348   2.767  0.2660  0.4750  0.0719
 1597SOL    HW116427   1.926   1.255   2.784 -1.2143  0.0871 -0.9828
 1597SOL    HW216428   1.908   1.393   2.852  0.9148  0.7056 -0.0125
 1598SOL     OW16429   3.105   4.267   1.793 -0.1051 -0.9062 -0.2707
 1598SOL    HW116430   3.030   4.267   1.853 -1.4541 -1.2044 -1.9399
 1598SOL    HW216431   3.058   4.303   1.717  1.1767 -1.8496 -1.5238
 1599SOL     OW16432   4.642   0.942   0.906  0.1662  0.2699  0.0992
 1599SOL    HW116433   4.561   0.899   0.878 -0.3857  1.2918  0.1284
 1599SOL    HW216434   4.612   1.033   0.910 -0.6417 -0.0585  1.3652
 1600SOL     OW16435   4.709   1.717   8.043 -0.2762 -0.2263  0.1610
 1600SOL    HW116436   4.664   1.723   7.958  0.7204  0.4135 -0.3220
 1600SOL    HW216437   4.631   1.721   8.097 -0.1105  4.5596  0.0411
 1601SOL     OW16438   2.471   3.650   8.417  0.2673 -0.1319 -0.6628
 1601SOL    HW116439   2.531   3.686   8.482 -1.1893  1.1400 -0.0568
 1601SOL    HW216440   2.389   3.689   8.447  0.8571  0.1595  0.5428
 1602SOL     OW16441   1.349   0.586   8.601  0.3648 -0.4809 -0.4612
 1602SOL    HW116442   1.445   0.591   8.602  0.2960  0.4712  2.5356
 1602SOL    HW216443   1.324   0.522   8.668 -0.8743  0.2599 -0.2184
 1603SOL     OW16444   3.989   2.496   7.011 -0.1238 -0.2610  0.3092
 1603SOL    HW116445   3.963   2.580   6.973 -3.4128 -0.3594  2.3373
 1603SOL    HW216446   3.915   2.443   6.980 -1.1870  1.6128 -0.3687
 1604SOL     OW16447   0.846   0.334   1.641 -0.6153  0.7386  0.8925
 1604SOL    HW116448   0.927   0.300   1.680 -0.1233 -1.8521 -2.3916
 1604SOL    HW216449   0.808   0.385   1.712  0.1195  2.5987 -0.0630
 1605SOL     OW16450   4.024   2.037   7.918 -0.3941  0.0761 -0.2853
 1605SOL    HW116451   4.040   2.070   7.829  0.1040  0.7075  0.0396
 1605SOL    HW216452   4.024   1.942   7.913 -0.1799  0.0493  0.3107
 1606SOL     OW16453   1.617   2.979   7.504  0.5495  0.2464 -0.1065
 1606SOL    HW116454   1.618   3.026   7.588 -1.2189  0.4666 -0.2104
 1606SOL    HW216455   1.711   2.985   7.489 -0.1315  2.3877 -3.4368
 1607SOL     OW16456   2.868   4.132   9.662  0.5258 -0.0086  0.5168
 1607SOL    HW116457   2.928   4.110   9.733 -0.2181 -0.6394  0.9598
 1607SOL    HW216458   2.807   4.187   9.713  1.3873 -1.1552  2.7924
 1608SOL     OW16459   4.025   2.494   8.250  0.3404  0.5044  0.1373
 1608SOL    HW116460   4.113   2.456   8.259  0.1197 -0.0451 -0.0205
 1608SOL    HW216461   3.992   2.440   8.178  1.6742  0.9025 -0.7736
 1609SOL     OW16462   3.249   0.764   5.015 -0.0521 -0.2079 -0.5915
 1609SOL    HW116463   3.306   0.697   5.053  1.1017  0.6449 -0.8217
 1609SOL    HW216464   3.311   0.829   4.982 -0.6761  0.4260 -0.5240
 1610SOL     OW16465   3.956   1.750   8.822  0.0259  0.1163  0.2032
 1610SOL    HW116466   3.942   1.817   8.755  0.9731 -0.6579 -0.7416
 1610SOL    HW216467   3.894   1.682   8.796  1.0544 -1.1226  1.0110
 1611SOL     OW16468   0.071   1.151  12.270 -0.1303 -0.0967  0.6780
 1611SOL    HW116469   0.055   1.175  12.179 -2.2385  0.5967  1.2435
 1611SOL    HW216470   0.062   1.056  12.267  1.0335 -0.2092  0.4546
 1612SOL     OW16471   3.282   0.497  10.274 -0.4033 -0.5415 -0.5413
 1612SOL    HW116472   3.364   0.509  10.322 -2.1807  0.9565  2.1273
 1612SOL    HW216473   3.256   0.414  10.314 -0.0789  0.7812  2.4312
 1613SOL     OW16474   0.154   3.804  16.394 -0.2078 -0.0411 -0.3429
 1613SOL    HW116475   0.240   3.826  16.431 -0.6803  0.8301  0.2248
 1613SOL    HW216476   0.134   3.731  16.453 -0.9424 -0.3943 -1.0353
 1614SOL     OW16477   0.246   0.593   9.614 -0.5065  0.6938  0.2350
 1614SOL    HW116478   0.213   0.642   9.539 -1.7130 -1.3658 -0.5751
 1614SOL    HW216479   0.276   0.518   9.562  0.4192  0.6014  0.9061
 1615SOL     OW16480   2.642   0.380   1.745  0.5749 -0.0570  0.1374
 1615SOL    HW116481   2.550   0.368   1.767  0.7934 -1.0935  0.4827
 1615SOL    HW216482   2.674   0.409   1.830 -3.6125  2.2713  0.9142
 1616SOL     OW16483   1.391   0.207   5.088 -0.2168 -0.0690  0.1379
 1616SOL    HW116484   1.321   0.148   5.060 -0.4075  0.4164 -0.4235
 1616SOL    HW216485   1.344   0.264   5.148 -0.9678 -0.9687  0.3970
 1617SOL     OW16486   1.042   4.633   5.938  0.0988  0.2908  0.0702
 1617SOL    HW116487   1.084   4.705   5.985  0.3170 -0.8497  1.5865
 1617SOL    HW216488   0.993   4.592   6.009 -1.0291  2.9323  0.8195
 1618SOL     OW16489   3.295   2.790   7.246  0.0722 -0.1381  0.3079
 1618SOL    HW116490   3.310   2.853   7.317 -1.3124  2.7771 -2.0043
 1618SOL    HW216491   3.234   2.838   7.191  0.8995  1.1997  0.5653
 1619SOL     OW16492   2.858   1.735   2.707 -0.7489 -0.3012  0.3402
 1619SOL    HW116493   2.830   1.756   2.796 -0.3698 -0.4453  0.4935
 1619SOL    HW216494   2.839   1.817   2.661  0.4200  0.5413  1.3371
 1620SOL     OW16495   4.500   2.225  15.679 -0.1797 -0.0408 -0.5791
 1620SOL    HW116496   4.452   2.143  15.667  1.4442 -0.8745 -1.3825
 1620SOL    HW216497   4.476   2.248  15.769  0.3564 -1.0062 -0.1938
 1621SOL     OW16498   1.964   3.440   1.207 -0.1786 -0.0289 -0.3421
 1621SOL    HW116499   1.977   3.345   1.206 -0.9270 -0.1419  2.7751
 1621SOL    HW216500   2.053   3.467   1.232 -0.0118  0.3525 -1.3579
 1622SOL     OW16501   1.675   4.622   5.971  0.4307  0.3202 -0.9982
 1622SOL    HW116502   1.689   4.715   5.953  0.7855  0.7249  1.4028
 1622SOL    HW216503   1.634   4.609   5.885 -0.7337  0.0843 -0.4088
 1623SOL     OW16504   0.992   2.677   8.190 -0.8848 -0.1662  0.0290
 1623SOL    HW116505   1.010   2.686   8.284  1.5838  2.4138 -0.6917
 1623SOL    HW216506   1.082   2.663   8.159 -1.6095  0.7129 -2.3945
 1624SOL     OW16507   4.383   4.383  17.130 -0.0682  0.2028  1.1084
 1624SOL    HW116508   4.456   4.363  17.188  1.0184 -2.1499 -1.0551
 1624SOL    HW216509   4.311   4.345  17.181 -2.1601  1.2294 -1.0445
 1625SOL     OW16510   4.325   1.141   7.996 -0.4803 -0.4843 -0.1278
 1625SOL    HW116511   4.381   1.219   7.990 -0.8322 -0.0133  3.0207
 1625SOL    HW216512   4.274   1.137   7.915 -1.1323  1.7552  0.1645
 1626SOL     OW16513   3.818   1.741  17.518 -0.3118  0.3855 -0.5710
 1626SOL    HW116514   3.749   1.681  17.547  0.2557  0.2710  0.5591
 1626SOL    HW216515   3.896   1.707  17.563 -0.7449 -1.1095 -0.9299
 1627SOL     OW16516   1.076   2.054   7.355  0.8263  0.2468  0.9394
 1627SOL    HW116517   1.129   2.011   7.422 -2.9267 -1.0802  3.0306
 1627SOL    HW216518   1.138   2.106   7.304 -1.7229  1.4266 -0.9291
 1628SOL     OW16519   1.321   4.239   5.748 -0.3669  0.5536  0.4163
 1628SOL    HW116520   1.323   4.328   5.782 -0.2961  1.6914 -2.5132
 1628SOL    HW216521   1.235   4.212   5.781 -0.0163 -0.4254  0.5148
 1629SOL     OW16522   3.082   3.531   5.249  0.2424  0.0614  0.1004
 1629SOL    HW116523   3.149   3.594   5.275  1.4658 -0.4621 -1.7289
 1629SOL    HW216524   3.050   3.564   5.165  0.6691  2.5917  0.9447
 1630SOL     OW16525   1.254   2.676   7.312  0.1369  0.2957 -0.3305
 1630SOL    HW116526   1.163   2.678   7.344 -0.1437 -0.6174 -1.0943
 1630SOL    HW216527   1.290   2.743   7.371  0.8538  0.0436 -0.4851
 1631SOL     OW16528   1.191   2.095   7.692  0.2104 -0.0572 -0.0176
 1631SOL    HW116529   1.237   2.175   7.665 -0.9394  0.4365 -0.5211
 1631SOL    HW216530   1.263   2.051   7.737 -0.4480 -0.1204  0.9692
 1632SOL     OW16531   4.168   1.528   0.181 -0.5562  0.9243  0.5611
 1632SOL    HW116532   4.147   1.453   0.125  3.3981  0.2781 -0.0607
 1632SOL    HW216533   4.082   1.569   0.191 -0.3757  1.1171  1.2818
 1633SOL     OW16534   2.789   1.116   1.770  0.3451  0.4446  0.4660
 1633SOL    HW116535   2.825   1.028   1.780 -0.7330 -0.0445  0.0386
 1633SOL    HW216536   2.705   1.101   1.727  1.5719  1.0843 -2.1423
 1634SOL     OW16537   3.308   4.591   4.887  0.1157 -0.0564 -0.1401
 1634SOL    HW116538   3.268   4.605   4.801  1.6112 -1.3917 -1.0566
 1634SOL    HW216539   3.329   4.677   4.922  3.0217 -0.2071 -1.5226
 1635SOL     OW16540   2.064   4.261  15.382 -0.1192 -0.3877  0.6629
 1635SOL    HW116541   1.981   4.256  15.333  0.3270  0.0500 -0.1519
 1635SOL    HW216542   2.053   4.208  15.460 -0.0516  1.5854  2.0300
 1636SOL     OW16543   0.113   1.043  11.309  0.6545 -0.1246  0.5033
 1636SOL    HW116544   0.099   1.069  11.400  1.9229 -0.6005  0.8299
 1636SOL    HW216545   0.097   0.949  11.321  0.9048 -0.3579 -1.0651
 1637SOL     OW16546   1.165   1.226  15.740  0.6933  0.4355 -0.0121
 1637SOL    HW116547   1.154   1.158  15.806  0.7105  1.1989  0.7613
 1637SOL    HW216548   1.174   1.291  15.809  0.6577  0.9293 -0.4708
 1638SOL     OW16549   1.312   0.383   7.427  0.1242 -0.4542  0.2172
 1638SOL    HW116550   1.242   0.441   7.399 -0.8086 -1.2943  0.8029
 1638SOL    HW216551   1.390   0.425   7.392 -0.4004 -0.7582 -1.2906
 1639SOL     OW16552   0.911   3.001   5.363  0.2166 -0.0557 -0.6961
 1639SOL    HW116553   0.884   3.000   5.271  3.2407  0.0774 -1.5934
 1639SOL    HW216554   0.981   3.066   5.355 -0.1111  0.2989 -0.7201
 1640SOL     OW16555   1.747   1.049   7.295 -0.8374  0.0979 -0.4257
 1640SOL    HW116556   1.823   0.992   7.289 -1.5271 -1.0790  2.0675
 1640SOL    HW216557   1.764   1.067   7.388  1.8484  0.7920 -1.0557
 1641SOL     OW16558   1.746   4.671   9.376 -0.4373 -0.0219 -0.5647
 1641SOL    HW116559   1.751   0.017   9.324  0.1043  0.7841  0.7615
 1641SOL    HW216560   1.826   4.687   9.425 -0.5800  0.8365 -0.6014
 1642SOL     OW16561   2.817   3.389  13.422 -0.3146  0.0248  0.1389
 1642SOL    HW116562   2.789   3.303  13.391  0.4841  0.7447 -2.5961
 1642SOL    HW216563   2.864   3.421  13.345  0.4512  0.4319  0.7742
 1643SOL     OW16564   3.838   2.651   2.079  0.1082 -0.2326 -0.3340
 1643SOL    HW116565   3.752   2.611   2.072  0.0733  0.1184 -1.9701
 1643SOL    HW216566   3.875   2.601   2.006  0.4956 -0.2580 -0.1239
 1644SOL     OW16567   2.696   2.343   8.065  0.3764 -0.2318 -0.0571
 1644SOL    HW116568   2.686   2.425   8.017  0.9179 -0.7991 -1.1404
 1644SOL    HW216569   2.705   2.379   8.153  2.5697 -0.4080 -0.2076
 1645SOL     OW16570   1.487   2.059   2.176  0.0859 -0.1867 -0.5025
 1645SOL    HW116571   1.439   1.980   2.203  0.5982 -0.4992 -0.5181
 1645SOL    HW216572   1.477   2.108   2.258 -2.6794  0.2323 -1.0841
 1646SOL     OW16573   3.793   1.391   7.477  0.5009 -0.2995 -0.0504
 1646SOL    HW116574   3.709   1.348   7.498 -0.6712  2.2205  0.3931
 1646SOL    HW216575   3.852   1.337   7.529  2.4516  0.6339 -1.3297
 1647SOL     OW16576   4.383   2.226   3.941  0.2184 -0.6994 -0.4392
 1647SOL    HW116577   4.407   2.281   3.866 -0.0389 -1.7599 -1.3020
 1647SOL    HW216578   4.294   2.199   3.918  0.5644 -1.1394 -1.2597
 1648SOL     OW16579   3.105   3.269  16.840 -0.1016 -0.5195  0.4532
 1648SOL    HW116580   3.090   3.178  16.866  0.0449 -1.0906 -1.4264
 1648SOL    HW216581   3.027   3.278  16.785  0.3629  0.2132 -0.0864
 1649SOL     OW16582   2.452   3.589  12.047 -0.5239 -0.2343 -0.1422
 1649SOL    HW116583   2.391   3.520  12.020 -3.0930  1.4344  1.3386
 1649SOL    HW216584   2.403   3.626  12.120 -0.4322 -0.4363  0.0196
 1650SOL     OW16585   2.273   3.166  10.020  0.1177 -0.0098  0.1821
 1650SOL    HW116586   2.356   3.142   9.978 -0.7042 -1.7349 -0.4455
 1650SOL    HW216587   2.232   3.206   9.944  1.3833  0.6284 -0.1698
 1651SOL     OW16588   0.450   3.156  15.165 -0.1252 -0.1852  0.0808
 1651SOL    HW116589   0.459   3.173  15.072  1.1387  0.1798  0.2760
 1651SOL    HW216590   0.359   3.187  15.172 -0.2402 -0.7667  1.1631
 1652SOL     OW16591   3.816   1.281   4.804  0.2960  0.1377 -0.2245
 1652SOL    HW116592   3.813   1.358   4.747 -1.3542 -0.3693 -0.8352
 1652SOL    HW216593   3.823   1.318   4.892 -1.0606  0.5435 -0.2877
 1653SOL     OW16594   2.022   1.353  12.668 -0.6581  0.4717  0.0909
 1653SOL    HW116595   2.114   1.377  12.659 -1.1164  1.6835 -1.2715
 1653SOL    HW216596   2.007   1.270  12.621  1.1184 -0.8607  1.8806
 1654SOL     OW16597   0.673   4.329   5.447 -0.7203 -0.1764  0.0657
 1654SOL    HW116598   0.764   4.350   5.471 -1.6526  0.6207  3.0011
 1654SOL    HW216599   0.678   4.243   5.406 -0.4157  0.6979 -1.7176
 1655SOL     OW16600   4.416   0.271  13.998  1.2777  0.4382  0.3539
 1655SOL    HW116601   4.416   0.182  14.033 -0.4107  0.2698 -0.0735
 1655SOL    HW216602   4.506   0.299  14.011  1.7901 -1.3848  0.7769
 1656SOL     OW16603   3.156   3.732   2.326 -0.6372 -0.1531  0.2991
 1656SOL    HW116604   3.209   3.802   2.363  0.4249 -0.3654 -0.7898
 1656SOL    HW216605   3.209   3.653   2.340 -0.3081  0.1091  0.5313
 1657SOL     OW16606   2.579   3.605   2.855  0.4203  0.2506  0.0976
 1657SOL    HW116607   2.654   3.578   2.802 -1.4842  0.8459 -2.9017
 1657SOL    HW216608   2.615   3.645   2.935 -0.7282 -0.3541  0.9155
 1658SOL     OW16609   0.731   0.480   4.915  0.0289  0.1276  0.1341
 1658SOL    HW116610   0.731   0.573   4.895 -0.0888  0.4605  1.6977
 1658SOL    HW216611   0.714   0.452   4.825 -0.3658 -0.5969  0.4266
 1659SOL     OW16612   4.572   0.999  14.800 -0.0812  0.3278 -0.2666
 1659SOL    HW116613   4.488   0.986  14.756  1.3277 -2.1705 -2.2447
 1659SOL    HW216614   4.557   1.042  14.884 -0.7694 -0.7756  0.1780
 1660SOL     OW16615   2.205   0.875  10.534  0.3058 -0.3226 -0.1550
 1660SOL    HW116616   2.187   0.826  10.614  2.2600  0.2794  0.6656
 1660SOL    HW216617   2.139   0.941  10.555  2.3512  1.6638  0.0162
 1661SOL     OW16618   3.318   0.334  13.891 -0.6298  0.0487  0.2110
 1661SOL    HW116619   3.351   0.244  13.883 -0.6277 -0.1823  2.7740
 1661SOL    HW216620   3.289   0.348  13.801  3.6056  1.0583 -0.9627
 1662SOL     OW16621   0.268   3.667  10.134  0.3487 -0.1427  0.2736
 1662SOL    HW116622   0.270   3.603  10.062  1.6975  1.5972 -1.2260
 1662SOL    HW216623   0.176   3.695  10.130 -0.2718 -2.0204  1.2014
 1663SOL     OW16624   2.573   0.218   5.644  0.2239  0.3983 -0.2779
 1663SOL    HW116625   2.590   0.183   5.557  1.5573 -3.9452  1.7109
 1663SOL    HW216626   2.662   0.236   5.674  0.5148 -0.9835 -0.2897
 1664SOL     OW16627   2.365   3.877   4.252  0.6766 -0.2271  0.6460
 1664SOL    HW116628   2.332   3.960   4.287 -1.1944  0.5243 -2.9214
 1664SOL    HW216629   2.385   3.830   4.333 -2.1024 -1.7135  0.4736
 1665SOL     OW16630   1.719   2.694   4.986 -0.3539  0.7763 -0.6434
 1665SOL    HW116631   1.715   2.780   4.945  0.3409 -0.3780 -3.1335
 1665SOL    HW216632   1.667   2.637   4.930 -0.2878 -0.9604  1.0730
 1666SOL     OW16633   2.585   4.399   6.038 -0.0331 -0.3029  0.1071
 1666SOL    HW116634   2.511   4.363   5.988 -0.2657  3.0427 -1.9746
 1666SOL    HW216635   2.561   4.357   6.121 -0.8828  1.0932  0.5704
 1667SOL     OW16636   3.615   0.398   5.351  0.0498  0.1697  0.8352
 1667SOL    HW116637   3.700   0.370   5.385  1.0512 -0.3044 -2.0830
 1667SOL    HW216638   3.597   0.326   5.291 -1.8477  1.0026  0.4200
 1668SOL     OW16639   0.420   1.889  14.611  0.4555  0.2958  0.0336
 1668SOL    HW116640   0.352   1.901  14.544 -1.3749 -1.7673  1.5318
 1668SOL    HW216641   0.475   1.967  14.614 -0.3749  0.8931 -0.1807
 1669SOL     OW16642   2.571   1.953  13.713 -0.5619 -0.9688  0.4411
 1669SOL    HW116643   2.658   1.977  13.744 -0.3835 -0.4212 -0.4934
 1669SOL    HW216644   2.546   2.033  13.668  0.6675 -0.6468  0.3357
 1670SOL     OW16645   0.567   4.195   5.703 -0.4082  0.3351  0.1195
 1670SOL    HW116646   0.627   4.206   5.630 -0.0407  0.0230  0.3770
 1670SOL    HW216647   0.514   4.274   5.697  1.8214  1.5886 -2.6352
 1671SOL     OW16648   3.548   0.875  13.132  0.3918 -0.3378 -0.1093
 1671SOL    HW116649   3.591   0.846  13.212 -1.1177 -1.0970  0.4357
 1671SOL    HW216650   3.555   0.799  13.074 -1.7348 -0.1442 -0.6433
 1672SOL     OW16651   0.513   1.518   8.207  0.2911 -0.5760  0.5890
 1672SOL    HW116652   0.533   1.603   8.247  1.5647 -0.6469  0.0874
 1672SOL    HW216653   0.578   1.507   8.138  0.7692  0.5859  0.8666
 1673SOL     OW16654   1.277   3.753   3.627  0.5970  0.2692 -0.5429
 1673SOL    HW116655   1.255   3.815   3.697  1.4093 -0.9719  0.7895
 1673SOL    HW216656   1.193   3.773   3.585  1.0005  0.5496 -1.2114
 1674SOL     OW16657   3.711   1.962   4.194 -0.0700 -0.1146 -0.0610
 1674SOL    HW116658   3.698   2.051   4.160  0.1542  0.2478  0.7990
 1674SOL    HW216659   3.626   1.950   4.236 -1.3025 -0.2195 -2.5647
 1675SOL     OW16660   4.617   0.775   4.357  0.5690 -0.3034  0.2724
 1675SOL    HW116661   4.700   0.745   4.394  1.3700  0.7969 -0.6479
 1675SOL    HW216662   4.637   0.863   4.327  1.5210 -0.3199  0.8653
 1676SOL     OW16663   4.529   3.054   7.561 -0.4291 -0.4140 -0.4458
 1676SOL    HW116664   4.553   3.137   7.602  1.0564 -0.2693 -1.6059
 1676SOL    HW216665   4.618   3.027   7.538 -1.0990 -1.8846 -1.3233
 1677SOL     OW16666   0.018   0.881   6.640  0.5638  0.3748  0.3634
 1677SOL    HW116667   4.701   0.958   6.663 -0.2239 -0.0994  0.1430
 1677SOL    HW216668   0.021   0.844   6.729 -0.3320 -0.5288  0.0132
 1678SOL     OW16669   0.288   2.025   2.575  0.5095  0.3982  0.7091
 1678SOL    HW116670   0.370   2.032   2.623  0.6957 -1.4448  0.6463
 1678SOL    HW216671   0.227   1.997   2.643  0.5372 -0.8813  0.2036
 1679SOL     OW16672   0.983   3.062  16.734 -0.0767 -0.4099 -0.5158
 1679SOL    HW116673   0.996   3.147  16.776 -0.8099  0.3087 -1.7364
 1679SOL    HW216674   0.912   3.023  16.785  1.6505 -1.5128  1.0578
 1680SOL     OW16675   3.862   3.822   1.087  0.5891  0.0259 -0.1660
 1680SOL    HW116676   3.816   3.817   1.171  1.7871 -1.8282  0.3633
 1680SOL    HW216677   3.949   3.843   1.122 -0.0528  1.3381  0.6778
 1681SOL     OW16678   2.249   0.930   6.385  0.3088  0.4952 -0.3389
 1681SOL    HW116679   2.248   0.898   6.475  2.0581 -0.6609 -0.7348
 1681SOL    HW216680   2.289   0.855   6.341 -0.1285 -1.1387  2.0082
 1682SOL     OW16681   4.358   3.080   6.625 -0.3616 -0.1758 -0.4256
 1682SOL    HW116682   4.296   3.095   6.697  0.6578 -1.6337  0.7676
 1682SOL    HW216683   4.426   3.144   6.645  0.6466 -1.6050  0.7802
 1683SOL     OW16684   4.668   2.424   3.247 -0.3391 -0.2660  0.1526
 1683SOL    HW116685   4.697   2.488   3.312 -1.1860  0.7634 -0.4895
 1683SOL    HW216686   4.715   2.457   3.170  0.2160 -0.9637  0.1916
 1684SOL     OW16687   2.325   1.250   8.335  0.1847  0.2733  1.0245
 1684SOL    HW116688   2.304   1.218   8.423 -3.7614 -0.4084 -0.1732
 1684SOL    HW216689   2.266   1.208   8.273  0.7290  1.2882 -0.1625
 1685SOL     OW16690   2.676   1.745   8.443  0.0262  0.5990 -0.5352
 1685SOL    HW116691   2.737   1.684   8.484 -0.5962 -0.1940 -0.7810
 1685SOL    HW216692   2.721   1.829   8.435  0.6985  0.2929  0.1299
 1686SOL     OW16693   0.148   0.061  15.502 -0.1991  0.0054 -0.6767
 1686SOL    HW116694   0.233   0.054  15.459  0.9639  0.0249  1.6138
 1686SOL    HW216695   0.087   0.073  15.430 -1.8693 -0.4175  0.6614
 1687SOL     OW16696   3.717   0.490   9.605 -0.0318  0.4695 -0.0012
 1687SOL    HW116697   3.724   0.456   9.516  2.5603 -1.2192  0.8455
 1687SOL    HW216698   3.638   0.441   9.628 -0.1310 -0.0736 -1.5104
 1688SOL     OW16699   2.047   4.597   1.066 -0.3068  0.4201  0.3725
 1688SOL    HW116700   2.105   4.539   1.114  2.3066  1.7948 -1.1509
 1688SOL    HW216701   2.088   4.583   0.981 -1.5640 -1.9807  0.1790
 1689SOL     OW16702   3.737   0.304   3.309  0.0470  0.5048  0.6590
 1689SOL    HW116703   3.809   0.267   3.360  0.0883  1.5075  1.3243
 1689SOL    HW216704   3.687   0.363   3.365 -0.9184 -0.5401  0.9064
 1690SOL     OW16705   0.554   1.993   3.943 -0.0016 -0.0704  0.4103
 1690SOL    HW116706   0.627   2.051   3.923  0.3781 -0.4452  0.7110
 1690SOL    HW216707   0.598   1.912   3.918  1.4881  0.3418  1.7403
 1691SOL     OW16708   2.289   1.119  16.026 -0.5955 -0.6746  0.3623
 1691SOL    HW116709   2.194   1.111  16.034 -0.6264  1.0980  1.7886
 1691SOL    HW216710   2.300   1.059  15.953 -1.8869 -1.9251  1.1960
 1692SOL     OW16711   1.606   1.074   3.899 -0.2815 -0.2299 -0.1991
 1692SOL    HW116712   1.676   1.040   3.955 -0.0753  0.5562  0.0181
 1692SOL    HW216713   1.558   1.117   3.971  0.9400 -1.5642  1.4055
 1693SOL     OW16714   0.079   3.637   6.503  0.8033 -0.4827  0.4650
 1693SOL    HW116715   0.009   3.695   6.474  0.7472 -0.2502  1.0628
 1693SOL    HW216716   0.116   3.618   6.417  0.9963 -3.7247  1.2382
 1694SOL     OW16717   3.881   4.319  10.350 -0.0114  0.3292  0.5092
 1694SOL    HW116718   3.834   4.336  10.432  2.9225  1.3349  1.9785
 1694SOL    HW216719   3.903   4.405  10.316 -1.8360  0.9306  0.8293
 1695SOL     OW16720   3.765   0.588  14.393 -0.0646  0.2599 -1.1788
 1695SOL    HW116721   3.850   0.551  14.414  0.4563  2.3658  0.4162
 1695SOL    HW216722   3.772   0.598  14.298  0.2494 -1.4179 -1.3177
 1696SOL     OW16723   0.693   4.735   5.304 -0.3065  0.6415  0.2781
 1696SOL    HW116724   0.675   4.706   5.214  0.2154  0.3072  0.2832
 1696SOL    HW216725   0.768   0.059   5.304  0.8404 -0.8216  0.2644
 1697SOL     OW16726   2.999   4.122   9.911 -0.6406 -0.3399 -0.7228
 1697SOL    HW116727   3.003   4.059   9.983 -0.9633 -1.1046 -1.3730
 1697SOL    HW216728   3.042   4.200   9.949 -1.4954  1.1105 -2.7486
 1698SOL     OW16729   4.334   3.143   4.202 -0.2418  0.0890  0.1396
 1698SOL    HW116730   4.275   3.085   4.154  0.4048 -0.6179  0.1992
 1698SOL    HW216731   4.337   3.093   4.284  0.4501 -0.5376 -0.2771
 1699SOL     OW16732   0.823   1.268   1.730  0.0337  0.0310 -0.7302
 1699SOL    HW116733   0.762   1.322   1.679 -1.6882 -0.1819  1.0971
 1699SOL    HW216734   0.866   1.331   1.787  0.7810 -0.2529 -0.9815
 1700SOL     OW16735   0.191   4.210   4.360 -0.5982 -0.3346 -0.1655
 1700SOL    HW116736   0.127   4.213   4.289 -1.2860 -2.6679  0.3593
 1700SOL    HW216737   0.163   4.276   4.424 -1.5583 -0.9831  0.0837
 1701SOL     OW16738   1.618   2.252   9.461 -0.4420  0.2822 -0.0298
 1701SOL    HW116739   1.604   2.258   9.366  3.3573 -1.0367 -0.6749
 1701SOL    HW216740   1.682   2.323   9.462  0.7043 -0.7227 -1.6584
 1702SOL     OW16741   0.051   1.142  11.968 -0.3668 -0.2103  0.0691
 1702SOL    HW116742   4.732   1.190  11.905 -1.4504 -0.2189  0.9754
 1702SOL    HW216743   0.001   1.061  11.982 -0.2582 -0.1637  0.7252
 1703SOL     OW16744   2.888   3.578   8.516  0.1868 -0.3173 -0.2442
 1703SOL    HW116745   2.981   3.567   8.495  0.0484 -1.3778 -0.2685
 1703SOL    HW216746   2.876   3.673   8.523  0.4020 -0.1508 -2.3410
 1704SOL     OW16747   1.213   1.472  10.146 -0.2314 -0.1441  0.5769
 1704SOL    HW116748   1.133   1.520  10.168  0.4689  1.5072 -0.4384
 1704SOL    HW216749   1.184   1.381  10.144  0.2959 -0.2874 -1.0044
 1705SOL     OW16750   2.093   1.605   4.301  0.1437 -0.0913  0.1744
 1705SOL    HW116751   2.026   1.635   4.363  0.2310  0.8934 -0.2180
 1705SOL    HW216752   2.170   1.654   4.329  0.0653 -0.4760  1.0589
 1706SOL     OW16753   2.673   4.473   3.516 -0.0909 -0.7483  0.2071
 1706SOL    HW116754   2.760   4.473   3.477  0.2400 -1.2118  0.9447
 1706SOL    HW216755   2.657   4.378   3.512 -0.7346 -0.5212 -2.7863
 1707SOL     OW16756   1.653   0.992  14.934 -0.6594  0.0898 -0.3900
 1707SOL    HW116757   1.719   1.027  14.874 -1.2946 -1.3713 -1.9430
 1707SOL    HW216758   1.675   0.899  14.935 -0.2456  0.2080  0.8717
 1708SOL     OW16759   4.195   1.922  13.673  0.3843 -0.0764  0.9540
 1708SOL    HW116760   4.161   1.938  13.761 -0.2800 -0.2889  0.7368
 1708SOL    HW216761   4.264   1.987  13.658 -0.5364  1.2857  2.6686
 1709SOL     OW16762   0.174   1.776   1.348  0.4702 -0.4490 -0.2558
 1709SOL    HW116763   0.226   1.701   1.378 -0.6316 -0.9240  0.5007
 1709SOL    HW216764   0.248   1.826   1.314  0.4540 -1.7816 -2.2396
 1710SOL     OW16765   4.222   1.604   3.733  0.9985  0.1478 -0.1215
 1710SOL    HW116766   4.255   1.555   3.657  0.6858 -0.8646  0.3915
 1710SOL    HW216767   4.251   1.691   3.706  0.5645 -0.1449 -1.5580
 1711SOL     OW16768   3.953   4.065   4.091 -0.1469  0.4223 -0.2795
 1711SOL    HW116769   3.932   3.975   4.065  1.0699  0.5631 -1.7540
 1711SOL    HW216770   4.004   4.044   4.170  0.0004  3.5015  0.4361
 1712SOL     OW16771   4.732   4.218  10.636 -0.2343 -0.1851 -0.2148
 1712SOL    HW116772   0.018   4.127  10.655  1.6321  0.0678 -1.0274
 1712SOL    HW216773   0.086   4.241  10.609 -0.1766  0.9082  0.8946
 1713SOL     OW16774   0.069   0.755  12.554  0.1812 -1.0998  0.0999
 1713SOL    HW116775   0.103   0.747  12.464  1.4228  1.0781  0.3694
 1713SOL    HW216776   0.148   0.793  12.593  0.0515  0.3568 -1.0144
 1714SOL     OW16777   3.527   0.257   8.027  0.1686  0.6693  0.1197
 1714SOL    HW116778   3.454   0.214   8.072  1.8211 -1.6561  0.5133
 1714SOL    HW216779   3.517   0.216   7.941 -0.7312 -0.0598  0.5705
 1715SOL     OW16780   2.390   0.512   8.862 -0.2856 -0.5843  0.4318
 1715SOL    HW116781   2.319   0.569   8.832 -1.8363 -2.7985 -0.0854
 1715SOL    HW216782   2.443   0.571   8.916  1.2759 -2.7056  1.2142
 1716SOL     OW16783   2.146   2.999   3.340  0.1157 -0.5559  0.1516
 1716SOL    HW116784   2.097   3.032   3.415  0.7868  2.2353 -0.6225
 1716SOL    HW216785   2.077   2.945   3.302  0.1231 -0.9660  0.7271
 1717SOL     OW16786   3.917   0.325   6.101 -0.3575 -0.1422 -0.6201
 1717SOL    HW116787   3.864   0.261   6.148  0.8495  0.9227  2.1804
 1717SOL    HW216788   3.911   0.295   6.010  0.1848 -0.8992 -0.4036
 1718SOL     OW16789   2.834   4.502   7.556 -0.0533 -0.5667  0.4048
 1718SOL    HW116790   2.811   4.445   7.629 -0.1495  0.6456  1.3164
 1718SOL    HW216791   2.889   4.571   7.594 -0.0323 -0.3623  0.0126
 1719SOL     OW16792   4.360   0.945   6.691 -0.2092  0.0360  0.6718
 1719SOL    HW116793   4.382   0.984   6.606 -0.8836 -0.2059  0.3867
 1719SOL    HW216794   4.267   0.968   6.692  0.0925  1.1802  1.7176
 1720SOL     OW16795   4.545   0.834   2.569  0.2679 -0.4774 -0.5533
 1720SOL    HW116796   4.612   0.845   2.637 -2.0411 -0.3579  1.7146
 1720SOL    HW216797   4.485   0.772   2.611  1.9867 -0.8678  1.3273
 1721SOL     OW16798   3.890   4.569   1.355 -0.1907  0.2290 -0.2390
 1721SOL    HW116799   3.891   4.656   1.395 -1.5339 -0.2796  0.8919
 1721SOL    HW216800   3.849   4.506   1.415  0.8564  1.3226  1.6290
 1722SOL     OW16801   0.033   1.262   4.248 -0.5109 -0.0158  1.0094
 1722SOL    HW116802   4.717   1.203   4.193  0.0933  2.0212 -1.7240
 1722SOL    HW216803   0.097   1.203   4.288  0.0126 -0.4775 -0.5168
 1723SOL     OW16804   1.835   0.454   2.697 -0.4110  0.2730  0.3192
 1723SOL    HW116805   1.823   0.543   2.729  0.9673  0.7362 -0.4609
 1723SOL    HW216806   1.759   0.450   2.638 -0.4998 -1.6730  0.5391
 1724SOL     OW16807   4.078   1.989   5.086 -0.8060  0.2569 -0.0032
 1724SOL    HW116808   4.049   2.000   4.996 -1.6072 -3.7223 -0.2263
 1724SOL    HW216809   4.002   1.946   5.126 -0.5880 -0.6782 -0.6108
 1725SOL     OW16810   2.281   1.530   7.881 -0.0375  0.5203 -0.3484
 1725SOL    HW116811   2.289   1.453   7.825 -1.3350  0.1564 -0.0375
 1725SOL    HW216812   2.303   1.492   7.966 -0.0884  1.2120 -0.0304
 1726SOL     OW16813   3.009   2.387   4.157 -0.1337 -0.3343 -0.0521
 1726SOL    HW116814   2.954   2.384   4.236 -0.8337 -0.3528 -0.5412
 1726SOL    HW216815   3.060   2.306   4.164  0.2599 -0.1218 -0.4344
 1727SOL     OW16816   0.612   3.771   4.664 -0.2664 -0.0858 -0.2578
 1727SOL    HW116817   0.577   3.813   4.742 -1.0964 -1.4758  0.1359
 1727SOL    HW216818   0.584   3.834   4.597 -0.4017  0.3511  0.2158
 1728SOL     OW16819   1.258   3.432  14.572  0.3311  0.4315  0.1464
 1728SOL    HW116820   1.280   3.386  14.653  0.3611 -0.2225 -0.2306
 1728SOL    HW216821   1.213   3.510  14.604 -0.1929  0.4685 -0.6804
 1729SOL     OW16822   3.286   2.551   7.069 -0.4380  0.4003  0.5448
 1729SOL    HW116823   3.245   2.563   6.984  1.5497 -0.2436 -0.4894
 1729SOL    HW216824   3.330   2.632   7.096  0.8999  0.1779 -1.0177
 1730SOL     OW16825   4.343   0.010   4.972  0.3943  0.1065  0.6578
 1730SOL    HW116826   4.270   4.683   4.978 -0.4820  0.9587 -1.1717
 1730SOL    HW216827   4.311   0.080   5.029  1.4764  0.4958  0.7806
 1731SOL     OW16828   2.131   4.616   5.360 -0.3385  0.0476  0.1248
 1731SOL    HW116829   2.136   4.520   5.353  0.0899  0.2832 -2.8519
 1731SOL    HW216830   2.037   4.618   5.345 -0.2954 -0.5438 -0.2464
 1732SOL     OW16831   0.965   0.846   9.072  0.2222  0.2275 -0.2173
 1732SOL    HW116832   0.879   0.879   9.096  0.6555 -0.1577  1.8573
 1732SOL    HW216833   1.016   0.921   9.104 -0.2924  0.5995 -0.2643
 1733SOL     OW16834   1.675   3.047   4.568 -0.0213 -0.1122 -0.4802
 1733SOL    HW116835   1.698   2.955   4.579  1.6314  0.2204 -1.1108
 1733SOL    HW216836   1.740   3.090   4.623  0.5932  0.5445 -1.7126
 1734SOL     OW16837   4.157   2.872   5.115 -0.0761 -0.1418 -0.8535
 1734SOL    HW116838   4.224   2.876   5.047  1.6162 -0.6366  0.7714
 1734SOL    HW216839   4.091   2.921   5.067 -0.1480  0.2597 -0.3571
 1735SOL     OW16840   4.667   2.298  14.351  0.1927 -0.4899 -0.2974
 1735SOL    HW116841   4.637   2.352  14.424 -1.1716  0.7469 -1.7901
 1735SOL    HW216842   4.593   2.294  14.291 -0.5056 -0.5754  0.5760
 1736SOL     OW16843   0.052   4.413   5.244 -0.2094  0.0267 -0.5923
 1736SOL    HW116844   0.036   4.344   5.307 -1.3795  0.4296 -0.4511
 1736SOL    HW216845   4.729   4.481   5.278  0.5590  0.8461 -0.9178
 1737SOL     OW16846   3.292   2.247  10.437 -0.3040  0.3909 -0.2203
 1737SOL    HW116847   3.207   2.282  10.411 -1.1664 -0.7433  1.0383
 1737SOL    HW216848   3.336   2.280  10.359 -0.1083 -1.4308 -0.8742
 1738SOL     OW16849   1.242   0.428   2.254  0.6321 -0.3104  0.2131
 1738SOL    HW116850   1.191   0.488   2.309 -0.0640 -0.9975  0.3135
 1738SOL    HW216851   1.177   0.372   2.213 -0.1192  0.1455  0.7652
 1739SOL     OW16852   3.636   1.239   5.437 -0.2150 -0.2157  0.1900
 1739SOL    HW116853   3.583   1.166   5.404 -1.1079  0.3419  0.3727
 1739SOL    HW216854   3.709   1.196   5.480 -0.3338  0.2220  0.8271
 1740SOL     OW16855   1.813   3.992   3.089  0.0792 -0.4518 -0.4207
 1740SOL    HW116856   1.744   3.952   3.141  0.9499 -1.0950  0.2261
 1740SOL    HW216857   1.830   3.933   3.016 -0.5408 -1.2787  0.1110
 1741SOL     OW16858   0.855   1.793   7.294 -0.0283 -0.4779 -0.1395
 1741SOL    HW116859   0.850   1.880   7.255 -1.3511 -0.4460  0.0806
 1741SOL    HW216860   0.894   1.740   7.225 -0.4846 -0.5029 -0.3824
 1742SOL     OW16861   0.172   3.224   8.293  0.0232  0.4637  0.1333
 1742SOL    HW116862   0.169   3.320   8.285 -1.5703  0.3976  0.0126
 1742SOL    HW216863   0.106   3.189   8.233 -1.3693  1.9953  0.7702
 1743SOL     OW16864   3.762   4.301  10.085  0.0870 -0.0472  0.5134
 1743SOL    HW116865   3.826   4.315  10.155  0.2043  2.1103 -0.0321
 1743SOL    HW216866   3.676   4.329  10.116 -0.0485 -2.1240  2.0628
 1744SOL     OW16867   1.108   2.379  12.021  0.0329  0.1677 -0.4897
 1744SOL    HW116868   1.026   2.422  12.045  1.5313  0.8678  3.2739
 1744SOL    HW216869   1.161   2.458  12.010  0.9716 -0.4022 -0.0570
 1745SOL     OW16870   1.341   1.762   1.586  0.4345 -0.2946  0.5398
 1745SOL    HW116871   1.380   1.809   1.512 -1.2278 -2.4981 -1.7403
 1745SOL    HW216872   1.376   1.819   1.654  1.9005  0.0295 -0.4902
 1746SOL     OW16873   0.221   4.029   9.455  0.3125  0.0466  0.1882
 1746SOL    HW116874   0.142   4.013   9.404  0.3622  0.5619 -0.0583
 1746SOL    HW216875   0.271   4.081   9.392 -1.0843  0.7437 -0.3439
 1747SOL     OW16876   0.945   1.554  12.673 -0.4221 -0.3783 -0.1249
 1747SOL    HW116877   0.862   1.557  12.720  1.4707  0.3137  3.1214
 1747SOL    HW216878   0.999   1.484  12.709  0.0021 -1.7300 -3.3441
 1748SOL     OW16879   2.750   0.111   9.840  0.3352  0.4517 -0.0673
 1748SOL    HW116880   2.782   0.143   9.925 -0.1103  0.3620  0.1342
 1748SOL    HW216881   2.699   0.035   9.868 -0.8828  1.7292  1.1374
 1749SOL     OW16882   0.014   2.391   8.701 -0.1867  0.2403  0.1962
 1749SOL    HW116883   4.709   2.305   8.689  0.4899 -0.0256 -0.2132
 1749SOL    HW216884   0.030   2.401   8.607  1.3359  2.3335  0.6732
 1750SOL     OW16885   3.908   1.683   6.000  0.1185 -0.3327 -0.1947
 1750SOL    HW116886   3.918   1.777   5.989 -3.2437  0.0901  0.6235
 1750SOL    HW216887   3.877   1.686   6.090 -0.7695 -0.8449 -0.4879
 1751SOL     OW16888   1.392   2.985   3.496 -0.0863  0.3022 -0.2218
 1751SOL    HW116889   1.324   3.048   3.520 -0.0347  0.5549 -0.7386
 1751SOL    HW216890   1.461   3.013   3.557  0.4599 -1.9259  0.1694
 1752SOL     OW16891   4.327   0.370   9.599 -0.0162  0.1978 -0.5063
 1752SOL    HW116892   4.390   0.395   9.532 -0.6986  3.1790 -0.0198
 1752SOL    HW216893   4.366   0.415   9.673 -1.6776  1.6017 -0.4929
 1753SOL     OW16894   3.159   2.227   8.454 -0.7518  0.2942  0.3805
 1753SOL    HW116895   3.196   2.221   8.366 -2.2725 -0.7780 -0.1844
 1753SOL    HW216896   3.160   2.139   8.492 -2.3876  0.2306  0.2970
 1754SOL     OW16897   3.443   2.726  16.238  0.1459 -0.3478  0.0032
 1754SOL    HW116898   3.361   2.677  16.234  0.2744 -0.2715 -3.3342
 1754SOL    HW216899   3.425   2.815  16.208 -0.1985 -0.1625  0.7530
 1755SOL     OW16900   1.808   3.960  15.300 -0.0003 -0.4048 -0.2136
 1755SOL    HW116901   1.766   3.969  15.215 -0.7672 -1.5658  0.0598
 1755SOL    HW216902   1.828   4.049  15.330  1.2010 -0.4681 -0.8078
 1756SOL     OW16903   1.741   0.270   4.937  1.1186 -0.1546 -0.2608
 1756SOL    HW116904   1.689   0.199   4.972  1.7451 -0.5974 -0.2266
 1756SOL    HW216905   1.819   0.275   4.992  1.5346 -0.8118 -0.7839
 1757SOL     OW16906   3.238   2.181   3.476 -0.5480  0.0489  0.2624
 1757SOL    HW116907   3.144   2.163   3.473 -0.5508  0.5997 -2.7707
 1757SOL    HW216908   3.251   2.196   3.569  1.2620 -0.2340  0.0463
 1758SOL     OW16909   2.198   1.469   3.305  0.0417  0.2727  0.1224
 1758SOL    HW116910   2.244   1.550   3.282 -1.4323  1.9457  2.9923
 1758SOL    HW216911   2.270   1.416   3.341  0.8129  1.7298  0.7303
 1759SOL     OW16912   2.715   0.930   9.229  0.6443 -0.1718  0.6568
 1759SOL    HW116913   2.748   0.872   9.297  1.1320  0.6917  1.1562
 1759SOL    HW216914   2.794   0.949   9.179  0.0185 -0.8851 -0.6091
 1760SOL     OW16915   1.503   1.791   6.429 -0.3663 -0.1458  0.1090
 1760SOL    HW116916   1.534   1.708   6.467 -0.0304  0.0809  0.3392
 1760SOL    HW216917   1.555   1.844   6.490  3.7768 -1.9942 -1.7882
 1761SOL     OW16918   3.528   0.035   7.384  0.0911 -0.2902  0.4367
 1761SOL    HW116919   3.480   0.095   7.441 -0.5796 -0.9391  0.5489
 1761SOL    HW216920   3.540   4.694   7.441  0.3795 -0.5619  0.0110
 1762SOL     OW16921   4.512   0.163   2.505  0.2850  0.7437  0.0051
 1762SOL    HW116922   4.527   0.249   2.465  0.0348  0.6141 -0.3723
 1762SOL    HW216923   4.509   0.172   2.600 -0.6954 -1.4564  0.1778
 1763SOL     OW16924   3.986   4.472   9.217 -0.6174  0.0349  0.3350
 1763SOL    HW116925   3.912   4.532   9.221 -0.5878  0.0434  0.7162
 1763SOL    HW216926   4.021   4.498   9.131  0.2661 -1.0282  0.3781
 1764SOL     OW16927   0.416   2.158   4.701  0.2715  0.2737 -0.4313
 1764SOL    HW116928   0.387   2.103   4.628  1.1168 -0.5287 -0.1635
 1764SOL    HW216929   0.351   2.123   4.762  0.4541  1.0581  0.2213
 1765SOL     OW16930   3.948   3.571  11.459 -0.1216 -0.2215 -0.1606
 1765SOL    HW116931   3.976   3.652  11.502  0.5907 -0.6872  0.2666
 1765SOL    HW216932   4.001   3.571  11.379 -1.6834  1.0533 -1.1910
 1766SOL     OW16933   1.696   1.713   8.359  0.2562 -0.2622 -0.8485
 1766SOL    HW116934   1.696   1.628   8.404  2.8866  0.9172  1.3727
 1766SOL    HW216935   1.769   1.748   8.410 -0.6755 -0.4166  0.5817
 1767SOL     OW16936   0.993   4.118   1.832  0.0159  0.2746  0.0727
 1767SOL    HW116937   1.035   4.188   1.781 -0.0289  0.8856  0.8765
 1767SOL    HW216938   0.994   4.042   1.774 -0.6450  1.3855 -1.4086
 1768SOL     OW16939   0.541   0.776   2.768 -0.0566 -0.0917 -0.1433
 1768SOL    HW116940   0.466   0.776   2.709  0.4948  0.9225 -0.8316
 1768SOL    HW216941   0.544   0.681   2.780  1.8937  0.0033  0.1659
 1769SOL     OW16942   2.669   2.542   4.093  0.4706  0.3857  0.8764
 1769SOL    HW116943   2.632   2.624   4.057 -1.2653 -0.8011 -0.0707
 1769SOL    HW216944   2.642   2.559   4.183  0.8492 -0.5759  1.1685
 1770SOL     OW16945   2.579   2.280   3.777 -0.2987  0.2784 -0.6200
 1770SOL    HW116946   2.642   2.211   3.795 -0.6693 -0.0712 -0.6759
 1770SOL    HW216947   2.634   2.340   3.728  2.8185 -2.5350 -0.5284
 1771SOL     OW16948   0.327   0.751  16.384  0.1849 -0.2051  0.1674
 1771SOL    HW116949   0.343   0.833  16.337 -0.3676 -0.9070 -1.2458
 1771SOL    HW216950   0.236   0.734  16.362 -0.1177 -1.0153  2.0335
 1772SOL     OW16951   3.912   0.575   4.937 -0.4287  0.1217  0.4797
 1772SOL    HW116952   3.904   0.566   4.842 -1.8824 -0.3414  0.6445
 1772SOL    HW216953   3.916   0.671   4.945  1.2681  0.2699 -2.2153
 1773SOL     OW16954   2.217   3.555   6.295 -0.0909  0.1109 -0.6041
 1773SOL    HW116955   2.298   3.606   6.296 -0.3631  0.5199  0.4860
 1773SOL    HW216956   2.160   3.620   6.254  0.0864  1.5436  1.4232
 1774SOL     OW16957   4.020   1.394   5.977 -0.6280 -0.4621  0.2422
 1774SOL    HW116958   3.953   1.386   5.909  1.9873 -0.5809 -2.3701
 1774SOL    HW216959   3.977   1.423   6.057  1.1631 -1.1325  1.4556
 1775SOL     OW16960   3.052   4.217   5.335 -0.0360 -0.2997  0.0176
 1775SOL    HW116961   2.992   4.290   5.319  2.2735  1.3292 -1.1229
 1775SOL    HW216962   3.046   4.168   5.253  0.7390 -1.2584  0.5418
 1776SOL     OW16963   2.906   2.632  14.594  0.6740 -0.4553 -0.3142
 1776SOL    HW116964   2.841   2.696  14.563 -0.6195  0.0843  3.4675
 1776SOL    HW216965   2.982   2.690  14.598 -0.6577  1.1280  2.9440
 1777SOL     OW16966   3.275   1.013   3.047  0.1843  0.0520  0.1875
 1777SOL    HW116967   3.321   1.086   3.089 -0.6597  0.7638 -0.1448
 1777SOL    HW216968   3.345   1.003   2.982 -0.6537 -3.6922 -0.1236
 1778SOL     OW16969   3.833   3.907  12.041  0.8635 -0.4838  0.3736
 1778SOL    HW116970   3.766   3.973  12.024  0.3653 -1.2704 -0.7751
 1778SOL    HW216971   3.888   3.959  12.099  2.7747 -0.2057 -1.7197
 1779SOL     OW16972   0.563   4.106  15.666  0.0481 -0.4539  0.0627
 1779SOL    HW116973   0.618   4.157  15.607  0.0633  1.6335  1.8830
 1779SOL    HW216974   0.559   4.160  15.745 -1.3475 -0.9111  0.3061
 1780SOL     OW16975   1.889   1.340   6.186 -0.0444 -0.2009  0.3112
 1780SOL    HW116976   1.961   1.372   6.241 -1.1868  1.9730  0.5321
 1780SOL    HW216977   1.906   1.391   6.107 -0.5129  1.8662  1.5616
 1781SOL     OW16978   0.076   2.402   3.841 -0.3201 -0.0828  0.5599
 1781SOL    HW116979   0.088   2.308   3.854 -1.1058 -0.5102 -1.8036
 1781SOL    HW216980   0.120   2.443   3.915  1.5669 -0.0008 -0.6249
 1782SOL     OW16981   0.905   0.011   4.419  0.3442  0.1925 -0.0299
 1782SOL    HW116982   0.996   0.042   4.427  0.0775  1.6047 -2.5772
 1782SOL    HW216983   0.852   0.082   4.384  1.5048  0.0879 -1.9607
 1783SOL     OW16984   1.355   3.639   7.709  0.1772 -0.1394 -0.2271
 1783SOL    HW116985   1.321   3.717   7.754  2.3075 -0.1121  1.3127
 1783SOL    HW216986   1.395   3.681   7.633 -3.6884  2.5591 -0.7883
 1784SOL     OW16987   0.780   3.337   8.122  0.2086 -0.3979  0.4999
 1784SOL    HW116988   0.725   3.345   8.044  0.7700 -2.1308 -0.0616
 1784SOL    HW216989   0.865   3.347   8.078 -0.5320  1.2740 -0.5675
 1785SOL     OW16990   1.072   2.696   3.320  0.3710  0.3294 -0.3392
 1785SOL    HW116991   1.012   2.769   3.332 -1.1611 -1.1353  0.8639
 1785SOL    HW216992   1.160   2.736   3.314  0.2889  0.3613 -1.3616
 1786SOL     OW16993   1.424   4.023  12.247 -0.5207 -0.3897  0.1367
 1786SOL    HW116994   1.394   4.093  12.191  0.6888 -0.1355 -0.1830
 1786SOL    HW216995   1.389   4.052  12.332 -0.3679  0.6055 -0.1531
 1787SOL     OW16996   1.343   3.719   4.622  0.6596 -0.1935  0.7251
 1787SOL    HW116997   1.429   3.679   4.613  1.3532  1.8189 -1.5962
 1787SOL    HW216998   1.301   3.715   4.535 -1.6025  1.5086  1.7261
 1788SOL     OW16999   3.912   4.458   3.710 -0.1363 -0.6492  0.6126
 1788SOL    HW117000   3.855   4.387   3.740 -0.4269 -0.5857  0.2072
 1788SOL    HW217001   3.865   4.492   3.635 -0.0367  1.1341  1.3529
 1789SOL     OW17002   3.621   0.909  15.148 -0.9745 -0.6340 -0.4484
 1789SOL    HW117003   3.688   0.841  15.158 -0.4840 -0.3537 -1.8527
 1789SOL    HW217004   3.661   0.979  15.199 -0.4143 -2.4393  1.5844
 1790SOL     OW17005   2.445   3.720   5.735 -0.5399  0.0650 -0.3735
 1790SOL    HW117006   2.380   3.653   5.753 -0.0397 -0.3964 -0.2688
 1790SOL    HW217007   2.469   3.753   5.822  1.3709 -0.3280 -0.7558
 1791SOL     OW17008   4.014   3.012  14.078 -0.3701  0.2158 -0.7078
 1791SOL    HW117009   3.995   3.096  14.037  0.2410  0.8733  0.3562
 1791SOL    HW217010   3.924   2.981  14.090 -0.3844 -0.4579 -2.6327
 1792SOL     OW17011   3.828   1.237  10.884 -0.4364 -0.3343  0.8592
 1792SOL    HW117012   3.789   1.150  10.879  0.4190 -0.6910  0.3360
 1792SOL    HW217013   3.889   1.217  10.955  1.1825 -1.6229 -0.8723
 1793SOL     OW17014   1.091   2.355   8.903  0.6007 -0.5332 -0.3848
 1793SOL    HW117015   1.142   2.294   8.850 -0.1082 -0.8994 -0.6364
 1793SOL    HW217016   1.087   2.437   8.853  2.1585 -0.7797 -0.9029
 1794SOL     OW17017   0.088   4.114   7.050 -0.0820 -0.4553  0.2929
 1794SOL    HW117018   0.050   4.105   6.962  0.9427 -0.4992 -0.1367
 1794SOL    HW217019   0.178   4.098   7.024  0.1920 -1.4894  1.8578
 1795SOL     OW17020   4.102   1.884  12.903  0.1166  0.2674  0.0525
 1795SOL    HW117021   4.161   1.849  12.836  0.9968  1.0374  0.4371
 1795SOL    HW217022   4.053   1.805  12.928  0.5562  0.2835  0.9419
 1796SOL     OW17023   1.492   2.696  13.485 -0.2110 -0.5826  0.1486
 1796SOL    HW117024   1.400   2.678  13.502  0.0771 -1.5527  0.6751
 1796SOL    HW217025   1.537   2.613  13.469  1.5619  0.5422 -0.6542
 1797SOL     OW17026   3.147   3.976  14.438  0.1475 -0.1487  0.0178
 1797SOL    HW117027   3.207   3.958  14.510  2.1195 -1.2055 -1.8614
 1797SOL    HW217028   3.194   4.045  14.392 -0.8783  0.8212  0.4406
 1798SOL     OW17029   4.537   2.949   8.157 -0.4581 -0.5682 -0.4265
 1798SOL    HW117030   4.521   2.957   8.063 -1.5909 -1.7240 -0.3455
 1798SOL    HW217031   4.451   2.947   8.199 -0.3729 -1.0023 -0.2703
 1799SOL     OW17032   1.623   1.764   2.413 -0.2706  0.4515 -0.0349
 1799SOL    HW117033   1.543   1.783   2.460 -1.2357 -2.1185 -0.6380
 1799SOL    HW217034   1.594   1.685   2.367 -0.8924  0.3268  0.5784
 1800SOL     OW17035   1.801   0.022   4.771  0.7988  0.3352 -0.1809
 1800SOL    HW117036   1.815   0.110   4.807  0.4772 -0.5306  2.0640
 1800SOL    HW217037   1.715   0.002   4.808  0.6720  0.8929 -0.1691
 1801SOL     OW17038   0.517   1.718   2.939  0.2043 -0.3972  0.2767
 1801SOL    HW117039   0.507   1.628   2.908  2.4627 -0.3849 -0.4809
 1801SOL    HW217040   0.541   1.705   3.031  1.2528 -1.8444 -0.2055
 1802SOL     OW17041   2.278   4.031   5.845 -0.6359  0.1526 -0.2735
 1802SOL    HW117042   2.224   4.095   5.890 -2.0841 -0.0068 -1.8046
 1802SOL    HW217043   2.240   3.944   5.860 -1.8613  0.2064 -3.0941
 1803SOL     OW17044   1.382   4.187   6.353  0.7937  0.5503 -0.1534
 1803SOL    HW117045   1.436   4.123   6.307  1.0912  0.9538 -0.3711
 1803SOL    HW217046   1.455   4.244   6.378  0.4819  1.2403 -0.7941
 1804SOL     OW17047   2.656   3.084   2.575 -0.1822 -0.0582  0.4809
 1804SOL    HW117048   2.629   3.009   2.630 -0.5941  0.1196  0.5203
 1804SOL    HW217049   2.733   3.113   2.624  0.4827 -0.7312 -0.1760
 1805SOL     OW17050   0.167   3.205  15.339 -0.1300 -0.3432  0.2870
 1805SOL    HW117051   0.162   3.299  15.355  1.6011 -0.0144 -1.1282
 1805SOL    HW217052   0.166   3.200  15.243 -0.5340 -0.7106  0.3053
 1806SOL     OW17053   3.008   0.717   7.405 -0.0177 -0.2160  0.1438
 1806SOL    HW117054   3.068   0.646   7.428  0.2664  1.0791  3.3621
 1806SOL    HW217055   2.926   0.688   7.445  0.2531 -2.4170 -0.8584
 1807SOL     OW17056   0.370   2.737   6.585 -0.1490  0.1636 -0.6590
 1807SOL    HW117057   0.313   2.814   6.582  0.8377  0.8857 -0.6959
 1807SOL    HW217058   0.303   2.671   6.566  1.5818 -1.4410 -1.1875
 1808SOL     OW17059   0.303   4.667   2.698 -0.1355  0.1656 -0.0474
 1808SOL    HW117060   0.353   4.661   2.780 -0.1193 -0.9713 -0.1415
 1808SOL    HW217061   0.283   4.574   2.685  0.8709 -0.4542  2.7467
 1809SOL     OW17062   1.750   4.131   5.023  0.5115 -0.0018 -0.2620
 1809SOL    HW117063   1.752   4.039   4.997 -0.2735 -0.3724  1.0003
 1809SOL    HW217064   1.721   4.178   4.944  0.0632 -0.7087 -0.5203
 1810SOL     OW17065   1.363   4.045  16.773  0.0600  0.3279  0.3358
 1810SOL    HW117066   1.448   4.085  16.790 -0.0670 -0.2922  2.4418
 1810SOL    HW217067   1.398   3.956  16.762  0.0653  0.5729 -1.6526
 1811SOL     OW17068   1.519   4.472   8.329 -0.1467  0.1360  0.1868
 1811SOL    HW117069   1.484   4.414   8.261 -1.4396  0.2882  0.7123
 1811SOL    HW217070   1.528   4.558   8.288 -2.8154 -0.7580 -2.2635
 1812SOL     OW17071   0.154   3.534   9.698 -0.0940  0.3702  0.1787
 1812SOL    HW117072   0.150   3.612   9.643 -0.3107 -0.0561 -0.4009
 1812SOL    HW217073   0.116   3.472   9.637  0.5222  0.9040 -0.7400
 1813SOL     OW17074   0.253   2.584   5.181  0.7872 -0.7555  0.2222
 1813SOL    HW117075   0.194   2.555   5.112  0.5158  1.4745 -0.4742
 1813SOL    HW217076   0.203   2.551   5.256 -1.1773  2.1831  0.1966
 1814SOL     OW17077   2.052   2.715  17.607  0.3908  0.1657 -0.2058
 1814SOL    HW117078   2.019   2.724  17.696 -0.0746 -1.1336 -0.2471
 1814SOL    HW217079   2.030   2.623  17.590 -0.6874  0.2981  0.4668
 1815SOL     OW17080   0.127   0.261   4.369  0.0009 -0.1911 -0.4797
 1815SOL    HW117081   0.197   0.327   4.366  1.8987 -2.1565  0.4765
 1815SOL    HW217082   0.134   0.218   4.284  3.5718 -0.0260 -0.2765
 1816SOL     OW17083   4.072   1.625   8.308  0.2869  0.1726 -0.1577
 1816SOL    HW117084   4.010   1.623   8.381 -1.2933 -0.0981 -1.5007
 1816SOL    HW217085   4.075   1.535   8.275  1.0285  0.5608 -1.1507
 1817SOL     OW17086   3.395   0.208  12.519  0.0222 -0.0750  0.2163
 1817SOL    HW117087   3.440   0.183  12.600 -1.1775  1.1782  1.2524
 1817SOL    HW217088   3.308   0.178  12.545 -0.9120  2.8302  0.4116
 1818SOL     OW17089   4.344   3.124   2.114  0.7751  0.3322  0.1093
 1818SOL    HW117090   4.320   3.085   2.198  0.6266 -1.3212 -0.7121
 1818SOL    HW217091   4.370   3.046   2.065 -0.5958 -0.7346  1.0659
 1819SOL     OW17092   0.909   4.134  12.889  0.5876  0.3763  0.2506
 1819SOL    HW117093   0.922   4.212  12.835 -2.1968  0.4083 -0.3800
 1819SOL    HW217094   0.931   4.166  12.977  0.1745  0.0280  0.4841
 1820SOL     OW17095   2.693   2.848   9.707  0.1095 -0.3845 -0.2031
 1820SOL    HW117096   2.678   2.781   9.640 -0.3764 -0.7237  0.2409
 1820SOL    HW217097   2.691   2.922   9.646 -2.1128  0.2023  0.5708
 1821SOL     OW17098   0.753   3.459  12.681  0.6676 -0.6789 -0.0652
 1821SOL    HW117099   0.824   3.523  12.673 -1.3003  1.2634 -1.9238
 1821SOL    HW217100   0.801   3.383  12.648  2.1785 -0.0053  0.5760
 1822SOL     OW17101   4.716   3.062  15.511 -0.5436 -0.1016  0.3688
 1822SOL    HW117102   0.003   3.125  15.442 -0.0773  0.7317  1.2919
 1822SOL    HW217103   4.715   2.987  15.451  0.4951  0.0293  0.1938
 1823SOL     OW17104   1.625   4.374   7.111 -0.4588  0.1635 -0.2394
 1823SOL    HW117105   1.688   4.442   7.133 -1.8142  0.6185  2.2499
 1823SOL    HW217106   1.565   4.428   7.060  1.6064  2.9792  0.3338
 1824SOL     OW17107   2.981   0.068   8.408 -0.2242 -0.0357  1.0847
 1824SOL    HW117108   2.945   0.062   8.497 -0.3780 -0.4673  0.9952
 1824SOL    HW217109   2.958   4.720   8.367  1.8428 -0.3224  0.5515
 1825SOL     OW17110   1.978   1.810   8.449  0.1207 -0.2386 -0.2075
 1825SOL    HW117111   2.029   1.801   8.369 -0.3369  2.0970 -0.7784
 1825SOL    HW217112   1.955   1.903   8.441  2.4693  0.2233 -1.5547
 1826SOL     OW17113   3.693   3.159   5.445 -0.3543  0.2604 -0.0792
 1826SOL    HW117114   3.621   3.213   5.478 -1.0862 -0.0863 -1.1271
 1826SOL    HW217115   3.752   3.140   5.518  0.0567 -1.1461 -0.7778
 1827SOL     OW17116   3.842   2.434   7.486 -0.4528 -0.0711  0.4422
 1827SOL    HW117117   3.894   2.491   7.429 -1.3183  0.3297  0.0675
 1827SOL    HW217118   3.901   2.424   7.561  0.6602  1.4832 -0.2372
 1828SOL     OW17119   0.373   3.386   4.560 -0.3487 -0.1954  0.0968
 1828SOL    HW117120   0.390   3.335   4.639  0.5966  0.2291  0.1673
 1828SOL    HW217121   0.306   3.443   4.599 -1.7988 -1.4482 -0.5426
 1829SOL     OW17122   4.038   1.589  17.633 -0.0723 -0.1527  0.5605
 1829SOL    HW117123   4.078   1.537  17.563  0.7237 -2.2181  2.5617
 1829SOL    HW217124   4.113   1.637  17.669  0.7960 -0.1643 -1.2400
 1830SOL     OW17125   0.465   0.132   3.724  0.5221  0.2358  0.6250
 1830SOL    HW117126   0.533   0.171   3.669  1.4837 -2.0765  0.1775
 1830SOL    HW217127   0.509   0.077   3.788  1.3624  0.9754  0.6847
 1831SOL     OW17128   0.895   4.009   7.105  0.3231  0.2270  0.1871
 1831SOL    HW117129   0.884   3.921   7.141  0.2385 -0.4536 -1.5343
 1831SOL    HW217130   0.894   4.063   7.185 -0.1259  0.8103 -0.2159
 1832SOL     OW17131   0.294   4.166   9.689  0.4753 -0.1143 -0.0930
 1832SOL    HW117132   0.237   4.138   9.617  2.2228 -0.3478 -1.3753
 1832SOL    HW217133   0.276   4.096   9.752 -1.2635  0.6126  0.2253
 1833SOL     OW17134   2.560   2.126   9.129  0.0025  0.1361 -0.3676
 1833SOL    HW117135   2.528   2.106   9.041  0.6786 -0.2011 -0.5355
 1833SOL    HW217136   2.637   2.182   9.120  0.9203 -0.9126  1.0197
 1834SOL     OW17137   2.850   0.173   4.854  0.3231  0.3579  0.1187
 1834SOL    HW117138   2.864   0.104   4.789  2.3887  0.3872  0.5272
 1834SOL    HW217139   2.793   0.233   4.807  0.6089  0.4057 -0.1643
 1835SOL     OW17140   1.705   4.431   1.759 -0.3596 -0.1984 -0.3392
 1835SOL    HW117141   1.780   4.454   1.704 -0.4401  0.5038 -0.1462
 1835SOL    HW217142   1.723   4.482   1.837  1.1863 -0.4801 -0.5026
 1836SOL     OW17143   4.032   4.409  14.326  0.4060 -0.6056  0.0696
 1836SOL    HW117144   4.083   4.356  14.387 -1.5631 -0.9003  1.4591
 1836SOL    HW217145   4.065   4.493  14.358  1.3259 -1.1488  0.5427
 1837SOL     OW17146   0.215   1.461   2.960 -0.2577 -0.1531  0.4273
 1837SOL    HW117147   0.258   1.430   2.880 -0.3381  1.0929 -0.1004
 1837SOL    HW217148   0.139   1.505   2.924 -0.3814  0.8186  1.8430
 1838SOL     OW17149   4.216   1.085   7.483  0.1835 -0.6187  0.1623
 1838SOL    HW117150   4.300   1.130   7.467  0.1757 -0.8541 -0.5601
 1838SOL    HW217151   4.246   1.029   7.554  1.0790  0.3099  0.5278
 1839SOL     OW17152   4.158   4.702   2.010  0.3530 -0.1262 -0.6031
 1839SOL    HW117153   4.077   0.014   1.988 -1.1819 -2.7411 -0.5963
 1839SOL    HW217154   4.186   0.016   2.087  1.4409 -2.2009  0.3313
 1840SOL     OW17155   1.897   3.282   5.927 -0.1145 -0.3086  0.1361
 1840SOL    HW117156   1.885   3.260   6.019 -1.5130 -0.2989 -0.0547
 1840SOL    HW217157   1.880   3.195   5.892 -2.4989 -0.4652  1.7451
 1841SOL     OW17158   4.393   4.239   0.278 -0.4426  0.7269 -0.0082
 1841SOL    HW117159   4.311   4.267   0.237 -1.2469 -2.1758 -0.3754
 1841SOL    HW217160   4.451   4.315   0.269 -0.2059  0.6597  0.9201
 1842SOL     OW17161   1.612   3.321   1.238 -0.6016  0.4283  0.0431
 1842SOL    HW117162   1.672   3.331   1.164  1.4714  3.4199  2.1011
 1842SOL    HW217163   1.532   3.297   1.192 -1.4745 -0.8907  2.3021
 1843SOL     OW17164   1.138   4.532   3.366 -0.1538 -0.5882  0.1028
 1843SOL    HW117165   1.212   4.496   3.414  0.1253 -1.0861 -0.7108
 1843SOL    HW217166   1.157   4.625   3.368 -0.5481 -0.4659 -1.9075
 1844SOL     OW17167   3.994   3.707   2.101  0.0429 -0.1112 -0.0458
 1844SOL    HW117168   4.042   3.733   2.023 -1.1135  1.2363 -0.3134
 1844SOL    HW217169   3.922   3.770   2.102  0.8803  0.8399  0.0643
 1845SOL     OW17170   1.200   1.394  15.942 -0.4737  0.4399  0.0784
 1845SOL    HW117171   1.238   1.369  16.026 -0.4255  2.9129  0.7799
 1845SOL    HW217172   1.120   1.434  15.976 -2.3267 -1.9031 -1.5501
 1846SOL     OW17173   4.728   3.265   5.291 -0.4456  0.6540  0.5231
 1846SOL    HW117174   0.030   3.351   5.271  0.1733 -0.3898 -2.8166
 1846SOL    HW217175   0.031   3.210   5.222 -1.4942 -0.4688  0.8473
 1847SOL     OW17176   1.988   4.088   1.891  0.0566 -0.0537  0.0422
 1847SOL    HW117177   1.980   4.010   1.837 -0.3202 -0.0830  0.1395
 1847SOL    HW217178   2.039   4.131   1.823 -2.1600  1.4398 -0.6577
 1848SOL     OW17179   2.736   2.726   3.069  0.3352 -0.1827  0.4919
 1848SOL    HW117180   2.706   2.709   2.980 -1.1001 -1.8969  1.3159
 1848SOL    HW217181   2.658   2.775   3.093 -0.0593 -0.2141 -0.7396
 1849SOL     OW17182   2.137   1.696   6.731  0.0965 -0.3085 -0.4745
 1849SOL    HW117183   2.102   1.646   6.805  1.6475 -1.0006 -0.2078
 1849SOL    HW217184   2.157   1.781   6.769 -0.0258 -1.4782  2.2338
 1850SOL     OW17185   2.186   1.332   0.131 -0.1615  0.6854 -0.8372
 1850SOL    HW117186   2.221   1.421   0.131  1.8942 -0.1090  2.3377
 1850SOL    HW217187   2.121   1.339   0.201  1.3097  1.2374  0.4772
 1851SOL     OW17188   0.978   0.971   2.655 -0.0911  0.1229  0.2144
 1851SOL    HW117189   0.986   0.880   2.683  0.4579 -1.1249 -3.9563
 1851SOL    HW217190   0.885   0.981   2.634 -0.3545 -0.1721  1.2477
 1852SOL     OW17191   3.663   0.481   1.490 -0.3425  0.5875 -0.1242
 1852SOL    HW117192   3.676   0.386   1.490  0.0237  0.6359 -1.1087
 1852SOL    HW217193   3.636   0.498   1.400  0.4119 -2.1549 -0.8950
 1853SOL     OW17194   1.549   0.361   0.448  0.1740 -0.2245 -0.1188
 1853SOL    HW117195   1.548   0.456   0.434  1.1555 -0.2285 -0.1639
 1853SOL    HW217196   1.523   0.351   0.540  1.8517 -2.4613  0.1086
 1854SOL     OW17197   4.069   1.127   3.274  0.0923 -0.1325 -0.4502
 1854SOL    HW117198   3.985   1.168   3.252  0.0331 -0.4227 -0.7644
 1854SOL    HW217199   4.122   1.162   3.202  3.0548 -1.1863  1.2187
 1855SOL     OW17200   0.997   4.239   1.569 -0.7197 -0.2619  0.2071
 1855SOL    HW117201   0.965   4.215   1.482  0.0643  0.9737 -0.4249
 1855SOL    HW217202   1.024   4.328   1.546 -0.4925 -0.0800  1.1920
 1856SOL     OW17203   0.278   4.411   9.052 -0.2284  0.5811 -0.2748
 1856SOL    HW117204   0.272   4.438   9.143 -0.8966 -0.8628  0.0910
 1856SOL    HW217205   0.363   4.446   9.024  0.3745  1.2938  2.4631
 1857SOL     OW17206   1.054   1.693  10.795  0.3133 -1.0580  0.6811
 1857SOL    HW117207   0.986   1.629  10.775 -0.7278  1.4344 -3.8565
 1857SOL    HW217208   1.129   1.634  10.790  1.7627  0.8156  0.1148
 1858SOL     OW17209   2.635   1.574   2.368  0.2485  0.0425  0.3495
 1858SOL    HW117210   2.563   1.511   2.357  0.1304 -0.1144  2.0264
 1858SOL    HW217211   2.606   1.650   2.318  0.4629  0.7067  1.2320
 1859SOL     OW17212   0.103   2.095   4.201 -0.4587  0.6303 -0.0577
 1859SOL    HW117213   0.116   2.125   4.291  0.6024 -1.4335  0.4767
 1859SOL    HW217214   0.146   2.009   4.201  1.3066  1.4767 -2.1236
 1860SOL     OW17215   1.586   0.036   4.977 -0.0148 -0.2503  0.0940
 1860SOL    HW117216   1.578   4.707   5.048 -2.2672 -0.0431  0.0283
 1860SOL    HW217217   1.506   0.082   5.003 -0.1804 -0.0709 -0.7383
 1861SOL     OW17218   3.303   2.910   7.694 -0.4187 -0.1035  0.3499
 1861SOL    HW117219   3.235   2.975   7.713  0.6701  1.7753 -2.2506
 1861SOL    HW217220   3.332   2.886   7.782 -1.0829  2.2223  1.2075
 1862SOL     OW17221   2.444   1.653   4.035  0.0155 -0.5197 -0.0896
 1862SOL    HW117222   2.528   1.687   4.002 -0.2385 -0.5027 -0.7316
 1862SOL    HW217223   2.402   1.617   3.957 -0.3579  0.7022 -0.4589
 1863SOL     OW17224   1.633   0.166   8.736  0.1071  0.2908 -0.6805
 1863SOL    HW117225   1.576   0.169   8.813 -0.8949 -1.5406 -1.3584
 1863SOL    HW217226   1.592   0.110   8.671  1.6312 -1.4852 -0.0890
 1864SOL     OW17227   3.978   3.754   5.793  0.1446 -0.4111 -0.4995
 1864SOL    HW117228   3.976   3.796   5.880  0.9034 -1.0773 -0.1667
 1864SOL    HW217229   3.997   3.835   5.745 -1.0803 -0.8467 -1.7009
 1865SOL     OW17230   2.998   1.027  17.620  0.1131 -0.2364 -0.2829
 1865SOL    HW117231   3.044   1.109  17.601  0.1909 -0.1494  0.2830
 1865SOL    HW217232   3.028   0.959  17.559  0.7037  2.2554 -2.7527
 1866SOL     OW17233   0.889   3.276  16.551  0.2051  0.0524  0.3062
 1866SOL    HW117234   0.945   3.227  16.490  0.0626  0.1532  0.0936
 1866SOL    HW217235   0.918   3.252  16.639 -2.7076 -3.7842  0.2477
 1867SOL     OW17236   2.570   3.734   8.669  0.1543 -0.2694  0.6746
 1867SOL    HW117237   2.478   3.739   8.693 -0.0866  2.5193 -0.7893
 1867SOL    HW217238   2.616   3.798   8.722 -0.1823 -0.5859  1.3509
 1868SOL     OW17239   4.628   3.571   6.117  0.3206  0.2997 -0.4259
 1868SOL    HW117240   4.549   3.523   6.091  1.6825 -1.9352 -0.4601
 1868SOL    HW217241   4.692   3.523   6.064  1.1581 -0.4246  1.2191
 1869SOL     OW17242   1.753   0.984   5.384  0.7590  0.0770 -0.5628
 1869SOL    HW117243   1.677   0.927   5.397  0.8305 -0.3791 -2.0943
 1869SOL    HW217244   1.817   0.913   5.376  1.1062  0.1984  1.0843
 1870SOL     OW17245   2.209   3.563   5.758  0.1908  0.0263 -0.2184
 1870SOL    HW117246   2.160   3.643   5.738  2.0926  1.1456 -0.4084
 1870SOL    HW217247   2.156   3.544   5.835  2.4144  0.2768  1.3685
 1871SOL     OW17248   2.246   4.417   4.766 -0.1873  1.0964 -0.3082
 1871SOL    HW117249   2.262   4.427   4.860  0.4915 -2.0169 -0.1021
 1871SOL    HW217250   2.163   4.462   4.749 -1.1996 -0.2924  0.9722
 1872SOL     OW17251   2.078   3.932   7.905  0.0495  0.5542 -0.0308
 1872SOL    HW117252   2.044   3.843   7.899  1.1180  0.0177  1.9974
 1872SOL    HW217253   2.033   3.957   7.986  0.1642 -0.4333  0.3398
 1873SOL     OW17254   2.292   2.327   6.194  0.4690  0.1975  0.0639
 1873SOL    HW117255   2.257   2.293   6.112  0.0262 -0.7389  0.6320
 1873SOL    HW217256   2.227   2.312   6.263 -0.0958  0.7840 -0.3508
 1874SOL     OW17257   0.507   1.281   0.839 -0.2700 -0.0831  0.1082
 1874SOL    HW117258   0.522   1.253   0.930  0.5344  1.0003  0.3030
 1874SOL    HW217259   0.419   1.318   0.846  0.4822  2.2049 -2.4086
 1875SOL     OW17260   3.623   1.423   2.127  0.0003  0.9452 -0.3775
 1875SOL    HW117261   3.595   1.462   2.210  1.4457  1.1830  0.0147
 1875SOL    HW217262   3.538   1.418   2.084 -0.2905  1.5629  0.1200
 1876SOL     OW17263   4.531   4.284   3.301  0.6596 -1.1027  0.4446
 1876SOL    HW117264   4.585   4.359   3.325 -0.6435 -0.8451  2.5368
 1876SOL    HW217265   4.576   4.259   3.220 -0.6797  1.3062 -1.0170
 1877SOL     OW17266   1.818   3.433   8.829 -0.0656 -0.1609  0.0205
 1877SOL    HW117267   1.781   3.424   8.917  3.5882  0.0720  1.5638
 1877SOL    HW217268   1.822   3.529   8.834 -1.6283 -0.0340 -1.1021
 1878SOL     OW17269   0.527   2.248   8.429  0.5102  0.7621  0.7513
 1878SOL    HW117270   0.601   2.239   8.369 -0.1150 -1.5525  0.3324
 1878SOL    HW217271   0.483   2.166   8.407 -0.6193  1.5578  0.1182
 1879SOL     OW17272   3.798   3.024   6.454  0.0032  0.6925  0.4782
 1879SOL    HW117273   3.782   3.025   6.549  0.3260  1.1989  0.5327
 1879SOL    HW217274   3.717   2.982   6.428  1.9251 -1.7089 -1.5564
 1880SOL     OW17275   2.786   1.377   8.368 -0.6669  0.2315  0.2908
 1880SOL    HW117276   2.849   1.311   8.398  2.2104  2.4493 -0.9228
 1880SOL    HW217277   2.838   1.436   8.314 -0.9168 -1.6557 -2.0080
 1881SOL     OW17278   4.599   3.827   7.612 -0.2986 -0.2788 -0.7590
 1881SOL    HW117279   4.692   3.811   7.597 -0.2310 -0.2203 -0.4010
 1881SOL    HW217280   4.578   3.748   7.661 -2.3448  0.3362 -0.6354
 1882SOL     OW17281   3.366   3.785  14.269 -0.7751  0.5397  0.1679
 1882SOL    HW117282   3.450   3.792  14.313  0.0767  0.0501 -1.3791
 1882SOL    HW217283   3.343   3.694  14.291  0.0626  1.1795  3.7648
 1883SOL     OW17284   3.097   0.942   4.862  0.1597  0.3993 -0.2963
 1883SOL    HW117285   3.138   1.029   4.863 -0.8430  0.8765 -0.4860
 1883SOL    HW217286   3.151   0.896   4.926  2.1182  0.2193 -2.0406
 1884SOL     OW17287   1.593   0.111   7.168 -0.0609  0.6890 -0.0601
 1884SOL    HW117288   1.557   0.022   7.162 -2.1708  1.4950  0.5269
 1884SOL    HW217289   1.627   0.112   7.258 -0.3405 -0.1931  0.0613
 1885SOL     OW17290   2.262   1.528   7.398 -0.0512 -0.1675 -0.9362
 1885SOL    HW117291   2.274   1.622   7.384  1.2770 -0.4464 -1.6730
 1885SOL    HW217292   2.346   1.506   7.439 -0.2555  0.5781 -0.1165
 1886SOL     OW17293   3.453   1.723   5.547 -0.3517  0.7101 -0.0113
 1886SOL    HW117294   3.484   1.693   5.462 -0.8038  1.7458 -0.5403
 1886SOL    HW217295   3.395   1.793   5.518  0.6415  1.2177 -0.7921
 1887SOL     OW17296   4.402   2.654   1.820  0.4277 -0.2891  0.1686
 1887SOL    HW117297   4.384   2.577   1.766  0.7426  1.0067 -1.7779
 1887SOL    HW217298   4.492   2.637   1.849  0.3280 -1.8190 -0.4192
 1888SOL     OW17299   4.263   0.096   0.530 -0.3703 -0.5103 -0.0732
 1888SOL    HW117300   4.205   0.166   0.560  2.9787  1.8390  0.9301
 1888SOL    HW217301   4.312   0.153   0.471  0.8780 -0.3406  1.1366
 1889SOL     OW17302   2.861   0.947   7.138 -0.0479 -0.4098  0.2715
 1889SOL    HW117303   2.917   0.873   7.158 -0.8032 -0.9769  0.2676
 1889SOL    HW217304   2.884   0.958   7.046  0.5714  1.3054  0.6174
 1890SOL     OW17305   0.223   2.482   6.572 -0.1822 -0.5661 -0.0722
 1890SOL    HW117306   0.161   2.419   6.536 -0.5412 -0.7552  0.8679
 1890SOL    HW217307   0.181   2.518   6.650  0.6127 -0.0914  0.1381
 1891SOL     OW17308   4.649   3.434  16.913 -0.1201  0.5725  0.2410
 1891SOL    HW117309   4.609   3.475  16.836  2.9076  1.2968 -0.9504
 1891SOL    HW217310   4.586   3.362  16.922 -0.0405  0.5419  0.5587
 1892SOL     OW17311   0.206   4.415  17.124 -0.7259 -0.1762 -0.0857
 1892SOL    HW117312   0.272   4.431  17.191 -0.8701 -0.2988  0.0868
 1892SOL    HW217313   0.172   4.336  17.166 -0.7266 -0.7365 -1.1674
 1893SOL     OW17314   3.303   1.456   1.055  0.2653 -0.0500  0.6351
 1893SOL    HW117315   3.314   1.550   1.042 -0.4574  0.0176  0.5001
 1893SOL    HW217316   3.321   1.415   0.970 -0.8710  0.7770 -0.0139
 1894SOL     OW17317   1.033   0.089   7.400 -0.8482 -0.4543  0.4655
 1894SOL    HW117318   1.004   0.153   7.335 -0.5978 -1.2687 -0.4542
 1894SOL    HW217319   0.951   0.047   7.424  0.5121 -3.1254  0.4976
 1895SOL     OW17320   1.291   1.307   1.797  0.3605  0.3988 -0.1915
 1895SOL    HW117321   1.333   1.384   1.759 -0.9102  1.0203 -0.3491
 1895SOL    HW217322   1.356   1.238   1.793  1.3726  1.3098  0.4064
 1896SOL     OW17323   0.310   1.153   9.629 -0.1376  0.2649  0.0800
 1896SOL    HW117324   0.345   1.130   9.543  2.4373  1.5847  0.7826
 1896SOL    HW217325   0.375   1.117   9.689 -1.0899 -1.9208 -0.1720
 1897SOL     OW17326   2.272   1.967   6.110  0.1021  0.0131 -0.3328
 1897SOL    HW117327   2.278   2.000   6.200  2.0897  0.6437 -0.7024
 1897SOL    HW217328   2.178   1.962   6.094 -0.0422 -1.5726  1.0037
 1898SOL     OW17329   1.802   0.168  17.616 -0.6689 -0.1933 -0.3556
 1898SOL    HW117330   1.765   0.081  17.598 -0.0055 -0.9016  1.7082
 1898SOL    HW217331   1.767   0.217  17.542 -2.8487 -1.4458 -0.1685
 1899SOL     OW17332   2.722   1.681  15.606  0.1918  0.7586  0.6108
 1899SOL    HW117333   2.651   1.692  15.669 -2.0232 -1.7278 -1.4625
 1899SOL    HW217334   2.753   1.772  15.597 -2.0091  1.6936  2.7441
 1900SOL     OW17335   0.091   4.268   4.697  0.0491 -0.4098 -0.5975
 1900SOL    HW117336   0.032   4.318   4.641  0.3967  1.7801  1.0039
 1900SOL    HW217337   0.060   4.302   4.781  2.0361 -0.4011  0.1302
 1901SOL     OW17338   0.333   3.541  10.359  0.3997 -0.8154 -0.7642
 1901SOL    HW117339   0.402   3.475  10.362 -0.2908 -1.4676  0.4539
 1901SOL    HW217340   0.345   3.594  10.280  0.1096  2.3884  1.3502
 1902SOL     OW17341   1.038   3.405   4.197 -0.1644 -0.0118  0.1376
 1902SOL    HW117342   1.056   3.435   4.108  0.6914  0.5008  0.4833
 1902SOL    HW217343   1.117   3.353   4.210  1.2618  1.7312 -1.5551
 1903SOL     OW17344   0.974   3.172   2.758 -0.3514  0.1935  0.0517
 1903SOL    HW117345   1.040   3.111   2.725  0.6429  0.9141  0.7000
 1903SOL    HW217346   1.033   3.212   2.822  1.2777 -1.0498 -0.6634
 1904SOL     OW17347   4.043   4.583   5.331 -0.4269 -0.6786  0.0491
 1904SOL    HW117348   4.127   4.577   5.378  0.3889 -2.3148 -1.5956
 1904SOL    HW217349   3.994   4.518   5.381 -0.8849  0.0659  0.5547
 1905SOL     OW17350   1.068   0.562   0.062 -0.0927 -0.0488  0.0856
 1905SOL    HW117351   1.026   0.605   0.136  1.0324  2.7384 -0.8866
 1905SOL    HW217352   1.151   0.533   0.101 -0.4947  0.5118  1.3502
 1906SOL     OW17353   0.953   2.161   6.526 -0.1394  0.1610  0.2325
 1906SOL    HW117354   0.910   2.232   6.478 -1.9148 -0.7732  0.4213
 1906SOL    HW217355   0.972   2.189   6.616  0.1132  1.4723 -0.2270
 1907SOL     OW17356   1.039   4.040   7.754 -0.1295 -0.2324  0.1455
 1907SOL    HW117357   1.061   4.097   7.828 -1.5461 -1.0383  1.1858
 1907SOL    HW217358   0.959   3.996   7.782 -1.0184 -0.1185 -2.2686
 1908SOL     OW17359   3.113   4.301   3.057  0.0232 -0.0969  0.0315
 1908SOL    HW117360   3.208   4.293   3.064  0.1420  0.2725 -1.2234
 1908SOL    HW217361   3.083   4.211   3.072  0.4705 -0.1840  0.4019
 1909SOL     OW17362   1.795   2.210  12.609 -0.4038 -0.1978  0.7870
 1909SOL    HW117363   1.824   2.137  12.664  0.8882 -0.1853  0.1181
 1909SOL    HW217364   1.726   2.157  12.571 -0.6273  0.6715 -0.0299
 1910SOL     OW17365   3.359   0.834   9.418  0.0740  0.0486 -0.3144
 1910SOL    HW117366   3.383   0.742   9.405 -2.3941 -0.2065 -3.0768
 1910SOL    HW217367   3.437   0.886   9.400 -0.2550  0.0489 -1.7461
 1911SOL     OW17368   0.973   3.012   6.594 -0.4770 -0.0388 -0.1523
 1911SOL    HW117369   0.984   3.007   6.689 -0.3469  0.1652 -0.1565
 1911SOL    HW217370   1.064   3.024   6.566  0.7419 -0.8513  3.3972
 1912SOL     OW17371   0.310   0.010  14.112  0.7067  0.3104 -0.2009
 1912SOL    HW117372   0.312   4.650  14.118  0.6074  0.3809  0.9718
 1912SOL    HW217373   0.403   0.029  14.110  0.6577  0.4718 -0.8470
 1913SOL     OW17374   3.704   0.445   8.132  0.1327  0.1793  0.1289
 1913SOL    HW117375   3.778   0.385   8.131  0.2218  0.2989 -0.3584
 1913SOL    HW217376   3.641   0.385   8.091  1.5032  2.0856 -4.6684
 1914SOL     OW17377   1.655   1.272   9.144 -0.5255  0.1473 -0.3977
 1914SOL    HW117378   1.717   1.345   9.135 -1.0355  0.4476 -1.4976
 1914SOL    HW217379   1.586   1.296   9.205 -0.6105 -1.2762  0.0702
 1915SOL     OW17380   1.482   2.760   8.490 -0.0888  0.1315 -0.5442
 1915SOL    HW117381   1.469   2.720   8.576  0.9399  0.6946 -0.1242
 1915SOL    HW217382   1.578   2.759   8.487 -0.1280  0.1590 -1.8208
 1916SOL     OW17383   3.414   0.098  10.144  0.4661  0.2900  0.4568
 1916SOL    HW117384   3.471   0.041  10.092  0.0492  0.5458 -0.2759
 1916SOL    HW217385   3.469   0.100  10.223  1.1577 -1.9794  0.0406
 1917SOL     OW17386   1.931   3.648   4.487 -0.0179  0.4439 -1.1434
 1917SOL    HW117387   1.926   3.743   4.478  1.5479  0.5880 -0.4374
 1917SOL    HW217388   2.005   3.638   4.428  0.2929 -1.0935 -0.4927
 1918SOL     OW17389   0.492   4.589  17.576 -0.1658 -0.0676  0.3494
 1918SOL    HW117390   0.411   4.640  17.570 -0.1447 -0.0380  0.3177
 1918SOL    HW217391   0.549   4.606  17.501 -1.9762 -0.0247 -1.0033
 1919SOL     OW17392   3.923   4.059   1.358 -0.5250 -0.4049  0.1994
 1919SOL    HW117393   3.904   4.144   1.396 -3.4743  1.1811 -4.7712
 1919SOL    HW217394   3.842   4.012   1.380 -0.3056 -1.8303 -1.9854
 1920SOL     OW17395   1.183   1.221   5.322 -0.4036  0.2824 -0.0479
 1920SOL    HW117396   1.155   1.177   5.242 -0.6463  2.0959 -0.9565
 1920SOL    HW217397   1.187   1.307   5.280 -0.0350 -0.2855 -1.1601
 1921SOL     OW17398   1.460   1.925   8.078  0.4214  0.0995 -0.1080
 1921SOL    HW117399   1.401   1.978   8.025  0.2885  2.5259  2.4660
 1921SOL    HW217400   1.420   1.838   8.081 -0.2455  0.4329  0.8439
 1922SOL     OW17401   3.253   4.057   4.163 -0.6622  0.5008 -0.6697
 1922SOL    HW117402   3.196   3.982   4.177 -1.6667  1.4822  0.5154
 1922SOL    HW217403   3.214   4.134   4.205  0.5170  0.4125  0.6061
 1923SOL     OW17404   0.476   0.061   6.662 -0.2195  0.4078 -0.1516
 1923SOL    HW117405   0.380   0.053   6.663 -0.4738  3.1069 -1.2988
 1923SOL    HW217406   0.500   4.708   6.637 -1.2072  0.0161  0.2675
 1924SOL     OW17407   3.452   0.246   7.566  0.7233 -0.1022  0.0311
 1924SOL    HW117408   3.393   0.299   7.620  2.3396  1.3265  0.3832
 1924SOL    HW217409   3.492   0.310   7.507 -1.9518  0.6719 -0.9636
 1925SOL     OW17410   2.788   2.752  17.599  0.2078 -0.1423  0.2196
 1925SOL    HW117411   2.710   2.749  17.654  0.0268  1.3110  0.0580
 1925SOL    HW217412   2.785   2.844  17.571  0.5237  0.2293  1.4157
 1926SOL     OW17413   2.543   1.759   2.180 -0.4657  0.0073 -0.3297
 1926SOL    HW117414   2.563   1.694   2.113  1.8816 -0.0080  0.3931
 1926SOL    HW217415   2.622   1.812   2.189 -0.5087  0.0465 -0.1774
 1927SOL     OW17416   2.929   3.305   5.212  0.4432  0.1993  0.3656
 1927SOL    HW117417   3.001   3.368   5.211  0.0229  0.6907  1.0320
 1927SOL    HW217418   2.889   3.325   5.297  1.9420 -1.9366  1.5593
 1928SOL     OW17419   3.856   2.091  10.946  0.2826  0.0506  0.3151
 1928SOL    HW117420   3.796   2.118  10.877 -0.0730  3.3378  1.9040
 1928SOL    HW217421   3.929   2.152  10.934  2.8690 -2.8805  0.8661
 1929SOL     OW17422   1.817   0.706   4.928 -0.5024  0.0038 -1.1699
 1929SOL    HW117423   1.908   0.687   4.952 -1.5753  0.0438  3.0120
 1929SOL    HW217424   1.775   0.648   4.991  0.0107  0.4452 -0.4185
 1930SOL     OW17425   2.453   2.121   7.268 -0.3739 -0.4413 -0.1292
 1930SOL    HW117426   2.463   2.070   7.348  0.6615  0.7568  0.5040
 1930SOL    HW217427   2.360   2.144   7.278 -1.0408 -4.2837  2.5089
 1931SOL     OW17428   3.071   1.547  12.407 -0.6011  0.4784 -0.0224
 1931SOL    HW117429   3.151   1.500  12.428 -0.6663  0.7632  0.8825
 1931SOL    HW217430   3.105   1.608  12.342 -1.6168  0.2733 -0.7407
 1932SOL     OW17431   2.462   3.042   7.438 -0.5479 -0.0746 -0.0966
 1932SOL    HW117432   2.544   3.066   7.395 -0.6096 -1.3886 -0.9457
 1932SOL    HW217433   2.460   2.953   7.403  2.4723 -0.8735  1.7340
 1933SOL     OW17434   3.221   0.378   9.120  0.5043 -0.6773  0.3216
 1933SOL    HW117435   3.195   0.366   9.029 -0.7418  0.3150  0.5454
 1933SOL    HW217436   3.135   0.403   9.155  0.5179 -0.0924 -0.0638
 1934SOL     OW17437   0.177   1.755  16.059  0.5341  0.4847  0.2604
 1934SOL    HW117438   0.257   1.742  16.009 -0.6994  1.2206 -1.9206
 1934SOL    HW217439   0.143   1.667  16.075 -2.1161  1.0889 -1.9619
 1935SOL     OW17440   2.989   4.280  10.730 -0.3921  0.2904  0.8644
 1935SOL    HW117441   3.041   4.359  10.711  2.2424 -1.5690  0.4051
 1935SOL    HW217442   2.913   4.321  10.772 -0.1706  2.0266 -0.3962
 1936SOL     OW17443   0.412   3.909   2.274  0.2505 -0.1382  0.4145
 1936SOL    HW117444   0.359   3.867   2.207 -0.0457  2.8878 -1.2550
 1936SOL    HW217445   0.362   3.884   2.352 -1.3891 -0.2229 -0.6570
 1937SOL     OW17446   2.401   1.482   1.681  0.1133  0.6123  0.3000
 1937SOL    HW117447   2.483   1.462   1.637 -0.5256 -1.4389  0.0460
 1937SOL    HW217448   2.417   1.569   1.718  2.4314 -1.1474  3.4272
 1938SOL     OW17449   4.072   0.111  15.817  0.4653 -0.0283 -0.3629
 1938SOL    HW117450   4.099   0.078  15.731 -2.9276  0.0662 -1.4845
 1938SOL    HW217451   3.980   0.133  15.804  0.1107 -2.0433 -1.3282
 1939SOL     OW17452   1.171   4.591   9.702  0.1208 -0.0871 -0.3036
 1939SOL    HW117453   1.176   4.687   9.702 -1.1463 -0.0305 -0.3154
 1939SOL    HW217454   1.133   4.578   9.789  1.3226  1.4574  0.4649
 1940SOL     OW17455   3.965   4.644  11.277  0.0241  0.1833 -0.4051
 1940SOL    HW117456   3.893   4.605  11.326  0.8896  0.4181  1.0456
 1940SOL    HW217457   3.934   4.728  11.243 -3.1367 -0.6978  0.3561
 1941SOL     OW17458   1.298   0.309   4.554 -0.4645 -0.2089 -0.1024
 1941SOL    HW117459   1.393   0.312   4.571 -0.5256 -0.7228  0.3249
 1941SOL    HW217460   1.264   0.307   4.644  0.8436  0.6303  0.4215
 1942SOL     OW17461   1.965   2.633  12.470 -0.0734 -0.4972 -0.0948
 1942SOL    HW117462   1.873   2.645  12.446 -0.0051 -0.6143 -0.4148
 1942SOL    HW217463   1.964   2.545  12.506  0.2793 -1.0629 -1.4763
 1943SOL     OW17464   2.154   2.789   2.451 -1.0712 -0.3949  0.2680
 1943SOL    HW117465   2.168   2.813   2.542 -4.0377 -0.7698  0.8212
 1943SOL    HW217466   2.060   2.803   2.439 -1.2412 -0.8846  1.0412
 1944SOL     OW17467   3.092   1.626  15.609 -0.2108  0.2636 -0.9421
 1944SOL    HW117468   3.065   1.705  15.656 -1.1675 -0.8367  0.3617
 1944SOL    HW217469   3.187   1.623  15.613 -0.2975 -0.7279  0.3770
 1945SOL     OW17470   4.107   0.629   6.358 -0.2224  0.0933 -0.3887
 1945SOL    HW117471   4.138   0.598   6.443 -0.2334 -0.7374 -0.6851
 1945SOL    HW217472   4.016   0.600   6.356  0.0263 -0.7547  1.0365
 1946SOL     OW17473   2.069   2.828   5.808 -0.0639 -0.3772  0.0045
 1946SOL    HW117474   2.075   2.817   5.713  1.2838 -0.1044  0.0554
 1946SOL    HW217475   2.131   2.900   5.822 -0.9262  0.6073 -1.1556
 1947SOL     OW17476   3.478   3.833   7.290  0.0683  0.0248  0.5126
 1947SOL    HW117477   3.403   3.791   7.332  0.7299 -0.7938  0.8577
 1947SOL    HW217478   3.440   3.918   7.264  1.4175  0.4125 -0.2182
 1948SOL     OW17479   2.947   2.999   5.945 -0.2005  0.1035 -0.2753
 1948SOL    HW117480   3.035   2.975   5.975 -0.8447 -1.5271  0.2673
 1948SOL    HW217481   2.899   2.918   5.958  1.9253 -1.0979  0.1037
 1949SOL     OW17482   3.955   2.039   6.273  0.6602 -0.3153 -0.0381
 1949SOL    HW117483   3.910   2.087   6.342  2.5264 -0.6635  1.4018
 1949SOL    HW217484   4.025   1.990   6.317  0.9480 -0.1497 -0.3138
 1950SOL     OW17485   2.091   0.166   0.975 -0.5197 -0.4019  0.3876
 1950SOL    HW117486   2.031   0.234   0.944  0.0573  1.3716  3.0759
 1950SOL    HW217487   2.043   0.084   0.962 -0.0289 -0.2092 -2.6155
 1951SOL     OW17488   3.589   4.633   6.934 -0.1621  0.0097 -0.4672
 1951SOL    HW117489   3.538   4.639   6.853  0.1748 -0.6657 -0.7229
 1951SOL    HW217490   3.611   4.541   6.947 -1.5132  0.2389  3.4353
 1952SOL     OW17491   2.814   1.827   7.522 -0.0606  0.2573  0.0939
 1952SOL    HW117492   2.778   1.849   7.608  0.8024  0.1545  0.4836
 1952SOL    HW217493   2.750   1.775   7.473  0.3304  0.3134 -0.4840
 1953SOL     OW17494   2.407   3.524   5.060  0.7312 -0.6138 -0.0128
 1953SOL    HW117495   2.400   3.593   5.126  0.3393  1.0671 -1.8285
 1953SOL    HW217496   2.419   3.440   5.105 -1.0927 -0.9416 -0.1380
 1954SOL     OW17497   1.363   0.503  14.897  0.4009  0.1438 -0.3268
 1954SOL    HW117498   1.284   0.452  14.878  0.8195  0.2176 -2.3166
 1954SOL    HW217499   1.335   0.594  14.906 -0.2043 -0.2126  1.3729
 1955SOL     OW17500   0.476   3.004  10.591  0.8109 -0.0952  0.3981
 1955SOL    HW117501   0.479   3.078  10.651  1.4183 -2.2927  3.0813
 1955SOL    HW217502   0.436   3.039  10.512 -0.6219 -0.0377  1.1498
 1956SOL     OW17503   2.487   1.766  12.779 -0.0760 -0.5908  0.4599
 1956SOL    HW117504   2.581   1.772  12.762 -0.0038 -0.4268  0.9108
 1956SOL    HW217505   2.493   1.677  12.814 -0.0071 -0.6068  0.4072
 1957SOL     OW17506   2.459   3.313  16.672 -0.1131  0.4374  0.0590
 1957SOL    HW117507   2.394   3.300  16.741 -0.1608 -1.4250 -0.3454
 1957SOL    HW217508   2.529   3.253  16.696 -0.1296 -0.2931 -1.7948
 1958SOL     OW17509   1.632   3.319   5.255  0.4979  0.5205 -0.2216
 1958SOL    HW117510   1.704   3.319   5.317 -0.4718  0.0992  0.9073
 1958SOL    HW217511   1.567   3.270   5.307  0.3370  1.4707  0.4663
 1959SOL     OW17512   3.731   3.885  15.745  0.4656 -0.3240 -0.1388
 1959SOL    HW117513   3.798   3.939  15.787  0.5668  0.2484 -1.0399
 1959SOL    HW217514   3.689   3.945  15.684 -0.8859 -1.4281 -0.2806
 1960SOL     OW17515   0.396   2.226   5.303  0.0187  0.0947  0.6227
 1960SOL    HW117516   0.474   2.212   5.249 -1.6616  0.5973 -1.9138
 1960SOL    HW217517   0.412   2.314   5.336 -0.7227  0.5711 -0.2945
 1961SOL     OW17518   1.204   2.484   2.647 -0.4537 -0.3862  0.2409
 1961SOL    HW117519   1.166   2.532   2.574  0.0072  1.4115  1.1711
 1961SOL    HW217520   1.125   2.433   2.667 -0.0479 -1.4309 -0.8750
 1962SOL     OW17521   4.490   3.098   3.674  0.0872 -0.0957  0.5641
 1962SOL    HW117522   4.405   3.131   3.702  1.2339  0.9481  2.8379
 1962SOL    HW217523   4.489   3.020   3.729  0.9822  1.0068  2.1619
 1963SOL     OW17524   0.710   2.317   7.941  0.1638  0.4429  0.7575
 1963SOL    HW117525   0.791   2.362   7.918 -0.5490  0.1582 -2.2867
 1963SOL    HW217526   0.733   2.225   7.946  0.2705  0.3936 -0.6727
 1964SOL     OW17527   0.985   4.553   8.051  0.6102 -0.8370 -0.0585
 1964SOL    HW117528   0.962   4.646   8.048 -0.1666 -0.9509  2.1269
 1964SOL    HW217529   0.969   4.524   7.961 -0.1309  2.1315 -0.8597
 1965SOL     OW17530   0.741   0.502   8.210 -0.5202 -0.2968  0.1063
 1965SOL    HW117531   0.776   0.440   8.146 -0.1149  3.0601 -2.8674
 1965SOL    HW217532   0.756   0.587   8.169  1.0248 -1.1526 -1.0940
 1966SOL     OW17533   0.983   1.658  16.547 -0.0234  0.6854 -0.0387
 1966SOL    HW117534   0.905   1.713  16.559 -0.7296 -0.5429  1.0574
 1966SOL    HW217535   0.960   1.575  16.589 -0.7509  1.5475  1.2807
 1967SOL     OW17536   1.655   2.514   4.786 -0.3276 -0.2978  0.0392
 1967SOL    HW117537   1.560   2.506   4.775 -0.2583 -0.2664 -0.5330
 1967SOL    HW217538   1.691   2.455   4.720 -0.6902 -0.8645  0.3442
 1968SOL     OW17539   0.986   1.047  16.987  0.0259  0.0717  0.1456
 1968SOL    HW117540   0.904   1.032  17.033 -0.2368 -1.5303 -0.8118
 1968SOL    HW217541   0.991   0.973  16.925  0.9303 -0.6789  1.1209
 1969SOL     OW17542   2.862   1.122   2.560  0.4564  0.5441 -0.2155
 1969SOL    HW117543   2.923   1.195   2.568 -0.5852  1.4456 -0.5179
 1969SOL    HW217544   2.927   1.053   2.568  1.6472  1.6217 -0.5814
 1970SOL     OW17545   0.973   4.222   7.562  0.1187 -0.1134  0.0341
 1970SOL    HW117546   0.992   4.170   7.640 -1.3441 -1.7371 -0.6998
 1970SOL    HW217547   1.047   4.283   7.565 -1.9847  2.5067 -1.3310
 1971SOL     OW17548   0.652   1.365   5.806 -0.1311 -0.8487  0.3328
 1971SOL    HW117549   0.728   1.359   5.749 -0.5209  1.3888 -0.4207
 1971SOL    HW217550   0.655   1.283   5.855 -1.7842  0.0966  2.0220
 1972SOL     OW17551   3.804   4.148   2.902  0.2926 -0.4014  0.3090
 1972SOL    HW117552   3.882   4.144   2.957 -1.3312 -0.8564  2.6052
 1972SOL    HW217553   3.814   4.232   2.857 -0.9001 -1.6044 -2.2259
 1973SOL     OW17554   2.033   0.238   9.891  0.0360 -0.1360  0.4876
 1973SOL    HW117555   2.043   0.316   9.836  1.5647 -0.3967  0.4202
 1973SOL    HW217556   1.950   0.271   9.927  0.0638 -0.0233  0.4485
 1974SOL     OW17557   3.531   2.584  15.642 -0.8328  0.1701  0.6033
 1974SOL    HW117558   3.519   2.630  15.725 -0.6699  1.4871 -0.1123
 1974SOL    HW217559   3.623   2.597  15.620 -0.6056 -1.1867  0.7849
 1975SOL     OW17560   3.741   3.956   9.475  0.9414 -0.3236  0.1016
 1975SOL    HW117561   3.709   3.941   9.386  1.8506  3.0030 -0.7860
 1975SOL    HW217562   3.833   3.954   9.451  0.6753  0.0520 -0.9840
 1976SOL     OW17563   0.531   0.009   9.707  0.1365  0.3726  0.1301
 1976SOL    HW117564   0.494   4.675   9.653 -0.6659  1.7028 -1.0190
 1976SOL    HW217565   0.622   4.717   9.700 -0.3979 -1.1334 -0.8169
 1977SOL     OW17566   1.181   4.009   4.834 -0.5188 -0.1149 -0.1317
 1977SOL    HW117567   1.259   3.998   4.888 -1.0533  0.6745  0.7975
 1977SOL    HW217568   1.158   3.919   4.812  2.1580 -0.7468 -0.3146
 1978SOL     OW17569   3.558   1.229   4.753 -0.0335  0.4815  0.3345
 1978SOL    HW117570   3.650   1.251   4.771 -0.3762  2.0308  0.2323
 1978SOL    HW217571   3.536   1.292   4.685  0.5806 -0.0246 -0.3281
 1979SOL     OW17572   3.934   2.955   8.331  0.2012 -0.4490  0.3783
 1979SOL    HW117573   3.875   2.911   8.392 -0.1917 -0.7288 -0.1968
 1979SOL    HW217574   3.998   2.885   8.314  2.1509  1.6440 -0.9511
 1980SOL     OW17575   2.908   0.021   6.932  0.6519 -0.1026 -0.1221
 1980SOL    HW117576   2.933   0.068   7.012 -1.3577 -2.7739  2.1196
 1980SOL    HW217577   2.935   4.669   6.962  2.7431  0.2100 -1.1420
 1981SOL     OW17578   3.572   0.171  12.731  0.1543  0.6279 -0.3606
 1981SOL    HW117579   3.654   0.127  12.753 -0.4720 -1.0295 -1.3651
 1981SOL    HW217580   3.543   0.208  12.815 -0.3561  1.0153 -0.7134
 1982SOL     OW17581   3.789   0.287   2.675  0.3946  0.1887  0.0583
 1982SOL    HW117582   3.722   0.225   2.647  0.1813  0.2944  0.3388
 1982SOL    HW217583   3.842   0.266   2.598 -0.9209  1.3526 -1.1598
 1983SOL     OW17584   0.702   3.046  14.003 -0.7160  0.5155 -0.2692
 1983SOL    HW117585   0.706   3.074  13.912 -0.4114 -1.5330 -0.8974
 1983SOL    HW217586   0.704   2.950  13.995  1.3560  0.3966  1.7567
 1984SOL     OW17587   0.028   2.295   7.258  0.1915 -0.0786 -0.3638
 1984SOL    HW117588   0.074   2.219   7.295 -1.5405 -0.8860  0.1488
 1984SOL    HW217589   0.104   2.348   7.233  0.4202  1.1898  2.9810
 1985SOL     OW17590   1.360   4.414   9.165  0.5252 -0.2753 -0.4820
 1985SOL    HW117591   1.333   4.484   9.225 -1.7404 -0.9767 -0.7103
 1985SOL    HW217592   1.455   4.424   9.161  0.6260 -1.2144 -0.4697
 1986SOL     OW17593   0.024   2.438   2.445 -0.4704 -0.7390  0.3276
 1986SOL    HW117594   4.713   2.498   2.386  0.0919  0.1611  0.7969
 1986SOL    HW217595   0.044   2.361   2.393 -0.0362 -0.4338  0.0426
 1987SOL     OW17596   3.981   1.051   7.377 -0.6517 -0.4116  0.1303
 1987SOL    HW117597   3.945   1.015   7.459 -2.6824  0.7951 -0.2422
 1987SOL    HW217598   4.066   1.087   7.405  0.2640 -2.6448  0.2259
 1988SOL     OW17599   4.318   3.186  16.335  0.0167  0.1009  0.1685
 1988SOL    HW117600   4.310   3.276  16.303  0.6081 -0.0367 -0.3562
 1988SOL    HW217601   4.390   3.155  16.280 -0.4432 -1.9054  0.6834
 1989SOL     OW17602   3.332   1.309   0.178 -0.0224  0.1798 -0.5317
 1989SOL    HW117603   3.415   1.296   0.224 -0.2786  1.4072  0.2852
 1989SOL    HW217604   3.332   1.402   0.155  0.3953 -0.2938 -2.4472
 1990SOL     OW17605   2.132   1.755  11.821 -0.4426 -0.3650 -0.1436
 1990SOL    HW117606   2.119   1.846  11.848  2.9854  0.8761 -2.6752
 1990SOL    HW217607   2.197   1.726  11.885 -0.0647 -1.7423 -1.1535
 1991SOL     OW17608   2.591   0.200   8.603  0.7070  0.0547 -0.3967
 1991SOL    HW117609   2.678   0.219   8.638  0.5466 -0.1527  0.1136
 1991SOL    HW217610   2.551   0.284   8.626 -2.0368 -1.8252  1.7248
 1992SOL     OW17611   0.329   1.324   6.398  0.0892  0.3603  0.2159
 1992SOL    HW117612   0.390   1.365   6.337 -0.1683  0.5889  0.1060
 1992SOL    HW217613   0.277   1.397   6.432 -0.1894  0.0601  0.4342
 1993SOL     OW17614   3.920   1.489   6.222  0.2867  0.4181  0.0554
 1993SOL    HW117615   3.969   1.453   6.296  0.0331 -2.0033 -0.9279
 1993SOL    HW217616   3.898   1.573   6.261 -0.5659 -0.1154  0.7166
 1994SOL     OW17617   0.857   1.563   2.070  0.5471  0.0774  0.2863
 1994SOL    HW117618   0.896   1.553   1.983 -2.5482 -0.6677 -1.0267
 1994SOL    HW217619   0.922   1.624   2.104 -1.9041  2.6684  0.3128
 1995SOL     OW17620   0.360   2.880  12.258  0.5993 -0.5158 -0.1564
 1995SOL    HW117621   0.345   2.964  12.300 -0.9920 -1.7710  1.7933
 1995SOL    HW217622   0.351   2.906  12.166  1.4564  1.0277  0.2011
 1996SOL     OW17623   2.287   0.110   1.151  0.2816 -0.2413  0.3350
 1996SOL    HW117624   2.246   0.066   1.226  0.7472 -1.3341 -0.0571
 1996SOL    HW217625   2.215   0.149   1.102  0.6001 -0.6427 -0.4445
 1997SOL     OW17626   1.549   1.084   5.822  0.2489 -0.6364  0.6652
 1997SOL    HW117627   1.589   1.004   5.788  0.5505 -1.2154  2.3662
 1997SOL    HW217628   1.611   1.132   5.879  0.5000 -0.1160 -0.0484
 1998SOL     OW17629   2.049   4.725   3.451  0.0564  0.6538 -0.3420
 1998SOL    HW117630   2.064   0.036   3.534  1.7240  1.6670 -1.1833
 1998SOL    HW217631   2.138   4.702   3.424  0.2760  0.0484  0.8818
 1999SOL     OW17632   4.627   1.206   6.950 -0.1916 -0.2454 -0.6659
 1999SOL    HW117633   4.720   1.202   6.972  0.2008  3.1861 -1.6988
 1999SOL    HW217634   4.616   1.295   6.915 -0.8519 -0.0693 -0.0128
 2000SOL     OW17635   2.583   3.527  16.247 -0.3980 -0.4427  0.4117
 2000SOL    HW117636   2.617   3.613  16.272  0.8567 -0.5802 -0.8347
 2000SOL    HW217637   2.490   3.537  16.229 -0.4170  3.5852  2.7285
 2001SOL     OW17638   2.851   3.668  16.122  0.6399  0.2759  0.3590
 2001SOL    HW117639   2.850   3.763  16.125  0.4568  0.3076 -1.1683
 2001SOL    HW217640   2.848   3.654  16.217 -0.3510 -1.1315  0.1142
 2002SOL     OW17641   2.770   3.657   8.172 -0.0579  0.0057  0.4387
 2002SOL    HW117642   2.862   3.651   8.197 -0.4500 -1.2834  1.5285
 2002SOL    HW217643   2.780   3.604   8.093  0.5913 -0.1889  0.6466
 2003SOL     OW17644   2.149   2.271   8.777  0.5857  0.0563 -0.1536
 2003SOL    HW117645   2.177   2.183   8.801 -2.2137 -0.6109  0.6700
 2003SOL    HW217646   2.078   2.297   8.836  0.0675  0.7007 -1.0560
 2004SOL     OW17647   3.925   2.945   8.051 -0.3475 -0.1740 -0.3755
 2004SOL    HW117648   3.906   2.954   8.144  0.9514  1.6871 -0.2866
 2004SOL    HW217649   3.939   2.851   8.042 -1.0470 -0.5252  2.3057
 2005SOL     OW17650   2.111   0.188   7.223 -0.2251 -0.4145  0.1545
 2005SOL    HW117651   2.160   0.106   7.227 -1.0481 -0.8551  1.6346
 2005SOL    HW217652   2.147   0.213   7.139  1.6687  0.3750  1.2067
 2006SOL     OW17653   3.768   1.631  11.593 -0.1714  0.1441 -0.3915
 2006SOL    HW117654   3.770   1.726  11.581  0.7109  0.4587  2.1073
 2006SOL    HW217655   3.837   1.602  11.533  2.1959 -0.4014  2.5643
 2007SOL     OW17656   4.614   2.447   1.445  0.0576 -0.7741 -0.8631
 2007SOL    HW117657   4.658   2.432   1.361  3.4283  0.2413  0.7390
 2007SOL    HW217658   4.527   2.414   1.419  0.4637 -2.1407 -0.5013
 2008SOL     OW17659   1.757   4.626   6.707  0.1630 -0.4028 -0.4132
 2008SOL    HW117660   1.679   4.575   6.686 -0.2991 -0.4758  1.4375
 2008SOL    HW217661   1.795   4.587   6.786  0.5499 -0.4037 -0.6034
 2009SOL     OW17662   0.699   0.710   7.377 -0.3351 -0.0841  0.0324
 2009SOL    HW117663   0.686   0.769   7.302  0.5691  0.3050  0.1881
 2009SOL    HW217664   0.695   0.762   7.457  1.5577  0.0556  0.0330
 2010SOL     OW17665   2.247   2.642  11.138  0.5801  0.3344 -0.1775
 2010SOL    HW117666   2.282   2.554  11.124  0.3888  0.3653 -0.8399
 2010SOL    HW217667   2.159   2.625  11.170  0.1088  1.3550 -0.9109
 2011SOL     OW17668   1.624   1.726   6.180 -0.0801 -0.0375 -0.3169
 2011SOL    HW117669   1.640   1.632   6.180 -3.4626 -0.5789  0.3129
 2011SOL    HW217670   1.581   1.721   6.266  0.1169  0.5623 -0.1832
 2012SOL     OW17671   3.045   0.404  13.948  0.3062  0.1029  0.1475
 2012SOL    HW117672   3.016   0.347  13.876  1.7682 -0.3289 -0.0966
 2012SOL    HW217673   3.137   0.380  13.960  0.1666  0.1228  1.3260
 2013SOL     OW17674   3.252   0.573   2.328  0.7649  0.4174 -0.1712
 2013SOL    HW117675   3.338   0.582   2.287 -0.0407  3.1242 -1.2389
 2013SOL    HW217676   3.220   0.498   2.279  1.1578  0.3784 -0.3697
 2014SOL     OW17677   3.592   0.299   4.203  0.0689  0.7621 -0.0545
 2014SOL    HW117678   3.675   0.324   4.244  1.4599 -3.1618 -0.5193
 2014SOL    HW217679   3.609   0.292   4.109 -0.3484  2.2210 -0.2381
 2015SOL     OW17680   4.167   1.026   8.505 -0.2724  0.1399  0.6053
 2015SOL    HW117681   4.108   0.972   8.557 -0.8771  1.5538  1.3829
 2015SOL    HW217682   4.253   1.000   8.538 -1.2168 -2.5215  0.9499
 2016SOL     OW17683   3.759   0.078   4.643 -0.5019 -0.3673  0.1483
 2016SOL    HW117684   3.837   0.035   4.677  0.3855  1.1602  0.0398
 2016SOL    HW217685   3.744   0.045   4.555 -1.1294 -1.5169  0.6967
 2017SOL     OW17686   4.482   2.085   9.771  0.3690  0.2499 -0.4927
 2017SOL    HW117687   4.552   2.049   9.716  1.4728  1.1145  0.3206
 2017SOL    HW217688   4.527   2.117   9.850  1.2381  2.6630 -1.9790
 2018SOL     OW17689   3.386   4.163   2.361  0.2650  0.2927 -0.2141
 2018SOL    HW117690   3.448   4.090   2.358  1.1228  1.0401 -0.5919
 2018SOL    HW217691   3.404   4.200   2.447  0.9937  2.2453 -1.2111
 2019SOL     OW17692   1.921   3.521   3.493 -0.0462  0.3889  0.7383
 2019SOL    HW117693   1.931   3.441   3.442 -0.6444  0.2773  0.8013
 2019SOL    HW217694   1.962   3.578   3.428 -3.3644  1.9388  0.0358
 2020SOL     OW17695   3.822   4.465  10.653  0.1829 -0.2170 -0.5146
 2020SOL    HW117696   3.765   4.438  10.581 -1.7027  1.5917  0.2842
 2020SOL    HW217697   3.760   4.446  10.724  0.7994 -1.3513 -0.2743
 2021SOL     OW17698   0.707   1.519   2.505 -0.5401 -0.3275 -0.0921
 2021SOL    HW117699   0.622   1.543   2.542  0.1432 -0.1180  1.3661
 2021SOL    HW217700   0.721   1.583   2.436  1.1972 -0.2460  0.3327
 2022SOL     OW17701   3.135   2.412   5.980  0.2931  0.2109  0.5312
 2022SOL    HW117702   3.179   2.328   5.971 -2.2877 -0.9713 -1.1179
 2022SOL    HW217703   3.083   2.410   5.900  2.9510  1.7977 -1.2342
 2023SOL     OW17704   3.055   1.295   2.682 -0.4926 -0.3854 -0.0015
 2023SOL    HW117705   3.088   1.263   2.766  0.4905 -1.8224 -0.9288
 2023SOL    HW217706   3.083   1.386   2.694  0.8425 -0.7070 -0.6459
 2024SOL     OW17707   1.889   3.436   7.600  0.0182 -0.3866 -0.2415
 2024SOL    HW117708   1.863   3.354   7.641  1.9453 -0.3267  1.1141
 2024SOL    HW217709   1.817   3.498   7.612 -0.5402 -1.0214 -0.3388
 2025SOL     OW17710   0.982   3.399   5.193 -0.3081  0.2216 -0.0225
 2025SOL    HW117711   0.900   3.444   5.213 -1.1043 -1.7118  1.0636
 2025SOL    HW217712   1.011   3.454   5.121  0.1654 -0.6287 -0.4809
 2026SOL     OW17713   0.812   4.012   9.519  0.1032 -0.2745 -0.2769
 2026SOL    HW117714   0.768   4.048   9.442 -0.7266 -0.6073  0.0426
 2026SOL    HW217715   0.876   4.078   9.545  1.0417 -1.0932 -0.5242
 2027SOL     OW17716   3.762   0.903   4.658 -0.0265 -0.0244  0.4487
 2027SOL    HW117717   3.804   0.918   4.573 -1.1219  0.6996  0.0356
 2027SOL    HW217718   3.801   0.975   4.707 -0.0618  0.8407 -0.7850
 2028SOL     OW17719   2.285   0.391   9.660 -0.4435 -0.6998 -0.2402
 2028SOL    HW117720   2.215   0.327   9.660 -3.4286  2.5871 -1.2328
 2028SOL    HW217721   2.251   0.464   9.711  1.3771 -0.8041  1.1496
 2029SOL     OW17722   3.489   0.667  17.578 -0.4635  0.2215 -0.0972
 2029SOL    HW117723   3.508   0.755  17.546  0.1682  0.2195  0.2689
 2029SOL    HW217724   3.396   0.657  17.560  0.0006  0.2314 -2.4380
 2030SOL     OW17725   0.178   4.254   8.663  0.0445 -0.7353 -0.2573
 2030SOL    HW117726   0.134   4.286   8.584  3.0713 -1.1610 -2.1208
 2030SOL    HW217727   0.182   4.331   8.720 -1.9406 -0.0370 -1.0694
 2031SOL     OW17728   2.397   4.718   5.661 -0.9029  0.1015 -0.0927
 2031SOL    HW117729   2.461   0.049   5.636 -0.1221 -0.9493 -0.8784
 2031SOL    HW217730   2.394   0.002   5.755 -2.6534 -0.5927 -0.0043
 2032SOL     OW17731   0.602   0.932   9.437 -0.9110 -0.7121  0.8332
 2032SOL    HW117732   0.636   0.878   9.509 -0.8194 -1.4403  0.2393
 2032SOL    HW217733   0.528   0.873   9.425 -0.7863 -0.6963 -0.0374
 2033SOL     OW17734   3.539   2.197   8.566  0.0646  0.2966 -0.5745
 2033SOL    HW117735   3.499   2.200   8.654  2.3749 -0.2754  0.4907
 2033SOL    HW217736   3.550   2.102   8.572  1.3877  0.5079  0.4372
 2034SOL     OW17737   3.117   4.483   8.130  0.2124  0.5009 -0.5491
 2034SOL    HW117738   3.029   4.515   8.107  0.0543  0.5399  0.1193
 2034SOL    HW217739   3.111   4.389   8.143  2.6887  0.6080  1.2473
 2035SOL     OW17740   2.225   2.122   8.272 -0.2203 -0.4335 -0.6504
 2035SOL    HW117741   2.227   2.131   8.368  1.0689  1.6758 -0.8645
 2035SOL    HW217742   2.163   2.191   8.248 -0.3191  0.6707  2.7773
 2036SOL     OW17743   3.200   3.601   6.436 -0.2041 -0.2650  0.2585
 2036SOL    HW117744   3.228   3.566   6.521  3.0404 -1.2674 -1.2284
 2036SOL    HW217745   3.154   3.532   6.389 -1.0115 -0.5018  1.3930
 2037SOL     OW17746   4.329   1.620   7.884 -0.2458  0.1414 -0.4589
 2037SOL    HW117747   4.356   1.594   7.796  0.1015  1.4463 -0.7310
 2037SOL    HW217748   4.400   1.679   7.908  0.6701 -0.6055 -1.3428
 2038SOL     OW17749   3.054   1.939   8.286  0.1143  0.5420  0.7530
 2038SOL    HW117750   3.117   1.993   8.238  0.2067  0.8662  1.2459
 2038SOL    HW217751   3.099   1.855   8.272 -3.1086 -1.2565  1.3815
 2039SOL     OW17752   3.969   2.930   7.599 -0.6778 -0.3275  0.3086
 2039SOL    HW117753   3.986   3.023   7.615  0.9504 -0.9654  2.3161
 2039SOL    HW217754   3.876   2.926   7.621 -0.7769  0.0615 -0.0289
 2040SOL     OW17755   0.556   0.024   7.617  0.3780  0.1386 -0.1892
 2040SOL    HW117756   0.485   0.026   7.681 -2.8285 -2.5602 -3.7240
 2040SOL    HW217757   0.514   0.088   7.560  0.1475  1.0303  0.9732
 2041SOL     OW17758   2.877   3.492   2.422  0.0685  0.1068  0.7578
 2041SOL    HW117759   2.920   3.448   2.495 -0.0411 -0.3712  0.5317
 2041SOL    HW217760   2.794   3.446   2.437 -0.4544  0.3797 -1.2123
 2042SOL     OW17761   4.403   2.965  16.513 -0.0800 -0.0738  0.0243
 2042SOL    HW117762   4.348   3.031  16.471 -2.0574 -1.7141  0.0412
 2042SOL    HW217763   4.463   2.925  16.450  0.8104 -0.9255  1.4133
 2043SOL     OW17764   0.232   3.478   9.246  0.0238 -0.7910 -1.0240
 2043SOL    HW117765   0.252   3.486   9.153 -0.7047  1.0426 -1.0390
 2043SOL    HW217766   0.171   3.552   9.250 -2.4294 -2.8914  0.7105
 2044SOL     OW17767   0.664   3.270   5.706 -0.7544  0.3135  0.3188
 2044SOL    HW117768   0.583   3.225   5.681 -2.1841  1.5245  2.7556
 2044SOL    HW217769   0.641   3.295   5.795 -1.9910 -0.6254  0.2627
 2045SOL     OW17770   3.477   0.081  11.138 -0.2591  0.2793  0.0878
 2045SOL    HW117771   3.424   0.124  11.071  1.5943  0.1720 -1.4560
 2045SOL    HW217772   3.530   0.150  11.179 -1.8676  0.9092  1.1208
 2046SOL     OW17773   1.818   2.338  17.667  0.1998 -0.4677 -0.7764
 2046SOL    HW117774   1.909   2.368  17.670 -0.6108  1.4407  4.6437
 2046SOL    HW217775   1.826   2.242  17.665  0.0867 -0.4375 -2.2784
 2047SOL     OW17776   3.755   4.705   8.684 -0.0947 -0.7365  0.1566
 2047SOL    HW117777   3.768   0.037   8.617  1.8629 -1.1569  0.1243
 2047SOL    HW217778   3.746   0.024   8.762 -0.9411  1.7615 -1.6535
 2048SOL     OW17779   4.528   3.946   3.063 -0.0174  0.0316 -0.0559
 2048SOL    HW117780   4.527   3.909   3.151  0.5468  1.4769  0.5592
 2048SOL    HW217781   4.450   4.001   3.068  0.6542  0.9545  0.1984
 2049SOL     OW17782   1.150   2.040   1.424 -0.5134  0.2844 -0.0627
 2049SOL    HW117783   1.137   1.954   1.385  3.2966 -0.1652 -0.4300
 2049SOL    HW217784   1.201   2.085   1.355  0.0831 -2.4875 -1.4415
 2050SOL     OW17785   1.157   4.647   3.080  0.3490  0.4828 -0.4308
 2050SOL    HW117786   1.160   0.008   3.085 -1.3109  0.3658  3.1143
 2050SOL    HW217787   1.159   4.625   3.173 -1.8376  0.2806 -0.4249
 2051SOL     OW17788   4.734   0.961  15.700 -0.2449 -0.3583  0.0242
 2051SOL    HW117789   4.665   0.927  15.642  0.1226  1.3066 -1.4121
 2051SOL    HW217790   4.715   0.916  15.782 -0.8518 -0.6543 -0.2754
 2052SOL     OW17791   1.318   2.203   5.659  0.2362 -0.0744 -0.0046
 2052SOL    HW117792   1.257   2.134   5.683  0.3246 -0.2458 -0.2672
 2052SOL    HW217793   1.272   2.283   5.684  1.3953  0.1787  1.3006
 2053SOL     OW17794   3.212   1.369   7.063  0.0848  0.6440 -0.4735
 2053SOL    HW117795   3.243   1.363   7.153 -1.8706 -1.1488  0.0769
 2053SOL    HW217796   3.142   1.435   7.062 -1.1886 -0.6828  1.2971
 2054SOL     OW17797   0.897   1.293   0.515  0.1228 -0.3001 -0.3432
 2054SOL    HW117798   0.836   1.312   0.586  1.1055 -1.5877  0.8434
 2054SOL    HW217799   0.844   1.302   0.436  1.4887 -0.8867 -1.3264
 2055SOL     OW17800   3.894   2.015  13.240  0.3855 -0.6038 -0.8417
 2055SOL    HW117801   3.941   1.990  13.160 -1.1129 -1.7479 -1.3442
 2055SOL    HW217802   3.905   2.110  13.237  0.3904 -0.6056 -0.8911
 2056SOL     OW17803   0.360   4.586  12.578  0.6308  0.2301 -0.1897
 2056SOL    HW117804   0.374   4.508  12.524 -1.8966 -0.0866 -0.4133
 2056SOL    HW217805   0.359   4.654  12.510  1.6301  0.0729 -0.3601
 2057SOL     OW17806   2.500   2.765   1.850 -0.8030 -0.3737  0.9959
 2057SOL    HW117807   2.481   2.819   1.927  0.5467 -0.4293  1.3626
 2057SOL    HW217808   2.533   2.680   1.879 -3.0400 -1.2491  0.9661
 2058SOL     OW17809   0.782   0.357   2.544 -0.4350 -0.3765  0.0362
 2058SOL    HW117810   0.824   0.397   2.468 -0.4683 -0.8424 -0.2250
 2058SOL    HW217811   0.832   0.278   2.564 -0.6677 -0.5098  0.0916
 2059SOL     OW17812   1.137   2.007  12.520 -0.5676  0.0892 -0.4031
 2059SOL    HW117813   1.199   1.936  12.504 -1.5721 -0.4337 -2.0013
 2059SOL    HW217814   1.063   1.958  12.557 -0.0107 -0.8126 -0.4828
 2060SOL     OW17815   3.335   4.699   5.243 -0.0309  0.1528  0.3588
 2060SOL    HW117816   3.263   4.672   5.186  1.7145  2.3827 -2.8716
 2060SOL    HW217817   3.304   4.716   5.332 -3.4477 -2.7772 -0.2795
 2061SOL     OW17818   0.395   0.872   3.922 -0.4509 -0.0316 -0.2053
 2061SOL    HW117819   0.318   0.908   3.878 -1.6211 -0.5567  1.3784
 2061SOL    HW217820   0.459   0.883   3.853 -2.3801 -3.7107 -2.6019
 2062SOL     OW17821   0.420   1.667   1.527 -0.4708 -0.1348 -0.0229
 2062SOL    HW117822   0.332   1.664   1.564  0.0982 -1.7945  1.1958
 2062SOL    HW217823   0.430   1.584   1.482 -3.2159 -1.4766  1.8570
 2063SOL     OW17824   1.037   0.426   6.742 -0.0169  0.0373  0.3762
 2063SOL    HW117825   0.968   0.380   6.790 -1.4867 -2.5793 -4.2520
 2063SOL    HW217826   1.007   0.517   6.740 -0.5673 -0.1699 -0.8798
 2064SOL     OW17827   2.449   0.158   7.889 -0.4546  0.0546 -0.5213
 2064SOL    HW117828   2.485   0.129   7.805  0.0018 -0.6119 -0.0970
 2064SOL    HW217829   2.358   0.179   7.870 -0.6775  0.7950  1.4115
 2065SOL     OW17830   0.493   2.777   7.610 -0.0946  0.3460 -0.0045
 2065SOL    HW117831   0.427   2.829   7.564 -1.6351 -0.6326  1.1143
 2065SOL    HW217832   0.436   2.711   7.649  0.2075 -1.0946 -1.9750
 2066SOL     OW17833   4.373   1.534   4.200 -0.0873  0.3991  0.2436
 2066SOL    HW117834   4.343   1.523   4.110 -1.2845 -0.6166  0.7725
 2066SOL    HW217835   4.324   1.608   4.238 -0.6351  0.4113 -0.4850
 2067SOL     OW17836   0.173   1.378   4.045  0.1634 -0.8459  0.4882
 2067SOL    HW117837   0.162   1.473   4.046  1.6749 -0.6574 -0.7347
 2067SOL    HW217838   0.099   1.339   4.092  0.6280 -2.4861 -0.1469
 2068SOL     OW17839   1.019   0.769   3.303  0.2036 -0.0862 -0.1371
 2068SOL    HW117840   1.006   0.682   3.266  1.1871 -0.4257  0.3021
 2068SOL    HW217841   0.948   0.815   3.258 -0.9072 -0.5339  1.1635
 2069SOL     OW17842   0.062   2.389   2.706  0.4906  0.2776 -0.2252
 2069SOL    HW117843   0.058   2.425   2.617 -0.0478  0.5971 -0.0721
 2069SOL    HW217844   0.154   2.363   2.697  0.4409 -0.7716  2.2428
 2070SOL     OW17845   1.662   1.330   1.645 -0.0206  0.5656 -0.6414
 2070SOL    HW117846   1.628   1.246   1.675  3.1556 -0.2748  0.6020
 2070SOL    HW217847   1.600   1.337   1.572 -0.6663 -0.6712 -0.2150
 2071SOL     OW17848   0.838   1.503   9.060  0.6359 -0.4733  0.6301
 2071SOL    HW117849   0.847   1.594   9.031  0.1969 -0.6380 -0.0217
 2071SOL    HW217850   0.745   1.507   9.082  0.6105 -1.5082  0.7031
 2072SOL     OW17851   3.052   3.406   1.296 -0.4130  0.7149  0.0193
 2072SOL    HW117852   3.141   3.386   1.325 -0.0053 -0.2177 -1.8942
 2072SOL    HW217853   3.006   3.443   1.371 -2.1073 -1.3819  0.0054
 2073SOL     OW17854   3.424   2.378  12.107 -0.2828 -0.0124 -0.7825
 2073SOL    HW117855   3.517   2.360  12.119 -0.2714 -1.6489 -3.3642
 2073SOL    HW217856   3.413   2.382  12.012 -0.1719  0.6607 -0.7656
 2074SOL     OW17857   2.747   2.057  12.623  0.6271  0.2990 -0.0230
 2074SOL    HW117858   2.755   1.974  12.670  0.6630  1.0331  1.2668
 2074SOL    HW217859   2.712   2.028  12.539 -2.3671  3.2845  0.2083
 2075SOL     OW17860   0.492   1.999   9.571 -0.1943 -0.1958 -0.1773
 2075SOL    HW117861   0.455   1.970   9.488  0.9662 -0.8675 -0.4653
 2075SOL    HW217862   0.586   1.998   9.553 -0.7469 -1.2507 -2.9457
 2076SOL     OW17863   4.690   4.715   8.545  0.3673  0.0674 -0.3575
 2076SOL    HW117864   4.731   4.690   8.462  3.7166 -2.0975  1.9339
 2076SOL    HW217865   4.595   4.709   8.533  0.2974  2.4605 -0.8847
 2077SOL     OW17866   0.095   2.461  10.130 -0.2533 -0.1715  0.0255
 2077SOL    HW117867   0.118   2.404  10.203 -0.3937 -0.9740 -0.5604
 2077SOL    HW217868   0.060   2.397  10.068  1.2042 -0.0826 -0.8947
 2078SOL     OW17869   4.244   0.668   8.902 -0.0355 -0.3680  0.8827
 2078SOL    HW117870   4.241   0.572   8.908  3.7456 -0.5948 -0.9374
 2078SOL    HW217871   4.267   0.666   8.809  2.5895  0.9817  1.5087
 2079SOL     OW17872   1.055   0.988   2.963 -0.4782  0.7335  0.0760
 2079SOL    HW117873   1.094   1.067   2.927 -0.5483  1.9179  2.5685
 2079SOL    HW217874   1.128   0.927   2.979  0.8162  1.6957 -2.2154
 2080SOL     OW17875   1.212   2.417   7.401  0.0934  0.2657 -0.5353
 2080SOL    HW117876   1.248   2.505   7.396 -1.0568  0.9193  3.0332
 2080SOL    HW217877   1.196   2.390   7.311  1.4992  1.3095 -1.0934
 2081SOL     OW17878   1.140   1.526   1.532 -0.2621  0.1357  0.1925
 2081SOL    HW117879   1.209   1.592   1.533  0.9636 -1.1031 -1.8465
 2081SOL    HW217880   1.184   1.454   1.487  0.2851  0.1627  0.6791
 2082SOL     OW17881   3.262   0.876   1.869 -0.4532  0.1521 -0.0212
 2082SOL    HW117882   3.302   0.960   1.894  0.6254  0.0172 -1.2825
 2082SOL    HW217883   3.266   0.828   1.952  1.1454 -0.1175 -0.2594
 2083SOL     OW17884   4.125   0.217   2.153 -0.0151 -0.1386  0.3647
 2083SOL    HW117885   4.197   0.268   2.117 -0.9716 -0.2379 -1.6776
 2083SOL    HW217886   4.132   0.259   2.239  4.3899  2.7606 -1.4196
 2084SOL     OW17887   4.434   1.373  14.825 -0.7340 -0.3943  0.0440
 2084SOL    HW117888   4.523   1.371  14.790  0.1292 -2.2335  2.3195
 2084SOL    HW217889   4.422   1.280  14.847 -0.0863  0.3663  3.5775
 2085SOL     OW17890   0.001   2.364   6.185  0.6274  0.5756 -0.2238
 2085SOL    HW117891   0.062   2.349   6.258  0.3209 -2.6164 -0.6451
 2085SOL    HW217892   4.672   2.302   6.220  0.3542  0.6664 -0.5782
 2086SOL     OW17893   1.866   3.193  10.141  0.1591  0.2683 -0.5344
 2086SOL    HW117894   1.935   3.150  10.091  2.0549  1.8085  0.7593
 2086SOL    HW217895   1.788   3.159  10.096  1.6129  0.1409 -2.9485
 2087SOL     OW17896   2.933   2.436   8.436 -0.1255  0.1058 -0.6441
 2087SOL    HW117897   2.975   2.506   8.486  0.4670 -0.5402 -0.2467
 2087SOL    HW217898   3.006   2.375   8.436  0.7207  1.1209  1.5295
 2088SOL     OW17899   3.843   0.351   1.062  0.0869  0.0191 -0.3240
 2088SOL    HW117900   3.809   0.425   1.011 -0.7293  0.6084  1.0624
 2088SOL    HW217901   3.766   0.297   1.042 -0.3237  1.1316 -1.7219
 2089SOL     OW17902   0.071   0.744   4.874  0.2951  0.0171 -0.3503
 2089SOL    HW117903   0.049   0.775   4.787 -1.3155  1.2944  0.5095
 2089SOL    HW217904   0.010   0.799   4.923  0.3430  0.9036 -1.3108
 2090SOL     OW17905   0.964   1.423   8.829  0.2584  0.2853  0.7465
 2090SOL    HW117906   1.052   1.401   8.859  0.4668 -0.0895 -0.1195
 2090SOL    HW217907   0.929   1.473   8.902 -0.5918  1.0182 -0.1622
 2091SOL     OW17908   1.509   2.850  16.184 -0.0314  0.1388  0.3352
 2091SOL    HW117909   1.576   2.811  16.241  1.4263  1.8417 -0.2363
 2091SOL    HW217910   1.500   2.930  16.235  1.3771  0.8362 -0.5067
 2092SOL     OW17911   3.445   0.531   8.145 -0.1272  0.0082  0.1382
 2092SOL    HW117912   3.540   0.521   8.139 -0.0105  1.2783 -0.1194
 2092SOL    HW217913   3.412   0.452   8.188  0.3568  0.8490  2.0318
 2093SOL     OW17914   3.892   4.192   7.373 -0.1286  0.6572  0.7146
 2093SOL    HW117915   3.864   4.144   7.295  1.0525  1.2296 -0.0644
 2093SOL    HW217916   3.900   4.122   7.437 -3.4392 -0.1831  0.2183
 2094SOL     OW17917   0.155   3.211   7.725  0.3164 -0.0415  0.0756
 2094SOL    HW117918   0.241   3.250   7.706  1.0799 -2.0425 -0.5603
 2094SOL    HW217919   0.176   3.118   7.736 -0.9417 -0.1265  1.6995
 2095SOL     OW17920   4.561   3.223   0.937  0.5838  0.0434 -0.6367
 2095SOL    HW117921   4.652   3.236   0.912  0.5863 -1.2197 -1.2979
 2095SOL    HW217922   4.543   3.136   0.900 -2.4074 -1.0631  3.4388
 2096SOL     OW17923   2.199   3.377   4.218 -0.4305 -0.1593  0.7837
 2096SOL    HW117924   2.186   3.430   4.139 -0.2046 -0.3900  0.5891
 2096SOL    HW217925   2.190   3.443   4.286  3.4189  3.4459 -2.2394
 2097SOL     OW17926   1.031   3.708   5.094 -0.1019  0.8532 -0.8522
 2097SOL    HW117927   1.088   3.680   5.022  1.2548  1.2770  0.0688
 2097SOL    HW217928   0.958   3.744   5.043 -1.0079  0.4383  0.1483
 2098SOL     OW17929   4.446   0.576   4.313  0.1776 -0.3865  0.0615
 2098SOL    HW117930   4.506   0.650   4.322  1.3211 -1.1845 -1.1214
 2098SOL    HW217931   4.433   0.546   4.403  2.1300 -0.3659  0.3362
 2099SOL     OW17932   4.278   1.279   6.024 -0.6763 -0.5592 -0.4823
 2099SOL    HW117933   4.191   1.313   6.003 -1.1036 -2.1516 -1.2909
 2099SOL    HW217934   4.335   1.318   5.958 -3.5219 -0.4739 -2.8810
 2100SOL     OW17935   0.500   1.115   1.090  0.2829  0.3581 -0.2012
 2100SOL    HW117936   0.527   1.086   1.177  0.7600  0.1328 -0.4224
 2100SOL    HW217937   0.558   1.067   1.032  1.0256  2.0749 -0.8822
 2101SOL     OW17938   3.024   0.869   2.574  0.0883  0.1767  0.2422
 2101SOL    HW117939   3.112   0.834   2.585 -0.0088  0.4351  1.9074
 2101SOL    HW217940   2.995   0.813   2.502 -0.8529 -0.0588  0.8017
 2102SOL     OW17941   0.235   2.343  12.615 -0.2082 -0.6213  0.1148
 2102SOL    HW117942   0.201   2.317  12.529  1.9046 -0.5398 -0.7464
 2102SOL    HW217943   0.293   2.414  12.588 -3.1709  0.6336 -2.8953
 2103SOL     OW17944   3.488   1.857   3.674  0.1941  0.3277  0.3430
 2103SOL    HW117945   3.499   1.926   3.608 -0.6412 -0.3686 -0.5063
 2103SOL    HW217946   3.509   1.910   3.751 -0.7103  0.1864  0.6798
 2104SOL     OW17947   3.409   0.680   7.419 -0.0672 -0.3226  0.3665
 2104SOL    HW117948   3.414   0.761   7.471 -1.4484  0.2169 -0.3346
 2104SOL    HW217949   3.336   0.632   7.458 -0.3858 -0.2113 -0.0925
 2105SOL     OW17950   2.507   3.121  12.477  0.0670 -0.0448 -0.1883
 2105SOL    HW117951   2.473   3.099  12.563 -0.4241  0.8874 -0.1371
 2105SOL    HW217952   2.446   3.189  12.446  1.8855  1.1404 -1.1884
 2106SOL     OW17953   0.093   3.995   8.848 -0.8204  0.0014  0.1845
 2106SOL    HW117954   0.124   4.033   8.931 -1.5432  0.7323  0.1176
 2106SOL    HW217955   0.066   4.077   8.807 -0.3434 -0.7266 -1.5486
 2107SOL     OW17956   4.030   3.294   2.567  0.3496 -0.3508  0.1977
 2107SOL    HW117957   3.965   3.273   2.635  1.2189  0.3527  1.2549
 2107SOL    HW217958   4.092   3.223   2.583 -0.5599 -1.6567 -2.0826
 2108SOL     OW17959   1.885   2.493   6.983  0.5792  0.5791  0.0333
 2108SOL    HW117960   1.886   2.403   7.016  2.1570 -0.2418 -2.2770
 2108SOL    HW217961   1.947   2.530   7.046  0.6795  0.7722 -0.1755
 2109SOL     OW17962   4.085   0.033  11.648 -0.3891 -0.2347  0.4654
 2109SOL    HW117963   4.141   4.726  11.713 -0.4144  0.6001  1.0353
 2109SOL    HW217964   4.060   4.689  11.602 -0.6604  0.6892 -0.9886
 2110SOL     OW17965   0.518   4.653   6.209  0.9880  0.2452 -0.0224
 2110SOL    HW117966   0.438   4.620   6.250  0.7709 -1.8995 -2.1518
 2110SOL    HW217967   0.571   4.638   6.288 -0.1303 -0.9135  0.4965
 2111SOL     OW17968   1.862   2.925   3.198  0.3168 -0.0097  0.0216
 2111SOL    HW117969   1.920   2.872   3.145  2.2433  0.4794  1.6379
 2111SOL    HW217970   1.836   2.994   3.136 -1.3762 -0.5256  0.1404
 2112SOL     OW17971   0.623   3.538   6.770 -0.0866  0.0329 -0.2908
 2112SOL    HW117972   0.567   3.461   6.758  0.4905 -0.2346 -1.2746
 2112SOL    HW217973   0.710   3.498   6.768  1.5140  3.6170 -0.9852
 2113SOL     OW17974   1.094   0.995   5.986 -0.0370 -0.4633  0.0019
 2113SOL    HW117975   1.158   1.040   5.931  2.4685  1.4456  4.4449
 2113SOL    HW217976   1.010   1.039   5.970  1.3594  2.3553  0.3998
 2114SOL     OW17977   1.740   4.601   5.378 -0.4481  0.0325  0.5036
 2114SOL    HW117978   1.771   4.689   5.355 -0.1517 -0.4034 -0.7478
 2114SOL    HW217979   1.795   4.582   5.454 -2.1872  1.9244  2.2431
 2115SOL     OW17980   0.182   2.691  17.288  0.1388 -0.2072  0.4185
 2115SOL    HW117981   0.174   2.612  17.341 -0.5561 -1.4096 -1.4777
 2115SOL    HW217982   0.148   2.658  17.205  3.1024  1.2065 -1.3583
 2116SOL     OW17983   4.177   0.724   7.515 -0.1517 -0.2022 -0.1262
 2116SOL    HW117984   4.246   0.692   7.458  0.4145  0.0565  0.4191
 2116SOL    HW217985   4.230   0.790   7.559 -1.8412  0.9373  0.2243
 2117SOL     OW17986   0.958   3.890  14.828 -0.5085 -0.0049 -0.1542
 2117SOL    HW117987   0.979   3.929  14.743  0.5658 -1.1565 -0.4265
 2117SOL    HW217988   0.887   3.830  14.805 -1.5772  1.2851 -0.1756
 2118SOL     OW17989   0.249   2.193   9.348 -0.3566 -0.3326 -0.1109
 2118SOL    HW117990   0.154   2.201   9.356 -0.4097  0.4635 -1.5314
 2118SOL    HW217991   0.267   2.249   9.423  0.2144 -0.0152 -0.4832
 2119SOL     OW17992   4.289   2.236   9.661  0.4608 -0.1203  0.2310
 2119SOL    HW117993   4.354   2.167   9.674 -0.9024 -1.0727  2.1387
 2119SOL    HW217994   4.349   2.297   9.619  0.1416  1.1963  1.6796
 2120SOL     OW17995   3.771   0.079   8.443  0.0859  0.7477  0.0071
 2120SOL    HW117996   3.763   4.729   8.402  1.3757  0.4947  0.2977
 2120SOL    HW217997   3.865   0.085   8.430  0.1490  0.4414  0.3273
 2121SOL     OW17998   2.414   2.390   9.054 -0.4822  0.6617  0.0728
 2121SOL    HW117999   2.475   2.317   9.041 -0.4170  0.7836 -0.3336
 2121SOL    HW218000   2.408   2.431   8.967 -0.4683  2.6113  0.9932
 2122SOL     OW18001   2.806   0.147  13.357  0.1920  0.1662  0.4041
 2122SOL    HW118002   2.899   0.125  13.365 -0.3761 -1.9825  1.2005
 2122SOL    HW218003   2.792   0.174  13.266  1.1198 -0.1812  0.1532
 2123SOL     OW18004   0.434   3.119   2.865 -0.0257  0.4803  0.4833
 2123SOL    HW118005   0.517   3.075   2.883 -0.9891 -1.7677 -0.5694
 2123SOL    HW218006   0.418   3.177   2.940  1.7440 -1.5831  2.4485
 2124SOL     OW18007   1.720   3.530  16.184 -0.4094 -0.6932  0.1453
 2124SOL    HW118008   1.666   3.608  16.165 -0.7462 -0.8099  0.6105
 2124SOL    HW218009   1.807   3.561  16.160 -1.0585  0.4933 -0.7239
 2125SOL     OW18010   4.621   3.063   5.619  0.2587  0.6627 -0.2782
 2125SOL    HW118011   4.558   3.100   5.681 -1.3706  2.6800 -3.1592
 2125SOL    HW218012   4.645   2.981   5.663  1.5263  0.5435 -1.1776
 2126SOL     OW18013   3.563   4.726   2.427 -0.0468 -0.0486  0.2862
 2126SOL    HW118014   3.477   4.686   2.440 -0.1433  0.2418  0.5226
 2126SOL    HW218015   3.612   4.662   2.375 -1.5669 -0.6658 -0.3889
 2127SOL     OW18016   0.688   3.304   3.162 -0.0067 -0.8121  0.2430
 2127SOL    HW118017   0.598   3.335   3.171  0.6262  0.5118  1.9296
 2127SOL    HW218018   0.705   3.276   3.251  0.7211  1.4259  0.7935
 2128SOL     OW18019   4.649   2.577   4.093 -0.1868  0.1771 -0.5879
 2128SOL    HW118020   0.002   2.546   4.070  1.1452  2.0178  2.0523
 2128SOL    HW218021   4.607   2.494   4.113  0.1754 -0.3482 -1.9727
 2129SOL     OW18022   2.066   0.647   3.354 -0.0779  0.4361 -0.3567
 2129SOL    HW118023   2.117   0.706   3.410 -0.1727  2.0038 -1.9473
 2129SOL    HW218024   2.137   0.590   3.324  0.2543  1.1050 -0.8408
 2130SOL     OW18025   1.668   1.506   2.889 -0.4396 -1.0867  0.1272
 2130SOL    HW118026   1.751   1.554   2.889 -0.0483 -1.7523  0.3720
 2130SOL    HW218027   1.615   1.548   2.822 -0.8262 -0.8085  0.6062
 2131SOL     OW18028   1.943   1.149  12.526  0.5594 -0.5644 -0.0527
 2131SOL    HW118029   1.892   1.071  12.551  0.5615 -1.0513 -1.5703
 2131SOL    HW218030   1.896   1.197  12.458  1.2053  1.4386  0.9157
 2132SOL     OW18031   0.622   1.172  15.004 -0.2860  0.1615 -0.2142
 2132SOL    HW118032   0.582   1.214  14.928  0.3226  0.2624 -0.4754
 2132SOL    HW218033   0.587   1.224  15.077  0.1179  0.6681 -0.3783
 2133SOL     OW18034   3.380   1.610   8.248  0.7122 -0.1404 -0.2098
 2133SOL    HW118035   3.427   1.665   8.185  0.1170  1.7662  0.9981
 2133SOL    HW218036   3.450   1.587   8.309  0.2793  0.8178  0.6413
 2134SOL     OW18037   4.403   1.593   0.298  0.5165 -0.1166 -0.0070
 2134SOL    HW118038   4.322   1.545   0.280 -0.6923  1.5045  1.0826
 2134SOL    HW218039   4.391   1.664   0.235  1.9346 -0.5241 -0.7393
 2135SOL     OW18040   1.387   2.454   2.890 -0.4035  0.0587  0.2935
 2135SOL    HW118041   1.302   2.438   2.848  1.1433 -0.1202 -2.7608
 2135SOL    HW218042   1.399   2.363   2.914  0.0419 -0.2111 -0.9376
 2136SOL     OW18043   4.146   0.224   1.644 -0.6463 -0.0091 -0.6762
 2136SOL    HW118044   4.067   0.179   1.678  0.8060 -0.7160  1.8027
 2136SOL    HW218045   4.102   0.266   1.570 -2.6666 -0.8058  0.0581
 2137SOL     OW18046   4.078   1.717  14.368 -0.5467  0.3866  0.0199
 2137SOL    HW118047   4.062   1.671  14.286 -1.1463  0.2031  0.2349
 2137SOL    HW218048   3.988   1.748  14.378 -0.5166  0.6591 -0.5650
 2138SOL     OW18049   1.460   0.463  10.838  0.1343 -0.1581  0.0923
 2138SOL    HW118050   1.525   0.401  10.869  1.2531  1.5065  1.0514
 2138SOL    HW218051   1.507   0.537  10.876 -1.6263  0.5492  0.8740
 2139SOL     OW18052   1.303   4.496   8.528  0.1755 -0.9225 -0.6150
 2139SOL    HW118053   1.351   4.468   8.606 -0.5972  2.5140  1.0763
 2139SOL    HW218054   1.375   4.513   8.468  0.4855  0.0104  0.0211
 2140SOL     OW18055   3.827   1.760   7.596  0.0118  0.0702 -0.4395
 2140SOL    HW118056   3.742   1.731   7.563 -1.0570 -0.5181  2.7653
 2140SOL    HW218057   3.851   1.822   7.527  0.6996  0.6728  0.3457
 2141SOL     OW18058   4.032   2.873   3.425 -0.3260  0.0300  0.0581
 2141SOL    HW118059   4.030   2.924   3.506  3.6324 -0.0572  0.2445
 2141SOL    HW218060   4.037   2.937   3.354 -0.7408  0.2595  0.2389
 2142SOL     OW18061   1.556   2.211   8.838  0.2776  0.3408  0.0659
 2142SOL    HW118062   1.543   2.116   8.830  0.6355  0.1837  1.2629
 2142SOL    HW218063   1.489   2.233   8.903  0.4067 -1.7774  0.9485
 2143SOL     OW18064   3.613   1.236   7.655  0.5168 -0.4903 -0.1776
 2143SOL    HW118065   3.625   1.158   7.709 -2.1704 -0.6892  0.0819
 2143SOL    HW218066   3.525   1.261   7.681  1.1313  0.0777  1.3179
 2144SOL     OW18067   1.478   2.937  16.924 -0.1817  0.4273 -0.5466
 2144SOL    HW118068   1.401   2.933  16.981 -0.0467 -1.5272 -0.4941
 2144SOL    HW218069   1.512   2.857  16.965 -1.2883  1.2817  2.0895
 2145SOL     OW18070   2.666   1.124   7.243 -0.0944  0.3074  0.3203
 2145SOL    HW118071   2.722   1.165   7.309 -0.5007  0.5071  0.5413
 2145SOL    HW218072   2.718   1.045   7.232 -0.5377  0.0837 -0.1654
 2146SOL     OW18073   3.186   2.062   6.597  0.0256 -0.0137  0.7499
 2146SOL    HW118074   3.100   2.034   6.565  1.4933  1.8900 -4.8419
 2146SOL    HW218075   3.151   2.096   6.679 -0.6818 -0.2857  0.5646
 2147SOL     OW18076   4.455   1.689   3.913 -0.1932 -0.8483 -1.2048
 2147SOL    HW118077   4.502   1.763   3.874  0.5547  0.4205  2.0918
 2147SOL    HW218078   4.523   1.623   3.906  0.9429  0.2690 -0.7814
 2148SOL     OW18079   3.103   0.933   1.616 -0.1979  0.1943 -0.2884
 2148SOL    HW118080   3.088   1.027   1.623 -0.0196  0.0701  1.9830
 2148SOL    HW218081   3.164   0.919   1.688  2.2805  0.0806 -2.4511
 2149SOL     OW18082   2.589   4.169   3.862 -0.2879 -0.2479 -0.0931
 2149SOL    HW118083   2.602   4.148   3.955  3.4206 -1.8480 -0.9505
 2149SOL    HW218084   2.532   4.245   3.871  1.1544  0.4582  3.1955
 2150SOL     OW18085   4.316   4.343   0.986  0.6379 -0.3567  0.1517
 2150SOL    HW118086   4.238   4.358   0.932  0.1759 -2.2785  0.2662
 2150SOL    HW218087   4.366   4.273   0.944  0.9152 -0.3454  0.4595
 2151SOL     OW18088   0.550   4.420   0.772  0.6302  0.2051  0.3775
 2151SOL    HW118089   0.545   4.481   0.846  0.7280 -1.9821  2.1822
 2151SOL    HW218090   0.517   4.340   0.813 -2.0916  1.3657  0.4065
 2152SOL     OW18091   2.690   4.415   0.583 -0.7454  0.1979 -0.0725
 2152SOL    HW118092   2.780   4.403   0.613 -1.1682 -1.8627  0.3840
 2152SOL    HW218093   2.705   4.382   0.494  0.1799  2.5656 -0.7874
 2153SOL     OW18094   2.798   0.464   4.343  0.3370 -0.0419 -0.4001
 2153SOL    HW118095   2.721   0.427   4.299 -0.8002  1.9846 -0.1325
 2153SOL    HW218096   2.771   0.554   4.364 -1.0378 -0.5863  0.1708
 2154SOL     OW18097   2.903   2.518   3.366 -0.1712 -0.0153  0.2891
 2154SOL    HW118098   2.883   2.434   3.325  1.3537  0.8294 -2.1439
 2154SOL    HW218099   2.961   2.558   3.301 -0.6456 -0.8656 -0.6526
 2155SOL     OW18100   1.777   0.215   3.668  0.3515  0.0601  0.1695
 2155SOL    HW118101   1.822   0.130   3.667  0.6449  0.2260 -0.8510
 2155SOL    HW218102   1.845   0.253   3.723 -0.0136 -3.6879  3.1814
 2156SOL     OW18103   4.116   4.421   3.951 -0.1964 -0.2106  0.0156
 2156SOL    HW118104   4.078   4.464   4.027 -1.4846 -2.1348  0.4632
 2156SOL    HW218105   4.176   4.486   3.913 -1.2247  0.0183 -1.2188
 2157SOL     OW18106   3.855   3.414  10.317 -0.0577  0.8109 -0.2426
 2157SOL    HW118107   3.939   3.409  10.364  0.4933 -0.4664 -1.3780
 2157SOL    HW218108   3.879   3.370  10.236  1.2399  0.4638  0.3317
 2158SOL     OW18109   4.616   0.276   1.255 -0.7349 -0.1568  0.3938
 2158SOL    HW118110   4.610   0.352   1.313  0.8728  0.9772 -0.8861
 2158SOL    HW218111   4.668   0.227   1.318  0.7719  0.7192 -0.1526
 2159SOL     OW18112   1.013   2.558  12.539  0.6787 -0.4266  0.0664
 2159SOL    HW118113   1.015   2.537  12.445  0.2917  1.0093 -0.2691
 2159SOL    HW218114   0.931   2.518  12.567  1.1244 -1.8769 -0.7381
 2160SOL     OW18115   3.549   1.533   3.668 -0.0273 -0.3243  0.0011
 2160SOL    HW118116   3.621   1.581   3.625 -0.7643  1.1109  0.3752
 2160SOL    HW218117   3.533   1.584   3.747  0.5626 -0.6346  0.3220
 2161SOL     OW18118   0.876   1.452   7.407  0.1255 -0.0863  0.3767
 2161SOL    HW118119   0.792   1.490   7.433  0.2375  0.2256  0.2767
 2161SOL    HW218120   0.872   1.471   7.314  0.5409  0.0145  0.3827
 2162SOL     OW18121   0.298   4.681   2.386  0.2429  0.5275 -0.6645
 2162SOL    HW118122   0.372   4.727   2.425  0.1079  1.2295 -1.2505
 2162SOL    HW218123   0.222   4.693   2.443 -0.3048  3.2105 -1.9562
 2163SOL     OW18124   3.430   3.899   8.630  0.2350 -0.3603 -0.4205
 2163SOL    HW118125   3.453   3.823   8.683 -0.1926  0.7237  1.3129
 2163SOL    HW218126   3.489   3.968   8.659  0.5191 -0.1364 -1.5172
 2164SOL     OW18127   3.663   4.503   0.893 -0.1510 -0.3701  0.3945
 2164SOL    HW118128   3.702   4.575   0.845  0.5394 -1.0622 -0.0936
 2164SOL    HW218129   3.741   4.467   0.935 -0.5268 -2.5067 -0.7371
 2165SOL     OW18130   2.982   2.140   6.114 -0.6649  0.0906 -0.1667
 2165SOL    HW118131   2.921   2.192   6.062 -0.7806 -0.6181 -0.7189
 2165SOL    HW218132   3.046   2.120   6.046  0.1291  1.5767  0.1330
 2166SOL     OW18133   0.999   3.780   2.590 -0.0684 -0.1834 -0.2305
 2166SOL    HW118134   0.982   3.708   2.528 -1.2170 -0.3148  0.2357
 2166SOL    HW218135   1.016   3.849   2.526  0.4340  0.4091  0.5515
 2167SOL     OW18136   1.711   0.140   1.761  0.1174 -0.2395 -0.1685
 2167SOL    HW118137   1.657   0.134   1.840  0.7837  0.9875  0.3936
 2167SOL    HW218138   1.781   0.079   1.784  0.1008  0.1900  1.0549
 2168SOL     OW18139   3.697   1.647   4.297 -0.0331  0.0902 -0.3284
 2168SOL    HW118140   3.782   1.613   4.270  0.0922 -0.9755  1.3936
 2168SOL    HW218141   3.683   1.713   4.228  1.4293  0.9478  0.2103
 2169SOL     OW18142   1.215   1.468   2.666 -0.5585  0.2620  0.0068
 2169SOL    HW118143   1.250   1.443   2.580 -1.3808 -5.3802  1.3067
 2169SOL    HW218144   1.123   1.445   2.655 -0.6518  0.4326  0.4455
 2170SOL     OW18145   1.487   2.935  16.513  0.2492 -0.2645 -0.5130
 2170SOL    HW118146   1.565   2.962  16.561 -0.9213  0.9260  0.7313
 2170SOL    HW218147   1.464   2.860  16.568  0.1008 -1.1990 -1.8558
 2171SOL     OW18148   0.318   4.322   5.231  0.3734  0.0226  0.5870
 2171SOL    HW118149   0.306   4.273   5.312  2.1210  0.2419  0.9634
 2171SOL    HW218150   0.235   4.366   5.215  0.5756 -0.3770 -1.5942
 2172SOL     OW18151   0.393   2.829   2.230 -0.2098 -0.2458 -0.2167
 2172SOL    HW118152   0.369   2.751   2.279  1.8217 -0.7481 -0.0155
 2172SOL    HW218153   0.335   2.825   2.154 -0.7977  1.4463  0.1617
 2173SOL     OW18154   3.507   4.067   5.063 -0.7338 -0.7255 -0.2398
 2173SOL    HW118155   3.514   4.123   4.986 -1.1573 -0.3201  0.0160
 2173SOL    HW218156   3.477   4.124   5.134 -2.9974 -1.1590 -0.8681
 2174SOL     OW18157   2.355   3.457   8.937  0.1308 -0.0811  0.4400
 2174SOL    HW118158   2.348   3.372   8.894  0.0640  0.0178  0.2537
 2174SOL    HW218159   2.261   3.475   8.942 -0.0234 -0.9006  0.4978
 2175SOL     OW18160   4.250   3.268   8.098  0.0538  0.1989 -0.0139
 2175SOL    HW118161   4.195   3.203   8.142  0.7423  0.1227  0.7403
 2175SOL    HW218162   4.216   3.269   8.009 -0.7245  2.7338  0.3192
 2176SOL     OW18163   0.268   3.904   9.859  0.8900 -0.3791  0.1193
 2176SOL    HW118164   0.231   3.929   9.944 -1.8593 -0.7930 -0.9616
 2176SOL    HW218165   0.190   3.870   9.816  1.9546 -1.7120 -0.7392
 2177SOL     OW18166   0.190   4.442   9.304 -0.2386 -0.7145 -0.4546
 2177SOL    HW118167   0.224   4.460   9.392 -0.9237 -1.0332 -0.1223
 2177SOL    HW218168   0.100   4.472   9.321  0.8964  1.4384  1.8167
 2178SOL     OW18169   2.238   1.980   5.028  0.0366  0.2135  0.1207
 2178SOL    HW118170   2.249   2.024   4.944 -1.1603 -0.0941 -0.1938
 2178SOL    HW218171   2.182   1.905   5.008 -0.1610  0.5184 -0.4860
 2179SOL     OW18172   2.647   2.715   2.522  0.0732 -0.1181  0.2408
 2179SOL    HW118173   2.579   2.648   2.533 -1.5153  1.6742  1.5124
 2179SOL    HW218174   2.715   2.686   2.583 -1.3382 -2.9097  0.5266
 2180SOL     OW18175   0.887   3.900   8.249  0.2372 -0.1774 -0.1279
 2180SOL    HW118176   0.921   3.829   8.303  2.0935  0.9088  0.1166
 2180SOL    HW218177   0.802   3.904   8.294 -0.1434 -0.5315 -0.8042
 2181SOL     OW18178   0.032   0.186   5.183 -0.2722  0.2146  0.4245
 2181SOL    HW118179   4.729   0.159   5.267  0.1855  0.4466  0.7063
 2181SOL    HW218180   0.089   0.111   5.163  0.8495  0.7031  1.8198
 2182SOL     OW18181   0.749   2.006   9.566 -0.1631  0.4306 -0.2393
 2182SOL    HW118182   0.806   2.000   9.490 -0.6112  2.2757 -0.7213
 2182SOL    HW218183   0.761   1.921   9.610 -0.7297  0.5077  0.0669
 2183SOL     OW18184   2.669   3.902  15.178 -0.5466 -0.2486 -0.4032
 2183SOL    HW118185   2.597   3.855  15.220 -1.2544  1.1666 -0.0381
 2183SOL    HW218186   2.695   3.849  15.102  0.9179  0.6442 -0.5234
 2184SOL     OW18187   1.269   2.129   3.925  0.7100 -0.1431  0.4398
 2184SOL    HW118188   1.195   2.092   3.973  0.3105  0.1018  0.0163
 2184SOL    HW218189   1.272   2.065   3.854  0.0268  1.3110 -0.9189
 2185SOL     OW18190   3.211   0.405   0.565  0.0402  0.3087 -0.5657
 2185SOL    HW118191   3.121   0.373   0.570  0.7319 -1.3749  1.5552
 2185SOL    HW218192   3.185   0.497   0.564  1.2221  0.6417  0.0928
 2186SOL     OW18193   2.466   1.754   0.010  0.2413 -0.2230  0.1989
 2186SOL    HW118194   2.383   1.717   0.040  0.0881 -1.4239 -1.7733
 2186SOL    HW218195   2.509   1.752   0.096 -1.4149  0.2019  1.0357
 2187SOL     OW18196   2.445   0.066   6.162  0.0325  0.0240  0.7010
 2187SOL    HW118197   2.385   0.054   6.235 -1.7456 -0.9967 -0.9432
 2187SOL    HW218198   2.529   0.034   6.196  1.1435  2.8323  0.6387
 2188SOL     OW18199   4.481   4.063   4.835 -0.1387  0.2786  0.1402
 2188SOL    HW118200   4.474   4.124   4.909  2.3106 -1.4451  1.7964
 2188SOL    HW218201   4.502   4.113   4.756  1.5163 -2.7853 -1.3470
 2189SOL     OW18202   0.567   0.172   4.130 -0.0282 -0.1327  0.7934
 2189SOL    HW118203   0.613   0.172   4.214  1.5102 -0.5851 -0.0383
 2189SOL    HW218204   0.552   0.266   4.126 -2.5240 -0.6071 -0.5982
 2190SOL     OW18205   2.964   2.393   1.691 -0.2125  0.5633 -0.0517
 2190SOL    HW118206   2.885   2.427   1.732  1.3467  0.3903  3.0839
 2190SOL    HW218207   2.964   2.439   1.607 -1.5582 -0.4359 -0.5931
 2191SOL     OW18208   4.552   1.341   3.453 -0.7125  0.1943 -0.6216
 2191SOL    HW118209   4.505   1.262   3.479 -1.7674  1.1294  0.3507
 2191SOL    HW218210   4.529   1.332   3.360 -1.6794 -0.4210 -0.3282
 2192SOL     OW18211   0.636   2.305   3.145  0.1256  0.1814 -0.1557
 2192SOL    HW118212   0.641   2.210   3.144  0.7027  0.2142 -0.6411
 2192SOL    HW218213   0.596   2.306   3.232  1.9467 -2.0021  0.6927
 2193SOL     OW18214   3.103   1.970   2.905  0.4313  0.8961 -0.3534
 2193SOL    HW118215   3.166   1.901   2.887  1.8250  1.7353  1.2734
 2193SOL    HW218216   3.090   1.965   3.000 -3.6840  0.8787 -0.9024
 2194SOL     OW18217   3.442   4.273   9.110 -0.5920 -0.7459 -0.4946
 2194SOL    HW118218   3.508   4.216   9.148  0.7557  1.0511 -0.1181
 2194SOL    HW218219   3.438   4.336   9.183 -3.3881 -2.1739  0.6089
 2195SOL     OW18220   1.576   4.513   9.545  0.4196 -0.6036 -0.1055
 2195SOL    HW118221   1.553   4.553   9.629 -0.3909  0.9943 -1.0772
 2195SOL    HW218222   1.629   4.581   9.502 -0.9862  0.5481 -0.0251
 2196SOL     OW18223   2.689   2.807   8.154  0.2500 -0.0040  0.4779
 2196SOL    HW118224   2.720   2.897   8.142  1.8608 -0.8316 -1.4128
 2196SOL    HW218225   2.763   2.761   8.192  1.1770  0.4775 -0.7762
 2197SOL     OW18226   1.723   1.551   0.110  0.6420  0.2450  0.2894
 2197SOL    HW118227   1.706   1.479   0.050  0.4428 -0.0282  0.6754
 2197SOL    HW218228   1.751   1.616   0.046  0.3209 -1.1247 -1.2318
 2198SOL     OW18229   3.985   1.103   2.882 -0.0261  0.3596  0.2231
 2198SOL    HW118230   3.976   1.143   2.796  1.1117  0.8971  0.3596
 2198SOL    HW218231   4.021   1.177   2.931  0.1033  0.1995  0.3712
 2199SOL     OW18232   2.237   4.121   7.747  0.6775  0.1181  0.0915
 2199SOL    HW118233   2.177   4.070   7.801 -0.0907  2.6706  1.6719
 2199SOL    HW218234   2.312   4.123   7.807  0.4235 -0.3260  0.4234
 2200SOL     OW18235   0.626   2.335  10.451  0.3263  0.3550 -0.3748
 2200SOL    HW118236   0.615   2.415  10.400 -2.9055 -0.0943 -0.3892
 2200SOL    HW218237   0.695   2.292  10.400 -0.0898  1.4836 -1.8919
 2201SOL     OW18238   1.920   3.813   1.500  0.2214  0.1915  0.0734
 2201SOL    HW118239   1.981   3.739   1.504 -2.8081 -2.3937 -1.2764
 2201SOL    HW218240   1.877   3.797   1.416  1.4602  2.7844 -1.0117
 2202SOL     OW18241   2.924   0.367   9.149  0.0670 -0.3696 -0.4794
 2202SOL    HW118242   2.955   0.277   9.154 -0.0239 -0.3861 -0.1756
 2202SOL    HW218243   2.850   0.348   9.092 -1.6588 -0.0128  1.6099
 2203SOL     OW18244   0.993   1.688   7.109 -0.2954 -0.6466  0.3974
 2203SOL    HW118245   1.017   1.754   7.043 -1.8513 -0.0608  0.4188
 2203SOL    HW218246   1.067   1.632   7.086 -0.8828 -0.3805 -2.1331
 2204SOL     OW18247   0.830   3.900  13.185  0.0733 -0.2344 -0.3728
 2204SOL    HW118248   0.754   3.857  13.145  0.6059 -1.2895 -0.2521
 2204SOL    HW218249   0.783   3.966  13.237  1.3484  0.1005  0.3443
 2205SOL     OW18250   3.929   4.602   5.715  0.2043 -0.4182  0.2206
 2205SOL    HW118251   3.895   4.533   5.771 -0.2308 -0.2965  0.1047
 2205SOL    HW218252   3.902   4.559   5.634  0.4811  2.4966 -1.4502
 2206SOL     OW18253   1.112   0.979   4.506  0.4024 -0.0996  0.1371
 2206SOL    HW118254   1.133   0.889   4.528 -1.2485 -0.7885 -1.1019
 2206SOL    HW218255   1.168   0.989   4.430 -0.8469  1.6556 -0.5593
 2207SOL     OW18256   0.871   0.904   3.154 -0.1320  0.2288 -0.4908
 2207SOL    HW118257   0.806   0.855   3.104  0.9904 -0.9566 -0.7874
 2207SOL    HW218258   0.922   0.942   3.083  0.8274  0.4599  0.3099
 2208SOL     OW18259   2.857   2.199   6.995  0.2177 -0.0617 -0.3600
 2208SOL    HW118260   2.807   2.144   6.934  0.6673 -0.3444 -0.4719
 2208SOL    HW218261   2.800   2.276   6.995  0.1022 -0.1462 -2.1207
 2209SOL     OW18262   2.830   3.034   8.334  1.1168  0.0140  0.2091
 2209SOL    HW118263   2.925   3.025   8.327  1.1101  1.1947 -1.5680
 2209SOL    HW218264   2.801   3.123   8.314 -2.8173 -1.5391 -1.0659
 2210SOL     OW18265   1.003   4.371   5.788  0.2744 -0.2005 -0.0678
 2210SOL    HW118266   1.022   4.463   5.808 -2.5470  0.2690  0.5822
 2210SOL    HW218267   0.979   4.341   5.876 -0.9068 -0.5880 -0.5165
 2211SOL     OW18268   4.364   0.176   4.768  0.0824 -0.0421  0.7875
 2211SOL    HW118269   4.375   0.111   4.837  1.0539 -1.6933 -0.9092
 2211SOL    HW218270   4.431   0.240   4.791  3.6684 -4.0961  1.6725
 2212SOL     OW18271   2.414   0.990   3.522  0.7365 -0.0377  0.5469
 2212SOL    HW118272   2.474   0.918   3.542 -2.0097 -2.2487  0.7905
 2212SOL    HW218273   2.419   1.048   3.598 -0.2927 -0.0076  0.5913
 2213SOL     OW18274   1.429   3.437   6.711  0.0627  0.2708 -0.6637
 2213SOL    HW118275   1.500   3.373   6.715 -0.1092  0.0700 -0.8145
 2213SOL    HW218276   1.468   3.505   6.765  1.5822 -1.6953  0.7191
 2214SOL     OW18277   1.035   3.028   1.350  0.3984 -0.0339  0.0128
 2214SOL    HW118278   1.080   3.105   1.385 -0.5209 -0.2512  1.6699
 2214SOL    HW218279   1.023   2.987   1.436 -1.7292 -1.6956 -1.0794
 2215SOL     OW18280   4.278   4.687  16.957  0.2494  1.1183 -0.4068
 2215SOL    HW118281   4.308   4.707  16.869  4.7475 -1.0533  0.6501
 2215SOL    HW218282   4.354   4.672  17.013  0.0361  2.4107  0.2407
 2216SOL     OW18283   3.527   1.814   6.915  0.5795 -1.2001  0.2412
 2216SOL    HW118284   3.561   1.800   7.004 -0.3909 -1.3436  0.5873
 2216SOL    HW218285   3.432   1.813   6.925  0.5711 -1.0765  0.1756
 2217SOL     OW18286   2.022   0.335  12.732  0.5353  0.5863  0.8591
 2217SOL    HW118287   2.112   0.332  12.700  0.6537  1.6161  1.1010
 2217SOL    HW218288   2.039   0.332  12.826  0.4923  0.8661  0.8758
 2218SOL     OW18289   0.996   1.197   2.793  0.2897 -0.2052 -0.0403
 2218SOL    HW118290   1.006   1.113   2.747  0.4637  0.4976 -1.2819
 2218SOL    HW218291   0.989   1.261   2.723  2.0348 -0.9321 -0.8735
 2219SOL     OW18292   4.374   2.696   1.233  0.1847  0.5624 -0.5243
 2219SOL    HW118293   4.291   2.670   1.271  0.1110 -2.2323 -2.6303
 2219SOL    HW218294   4.405   2.607   1.216 -0.3589  0.9326 -3.4953
 2220SOL     OW18295   1.596   1.123   4.186  0.2220 -0.7603 -0.3353
 2220SOL    HW118296   1.573   1.214   4.206  2.3394 -0.6466  1.6066
 2220SOL    HW218297   1.581   1.073   4.266  3.0345  0.0503  0.7313
 2221SOL     OW18298   3.611   0.914   9.433 -0.2738  0.1586 -0.0160
 2221SOL    HW118299   3.649   0.843   9.484 -0.4929 -0.0632 -0.1648
 2221SOL    HW218300   3.621   0.988   9.493  1.2860  0.2941 -0.4327
 2222SOL     OW18301   2.802   2.394   7.577  0.3419 -0.1555 -1.1483
 2222SOL    HW118302   2.789   2.300   7.560 -1.8190  0.3960 -2.4989
 2222SOL    HW218303   2.714   2.419   7.606  0.0200 -0.7041 -1.6248
 2223SOL     OW18304   0.836   0.612  16.629 -0.3180  0.3652 -0.0053
 2223SOL    HW118305   0.764   0.628  16.569 -1.1712 -0.1407  0.8995
 2223SOL    HW218306   0.836   0.703  16.658  2.3506  0.2298  0.4477
 2224SOL     OW18307   2.471   0.978   5.132 -0.0679 -0.3275  0.5373
 2224SOL    HW118308   2.452   0.995   5.224 -1.9231 -0.2220  0.1463
 2224SOL    HW218309   2.566   0.974   5.136 -0.0657 -0.7833  0.0779
 2225SOL     OW18310   1.031   2.208   3.572  0.1446  0.1309  0.0173
 2225SOL    HW118311   1.126   2.204   3.577  0.2140 -0.5242 -1.8314
 2225SOL    HW218312   1.008   2.231   3.482 -1.6078 -0.4700  0.3037
 2226SOL     OW18313   2.681   4.644   7.931  0.8659  0.5518  0.1669
 2226SOL    HW118314   2.658   4.671   7.841 -1.0756  0.3048  0.6013
 2226SOL    HW218315   2.593   4.649   7.967  1.2484 -0.2289  1.1963
 2227SOL     OW18316   2.729   0.941   5.118  0.2104  0.3069  0.3752
 2227SOL    HW118317   2.766   0.860   5.153 -1.0583 -0.8429 -0.9090
 2227SOL    HW218318   2.762   0.936   5.029 -0.2315 -1.1079  0.2773
 2228SOL     OW18319   0.523   3.557   3.110 -0.5454  0.4232 -0.0962
 2228SOL    HW118320   0.528   3.553   3.206 -1.4528 -0.5413 -0.0931
 2228SOL    HW218321   0.616   3.576   3.095 -0.1652 -0.4472  1.1076
 2229SOL     OW18322   3.179   0.731   3.074  0.4506 -0.5352 -0.3914
 2229SOL    HW118323   3.097   0.739   3.123  1.2838 -0.7254  1.0281
 2229SOL    HW218324   3.210   0.821   3.078 -0.2721 -0.3193  0.2674
 2230SOL     OW18325   3.508   2.909   5.003 -0.6394  0.6452 -0.7126
 2230SOL    HW118326   3.565   2.833   4.990 -0.8448  0.4135 -0.2579
 2230SOL    HW218327   3.567   2.979   5.028  0.4142 -0.6521  0.3923
 2231SOL     OW18328   1.323   3.265  11.513  0.3386 -0.0642 -0.7737
 2231SOL    HW118329   1.346   3.175  11.493 -0.6348 -0.0335 -1.9822
 2231SOL    HW218330   1.408   3.309  11.508  0.6244 -0.7083 -1.4261
 2232SOL     OW18331   3.430   1.792  17.074 -0.4177  0.2000 -0.0288
 2232SOL    HW118332   3.451   1.704  17.105  0.0219  1.1000  2.2329
 2232SOL    HW218333   3.346   1.775  17.033  0.7278 -1.9905 -1.4904
 2233SOL     OW18334   2.207   4.446   9.462  0.6024 -0.0921 -0.1979
 2233SOL    HW118335   2.269   4.373   9.463 -0.8308 -1.3137 -0.4640
 2233SOL    HW218336   2.235   4.502   9.534 -1.1150 -2.4027  2.2644
 2234SOL     OW18337   0.647   3.843   1.928  0.2597  0.0551  0.1845
 2234SOL    HW118338   0.554   3.838   1.905 -0.0777 -0.3804  1.6029
 2234SOL    HW218339   0.665   3.935   1.908 -2.1372  0.5234  0.1477
 2235SOL     OW18340   1.309   2.295   8.369 -0.2019  0.2126  0.0597
 2235SOL    HW118341   1.285   2.237   8.297  0.1392 -0.6181  0.6181
 2235SOL    HW218342   1.276   2.244   8.443  1.0987 -1.3371 -0.4487
 2236SOL     OW18343   0.973   1.579   5.401 -0.4571  0.1049  0.1829
 2236SOL    HW118344   1.034   1.568   5.474 -0.4239 -0.6523  0.0453
 2236SOL    HW218345   0.947   1.670   5.414  0.9735  0.6128 -0.5806
 2237SOL     OW18346   4.590   1.634  12.299  0.5153 -0.0500  0.1938
 2237SOL    HW118347   4.553   1.654  12.213 -0.4775 -0.0626  0.6146
 2237SOL    HW218348   4.685   1.644  12.292  0.3956 -0.1037 -1.5265
 2238SOL     OW18349   3.775   3.439   9.333  0.1535 -0.4294  0.4911
 2238SOL    HW118350   3.815   3.431   9.420 -0.5564  0.6782  0.9216
 2238SOL    HW218351   3.684   3.431   9.362 -0.5748  0.1383 -1.5912
 2239SOL     OW18352   1.689   1.856   6.904  0.4090 -0.1852  0.2123
 2239SOL    HW118353   1.675   1.789   6.971 -0.1280 -0.1433  0.1460
 2239SOL    HW218354   1.614   1.914   6.922 -0.1720 -0.6732 -0.6382
 2240SOL     OW18355   2.660   3.651   0.922  0.4458 -0.3049 -0.1938
 2240SOL    HW118356   2.738   3.599   0.902  1.7566  1.4846  0.2285
 2240SOL    HW218357   2.592   3.591   0.894  0.0245 -0.1422  0.4774
 2241SOL     OW18358   1.532   0.533   1.192  0.5658  0.6007  0.3134
 2241SOL    HW118359   1.573   0.575   1.268  3.8068  0.5354 -1.4377
 2241SOL    HW218360   1.613   0.501   1.154 -0.5632 -0.1451 -1.4875
 2242SOL     OW18361   3.100   3.952  16.400  0.3245  0.3574 -0.6270
 2242SOL    HW118362   3.192   3.954  16.372  0.2862 -0.9727 -0.8720
 2242SOL    HW218363   3.095   4.008  16.477 -0.1841 -0.4490 -0.0759
 2243SOL     OW18364   4.329   3.387   1.965  0.0025 -0.1987  0.2082
 2243SOL    HW118365   4.324   3.304   2.012  2.1708  0.5209  1.6914
 2243SOL    HW218366   4.238   3.405   1.942 -0.8813 -2.3914  2.0493
 2244SOL     OW18367   1.605   4.141   3.846 -0.1234 -0.1364 -0.1195
 2244SOL    HW118368   1.615   4.182   3.932 -2.1167  0.0093  0.0359
 2244SOL    HW218369   1.518   4.172   3.820  0.8376  0.6366 -2.3892
 2245SOL     OW18370   0.879   1.078   5.266  0.2814 -0.2772  0.0289
 2245SOL    HW118371   0.898   1.004   5.325 -2.5363 -0.7893  0.3027
 2245SOL    HW218372   0.874   1.146   5.333  1.8654 -1.2204  1.1140
 2246SOL     OW18373   0.659   2.255   5.523 -0.3355  0.0057 -0.2693
 2246SOL    HW118374   0.627   2.211   5.602 -0.6751 -0.4519 -0.6656
 2246SOL    HW218375   0.583   2.311   5.507 -0.8466 -0.2300  1.3211
 2247SOL     OW18376   2.719   0.685   2.451 -0.1469 -0.4135 -0.1660
 2247SOL    HW118377   2.756   0.632   2.521  0.7298  0.8961  0.3595
 2247SOL    HW218378   2.794   0.707   2.397  0.6452 -1.7108  0.3961
 2248SOL     OW18379   1.179   0.157   6.008 -0.1371 -0.3291 -0.2479
 2248SOL    HW118380   1.130   0.235   5.983 -1.3881 -1.3239 -0.9381
 2248SOL    HW218381   1.254   0.209   6.033 -1.3907  1.6933 -0.7003
 2249SOL     OW18382   0.788   2.198   3.690 -0.1289 -0.1415  0.0777
 2249SOL    HW118383   0.761   2.290   3.692 -2.5257 -0.9901  5.3185
 2249SOL    HW218384   0.844   2.201   3.612 -1.0164  0.0009 -0.5600
 2250SOL     OW18385   3.460   2.804   1.703 -0.3833 -0.3508  1.0477
 2250SOL    HW118386   3.425   2.737   1.645 -0.2998  0.8797 -0.4381
 2250SOL    HW218387   3.440   2.763   1.787 -0.9455 -2.3889 -0.0837
 2251SOL     OW18388   4.723   2.980   7.082  0.1890 -0.3223  0.4363
 2251SOL    HW118389   0.058   3.029   7.125 -0.7651 -0.4428  2.1097
 2251SOL    HW218390   0.018   2.892   7.105  1.3532  0.0030  0.1982
 2252SOL     OW18391   2.487   3.983  17.729 -0.0111  0.0240 -0.2451
 2252SOL    HW118392   2.490   3.990   0.084  0.5382 -0.4815 -0.2251
 2252SOL    HW218393   2.497   4.069  17.687  0.1085  0.1086 -0.0456
 2253SOL     OW18394   0.383   2.317   7.854 -0.2098  0.1549  0.1833
 2253SOL    HW118395   0.360   2.231   7.889 -1.2566  0.6332  0.6589
 2253SOL    HW218396   0.456   2.295   7.796  0.3700 -2.2868  1.8280
 2254SOL     OW18397   0.418   2.659  17.128 -0.0266  0.2363 -0.3580
 2254SOL    HW118398   0.413   2.604  17.207  2.0573  1.1319  0.3993
 2254SOL    HW218399   0.350   2.723  17.149 -0.3924 -0.7640  1.5538
 2255SOL     OW18400   0.294   3.752   2.084  0.1791 -0.9287 -0.2082
 2255SOL    HW118401   0.225   3.696   2.119  2.3741 -2.1285  2.1346
 2255SOL    HW218402   0.245   3.789   2.010  0.5070  0.2721  0.1739
 2256SOL     OW18403   4.138   0.368   8.516 -0.2267 -0.2633 -0.3554
 2256SOL    HW118404   4.044   0.373   8.532 -0.7603 -2.4976 -2.8003
 2256SOL    HW218405   4.168   0.307   8.583  0.5785  0.8470  0.2812
 2257SOL     OW18406   1.416   2.006  11.996 -0.4936  0.3162  0.0707
 2257SOL    HW118407   1.326   1.975  12.008 -1.1088  2.6602  1.5181
 2257SOL    HW218408   1.454   1.941  11.937  1.5576  0.0137  1.7194
 2258SOL     OW18409   0.288   3.201  13.628 -0.3247 -0.0328 -0.1741
 2258SOL    HW118410   0.381   3.222  13.620  0.0913 -1.4203  1.0611
 2258SOL    HW218411   0.246   3.248  13.555  0.5891 -0.4783 -0.9935
 2259SOL     OW18412   4.601   3.612   4.620  0.0955 -0.1606 -0.2534
 2259SOL    HW118413   4.585   3.530   4.667 -0.8150  0.3458  0.3240
 2259SOL    HW218414   4.572   3.675   4.686 -0.3694 -1.5199  0.8446
 2260SOL     OW18415   2.745   0.848   9.574  0.0566  0.1470 -0.3768
 2260SOL    HW118416   2.788   0.924   9.535  0.7207  0.6448  1.3521
 2260SOL    HW218417   2.819   0.793   9.600 -0.3810  0.4683  1.5135
 2261SOL     OW18418   4.362   3.879   2.405  0.4148  0.1066  0.2777
 2261SOL    HW118419   4.368   3.859   2.498 -1.0249  0.1471  0.3655
 2261SOL    HW218420   4.315   3.801   2.377 -2.7821  0.9648  3.2843
 2262SOL     OW18421   3.073   0.341   6.184 -0.0575 -0.2387  0.4093
 2262SOL    HW118422   3.119   0.270   6.140  0.6227  1.1134 -1.0051
 2262SOL    HW218423   3.015   0.287   6.239  0.5107  0.3578  1.5886
 2263SOL     OW18424   1.270   2.033   4.684 -0.1625 -0.6058 -0.0219
 2263SOL    HW118425   1.330   2.047   4.611 -0.8129 -0.7916 -0.5856
 2263SOL    HW218426   1.193   2.002   4.635 -1.9175  1.7486  1.2414
 2264SOL     OW18427   3.205   4.643   2.724 -0.5729  0.1709  0.1914
 2264SOL    HW118428   3.224   4.665   2.633  0.4305  0.9886  0.5963
 2264SOL    HW218429   3.187   4.549   2.715  0.5402 -0.1086  0.7281
 2265SOL     OW18430   2.304   3.029  15.966  0.4318  0.0289 -0.6173
 2265SOL    HW118431   2.315   3.121  15.989  0.1680  0.1545 -0.9837
 2265SOL    HW218432   2.208   3.029  15.963  0.3580 -2.9798  1.9117
 2266SOL     OW18433   3.425   1.650   6.574 -0.0145  0.5482 -0.4311
 2266SOL    HW118434   3.355   1.635   6.638  0.3591  2.0862  0.3131
 2266SOL    HW218435   3.391   1.731   6.537  1.7497  0.9046 -1.2403
 2267SOL     OW18436   3.647   1.481   3.303  0.8589  0.3148  0.3701
 2267SOL    HW118437   3.609   1.495   3.390 -0.7024  1.8166 -0.5610
 2267SOL    HW218438   3.728   1.435   3.327  0.2088 -1.6680 -1.2767
 2268SOL     OW18439   1.252   1.479   3.717 -0.1578  0.8285 -0.0479
 2268SOL    HW118440   1.293   1.402   3.677  1.5978  3.2122 -2.8481
 2268SOL    HW218441   1.158   1.462   3.719 -0.1460  0.5401 -2.8870
 2269SOL     OW18442   1.907   2.821   8.369 -0.0330 -0.3329 -0.1340
 2269SOL    HW118443   1.935   2.746   8.317 -0.1066 -0.1442 -0.4457
 2269SOL    HW218444   1.860   2.865   8.298 -1.8400 -0.1847  1.1388
 2270SOL     OW18445   4.298   3.304  10.253 -0.4543  0.1613  0.0792
 2270SOL    HW118446   4.369   3.368  10.263 -1.4401  1.2127  0.3817
 2270SOL    HW218447   4.332   3.229  10.203 -0.2197  0.9112 -0.8890
 2271SOL     OW18448   4.053   2.278  13.719 -0.2725  0.8851 -0.1873
 2271SOL    HW118449   4.088   2.205  13.669 -1.1723  2.0695 -2.5555
 2271SOL    HW218450   4.008   2.221  13.782 -3.1291 -1.1410 -4.1025
 2272SOL     OW18451   0.962   1.902   2.704 -0.3646 -0.3912 -0.4485
 2272SOL    HW118452   1.006   1.819   2.720 -0.9704 -0.5036  0.5894
 2272SOL    HW218453   1.038   1.949   2.667  0.4089 -0.4692  1.0225
 2273SOL     OW18454   2.905   3.927   6.358  0.1522  0.5700 -0.2528
 2273SOL    HW118455   2.983   3.981   6.374  0.4248 -0.0052  0.3899
 2273SOL    HW218456   2.839   3.996   6.364  2.0758  2.4500 -0.5214
 2274SOL     OW18457   3.269   0.204   7.195  0.1562  0.3887  0.0966
 2274SOL    HW118458   3.337   0.137   7.196 -0.0965  0.0657 -2.9954
 2274SOL    HW218459   3.322   0.283   7.185  1.0908 -0.2742 -0.1305
 2275SOL     OW18460   3.876   1.052   4.129  0.1266 -0.6585 -0.1749
 2275SOL    HW118461   3.941   0.989   4.096 -0.0375 -0.5753 -0.6499
 2275SOL    HW218462   3.892   1.129   4.076  0.1077 -0.5144  0.0271
 2276SOL     OW18463   2.675   0.960   2.751  0.3755  0.1129  0.3338
 2276SOL    HW118464   2.727   1.014   2.692  0.7495 -3.1041 -2.3126
 2276SOL    HW218465   2.607   0.937   2.688  1.3313  4.4632 -2.2880
 2277SOL     OW18466   3.384   1.475   4.984  0.4523 -0.1457 -0.1623
 2277SOL    HW118467   3.374   1.411   5.055 -0.6209 -1.7898 -1.7803
 2277SOL    HW218468   3.440   1.533   5.036 -1.4069  0.7375  0.8577
 2278SOL     OW18469   3.854   3.365   6.983  0.0372  0.6641 -0.6265
 2278SOL    HW118470   3.855   3.274   7.013  1.3093  0.9286  0.1208
 2278SOL    HW218471   3.767   3.374   6.945  0.8710  0.3999 -2.6241
 2279SOL     OW18472   1.450   3.286   4.194  0.1726  0.1095 -0.3481
 2279SOL    HW118473   1.496   3.295   4.278 -0.9900  2.0804  0.0651
 2279SOL    HW218474   1.366   3.249   4.221  1.7215 -2.0966  1.4483
 2280SOL     OW18475   3.569   1.190   4.277  0.4306  0.6296  0.3852
 2280SOL    HW118476   3.622   1.228   4.347  0.6343 -0.7154  0.9712
 2280SOL    HW218477   3.544   1.110   4.325 -0.4342 -0.1864 -1.4111
 2281SOL     OW18478   1.621   1.300   8.034  0.1996  0.1183  0.9748
 2281SOL    HW118479   1.578   1.263   7.957  0.2428 -1.3083  1.6218
 2281SOL    HW218480   1.544   1.342   8.073  0.2960  0.4410  0.8125
 2282SOL     OW18481   2.540   1.757   6.696  0.0636  0.0519 -0.3473
 2282SOL    HW118482   2.543   1.693   6.767  2.8473 -0.4236 -0.8795
 2282SOL    HW218483   2.470   1.716   6.645 -0.3956  0.2563  0.1280
 2283SOL     OW18484   1.502   1.914   8.364  0.2812  0.5212 -0.1491
 2283SOL    HW118485   1.544   1.830   8.379  0.4035  0.4883 -0.6725
 2283SOL    HW218486   1.472   1.902   8.273  0.4303 -0.9012 -0.0093
 2284SOL     OW18487   1.311   2.785  12.803 -0.4025 -0.4620  0.0809
 2284SOL    HW118488   1.233   2.755  12.756  0.0239  1.3526 -1.7878
 2284SOL    HW218489   1.333   2.701  12.844  1.9521  0.0126 -0.2553
 2285SOL     OW18490   3.732   1.336   2.645 -0.4222  0.2823  0.5970
 2285SOL    HW118491   3.805   1.273   2.650 -1.3932 -0.8153  0.9791
 2285SOL    HW218492   3.656   1.279   2.658  0.0254 -0.1340  1.4493
 2286SOL     OW18493   3.018   1.381   9.692 -0.1359 -0.0888 -0.3004
 2286SOL    HW118494   2.952   1.317   9.720  1.5506 -2.3758 -1.5592
 2286SOL    HW218495   3.090   1.333   9.731 -0.8682 -2.8532 -2.3373
 2287SOL     OW18496   3.266   0.727   2.572  0.8862 -0.4862 -0.5411
 2287SOL    HW118497   3.261   0.681   2.488  1.4122 -1.4789 -0.0274
 2287SOL    HW218498   3.336   0.679   2.616 -0.3143 -3.3512 -1.7763
 2288SOL     OW18499   3.439   1.818   5.240 -0.0751 -0.0704 -0.1116
 2288SOL    HW118500   3.352   1.825   5.280 -0.3793  0.2966 -0.8450
 2288SOL    HW218501   3.439   1.900   5.190  0.7804 -0.1731 -0.2722
 2289SOL     OW18502   1.029   4.288   3.267 -0.1139 -0.0058  0.4713
 2289SOL    HW118503   1.001   4.311   3.179 -1.4522 -2.7334  0.1875
 2289SOL    HW218504   1.035   4.374   3.308 -2.5707 -0.2055  1.2279
 2290SOL     OW18505   1.485   0.236   5.801 -0.0033 -0.5237  0.3268
 2290SOL    HW118506   1.550   0.248   5.732 -2.2038  0.3803 -1.6221
 2290SOL    HW218507   1.544   0.228   5.875  3.3406 -0.0673 -2.3086
 2291SOL     OW18508   0.074   3.056   7.463 -0.0644  0.0686  1.0535
 2291SOL    HW118509   0.080   3.052   7.368  2.0725  0.1078  1.1986
 2291SOL    HW218510   0.070   3.150   7.480  2.0176  0.5779 -1.3464
 2292SOL     OW18511   4.139   0.895   1.079  0.5341 -0.2889 -0.3648
 2292SOL    HW118512   4.112   0.810   1.045 -0.6955  0.5889 -1.5876
 2292SOL    HW218513   4.196   0.882   1.155 -0.0289 -2.2575 -0.2813
 2293SOL     OW18514   0.633   2.914  12.052  0.5592 -0.0171  0.0250
 2293SOL    HW118515   0.623   2.981  12.120  0.9729 -0.2768  0.3389
 2293SOL    HW218516   0.651   2.970  11.976  0.0091 -0.3727 -0.3577
 2294SOL     OW18517   0.234   3.208   6.424  0.3546 -0.0340 -0.6059
 2294SOL    HW118518   0.271   3.296   6.433 -0.4853  0.2987 -0.4568
 2294SOL    HW218519   0.197   3.205   6.336 -0.1851  2.2831 -0.4426
 2295SOL     OW18520   3.961   3.142  17.126  0.3632  0.8850  0.2718
 2295SOL    HW118521   4.025   3.203  17.162  1.3397 -0.4159  0.7159
 2295SOL    HW218522   3.916   3.133  17.209  0.8567  0.1108  0.4528
 2296SOL     OW18523   3.687   0.998  10.898 -0.4768  0.2935  0.8193
 2296SOL    HW118524   3.643   0.970  10.818  0.3294 -0.2170  0.5529
 2296SOL    HW218525   3.645   0.930  10.951 -0.5363 -0.7635 -0.5981
 2297SOL     OW18526   1.124   1.378  12.760 -0.3649  0.3699 -0.6606
 2297SOL    HW118527   1.170   1.358  12.678  0.9177  0.6013  0.0060
 2297SOL    HW218528   1.175   1.331  12.826 -2.2068 -0.8696 -0.1066
 2298SOL     OW18529   4.673   0.463   4.171  0.4986 -0.0825 -0.3374
 2298SOL    HW118530   0.014   0.486   4.223  0.4056 -0.8147  0.1148
 2298SOL    HW218531   4.613   0.523   4.216 -1.8981 -2.1522 -0.7950
 2299SOL     OW18532   3.238   2.926   0.573 -0.4570  0.2020 -0.6446
 2299SOL    HW118533   3.169   2.957   0.515 -1.0153 -1.1320 -0.6821
 2299SOL    HW218534   3.247   2.834   0.547 -2.2813 -0.0572 -0.3319
 2300SOL     OW18535   0.962   3.703   6.746 -0.8886 -0.0058  0.0350
 2300SOL    HW118536   1.054   3.702   6.773 -0.9997 -0.9461  0.3821
 2300SOL    HW218537   0.922   3.676   6.828 -0.1580 -1.2188  0.0016
 2301SOL     OW18538   0.437   0.516   2.772 -0.0720  0.0179 -0.5411
 2301SOL    HW118539   0.421   0.425   2.747 -2.7796  0.5365 -0.6854
 2301SOL    HW218540   0.347   0.541   2.794  0.0869 -0.6306  0.8343
 2302SOL     OW18541   1.528   2.716   1.495 -0.5482  0.2561  0.0671
 2302SOL    HW118542   1.492   2.664   1.568 -0.4952 -1.9526 -1.4673
 2302SOL    HW218543   1.442   2.726   1.453  0.8755  0.5935 -2.7666
 2303SOL     OW18544   1.432   3.168   6.864  0.3387  0.2901 -0.4607
 2303SOL    HW118545   1.433   3.095   6.926  0.9865  1.4357  0.8700
 2303SOL    HW218546   1.428   3.118   6.782 -1.0432 -0.7687  0.2586
 2304SOL     OW18547   3.922   1.940   8.637  0.1648 -0.6706 -0.0693
 2304SOL    HW118548   3.924   2.025   8.682 -0.3983 -0.3956 -0.5654
 2304SOL    HW218549   3.975   1.961   8.560  1.1602  0.3352  0.8824
 2305SOL     OW18550   1.199   1.851  12.956 -0.1609  0.2437  0.4481
 2305SOL    HW118551   1.104   1.863  12.956  0.1271  2.4441 -0.0459
 2305SOL    HW218552   1.197   1.819  12.866  0.2366 -1.1218  0.9193
 2306SOL     OW18553   0.872   1.821   1.783 -0.1020  0.0979  0.1899
 2306SOL    HW118554   0.900   1.913   1.781  0.5103 -0.1124 -1.6598
 2306SOL    HW218555   0.828   1.805   1.699  0.9688  0.4751 -0.4558
 2307SOL     OW18556   2.427   0.166   4.892  0.1364  0.0356 -1.3243
 2307SOL    HW118557   2.334   0.189   4.891 -0.3957 -2.0297  0.7518
 2307SOL    HW218558   2.459   0.241   4.942 -0.7890 -1.4182  1.5042
 2308SOL     OW18559   3.003   4.333   0.999  0.0452 -0.5447 -0.4096
 2308SOL    HW118560   3.039   4.371   0.919  0.4715  1.3275  0.6401
 2308SOL    HW218561   2.995   4.244   0.967  0.0907 -1.4730  2.1738
 2309SOL     OW18562   3.401   1.737   4.065 -0.6431  0.0466  0.1596
 2309SOL    HW118563   3.465   1.711   3.999 -0.2077  0.3549  0.4545
 2309SOL    HW218564   3.321   1.738   4.013 -0.3369 -1.2427 -0.3283
 2310SOL     OW18565   2.373   2.279   3.617 -0.1179 -0.4751  0.5992
 2310SOL    HW118566   2.291   2.273   3.665 -1.1082 -0.2234 -1.0535
 2310SOL    HW218567   2.433   2.273   3.691  1.2629 -1.6847 -0.6223
 2311SOL     OW18568   0.222   2.852   5.075 -0.0077 -0.2883  0.0533
 2311SOL    HW118569   0.218   2.782   5.140 -3.1427 -1.5232 -1.4687
 2311SOL    HW218570   0.173   2.818   5.000 -1.5697  2.0989 -0.0247
 2312SOL     OW18571   4.246   3.802  15.080 -0.3600 -0.2710 -0.2059
 2312SOL    HW118572   4.202   3.885  15.101 -0.9603 -0.8853  0.9319
 2312SOL    HW218573   4.176   3.738  15.065 -0.0580 -1.2380  2.5446
 2313SOL     OW18574   1.017   4.168   9.562  0.0857  0.2335  0.3548
 2313SOL    HW118575   1.090   4.109   9.580 -1.6622 -1.1926  2.6578
 2313SOL    HW218576   1.060   4.244   9.521  0.7949 -1.1308 -1.4610
 2314SOL     OW18577   1.634   4.490   2.136  0.3484 -0.1379  0.0514
 2314SOL    HW118578   1.616   4.396   2.132  0.1682 -0.1652  1.6157
 2314SOL    HW218579   1.708   4.502   2.196  1.5731 -0.0928 -1.4632
 2315SOL     OW18580   2.551   2.144   5.507  0.5717 -0.4545  0.0424
 2315SOL    HW118581   2.493   2.218   5.491 -0.8853 -1.6010 -0.0182
 2315SOL    HW218582   2.488   2.076   5.532 -0.3118 -0.2192 -1.5773
 2316SOL     OW18583   3.963   3.963  15.868  0.5349  0.5593 -0.3732
 2316SOL    HW118584   3.979   4.056  15.886 -3.1487  1.0293  0.6594
 2316SOL    HW218585   4.008   3.919  15.940  1.9401 -0.5379 -1.9375
 2317SOL     OW18586   1.121   4.682   8.318  0.3445  0.2724 -0.0221
 2317SOL    HW118587   1.177   4.639   8.382  0.4391 -0.2043 -0.4212
 2317SOL    HW218588   1.094   4.617   8.253  1.2703 -0.9291  0.8088
 2318SOL     OW18589   3.532   1.998   6.389  0.3118  0.1555  0.0230
 2318SOL    HW118590   3.547   1.963   6.302 -1.6846  0.0676 -0.2985
 2318SOL    HW218591   3.448   1.954   6.403  0.4324 -0.2410 -0.5299
 2319SOL     OW18592   1.656   2.796   9.352 -0.2090 -0.4751  0.2169
 2319SOL    HW118593   1.682   2.776   9.442  2.9270  0.6895 -0.4239
 2319SOL    HW218594   1.735   2.788   9.300 -0.0993  0.4200  0.2440
 2320SOL     OW18595   4.039   3.278  10.175 -0.2542 -0.3406 -0.7183
 2320SOL    HW118596   4.030   3.290  10.080 -1.5324  2.3567 -0.2884
 2320SOL    HW218597   4.132   3.294  10.188 -0.5308  1.1154 -0.4522
 2321SOL     OW18598   2.317   1.262   2.145  1.1906  0.5086 -0.9316
 2321SOL    HW118599   2.363   1.334   2.188 -0.2388  0.6838  0.3005
 2321SOL    HW218600   2.251   1.235   2.209  1.9841 -1.5163 -0.9975
 2322SOL     OW18601   3.386   1.182   3.991  0.5117 -0.0761  0.1736
 2322SOL    HW118602   3.477   1.153   4.000  0.3057 -0.6547  0.3862
 2322SOL    HW218603   3.381   1.192   4.087  0.9770  0.4488  0.1427
 2323SOL     OW18604   3.930   2.064  12.956  0.1907  0.1349  1.1006
 2323SOL    HW118605   3.858   2.027  12.904  2.5765 -1.0245 -1.4030
 2323SOL    HW218606   4.001   2.006  12.928  2.0946  2.7458  0.5418
 2324SOL     OW18607   4.050   2.311   3.339 -0.3650  0.0019 -0.8719
 2324SOL    HW118608   3.959   2.303   3.367 -0.2979  0.3486 -0.5627
 2324SOL    HW218609   4.042   2.378   3.272  0.3343 -0.1307 -1.0941
 2325SOL     OW18610   3.421   2.820   1.185  0.1333 -0.5670  0.6195
 2325SOL    HW118611   3.383   2.864   1.109 -0.1004 -1.8551 -0.0151
 2325SOL    HW218612   3.423   2.892   1.247  0.4449 -1.8109  2.0449
 2326SOL     OW18613   2.594   2.641   2.847 -0.6858  0.4037 -0.0550
 2326SOL    HW118614   2.619   2.550   2.834  1.4755  1.1521 -1.1648
 2326SOL    HW218615   2.501   2.634   2.826 -0.0037 -1.0124 -2.6629
 2327SOL     OW18616   4.282   3.897   5.722 -0.6085 -0.4502 -0.0697
 2327SOL    HW118617   4.370   3.935   5.727 -0.0266 -1.7806 -0.1871
 2327SOL    HW218618   4.222   3.967   5.746 -2.9312 -2.8822  1.1144
 2328SOL     OW18619   2.049   2.717  14.122  0.0082  0.4557 -0.6787
 2328SOL    HW118620   1.973   2.662  14.105  1.4512 -1.8675  0.3776
 2328SOL    HW218621   2.058   2.698  14.215 -1.5939  1.4486 -0.3152
 2329SOL     OW18622   3.332   0.159   2.955 -0.4090  0.3242 -0.3272
 2329SOL    HW118623   3.351   0.236   2.902 -0.5380  0.5766 -0.0108
 2329SOL    HW218624   3.422   0.126   2.964 -0.0814  1.6138  1.1551
 2330SOL     OW18625   1.838   1.230  15.597  0.4572 -0.0575 -0.0972
 2330SOL    HW118626   1.810   1.140  15.579 -3.5924  1.3556 -0.7520
 2330SOL    HW218627   1.793   1.279  15.528  0.2753  2.1432  1.6084
 2331SOL     OW18628   1.934   3.022   5.481 -0.4121 -0.0192 -0.2561
 2331SOL    HW118629   1.843   3.051   5.476 -0.9841 -1.2803  2.5323
 2331SOL    HW218630   1.973   3.084   5.543 -0.2314 -0.3104 -0.0818
 2332SOL     OW18631   4.576   0.874   9.708  0.1288 -0.0288 -0.2316
 2332SOL    HW118632   4.482   0.892   9.717  0.1138 -0.3462  0.2309
 2332SOL    HW218633   4.577   0.786   9.671 -1.3495 -0.0490 -0.2357
 2333SOL     OW18634   0.124   4.089   4.972 -0.1900 -0.3884 -0.3863
 2333SOL    HW118635   0.069   4.019   4.936 -2.2403  0.8439  0.3923
 2333SOL    HW218636   0.098   4.169   4.927 -0.1584 -0.4580 -0.5317
 2334SOL     OW18637   2.492   0.783   1.592 -0.3775 -0.3162 -0.1603
 2334SOL    HW118638   2.465   0.865   1.634 -0.8056 -0.5143 -0.0466
 2334SOL    HW218639   2.543   0.739   1.659  0.3890  0.4259 -0.2643
 2335SOL     OW18640   2.992   3.943  16.145  0.1990  0.7195 -0.3262
 2335SOL    HW118641   3.035   3.962  16.229  0.5845  0.1189 -0.3838
 2335SOL    HW218642   3.065   3.908  16.092  0.8525  1.5157  0.0462
 2336SOL     OW18643   2.134   1.461   4.760 -0.1267 -0.1781 -0.7424
 2336SOL    HW118644   2.199   1.531   4.764  1.1118 -1.4014  0.4889
 2336SOL    HW218645   2.140   1.410   4.841 -1.9839  0.0293 -0.4676
 2337SOL     OW18646   4.080   1.996   4.291  0.3710  0.3065 -0.7175
 2337SOL    HW118647   4.009   2.045   4.251  0.7087  3.2097  2.2168
 2337SOL    HW218648   4.061   2.011   4.384  1.7221 -1.6653 -0.1345
 2338SOL     OW18649   3.721   3.922   1.537  0.5432 -0.5021 -0.3666
 2338SOL    HW118650   3.756   3.968   1.612  0.1915 -2.0874  0.7751
 2338SOL    HW218651   3.658   3.859   1.573 -0.5227  0.7186 -0.1144
 2339SOL     OW18652   2.289   1.314   1.056 -0.0876 -0.0073  0.1205
 2339SOL    HW118653   2.207   1.362   1.051 -0.5228 -0.8323 -0.9150
 2339SOL    HW218654   2.318   1.333   0.967 -0.9231 -1.4492 -0.4792
 2340SOL     OW18655   3.222   2.644   6.320 -0.5678 -0.4964  0.2138
 2340SOL    HW118656   3.221   2.631   6.225  1.5604  1.6676 -0.1098
 2340SOL    HW218657   3.149   2.703   6.337  0.6384  1.1369 -0.2523
 2341SOL     OW18658   0.033   0.469  14.600  0.2604  0.6660 -0.4714
 2341SOL    HW118659   0.066   0.558  14.600  0.8031  0.4617 -2.2440
 2341SOL    HW218660   0.112   0.418  14.583  1.2769  1.2560  2.5661
 2342SOL     OW18661   1.677   3.454   6.281 -0.4672 -0.6269 -0.4476
 2342SOL    HW118662   1.742   3.500   6.229 -0.0328 -1.1705 -0.3897
 2342SOL    HW218663   1.682   3.364   6.248 -1.8090 -1.8997  2.8206
 2343SOL     OW18664   0.020   2.394   4.418  0.2280 -0.1124  0.2770
 2343SOL    HW118665   0.058   2.465   4.366 -1.1328 -1.4519 -2.6075
 2343SOL    HW218666   0.086   2.344   4.465 -0.5753 -0.5055  0.9677
 2344SOL     OW18667   0.681   0.755   3.042 -0.2705  0.0827  0.2579
 2344SOL    HW118668   0.590   0.726   3.050  0.1315 -2.0817 -2.7446
 2344SOL    HW218669   0.688   0.771   2.948  1.7643 -0.8903  0.2470
 2345SOL     OW18670   4.264   4.684   1.080 -0.0387  0.2331  0.0517
 2345SOL    HW118671   4.231   4.699   0.991  0.3441 -0.8747 -0.2833
 2345SOL    HW218672   4.349   4.639   1.077 -0.1459  0.0282  0.1174
 2346SOL     OW18673   3.994   1.175  11.926  0.0134 -0.1473  0.5120
 2346SOL    HW118674   3.900   1.185  11.916  0.4230 -0.3118 -3.3775
 2346SOL    HW218675   4.012   1.088  11.891 -0.1165 -0.1731  0.5093
 2347SOL     OW18676   0.305   3.833   6.567  0.5263  0.0256 -0.1416
 2347SOL    HW118677   0.328   3.839   6.474  0.7382 -2.7711 -0.2743
 2347SOL    HW218678   0.284   3.741   6.587 -2.0445  0.4399 -0.8769
 2348SOL     OW18679   2.518   3.197   1.843  0.5173 -0.2526  0.1145
 2348SOL    HW118680   2.545   3.123   1.897  0.8560  1.2630  2.0618
 2348SOL    HW218681   2.597   3.215   1.793  0.7253 -2.4007 -0.2943
 2349SOL     OW18682   4.674   2.649  11.215  0.2680  0.0791  0.0946
 2349SOL    HW118683   4.655   2.586  11.284  1.6509  0.0784  0.4820
 2349SOL    HW218684   0.030   2.629  11.193  0.4174 -0.7122  1.4867
 2350SOL     OW18685   3.988   2.455  15.737 -0.4280  0.0555 -0.0822
 2350SOL    HW118686   4.049   2.405  15.684 -0.9866 -1.4830  0.7321
 2350SOL    HW218687   3.963   2.519  15.670 -0.5311  0.2032  0.0960
 2351SOL     OW18688   4.437   3.657   8.449 -0.2939  0.2145 -0.2532
 2351SOL    HW118689   4.367   3.612   8.402 -0.7607 -0.4788  1.0999
 2351SOL    HW218690   4.519   3.617   8.422 -0.1091 -1.9309  3.4292
 2352SOL     OW18691   0.712   2.508   0.203 -0.4759 -0.0300  0.5477
 2352SOL    HW118692   0.656   2.580   0.234 -0.6422  0.3668 -0.6968
 2352SOL    HW218693   0.761   2.558   0.137  0.8369 -0.7556  0.9673
 2353SOL     OW18694   2.698   4.606  15.472 -0.2342 -0.0260  0.3267
 2353SOL    HW118695   2.737   4.519  15.464 -0.4807 -0.1988  1.0467
 2353SOL    HW218696   2.733   4.636  15.556  2.0055 -1.2037 -0.1774
 2354SOL     OW18697   2.833   0.451   0.213  0.6862  0.3924  0.1015
 2354SOL    HW118698   2.905   0.514   0.210  0.6891  0.3388 -1.0092
 2354SOL    HW218699   2.754   0.503   0.230  0.6484  0.4756 -0.3302
 2355SOL     OW18700   2.239   4.314   1.791  0.3991 -0.3675  0.5321
 2355SOL    HW118701   2.202   4.390   1.837 -2.5923 -0.4102 -1.8126
 2355SOL    HW218702   2.222   4.348   1.704 -0.6238 -1.8988  0.1223
 2356SOL     OW18703   2.008   0.516   2.192  0.1822 -0.1896  0.5636
 2356SOL    HW118704   1.923   0.525   2.236 -0.8697 -1.8381 -1.1192
 2356SOL    HW218705   1.976   0.484   2.108 -0.3567  1.1306  0.2762
 2357SOL     OW18706   0.185   3.008   2.702 -0.2070  0.0145 -0.0094
 2357SOL    HW118707   0.275   2.976   2.696 -0.6498 -1.2783  0.2186
 2357SOL    HW218708   0.180   3.002   2.797 -0.5193  0.4207  0.0037
 2358SOL     OW18709   3.488   4.574   3.217  0.5598 -0.2477 -0.4329
 2358SOL    HW118710   3.567   4.574   3.163  0.5585  0.9605 -0.4344
 2358SOL    HW218711   3.462   4.666   3.229  0.1649 -0.3911 -0.2165
 2359SOL     OW18712   4.674   3.908   9.391 -0.4638  0.3946 -0.5753
 2359SOL    HW118713   4.628   3.927   9.473 -0.5478  0.3723 -0.6180
 2359SOL    HW218714   4.615   3.937   9.322 -2.2618  0.8688  1.1645
 2360SOL     OW18715   1.702   4.040   9.454 -0.4132  0.1603  0.9140
 2360SOL    HW118716   1.647   3.977   9.408 -1.6191  1.8323  0.0391
 2360SOL    HW218717   1.637   4.109   9.470  0.7913  0.9448  2.5001
 2361SOL     OW18718   4.329   1.110  11.893 -0.9067 -0.2944  0.1093
 2361SOL    HW118719   4.360   1.115  11.802 -1.0684 -0.5452  0.0413
 2361SOL    HW218720   4.253   1.055  11.877 -1.0713  0.0281 -0.2025
 2362SOL     OW18721   0.859   4.090   2.858  0.1574  0.0640  0.0349
 2362SOL    HW118722   0.941   4.088   2.810  0.7868 -2.7648  1.2193
 2362SOL    HW218723   0.830   3.999   2.859 -0.9934  0.4372  2.2343
 2363SOL     OW18724   2.402   1.257   9.058 -0.2137  0.3210  0.1176
 2363SOL    HW118725   2.421   1.351   9.065  1.1783 -0.0076  0.5912
 2363SOL    HW218726   2.376   1.248   9.150 -2.6784  3.3245 -0.2657
 2364SOL     OW18727   4.526   3.449   9.616 -0.0924  0.2159  0.1104
 2364SOL    HW118728   4.619   3.445   9.591 -0.0167 -2.4657  0.8136
 2364SOL    HW218729   4.492   3.372   9.570  1.9628 -1.2025  0.9557
 2365SOL     OW18730   3.771   3.570   5.761  0.2668  0.0120  0.3040
 2365SOL    HW118731   3.792   3.494   5.816 -0.2564 -0.1951  0.2120
 2365SOL    HW218732   3.841   3.631   5.787  0.7559  0.0332 -1.0884
 2366SOL     OW18733   1.274   3.499  14.188 -0.1911  0.0318  0.0817
 2366SOL    HW118734   1.207   3.439  14.221 -1.1043 -0.1096 -2.0206
 2366SOL    HW218735   1.340   3.505  14.256  0.8450  2.0510 -1.0842
 2367SOL     OW18736   4.048   1.331  14.713 -0.0227  0.4300 -0.2603
 2367SOL    HW118737   3.987   1.329  14.786 -1.0750  0.8526 -1.1226
 2367SOL    HW218738   3.992   1.362  14.642 -1.4213  1.7004  1.4121
 2368SOL     OW18739   3.622   3.399  10.471  0.2251  0.9505 -0.3575
 2368SOL    HW118740   3.677   3.408  10.393  1.4985 -1.2292  0.3055
 2368SOL    HW218741   3.683   3.368  10.537  0.1486 -0.1844 -0.8254
 2369SOL     OW18742   3.057   2.791   2.552 -0.0506  0.2975  0.2347
 2369SOL    HW118743   3.120   2.761   2.487 -2.6446 -0.7655 -1.7566
 2369SOL    HW218744   2.986   2.822   2.496 -0.1044  2.6911  1.6142
 2370SOL     OW18745   1.234   3.685   6.799 -0.0319  0.3142  0.1042
 2370SOL    HW118746   1.309   3.728   6.838 -0.9260  0.0668  2.1028
 2370SOL    HW218747   1.261   3.693   6.708 -0.7071 -3.0987 -0.4011
 2371SOL     OW18748   1.090   1.312  16.918 -0.2638 -0.6084  0.4338
 2371SOL    HW118749   1.033   1.320  16.842  2.5679  2.0702 -1.3919
 2371SOL    HW218750   1.061   1.229  16.955 -3.0693 -1.5905 -4.0394
 2372SOL     OW18751   3.746   1.314  15.144 -0.3927  0.2432  0.3381
 2372SOL    HW118752   3.747   1.392  15.200 -2.7670  2.1662 -2.2954
 2372SOL    HW218753   3.766   1.249  15.211 -0.9851 -0.7435 -0.4404
 2373SOL     OW18754   1.728   2.323   6.062 -0.4787  0.1508  0.3236
 2373SOL    HW118755   1.806   2.324   6.008 -0.7752  1.0870 -0.0880
 2373SOL    HW218756   1.669   2.298   5.991 -0.7729 -2.0344  1.3299
 2374SOL     OW18757   1.283   3.354   8.258  0.1530 -0.0432  0.1824
 2374SOL    HW118758   1.371   3.380   8.285  0.0129  1.3041 -0.6642
 2374SOL    HW218759   1.235   3.416   8.312 -2.2155 -0.4384 -1.4786
 2375SOL     OW18760   3.204   2.686  14.628  0.3938  0.4414 -0.5227
 2375SOL    HW118761   3.280   2.743  14.633 -0.4872  1.2509  3.7300
 2375SOL    HW218762   3.208   2.668  14.534 -0.9222  2.6813 -1.0206
 2376SOL     OW18763   3.626   1.479   1.636  0.0166 -0.1419  0.0913
 2376SOL    HW118764   3.630   1.479   1.540 -3.3252 -0.8318 -0.0611
 2376SOL    HW218765   3.686   1.405   1.647 -0.3298  0.1339  3.5653
 2377SOL     OW18766   1.688   3.970   4.763 -0.5667  0.0514  0.0411
 2377SOL    HW118767   1.679   4.012   4.677  2.0609 -0.7394 -0.6485
 2377SOL    HW218768   1.595   3.957   4.780 -1.1748  1.9715 -1.7615
 2378SOL     OW18769   4.139   2.768   7.087 -0.4026  0.8645 -0.5101
 2378SOL    HW118770   4.073   2.718   7.133  0.3524  0.6769  0.3763
 2378SOL    HW218771   4.208   2.703   7.072  0.8798  1.7350  1.6323
 2379SOL     OW18772   1.859   2.022  12.791  0.3268 -0.4387 -0.0654
 2379SOL    HW118773   1.948   1.986  12.796  0.1419 -1.0486 -1.2578
 2379SOL    HW218774   1.811   1.944  12.819 -1.6954 -0.0508 -2.5598
 2380SOL     OW18775   0.872   0.228  11.425 -0.1098  0.2360  0.0507
 2380SOL    HW118776   0.812   0.208  11.497 -0.0480  1.6345  0.4805
 2380SOL    HW218777   0.954   0.186  11.452  0.2913  0.8227 -0.2570
 2381SOL     OW18778   4.245   0.932   5.042  0.5408 -0.3056  0.0153
 2381SOL    HW118779   4.259   0.837   5.036 -0.3562 -0.5469  1.6528
 2381SOL    HW218780   4.223   0.936   5.135 -1.6236  0.8468 -0.5593
 2382SOL     OW18781   4.487   3.902  13.695  0.4796  0.3042  0.7412
 2382SOL    HW118782   4.582   3.891  13.688  0.4287  0.7846 -0.8018
 2382SOL    HW218783   4.470   3.935  13.607  0.1500 -1.3533  0.1777
 2383SOL     OW18784   0.385   0.101   8.499 -0.1018 -0.6317  0.7878
 2383SOL    HW118785   0.398   0.035   8.567  2.3469 -0.4632  0.4860
 2383SOL    HW218786   0.478   0.117   8.482 -0.2478 -0.7616 -0.0885
 2384SOL     OW18787   4.562   0.840   6.162  0.5378  0.4270  0.2683
 2384SOL    HW118788   4.621   0.834   6.237  3.5546  0.8499 -2.0612
 2384SOL    HW218789   4.599   0.764   6.116 -0.6034  1.3519 -2.1486
 2385SOL     OW18790   2.807   2.259   0.154 -0.5288 -0.1850  0.5310
 2385SOL    HW118791   2.794   2.165   0.168 -1.3536 -0.1340  0.1141
 2385SOL    HW218792   2.776   2.265   0.063 -0.9737 -4.0531  0.4080
 2386SOL     OW18793   0.847   1.463  13.985  0.4934 -0.3957  0.3456
 2386SOL    HW118794   0.764   1.464  14.034  0.9492  1.2773  1.0902
 2386SOL    HW218795   0.831   1.522  13.912 -0.7950  0.3464  1.2164
 2387SOL     OW18796   0.755   0.753  14.623  0.3633 -0.1656 -0.2306
 2387SOL    HW118797   0.827   0.712  14.576  0.0350  1.0153 -1.7884
 2387SOL    HW218798   0.804   0.819  14.672  0.8356  0.3008 -1.3244
 2388SOL     OW18799   0.762   4.312   8.831  0.0507  0.3889 -0.3633
 2388SOL    HW118800   0.667   4.301   8.831  0.1768 -0.7428  3.1707
 2388SOL    HW218801   0.787   4.220   8.825 -0.2475  0.2691  0.2797
 2389SOL     OW18802   1.239   1.198   9.421  0.0251  0.3875  0.0427
 2389SOL    HW118803   1.205   1.163   9.503  0.1559  2.8347  1.1419
 2389SOL    HW218804   1.176   1.266   9.397 -0.0745 -0.3195 -1.7174
 2390SOL     OW18805   2.679   2.712   3.481  0.1004  0.2547  0.5533
 2390SOL    HW118806   2.774   2.713   3.486  0.1914  2.5606 -1.9902
 2390SOL    HW218807   2.657   2.693   3.389  0.5259  0.8089  0.3402
 2391SOL     OW18808   0.187   0.308  10.236 -0.2090 -0.4383  0.0023
 2391SOL    HW118809   0.258   0.358  10.195  0.2412 -0.5361  0.6570
 2391SOL    HW218810   0.157   0.249  10.166 -2.8531 -1.0343  1.6460
 2392SOL     OW18811   3.493   2.827   8.397 -0.3916  0.4065 -0.1528
 2392SOL    HW118812   3.501   2.827   8.302  0.7978  1.5886 -0.0499
 2392SOL    HW218813   3.512   2.735   8.414  3.7314  1.4249  0.7455
 2393SOL     OW18814   2.033   1.090   5.474  0.4579 -0.4765 -0.1628
 2393SOL    HW118815   1.994   1.122   5.392 -2.0657  1.7492  1.9074
 2393SOL    HW218816   1.956   1.086   5.530  0.4177 -2.8252 -0.3817
 2394SOL     OW18817   0.891   1.941   3.778  0.1080 -0.4674  0.1986
 2394SOL    HW118818   0.888   2.034   3.754  0.3056 -0.7321 -0.8220
 2394SOL    HW218819   0.825   1.907   3.718  1.3261  0.3904 -1.6354
 2395SOL     OW18820   3.802   3.031   1.900 -0.3782 -0.5334 -0.4964
 2395SOL    HW118821   3.870   3.051   1.965 -1.3011 -0.4033  0.4192
 2395SOL    HW218822   3.800   3.119   1.863  2.7048  0.5032  1.7579
 2396SOL     OW18823   1.645   0.685   2.474  0.1883  0.8642  1.0424
 2396SOL    HW118824   1.688   0.624   2.414  2.3266  2.1559  1.2461
 2396SOL    HW218825   1.557   0.684   2.439  0.3323  1.3532  0.6711
 2397SOL     OW18826   3.704   0.127   9.283  0.4698 -0.6028 -0.6664
 2397SOL    HW118827   3.748   0.209   9.306 -2.5048  1.1792 -1.2085
 2397SOL    HW218828   3.613   0.156   9.278  1.0878  1.8713  2.5108
 2398SOL     OW18829   4.610   4.402   0.301  0.5747  0.5211  0.0389
 2398SOL    HW118830   4.636   4.493   0.286  1.3662  0.1651 -0.7713
 2398SOL    HW218831   4.615   4.391   0.396  1.4093 -0.7606 -0.1412
 2399SOL     OW18832   0.209   4.397   5.635 -0.7491 -0.2508 -0.0334
 2399SOL    HW118833   0.296   4.381   5.599  0.4190  0.7203  2.3508
 2399SOL    HW218834   0.191   4.490   5.621  3.0079  0.2712 -1.3647
 2400SOL     OW18835   0.884   1.110   0.779 -0.1247 -0.2242  0.0690
 2400SOL    HW118836   0.975   1.103   0.811  0.0443  2.1692  0.0671
 2400SOL    HW218837   0.901   1.083   0.689 -3.0234  1.7271 -1.0375
 2401SOL     OW18838   1.470   1.540   7.828 -0.4437  0.0013 -0.2962
 2401SOL    HW118839   1.492   1.540   7.921 -0.0243 -1.5801 -0.3959
 2401SOL    HW218840   1.393   1.596   7.819 -0.7724 -0.5644 -1.0520
 2402SOL     OW18841   2.941   0.103   9.171 -0.4852 -0.4702  0.0061
 2402SOL    HW118842   3.007   0.036   9.186  1.6577  0.8603 -3.5494
 2402SOL    HW218843   2.936   0.102   9.076 -2.8476  0.6574  0.1164
 2403SOL     OW18844   0.270   1.504   8.120 -0.7361 -0.6710 -0.1064
 2403SOL    HW118845   0.241   1.551   8.198 -0.5074  1.1417 -1.1234
 2403SOL    HW218846   0.361   1.501   8.148 -1.0362  2.3663  1.1690
 2404SOL     OW18847   1.006   2.785   8.662 -0.1307 -0.2854  0.5932
 2404SOL    HW118848   1.068   2.809   8.593  0.1225 -1.2870  0.4796
 2404SOL    HW218849   1.032   2.848   8.729  4.3204 -1.0525 -0.4106
 2405SOL     OW18850   3.897   3.915   7.206 -0.0087  0.1913  0.1955
 2405SOL    HW118851   3.841   3.871   7.142  1.0783 -0.4613 -0.3084
 2405SOL    HW218852   3.918   3.847   7.270 -2.7290 -0.1200  0.7525
 2406SOL     OW18853   4.114   0.759   6.815  0.0900  0.0174  0.0159
 2406SOL    HW118854   4.147   0.813   6.887  0.0043 -1.0606  0.8770
 2406SOL    HW218855   4.074   0.830   6.765  0.5912 -0.1607 -0.6364
 2407SOL     OW18856   0.915   1.615   5.741 -0.2881  0.4754  0.6289
 2407SOL    HW118857   0.930   1.665   5.821 -0.1371  0.7870  0.4052
 2407SOL    HW218858   0.998   1.612   5.693 -0.4571  0.7333  0.3163
 2408SOL     OW18859   2.532   3.662  11.509  0.5745 -0.6440 -0.6332
 2408SOL    HW118860   2.511   3.576  11.473 -2.4628 -0.9393  1.8547
 2408SOL    HW218861   2.616   3.681  11.466  0.4228  0.8982 -0.2753
 2409SOL     OW18862   4.326   2.852   3.094 -0.6613 -0.4159 -0.1465
 2409SOL    HW118863   4.331   2.926   3.155 -0.6699  0.6463 -1.4412
 2409SOL    HW218864   4.387   2.788   3.131 -0.1090  1.9702  3.0434
 2410SOL     OW18865   1.413   4.229  14.921  0.2921  0.2172  0.2988
 2410SOL    HW118866   1.371   4.161  14.869  0.6630  0.1439  0.0984
 2410SOL    HW218867   1.496   4.216  14.876 -0.3237 -1.5082 -0.3457
 2411SOL     OW18868   1.311   4.483   5.861  1.0194 -0.1010 -0.4539
 2411SOL    HW118869   1.311   4.579   5.860 -0.9432 -0.0510  2.4937
 2411SOL    HW218870   1.299   4.461   5.954  1.2889  1.2483 -0.0968
 2412SOL     OW18871   0.155   2.086   7.403 -0.0069  0.2630 -0.0823
 2412SOL    HW118872   0.151   1.991   7.395  3.1481 -0.0846  2.1836
 2412SOL    HW218873   0.179   2.098   7.495  0.1098 -1.9561  0.1737
 2413SOL     OW18874   1.485   4.471   4.852  1.0375  0.2931 -0.2748
 2413SOL    HW118875   1.489   4.516   4.936  1.0577  0.7769 -0.5342
 2413SOL    HW218876   1.401   4.427   4.859 -0.1187  2.4505 -0.4870
 2414SOL     OW18877   0.639   1.346   4.932 -0.1465  0.7141 -0.0335
 2414SOL    HW118878   0.621   1.328   5.024 -0.7981  3.2618  0.3414
 2414SOL    HW218879   0.716   1.404   4.931  1.4958 -1.4455  2.2472
 2415SOL     OW18880   3.961   0.598   7.363 -0.4229  0.5402  0.1850
 2415SOL    HW118881   4.039   0.650   7.385  1.4279 -1.2172 -2.2000
 2415SOL    HW218882   3.941   0.654   7.289  1.6892  1.2354  0.1454
 2416SOL     OW18883   3.068   0.604  10.651  0.4505  0.0972  0.3017
 2416SOL    HW118884   3.007   0.646  10.712 -1.6410 -1.0306 -1.0207
 2416SOL    HW218885   3.009   0.599  10.576  1.3611 -1.2794 -0.3273
 2417SOL     OW18886   3.954   2.105   7.598 -0.1535  1.1056  0.0686
 2417SOL    HW118887   3.985   2.195   7.608  1.2317  0.4719  1.5251
 2417SOL    HW218888   3.928   2.109   7.507 -1.6151  1.1281  0.4888
 2418SOL     OW18889   3.778   4.190   3.648 -0.3075  0.4928 -0.6829
 2418SOL    HW118890   3.697   4.236   3.668 -1.3656 -1.4669 -0.4045
 2418SOL    HW218891   3.805   4.171   3.738 -0.6027  2.1342 -0.2464
 2419SOL     OW18892   2.415   3.024   3.444  0.1706 -0.0672  0.0824
 2419SOL    HW118893   2.323   3.003   3.429  0.1070 -0.2315  0.7143
 2419SOL    HW218894   2.449   2.949   3.493 -1.7979 -1.5712 -0.8480
 2420SOL     OW18895   2.155   3.214   8.428  0.0691  0.6237  0.1878
 2420SOL    HW118896   2.185   3.295   8.469 -0.3125  0.4675  0.7676
 2420SOL    HW218897   2.152   3.237   8.335  1.4257  1.8688  0.4479
 2421SOL     OW18898   0.534   0.555   9.110 -0.1709  0.0584  0.5063
 2421SOL    HW118899   0.570   0.582   9.194  2.8150 -1.3861 -0.3179
 2421SOL    HW218900   0.478   0.631   9.093 -0.9229 -0.4317  0.7931
 2422SOL     OW18901   4.680   0.102   6.125 -0.2430  0.4629 -0.3978
 2422SOL    HW118902   4.614   0.108   6.056 -2.2460  0.7912  1.5355
 2422SOL    HW218903   4.620   0.103   6.200 -0.0931 -1.1898 -0.2639
 2423SOL     OW18904   1.171   3.067   9.402  0.4560 -0.1728 -0.3889
 2423SOL    HW118905   1.161   3.160   9.419 -2.1751 -0.3479 -0.9418
 2423SOL    HW218906   1.265   3.054   9.414  0.6144  0.1133 -1.3986
 2424SOL     OW18907   4.064   4.149   3.619  0.3865 -0.6134 -0.0061
 2424SOL    HW118908   4.120   4.225   3.630 -0.9135  0.2075  0.8286
 2424SOL    HW218909   3.981   4.195   3.617  1.6201  1.5498 -1.9350
 2425SOL     OW18910   3.802   3.685   4.143 -0.4753  0.4027 -0.0467
 2425SOL    HW118911   3.857   3.710   4.217 -0.9320  0.2705  0.3368
 2425SOL    HW218912   3.737   3.625   4.180  1.3691 -0.7914  1.2212
 2426SOL     OW18913   0.076   1.901   4.627  0.0611 -0.1594 -0.2229
 2426SOL    HW118914   0.073   1.867   4.717  3.8657  0.3856  0.1200
 2426SOL    HW218915   4.733   1.955   4.618 -0.3552 -0.9205 -1.1534
 2427SOL     OW18916   4.649   3.262  11.951  0.5556 -0.1278 -0.5671
 2427SOL    HW118917   0.009   3.268  11.960  0.7910 -0.4798 -2.9409
 2427SOL    HW218918   4.630   3.186  12.006 -0.2343  2.0137  2.1396
 2428SOL     OW18919   0.630   1.549   4.124  0.0939  0.2848 -0.5115
 2428SOL    HW118920   0.711   1.501   4.108 -0.1258 -0.1489 -0.3447
 2428SOL    HW218921   0.673   1.630   4.150  1.5202 -0.6136 -0.0806
 2429SOL     OW18922   4.330   2.601   7.051  0.6168 -0.0490  0.6034
 2429SOL    HW118923   4.423   2.591   7.070  0.6282 -1.0604  0.0044
 2429SOL    HW218924   4.314   2.511   7.025  0.8630 -0.6202  2.4511
 2430SOL     OW18925   0.568   1.510   9.172 -0.6869  0.2628 -0.0159
 2430SOL    HW118926   0.500   1.576   9.171 -1.9732 -1.1009 -1.4457
 2430SOL    HW218927   0.558   1.479   9.262  2.6662  0.6822  0.5346
 2431SOL     OW18928   3.339   4.071   2.748 -0.5649  0.3172 -0.0532
 2431SOL    HW118929   3.416   4.039   2.796  0.1252  2.4583  0.2400
 2431SOL    HW218930   3.374   4.151   2.709  1.5310 -0.2782  0.6125
 2432SOL     OW18931   3.714   0.328  10.456  0.0596 -0.2498  0.0673
 2432SOL    HW118932   3.752   0.295  10.538  1.4043  0.7100 -0.1580
 2432SOL    HW218933   3.787   0.315  10.396 -0.1265 -1.5961  0.1437
 2433SOL     OW18934   0.720   1.286   7.653  0.2675 -0.1195  0.1303
 2433SOL    HW118935   0.717   1.378   7.677  0.5077  0.4523 -2.0087
 2433SOL    HW218936   0.686   1.296   7.564  1.3310  0.9696 -0.1376
 2434SOL     OW18937   2.535   1.777  16.028 -0.3730 -0.2560  0.4357
 2434SOL    HW118938   2.491   1.738  15.952  1.4440 -1.1519 -0.1386
 2434SOL    HW218939   2.468   1.775  16.096 -0.1330 -0.3188  0.6671
 2435SOL     OW18940   4.300   3.377   3.049 -0.0909  0.0961 -0.2051
 2435SOL    HW118941   4.258   3.293   3.069  2.7187 -1.5000 -0.9929
 2435SOL    HW218942   4.389   3.347   3.030  0.5414  0.7135  1.7293
 2436SOL     OW18943   3.489   4.236   7.926 -0.0605  0.6018 -0.4324
 2436SOL    HW118944   3.517   4.241   8.018  1.9912 -3.5697 -0.8632
 2436SOL    HW218945   3.447   4.321   7.916 -0.6807  0.5782  1.8525
 2437SOL     OW18946   1.391   1.456   4.994  0.8348  0.1415  0.1656
 2437SOL    HW118947   1.445   1.442   5.072  0.3964  2.0038  0.8199
 2437SOL    HW218948   1.390   1.369   4.955 -0.1199 -0.4138  1.4590
 2438SOL     OW18949   3.686   2.765   6.169  0.2358 -0.2129  0.3662
 2438SOL    HW118950   3.704   2.819   6.092  0.2347  0.9452  1.1686
 2438SOL    HW218951   3.624   2.823   6.214 -0.0138  0.7037 -1.1403
 2439SOL     OW18952   1.873   0.350   3.051  0.4184  0.5802  0.0289
 2439SOL    HW118953   1.812   0.414   3.086 -2.4882 -1.7621 -0.7997
 2439SOL    HW218954   1.932   0.325   3.122  0.3194 -1.9813 -0.7990
 2440SOL     OW18955   3.013   3.288   9.146 -0.2124 -0.0786 -0.3723
 2440SOL    HW118956   2.923   3.316   9.160 -0.6677 -1.2979 -0.8922
 2440SOL    HW218957   3.014   3.264   9.054 -0.1592  1.1855 -0.6943
 2441SOL     OW18958   4.203   1.931   0.863  0.1476 -0.1523  0.0988
 2441SOL    HW118959   4.192   1.943   0.958 -0.2151 -0.1538  0.0581
 2441SOL    HW218960   4.293   1.900   0.860 -0.1251 -0.8425 -0.9603
 2442SOL     OW18961   2.737   1.025   1.415 -0.0443 -0.1406 -0.0563
 2442SOL    HW118962   2.820   0.995   1.380  0.5367  0.9699  0.3775
 2442SOL    HW218963   2.676   0.970   1.366  0.2156 -0.0788 -0.4403
 2443SOL     OW18964   2.339   3.127   2.052 -0.4599  0.2620  0.5765
 2443SOL    HW118965   2.254   3.147   2.092  0.1649 -1.6051  2.8267
 2443SOL    HW218966   2.333   3.175   1.969 -0.8047 -0.4449  0.1966
 2444SOL     OW18967   2.929   3.204  14.914 -0.1154 -0.2629  0.4683
 2444SOL    HW118968   2.896   3.125  14.870  1.6365 -0.3262 -0.7026
 2444SOL    HW218969   2.927   3.175  15.005  1.7800 -0.7035  0.3731
 2445SOL     OW18970   1.078   1.766   4.923 -0.1100  0.3013 -0.1324
 2445SOL    HW118971   1.114   1.750   5.010 -0.6183 -3.0944 -0.5373
 2445SOL    HW218972   1.009   1.701   4.932  1.2246 -1.6646 -3.9416
 2446SOL     OW18973   1.915   2.492   5.717  0.0092 -0.0467 -0.2538
 2446SOL    HW118974   1.822   2.469   5.715 -0.4217  1.5011  1.0902
 2446SOL    HW218975   1.929   2.541   5.636 -2.3338  0.8419 -0.1249
 2447SOL     OW18976   2.147   0.944   4.115  0.1533 -0.3497 -0.4654
 2447SOL    HW118977   2.154   1.023   4.169  1.4744 -0.2523 -0.7657
 2447SOL    HW218978   2.084   0.982   4.054  0.8922  2.0321  0.2389
 2448SOL     OW18979   3.353   1.627  10.166 -0.2385  0.2639 -0.0774
 2448SOL    HW118980   3.356   1.681  10.245 -2.2757  0.3790 -0.0796
 2448SOL    HW218981   3.391   1.689  10.104  2.1150 -1.7151 -0.6105
 2449SOL     OW18982   0.760   1.065  17.713  0.7557  0.0490 -0.8893
 2449SOL    HW118983   0.754   0.995   0.039  0.4152  1.3093  0.4213
 2449SOL    HW218984   0.751   1.020  17.629 -0.3494 -0.2034 -0.6292
 2450SOL     OW18985   4.711   0.144   9.616 -0.0634 -0.1094 -0.2267
 2450SOL    HW118986   0.024   0.081   9.669 -0.1640 -1.3888 -1.6543
 2450SOL    HW218987   4.621   0.126   9.643  0.1997  1.2760  1.6126
 2451SOL     OW18988   0.057   1.809  16.796  0.2103  0.3562  0.2715
 2451SOL    HW118989   0.124   1.876  16.781 -2.1182  2.6281  0.0910
 2451SOL    HW218990   0.091   1.773  16.878  0.4643 -1.3627 -0.5999
 2452SOL     OW18991   3.052   3.893  13.363  0.4931 -0.3656 -0.2876
 2452SOL    HW118992   2.991   3.822  13.382  0.0406  0.1067  0.0342
 2452SOL    HW218993   3.001   3.967  13.397  2.4319  0.6687  0.3556
 2453SOL     OW18994   3.816   2.275   3.882  0.5409  0.4010  0.3130
 2453SOL    HW118995   3.859   2.297   3.799 -3.0416  1.7578 -1.1944
 2453SOL    HW218996   3.881   2.320   3.936 -0.0893  0.6418  0.8586
 2454SOL     OW18997   0.530   2.055  14.361 -0.0139  0.3310  0.3333
 2454SOL    HW118998   0.578   2.072  14.442  1.2853  0.1410 -0.3870
 2454SOL    HW218999   0.551   2.136  14.314  2.0817 -0.4740 -0.1445
 2455SOL     OW19000   2.676   1.481   4.725 -0.2488  0.1239 -0.2582
 2455SOL    HW119001   2.732   1.551   4.690 -0.4984  0.3215 -0.2590
 2455SOL    HW219002   2.720   1.400   4.697 -1.0581  0.5040 -2.6662
 2456SOL     OW19003   3.024   3.975   7.915  0.2298  1.2420  0.4827
 2456SOL    HW119004   2.944   3.980   7.968  0.1576 -0.0620  0.5003
 2456SOL    HW219005   3.045   3.883   7.929  0.6837  1.3287  0.3808
 2457SOL     OW19006   4.521   3.170   4.016 -0.1630 -0.1665 -0.4000
 2457SOL    HW119007   4.594   3.194   4.074  0.5092 -0.6124 -1.0524
 2457SOL    HW219008   4.455   3.171   4.085  0.1002  2.9120 -0.1990
 2458SOL     OW19009   3.036   1.554   9.264 -0.3445  0.0380 -0.2435
 2458SOL    HW119010   2.951   1.510   9.260  0.0783 -0.7373 -0.7624
 2458SOL    HW219011   3.040   1.611   9.187  2.1177  0.2707  0.0376
 2459SOL     OW19012   4.041   0.117   2.912 -0.0680  0.2685  0.4987
 2459SOL    HW119013   4.042   0.212   2.915 -1.0393  0.3801 -1.9693
 2459SOL    HW219014   4.040   0.093   2.819  1.1174 -0.2934  0.6251
 2460SOL     OW19015   4.229   4.365  10.430  0.1246 -0.1197  0.0428
 2460SOL    HW119016   4.208   4.323  10.514 -0.7800 -0.2885 -0.2669
 2460SOL    HW219017   4.143   4.381  10.393 -0.6764 -2.6771  0.8203
 2461SOL     OW19018   3.744   4.565  17.419  0.1501 -0.6424  0.0560
 2461SOL    HW119019   3.824   4.543  17.370  0.2827 -1.4208  0.6216
 2461SOL    HW219020   3.738   4.659  17.403 -0.7715 -0.7858 -0.4195
 2462SOL     OW19021   1.093   0.341  12.933  0.1863 -0.1534  0.6150
 2462SOL    HW119022   1.140   0.272  12.981  0.7663 -1.2117 -1.4621
 2462SOL    HW219023   1.176   0.384  12.912  0.8996 -2.2280 -0.9212
 2463SOL     OW19024   2.678   2.699   8.858  0.9509 -0.3227  0.7424
 2463SOL    HW119025   2.594   2.742   8.838  1.4291  0.1754 -0.1827
 2463SOL    HW219026   2.719   2.754   8.923  1.4701  1.1655 -0.8434
 2464SOL     OW19027   2.807   2.128   7.502 -0.3281 -0.5915 -0.1901
 2464SOL    HW119028   2.832   2.142   7.410  2.2346 -1.7374  0.3369
 2464SOL    HW219029   2.849   2.042   7.507 -0.7722 -0.7208  1.2860
 2465SOL     OW19030   3.259   2.310   4.779 -0.1177  0.7722  0.0424
 2465SOL    HW119031   3.221   2.371   4.843  0.2622 -0.6857  1.6428
 2465SOL    HW219032   3.229   2.348   4.697 -1.1677  1.2558  0.6420
 2466SOL     OW19033   2.079   2.902   7.898  0.1317  0.0408  0.3629
 2466SOL    HW119034   2.082   2.919   7.992 -1.3381  0.2348  0.3725
 2466SOL    HW219035   2.095   2.992   7.868  1.8948  0.5972  2.9833
 2467SOL     OW19036   3.963   3.261   5.337 -0.1346 -0.4839 -0.1899
 2467SOL    HW119037   3.868   3.250   5.335 -0.2676  0.0814  2.2982
 2467SOL    HW219038   3.988   3.269   5.245 -1.1432 -1.0460 -0.5064
 2468SOL     OW19039   3.539   3.389  16.090  0.5724  0.2519 -0.1773
 2468SOL    HW119040   3.479   3.325  16.129  1.1671  0.7213  1.4696
 2468SOL    HW219041   3.495   3.474  16.091  0.7342  0.3389 -0.4025
 2469SOL     OW19042   4.612   3.708   2.979 -0.3685  0.0968  0.7528
 2469SOL    HW119043   4.601   3.803   2.987 -0.9006  0.0048  1.0580
 2469SOL    HW219044   4.665   3.696   2.900  2.1094 -5.0540  3.1947
 2470SOL     OW19045   4.731   0.202   1.463  0.3982  0.0762  0.3596
 2470SOL    HW119046   0.012   0.126   1.520 -1.0299 -0.4494  0.0621
 2470SOL    HW219047   4.716   0.271   1.527 -0.9184  0.0729  0.0615
 2471SOL     OW19048   1.364   3.706   4.991  0.1703 -0.2890  0.2043
 2471SOL    HW119049   1.279   3.716   4.949 -0.1662  0.3555  1.0376
 2471SOL    HW219050   1.390   3.798   4.994 -0.6305 -0.0960  1.0570
 2472SOL     OW19051   3.086   1.839   2.106  0.4508  0.0748 -0.3585
 2472SOL    HW119052   3.167   1.826   2.057  0.8940  1.8949 -0.1014
 2472SOL    HW219053   3.085   1.934   2.119  0.1949 -0.1221  0.9881
 2473SOL     OW19054   0.073   2.570  14.329 -0.1590  0.0723  0.5320
 2473SOL    HW119055   0.008   2.564  14.259  0.5486  1.2921 -0.2341
 2473SOL    HW219056   0.123   2.488  14.327 -1.9708 -1.0627  1.0643
 2474SOL     OW19057   0.132   0.257   0.187 -0.9164 -0.3225  0.0300
 2474SOL    HW119058   0.222   0.282   0.167  0.2252 -2.8723  2.0611
 2474SOL    HW219059   0.131   0.171   0.146 -1.9552  0.7647 -2.2610
 2475SOL     OW19060   0.421   4.707   2.153 -0.2297  0.8626  0.2640
 2475SOL    HW119061   0.464   4.626   2.125 -0.1896  0.6841  0.8272
 2475SOL    HW219062   0.358   4.676   2.219 -0.7545  1.7622  0.1756
 2476SOL     OW19063   4.080   0.573  17.507 -0.4788 -0.5395  0.8224
 2476SOL    HW119064   4.039   0.651  17.545  1.6883  1.0629 -0.1176
 2476SOL    HW219065   4.169   0.582  17.541 -0.2924 -0.3063  0.2693
 2477SOL     OW19066   1.477   2.967   7.029 -0.2021 -0.2963  0.4285
 2477SOL    HW119067   1.426   2.887   7.034  1.7044 -1.5032  0.5103
 2477SOL    HW219068   1.473   3.005   7.117 -0.6186  2.2901 -0.7015
 2478SOL     OW19069   4.633   2.916   8.523  0.7671  0.1207 -0.5030
 2478SOL    HW119070   4.545   2.899   8.488  0.2881  0.0159  0.7212
 2478SOL    HW219071   4.617   2.981   8.592 -0.4043  2.8000 -3.3265
 2479SOL     OW19072   0.135   2.704  12.834 -0.1346  0.1709  0.2750
 2479SOL    HW119073   0.138   2.783  12.888 -0.3059  0.2337  0.1927
 2479SOL    HW219074   0.201   2.726  12.769 -1.5944  0.3572 -1.1340
 2480SOL     OW19075   3.039   1.319   8.137  0.1383  0.2411 -0.8624
 2480SOL    HW119076   3.035   1.294   8.229  0.2426  0.2434 -0.8575
 2480SOL    HW219077   2.954   1.290   8.101 -0.0590  0.6795 -0.7484
 2481SOL     OW19078   4.413   3.448   1.030  0.2554 -0.1738  0.2624
 2481SOL    HW119079   4.444   3.525   0.982 -2.6393  0.4965 -0.5506
 2481SOL    HW219080   4.466   3.379   0.991  1.9596  0.8084  0.8517
 2482SOL     OW19081   3.497   2.058   2.488  0.5146 -0.3807  0.2872
 2482SOL    HW119082   3.575   2.005   2.503  1.5819  0.3456 -2.5625
 2482SOL    HW219083   3.526   2.129   2.545  0.3735 -0.5012  0.5070
 2483SOL     OW19084   1.871   0.478   0.644  0.0699 -0.1184 -0.7010
 2483SOL    HW119085   1.874   0.574   0.643 -1.3060 -0.0761 -1.5575
 2483SOL    HW219086   1.847   0.478   0.551 -2.2998  2.0272 -0.0872
 2484SOL     OW19087   3.689   1.746   4.712  0.3939 -0.4818 -0.2895
 2484SOL    HW119088   3.594   1.734   4.699  0.6194 -0.8628 -1.6424
 2484SOL    HW219089   3.691   1.774   4.803 -1.0955 -3.3308  0.6088
 2485SOL     OW19090   4.554   0.283   4.988 -0.1710  0.1238  0.4869
 2485SOL    HW119091   4.579   0.231   5.064  2.0114 -0.2592 -0.4930
 2485SOL    HW219092   4.633   0.337   4.996 -0.8538  1.2354 -0.1500
 2486SOL     OW19093   4.251   2.915   3.750  0.0422  0.3225  0.2864
 2486SOL    HW119094   4.160   2.941   3.736  0.0090  0.2669  0.4042
 2486SOL    HW219095   4.270   2.945   3.839 -0.2189 -0.2139  0.5199
 2487SOL     OW19096   4.317   1.529   3.488 -0.1618 -0.3501 -0.6367
 2487SOL    HW119097   4.332   1.593   3.418  0.6464 -2.2150 -2.1844
 2487SOL    HW219098   4.401   1.483   3.480  0.9876  1.8816 -1.4333
 2488SOL     OW19099   2.226   0.921   7.762 -0.0287  0.3229  0.3771
 2488SOL    HW119100   2.213   0.887   7.850 -1.0241 -2.5063 -0.8561
 2488SOL    HW219101   2.135   0.929   7.733  0.1404  0.2755 -0.1680
 2489SOL     OW19102   3.016   0.751   3.859  0.2949 -0.3554  0.1055
 2489SOL    HW119103   2.960   0.827   3.875  0.3713 -0.4484  0.8294
 2489SOL    HW219104   2.947   0.692   3.828  1.7034 -1.5047 -0.8805
 2490SOL     OW19105   0.502   1.731  12.898  0.3780  0.2450  0.8552
 2490SOL    HW119106   0.428   1.676  12.923 -1.0547  1.7321 -0.1072
 2490SOL    HW219107   0.454   1.812  12.882  2.3161  1.1281 -0.5346
 2491SOL     OW19108   1.884   4.276   8.054  0.4248 -0.0620 -0.5462
 2491SOL    HW119109   1.806   4.226   8.079  0.4654  0.9230  1.5857
 2491SOL    HW219110   1.964   4.224   8.067  1.2435  0.8431 -1.9892
 2492SOL     OW19111   0.058   4.558   4.030 -0.2380 -0.1853  0.2831
 2492SOL    HW119112   4.717   4.562   4.087 -1.7341 -1.6345 -1.6266
 2492SOL    HW219113   0.035   4.475   3.988  0.1496 -0.2215  0.1401
 2493SOL     OW19114   1.192   2.132   9.120  0.6592  0.0846 -0.1550
 2493SOL    HW119115   1.175   2.042   9.147 -0.2217  0.1237 -0.5795
 2493SOL    HW219116   1.125   2.184   9.165  1.2978  2.4755 -1.9303
 2494SOL     OW19117   2.058   1.876   0.518  0.1378  0.7429  0.5803
 2494SOL    HW119118   2.146   1.840   0.524  0.5038  1.1383 -2.4905
 2494SOL    HW219119   2.003   1.801   0.539 -0.7367  1.1396 -0.2654
 2495SOL     OW19120   2.118   0.395  15.102 -0.4630 -0.0730  0.0114
 2495SOL    HW119121   2.088   0.310  15.133 -0.7852  1.1435  3.0519
 2495SOL    HW219122   2.210   0.404  15.129 -0.0457  0.3434 -1.5618
 2496SOL     OW19123   3.551   0.425   7.390  0.1312 -0.0873 -0.5110
 2496SOL    HW119124   3.552   0.412   7.295 -0.4963 -0.7308 -0.4252
 2496SOL    HW219125   3.529   0.518   7.395  1.0832  0.1899 -1.4877
 2497SOL     OW19126   3.520   0.912   5.340 -0.3621  0.5586 -0.0782
 2497SOL    HW119127   3.569   0.830   5.338  0.7996  1.1732  4.8942
 2497SOL    HW219128   3.560   0.970   5.275 -2.4930  1.1249 -0.8859
 2498SOL     OW19129   1.577   3.212   5.011 -0.0344  0.1347 -0.0565
 2498SOL    HW119130   1.561   3.295   4.967 -2.5079  1.2341  2.8619
 2498SOL    HW219131   1.595   3.254   5.095  0.2066 -1.8648  0.8975
 2499SOL     OW19132   0.839   3.740   8.013  0.0727 -0.1370  0.1427
 2499SOL    HW119133   0.855   3.784   8.096  1.5804 -1.1604  0.3944
 2499SOL    HW219134   0.747   3.720   8.032 -0.6937  0.0269 -3.4246
 2500SOL     OW19135   2.633   4.397   8.220 -0.3850 -0.4691  0.7884
 2500SOL    HW119136   2.579   4.318   8.231 -0.6086 -0.5175 -0.7165
 2500SOL    HW219137   2.609   4.429   8.307  1.9579  1.5740  0.6962
 2501SOL     OW19138   0.500   0.341  10.812 -0.1916  0.3841 -0.9726
 2501SOL    HW119139   0.590   0.364  10.788 -0.4975  3.6192  1.1171
 2501SOL    HW219140   0.507   0.254  10.852 -1.3541  1.2086  1.0496
 2502SOL     OW19141   1.989   0.848   1.954 -0.1643  0.0995 -0.2024
 2502SOL    HW119142   2.032   0.929   1.926 -0.1752  0.2936  0.3517
 2502SOL    HW219143   1.934   0.826   1.879 -1.0308  1.9025 -0.0987
 2503SOL     OW19144   0.197   2.680   5.603 -0.3878  0.1809  0.3311
 2503SOL    HW119145   0.167   2.671   5.513  0.2076 -0.2201  0.1698
 2503SOL    HW219146   0.128   2.639   5.654 -1.2260  1.5322  0.2997
 2504SOL     OW19147   3.413   4.290   5.225 -0.1822  0.0791  0.4228
 2504SOL    HW119148   3.354   4.323   5.157 -0.6813 -0.5190  0.5698
 2504SOL    HW219149   3.459   4.368   5.256 -0.2169  0.5260 -0.6195
 2505SOL     OW19150   0.066   0.703   0.883  0.0505 -0.4925 -0.4933
 2505SOL    HW119151   0.026   0.636   0.938 -0.2118 -0.8212 -1.0897
 2505SOL    HW219152   0.025   0.784   0.912 -2.7467 -1.7445 -0.9538
 2506SOL     OW19153   4.478   4.394   8.011 -0.0217 -0.2280 -0.3164
 2506SOL    HW119154   4.419   4.406   8.086 -2.0871  1.1420 -2.1703
 2506SOL    HW219155   4.434   4.446   7.944  2.1856 -0.3793 -1.8743
 2507SOL     OW19156   4.706   1.340   9.131  0.2071 -0.0926  0.2999
 2507SOL    HW119157   4.641   1.409   9.118  1.8751  1.4747  0.2660
 2507SOL    HW219158   0.053   1.385   9.112 -0.6326  0.5285 -1.8588
 2508SOL     OW19159   4.175   4.702   4.126  0.6357  0.5894 -0.1316
 2508SOL    HW119160   4.081   4.706   4.106  0.7310  1.2341 -0.4587
 2508SOL    HW219161   4.204   0.049   4.088  1.8314 -1.0805 -2.8109
 2509SOL     OW19162   3.707   0.601  17.428  0.3439  0.2770  0.6085
 2509SOL    HW119163   3.709   0.558  17.343 -0.2133 -0.2903  0.8809
 2509SOL    HW219164   3.617   0.576  17.451  0.7961 -0.8852  1.1369
 2510SOL     OW19165   1.672   3.728   9.445  0.6123 -0.0859 -0.8456
 2510SOL    HW119166   1.631   3.699   9.364  1.4280 -2.2999 -0.4833
 2510SOL    HW219167   1.703   3.642   9.476  1.5297  0.4831 -0.1660
 2511SOL     OW19168   0.628   3.482   4.656  0.3675  0.3350  0.2131
 2511SOL    HW119169   0.620   3.578   4.653  2.3429  0.4646 -1.3541
 2511SOL    HW219170   0.546   3.460   4.613  1.0308 -0.7238 -0.5377
 2512SOL     OW19171   3.157   1.480   4.874 -0.5965  0.2705 -0.2013
 2512SOL    HW119172   3.244   1.476   4.912  0.3645 -1.4905 -2.5814
 2512SOL    HW219173   3.105   1.443   4.945 -1.5632 -0.7555 -1.4367
 2513SOL     OW19174   4.316   4.624   7.343  0.3407  0.2755 -0.0565
 2513SOL    HW119175   4.312   4.664   7.256  1.0941 -0.1199 -0.2673
 2513SOL    HW219176   4.223   4.635   7.366  0.4733 -0.1773  0.6726
 2514SOL     OW19177   3.063   2.430  10.642 -0.1097  0.0936 -0.0792
 2514SOL    HW119178   3.158   2.439  10.653 -0.1099 -0.5519  0.3915
 2514SOL    HW219179   3.059   2.417  10.547 -0.3661  2.3133 -0.3813
 2515SOL     OW19180   2.581   4.231  15.077  0.0768 -0.0560 -0.5381
 2515SOL    HW119181   2.608   4.165  15.141  1.1796 -1.4616 -2.4579
 2515SOL    HW219182   2.594   4.178  14.998  3.6046  0.6452 -0.4513
 2516SOL     OW19183   0.907   4.459  12.537  0.7081  0.2661  0.1898
 2516SOL    HW119184   0.925   4.410  12.456 -0.6907 -1.6062  1.0175
 2516SOL    HW219185   0.935   4.386  12.592 -1.8708  0.3021  1.4967
 2517SOL     OW19186   3.739   3.611   5.493  0.1429  0.5985 -0.2936
 2517SOL    HW119187   3.772   3.611   5.583 -0.7958  1.0062  0.0452
 2517SOL    HW219188   3.816   3.559   5.470 -0.9624 -1.3116  0.3251
 2518SOL     OW19189   0.165   2.951   5.580 -0.1177 -0.0246  0.7260
 2518SOL    HW119190   0.230   2.969   5.512  0.8129 -1.7265  1.1599
 2518SOL    HW219191   0.185   2.858   5.592 -2.7259 -0.4728  1.7082
 2519SOL     OW19192   1.985   1.222  17.311 -0.5530  0.8253  0.4163
 2519SOL    HW119193   1.942   1.306  17.296 -0.0853  1.0483  0.3405
 2519SOL    HW219194   1.908   1.168  17.330  0.0694  0.1492  1.0059
 2520SOL     OW19195   2.530   0.659   5.280 -0.1758 -0.2155 -0.1068
 2520SOL    HW119196   2.521   0.578   5.331 -2.5106  0.0320 -0.1023
 2520SOL    HW219197   2.595   0.695   5.341  1.2234 -1.4914 -0.8496
 2521SOL     OW19198   1.472   2.592   2.152 -0.1284 -0.1033 -0.2786
 2521SOL    HW119199   1.560   2.554   2.151 -0.5377 -1.1048  0.8997
 2521SOL    HW219200   1.469   2.633   2.239  1.0132 -1.1250  0.2381
 2522SOL     OW19201   4.090   4.578   8.213 -0.2537 -0.2313  0.3724
 2522SOL    HW119202   4.005   4.555   8.252 -0.1541  1.1493  1.4077
 2522SOL    HW219203   4.064   4.611   8.127 -0.2952 -0.9572  0.1026
 2523SOL     OW19204   2.802   4.188   7.998 -0.6278 -0.2879 -0.1085
 2523SOL    HW119205   2.780   4.225   8.083 -0.8063 -0.4771 -0.0701
 2523SOL    HW219206   2.811   4.098   8.029 -0.8650 -0.7383 -1.3333
 2524SOL     OW19207   3.083   0.913  11.647 -0.2452 -0.0171 -0.1422
 2524SOL    HW119208   3.058   0.822  11.635  0.7982 -0.3756  0.4689
 2524SOL    HW219209   2.999   0.957  11.630 -0.2171  0.5057  1.0278
 2525SOL     OW19210   3.104   1.851   8.790 -0.7376 -0.0084  0.0887
 2525SOL    HW119211   3.041   1.911   8.831  1.3107  1.4982  1.0113
 2525SOL    HW219212   3.181   1.850   8.847 -0.7803  0.0743  0.1475
 2526SOL     OW19213   2.031   2.386   2.330 -0.0939  0.2433 -0.7488
 2526SOL    HW119214   2.036   2.337   2.248 -1.9696  1.3296 -1.5006
 2526SOL    HW219215   1.955   2.341   2.368  0.4531 -0.2905 -0.2780
 2527SOL     OW19216   3.107   1.663  11.814  0.1596  0.0394 -0.3745
 2527SOL    HW119217   3.200   1.687  11.815 -0.0927  0.9901 -0.4376
 2527SOL    HW219218   3.092   1.661  11.719 -0.6507  2.8033 -0.3022
 2528SOL     OW19219   1.566   1.984   9.428 -0.4153 -0.1639  0.8861
 2528SOL    HW119220   1.504   2.011   9.495  1.0706 -0.5604  2.4149
 2528SOL    HW219221   1.602   2.068   9.398  0.5279 -0.6581  0.6114
 2529SOL     OW19222   4.731   2.155   7.797  0.5198 -0.1274  0.1994
 2529SOL    HW119223   0.074   2.116   7.836 -0.6928 -0.9572  1.7881
 2529SOL    HW219224   0.001   2.246   7.825  1.1966  0.5448 -2.0482
 2530SOL     OW19225   3.197   2.360  11.467 -0.2103  0.2978  0.0656
 2530SOL    HW119226   3.246   2.383  11.546 -0.8329  0.9482  0.2611
 2530SOL    HW219227   3.148   2.438  11.441  1.2816  1.6359  1.2222
 2531SOL     OW19228   2.304   1.252  12.904 -0.5158 -0.1369 -0.1060
 2531SOL    HW119229   2.311   1.186  12.835 -4.7451  0.2446 -0.9528
 2531SOL    HW219230   2.313   1.198  12.982 -1.6313  0.5255  0.4786
 2532SOL     OW19231   3.849   4.422   5.921 -0.7138 -0.1084 -0.3085
 2532SOL    HW119232   3.824   4.477   5.995 -1.6707  1.1084 -1.5323
 2532SOL    HW219233   3.780   4.356   5.927  0.3170 -1.4240 -3.2349
 2533SOL     OW19234   2.051   1.136   7.404  0.1718  0.0618  0.2355
 2533SOL    HW119235   2.009   1.145   7.489  1.6786 -1.9540  1.2120
 2533SOL    HW219236   2.133   1.101   7.440  0.2179  0.2512  0.3118
 2534SOL     OW19237   1.663   4.218   2.752 -0.1018  0.0363  0.8458
 2534SOL    HW119238   1.637   4.127   2.765 -2.0692  0.5818  0.6973
 2534SOL    HW219239   1.710   4.217   2.668 -0.4623  0.2354  0.6464
 2535SOL     OW19240   1.826   4.682   8.748  0.4604 -0.4500  0.7142
 2535SOL    HW119241   1.783   0.021   8.706  0.6460 -0.2467  0.8826
 2535SOL    HW219242   1.808   4.700   8.841  3.3147  2.3395  0.7419
 2536SOL     OW19243   4.314   1.896  12.023  0.1126 -0.1533  0.6559
 2536SOL    HW119244   4.296   1.878  11.931  0.4211 -0.4100  0.6458
 2536SOL    HW219245   4.399   1.855  12.039  1.1453  1.4829 -0.6355
 2537SOL     OW19246   2.994   3.492   7.342 -0.4221 -0.1892  1.0944
 2537SOL    HW119247   2.952   3.578   7.341  0.3821  0.1780 -0.7615
 2537SOL    HW219248   2.918   3.441   7.315 -1.3098  0.6692  1.9521
 2538SOL     OW19249   4.485   4.088   5.527  0.0780 -0.1488  0.7236
 2538SOL    HW119250   4.431   4.155   5.569  1.5118  0.3474  1.7832
 2538SOL    HW219251   4.538   4.059   5.601  0.7791 -3.1265 -0.9726
 2539SOL     OW19252   2.904   2.077  14.176 -0.6422 -0.2939  0.2064
 2539SOL    HW119253   2.935   2.154  14.128  0.8703 -1.5069 -0.7798
 2539SOL    HW219254   2.910   2.113  14.264 -0.8877 -1.7204  0.8075
 2540SOL     OW19255   1.885   2.882   1.999 -0.6389 -0.3709  0.0325
 2540SOL    HW119256   1.965   2.837   1.970 -0.1185  0.2826  0.4460
 2540SOL    HW219257   1.921   2.965   2.031 -1.0565 -0.0118 -0.4308
 2541SOL     OW19258   3.581   0.102   7.767 -0.0052 -0.1508 -0.1072
 2541SOL    HW119259   3.524   0.151   7.707  0.4239  0.1703 -0.2526
 2541SOL    HW219260   3.662   0.153   7.766  0.0939 -0.2636  3.0606
 2542SOL     OW19261   0.255   4.097   7.789 -0.5034  0.0956  0.2391
 2542SOL    HW119262   0.265   4.129   7.699 -1.1732 -0.6278 -0.0842
 2542SOL    HW219263   0.346   4.077   7.812 -0.0595  1.8240  0.0669
 2543SOL     OW19264   1.827   1.008   8.866 -0.2916  0.1426  0.5631
 2543SOL    HW119265   1.750   0.952   8.858  0.3408 -0.3454 -2.1330
 2543SOL    HW219266   1.875   0.959   8.932 -1.1853  0.0656  1.1428
 2544SOL     OW19267   3.260   0.965  13.475  0.5267 -0.2421  0.4743
 2544SOL    HW119268   3.260   1.025  13.550  0.3972  0.0433  0.2490
 2544SOL    HW219269   3.310   1.016  13.410 -1.3989 -1.1873 -1.7631
 2545SOL     OW19270   1.314   2.693   9.817 -0.1518 -0.1739 -0.2894
 2545SOL    HW119271   1.305   2.757   9.747 -0.3809 -0.1565 -0.2458
 2545SOL    HW219272   1.226   2.697   9.855  1.5941 -0.4974  3.8153
 2546SOL     OW19273   1.598   1.178   8.912  0.0418  0.1197  0.3318
 2546SOL    HW119274   1.669   1.115   8.899  0.5261  0.2654  2.3978
 2546SOL    HW219275   1.614   1.205   9.002 -0.1881  0.3752  0.2978
 2547SOL     OW19276   2.500   2.097  10.172  0.4359 -0.3371 -0.1243
 2547SOL    HW119277   2.463   2.175  10.214  0.3237 -0.3224 -0.2499
 2547SOL    HW219278   2.425   2.037  10.173 -0.4218  0.7292  0.1804
 2548SOL     OW19279   2.092   2.985   0.642  0.0954  0.3054  0.4394
 2548SOL    HW119280   2.002   2.956   0.657 -0.5759  1.7033 -0.8507
 2548SOL    HW219281   2.137   2.939   0.713 -1.0975 -0.5932  0.6232
 2549SOL     OW19282   0.817   0.476   8.775 -0.3879 -0.3602  0.0869
 2549SOL    HW119283   0.770   0.416   8.716 -1.2255  1.7683 -1.4332
 2549SOL    HW219284   0.772   0.470   8.859 -4.1459 -0.7472 -1.9381
 2550SOL     OW19285   2.806   1.278   4.267  0.1772 -0.2579 -0.1203
 2550SOL    HW119286   2.761   1.353   4.228  0.6518  0.1534  0.1266
 2550SOL    HW219287   2.727   1.228   4.288  0.7467 -0.3717  1.7116
 2551SOL     OW19288   1.421   0.328   8.371 -0.3650 -0.4768 -0.0007
 2551SOL    HW119289   1.453   0.292   8.453  2.2806 -1.2411 -1.3608
 2551SOL    HW219290   1.340   0.277   8.362 -0.9793  0.7528 -1.4645
 2552SOL     OW19291   2.569   0.214   0.693 -0.2539  0.8268 -0.2029
 2552SOL    HW119292   2.487   0.177   0.725  0.4109 -0.5332 -0.0516
 2552SOL    HW219293   2.616   0.250   0.768 -0.1222 -1.6255  0.9064
 2553SOL     OW19294   2.898   0.305  16.060 -0.1213  0.0313 -0.0424
 2553SOL    HW119295   2.892   0.244  16.133 -0.7459  0.3996  0.2188
 2553SOL    HW219296   2.900   0.253  15.980  0.4926 -0.2820  0.1764
 2554SOL     OW19297   0.706   2.181  15.040  0.2219 -0.0590 -0.5485
 2554SOL    HW119298   0.687   2.087  15.037 -2.7494  0.5529  0.1801
 2554SOL    HW219299   0.802   2.179  15.046  0.2646 -1.7357 -1.6189
 2555SOL     OW19300   4.102   0.747   2.443 -0.3870 -0.3339 -0.2047
 2555SOL    HW119301   4.094   0.838   2.414  1.4506 -0.2432 -0.4674
 2555SOL    HW219302   4.068   0.753   2.532 -0.9314 -0.0933 -0.4264
 2556SOL     OW19303   4.088   3.865   9.206  0.7314  0.3828  0.2008
 2556SOL    HW119304   4.053   3.908   9.284 -0.9683  1.0339 -0.9159
 2556SOL    HW219305   4.114   3.775   9.222 -2.0161 -0.5023 -0.4155
 2557SOL     OW19306   1.395   1.962   7.437 -0.2144  0.1781  0.6974
 2557SOL    HW119307   1.386   1.964   7.532 -1.1454 -0.1181  0.6166
 2557SOL    HW219308   1.471   2.020   7.430  0.2138 -0.7817 -2.4065
 2558SOL     OW19309   3.789   3.609   0.315 -0.5522 -0.7712  0.2037
 2558SOL    HW119310   3.751   3.620   0.402 -0.6803 -0.4733  0.1117
 2558SOL    HW219311   3.879   3.640   0.330 -0.8299  0.3002 -0.3232
 2559SOL     OW19312   2.621   3.216   5.396 -0.4698 -0.1239 -0.2565
 2559SOL    HW119313   2.667   3.300   5.386 -1.4421  0.2616 -1.3318
 2559SOL    HW219314   2.651   3.193   5.484  2.2340 -0.9703 -1.4005
 2560SOL     OW19315   2.494   0.887   3.905  0.3329 -0.0908 -0.1005
 2560SOL    HW119316   2.503   0.951   3.975 -1.8315 -0.5607  0.6238
 2560SOL    HW219317   2.415   0.842   3.935 -0.1353  0.0770 -1.0945
 2561SOL     OW19318   4.199   3.440   6.654 -0.0824 -0.2367 -0.3499
 2561SOL    HW119319   4.177   3.452   6.746 -1.3249 -1.3055 -0.5127
 2561SOL    HW219320   4.288   3.404   6.657 -0.1383 -0.4374 -1.0494
 2562SOL     OW19321   1.633   3.277   9.490  0.0863  0.1588  0.1162
 2562SOL    HW119322   1.661   3.365   9.513 -0.4214  0.5422 -0.7336
 2562SOL    HW219323   1.539   3.293   9.485 -0.0872 -0.5521  1.2732
 2563SOL     OW19324   4.069   3.933   3.814  0.4878  0.3979 -0.2345
 2563SOL    HW119325   4.065   4.017   3.768  0.1351  0.7952  0.5136
 2563SOL    HW219326   4.044   3.884   3.736  2.0777 -0.0013 -0.4788
 2564SOL     OW19327   3.460   1.074   1.694 -0.1961 -0.2520  0.5203
 2564SOL    HW119328   3.462   1.169   1.696  0.0050 -0.2869  1.7681
 2564SOL    HW219329   3.487   1.057   1.784  2.6711  1.5261  0.0063
 2565SOL     OW19330   3.817   1.388  17.483  0.5133 -0.2913  0.2050
 2565SOL    HW119331   3.782   1.469  17.519  1.7619  0.1260  0.4479
 2565SOL    HW219332   3.769   1.375  17.401 -0.4120 -2.4791  1.0811
 2566SOL     OW19333   3.181   1.495   5.681  0.4150 -0.2941 -0.2427
 2566SOL    HW119334   3.200   1.589   5.683  1.8956 -0.5952  0.0540
 2566SOL    HW219335   3.092   1.490   5.715  0.0206 -1.1541 -1.4100
 2567SOL     OW19336   1.326   3.429   1.972  0.5169 -0.7414 -0.1429
 2567SOL    HW119337   1.335   3.425   2.068 -3.4430  1.7014  0.3170
 2567SOL    HW219338   1.232   3.414   1.965  0.1823  0.1803  2.3222
 2568SOL     OW19339   2.834   1.354   3.461  0.1021 -0.4885 -0.2171
 2568SOL    HW119340   2.744   1.344   3.492  0.0763 -1.1554 -0.5014
 2568SOL    HW219341   2.867   1.269   3.432 -1.8912 -1.4518  0.3718
 2569SOL     OW19342   0.136   1.169  15.546 -0.0612 -0.1735  0.2307
 2569SOL    HW119343   0.179   1.221  15.614 -1.5166 -0.2787  1.2262
 2569SOL    HW219344   0.089   1.108  15.602 -0.3999 -0.5602 -0.4731
 2570SOL     OW19345   0.899   3.774   7.292 -0.2555  0.7853  0.1388
 2570SOL    HW119346   0.939   3.823   7.364  1.6654 -2.0992  1.0387
 2570SOL    HW219347   0.830   3.726   7.340  2.2507 -1.3084  1.6543
 2571SOL     OW19348   1.856   2.942  16.507 -0.0262 -0.1213  0.0720
 2571SOL    HW119349   1.944   2.958  16.540  0.1873 -2.0157  0.3981
 2571SOL    HW219350   1.812   2.951  16.591  0.9160  0.0574  0.5404
 2572SOL     OW19351   1.107   1.553  13.676  0.2469 -0.5911  0.6699
 2572SOL    HW119352   1.182   1.584  13.626  0.4912  0.3689  1.6320
 2572SOL    HW219353   1.113   1.458  13.680 -2.6430 -0.8787 -1.8688
 2573SOL     OW19354   2.158   1.337   1.608  0.5627  0.6909  0.1157
 2573SOL    HW119355   2.211   1.316   1.685 -2.1843  2.4574  2.4571
 2573SOL    HW219356   2.224   1.318   1.541 -0.2888 -1.1999 -0.1884
 2574SOL     OW19357   1.761   0.057   4.481 -0.5477 -0.3173 -0.5036
 2574SOL    HW119358   1.815   0.081   4.557  1.2334  1.0277 -2.1686
 2574SOL    HW219359   1.678   0.037   4.522 -0.0213 -0.2550  0.5839
 2575SOL     OW19360   2.947   3.148   2.594 -0.7531  0.2558  0.3912
 2575SOL    HW119361   2.979   3.238   2.593 -0.4338  0.1347 -0.9806
 2575SOL    HW219362   3.022   3.094   2.619  0.0310  1.1684  0.0059
 2576SOL     OW19363   2.337   0.178   0.833  0.3046 -0.1266 -0.1118
 2576SOL    HW119364   2.276   0.250   0.816  0.5268  0.7369  2.7689
 2576SOL    HW219365   2.307   0.160   0.922 -0.0225 -2.8347 -0.7829
 2577SOL     OW19366   2.025   4.427   4.310 -0.0323 -0.0450  0.9192
 2577SOL    HW119367   1.996   4.362   4.245 -0.1387  0.3259  0.6004
 2577SOL    HW219368   2.104   4.462   4.270  0.0787  1.0052  2.0691
 2578SOL     OW19369   3.497   1.589   1.838  0.8789  0.1592 -0.0271
 2578SOL    HW119370   3.544   1.560   1.760  0.9859 -0.3726  0.2287
 2578SOL    HW219371   3.474   1.510   1.887 -1.1828  0.2283 -0.8781
 2579SOL     OW19372   3.807   3.645  15.923  0.3961 -0.0181  0.1757
 2579SOL    HW119373   3.808   3.740  15.915  1.2334 -0.1977 -1.7515
 2579SOL    HW219374   3.884   3.631  15.867  0.4012 -0.5835  0.3239
 2580SOL     OW19375   1.139   0.722   2.246 -0.0055 -0.1153  0.1804
 2580SOL    HW119376   1.230   0.696   2.229 -0.2922 -0.4850 -0.8041
 2580SOL    HW219377   1.144   0.789   2.314 -0.6415 -0.9623  1.0581
 2581SOL     OW19378   2.601   1.068   8.953  0.3065 -0.5173  0.3404
 2581SOL    HW119379   2.560   1.144   8.995 -1.2037 -1.5510  0.7204
 2581SOL    HW219380   2.535   1.040   8.890 -0.1502 -1.2586  1.1572
 2582SOL     OW19381   0.851   1.998   5.674 -0.0077 -0.8196 -0.1015
 2582SOL    HW119382   0.947   1.997   5.675 -0.0034  0.3005  1.8772
 2582SOL    HW219383   0.833   2.086   5.708  1.2721 -0.2825 -0.8276
 2583SOL     OW19384   2.093   2.703  14.379 -0.5316  0.4340 -0.4163
 2583SOL    HW119385   2.124   2.790  14.406  1.9909 -0.0844 -1.5968
 2583SOL    HW219386   2.096   2.645  14.455  2.2505  1.8659  0.6008
 2584SOL     OW19387   0.902   3.663   4.041  0.4709  0.7316 -0.7653
 2584SOL    HW119388   0.866   3.578   4.018  2.2694 -0.6058  1.3554
 2584SOL    HW219389   0.988   3.652   3.999 -0.0859 -1.8060 -1.2344
 2585SOL     OW19390   1.250   4.241  15.144  0.0954  0.3207 -0.3540
 2585SOL    HW119391   1.280   4.323  15.183 -0.5092  0.3667  0.0240
 2585SOL    HW219392   1.286   4.255  15.056  1.9848  0.0749  0.3960
 2586SOL     OW19393   4.166   4.458   9.445 -0.5028 -0.4322  0.0993
 2586SOL    HW119394   4.087   4.471   9.393  0.6099  0.0529 -1.4888
 2586SOL    HW219395   4.187   4.551   9.440  0.3289 -0.7762 -2.6171
 2587SOL     OW19396   3.011   3.767   7.184 -0.2801  0.2242 -0.4699
 2587SOL    HW119397   3.086   3.827   7.180 -1.2467  1.5779  2.0453
 2587SOL    HW219398   3.009   3.750   7.089  2.7758 -0.0519 -0.5072
 2588SOL     OW19399   3.453   4.086  12.706 -0.2646 -0.0235  0.3379
 2588SOL    HW119400   3.504   4.063  12.785 -0.9319  1.1456  1.1046
 2588SOL    HW219401   3.525   4.120  12.653 -1.0887  3.0797  1.2143
 2589SOL     OW19402   3.506   0.668   1.969  0.5335 -0.0117  0.2067
 2589SOL    HW119403   3.492   0.621   1.887  2.2265  1.5871 -1.0061
 2589SOL    HW219404   3.413   0.669   1.991  0.3608 -2.2362 -0.3913
 2590SOL     OW19405   2.691   4.372  11.788 -0.5445 -0.1194  0.2466
 2590SOL    HW119406   2.632   4.446  11.800  1.8971  2.3143 -2.7350
 2590SOL    HW219407   2.748   4.414  11.723 -2.3721  0.1436 -1.1767
 2591SOL     OW19408   3.029   4.157   7.332  0.3270  0.0688  0.2898
 2591SOL    HW119409   2.950   4.210   7.344  1.4476  2.4034 -2.9559
 2591SOL    HW219410   3.087   4.205   7.391  0.1562 -1.2396  1.5411
 2592SOL     OW19411   1.317   3.992   3.750  0.2821 -0.0566 -0.3432
 2592SOL    HW119412   1.238   4.042   3.730 -0.1372 -1.1331 -1.3914
 2592SOL    HW219413   1.372   4.001   3.672  0.8011  1.2202  0.1658
 2593SOL     OW19414   1.210   1.694   6.427  0.9542 -0.6255  0.1631
 2593SOL    HW119415   1.306   1.688   6.425  0.9646 -0.6526  0.6024
 2593SOL    HW219416   1.185   1.733   6.343 -1.4436  2.0241  2.1085
 2594SOL     OW19417   4.545   0.460  11.330 -0.7133 -0.0394 -0.1239
 2594SOL    HW119418   4.495   0.492  11.255  0.6060  1.2126 -0.4663
 2594SOL    HW219419   4.630   0.464  11.286 -0.2484  0.2872  0.8085
 2595SOL     OW19420   2.248   3.132   9.562 -0.0293 -0.5440  0.2182
 2595SOL    HW119421   2.312   3.075   9.605 -0.6061 -1.0992  0.3473
 2595SOL    HW219422   2.288   3.147   9.476 -0.7335  4.8823  0.8146
 2596SOL     OW19423   3.280   2.190   8.204 -0.0129  0.4924  0.0636
 2596SOL    HW119424   3.297   2.188   8.109  1.8575  0.8213  0.3975
 2596SOL    HW219425   3.368   2.210   8.237  0.7038  1.0834 -2.1568
 2597SOL     OW19426   4.299   0.118   2.747  0.6124  0.0861 -0.1453
 2597SOL    HW119427   4.254   0.132   2.830 -0.5052  0.6497 -0.8417
 2597SOL    HW219428   4.373   0.072   2.787  2.6297  0.1416 -3.8148
 2598SOL     OW19429   4.277   3.270   3.790  0.2879 -0.1397  0.0344
 2598SOL    HW119430   4.199   3.304   3.834 -0.6338 -1.7811 -0.3543
 2598SOL    HW219431   4.340   3.264   3.862  1.9381 -0.1630 -1.4084
 2599SOL     OW19432   4.042   3.535   3.756 -0.4358  0.2174  0.0744
 2599SOL    HW119433   3.962   3.518   3.805 -2.4136 -0.1370 -3.2502
 2599SOL    HW219434   4.114   3.553   3.817 -1.5486  0.5412  1.2784
 2600SOL     OW19435   4.045   4.730   3.529  0.5659 -0.2725 -0.2207
 2600SOL    HW119436   4.032   0.079   3.484  2.3514  1.8559  3.2333
 2600SOL    HW219437   4.103   0.021   3.600 -1.5510  1.1784  0.9647
 2601SOL     OW19438   0.411   0.748   7.225 -0.0115  0.2991  0.1093
 2601SOL    HW119439   0.345   0.786   7.168  1.4283  3.5459  0.6300
 2601SOL    HW219440   0.359   0.753   7.306 -1.5368  1.0054 -0.9298
 2602SOL     OW19441   1.872   3.170   9.607 -1.5721 -0.0276 -0.1057
 2602SOL    HW119442   1.935   3.114   9.561 -1.3885  0.2764 -0.2229
 2602SOL    HW219443   1.815   3.185   9.532  0.2054 -1.9626 -1.8327
 2603SOL     OW19444   4.302   3.043   7.867  0.4954 -0.0884 -0.3357
 2603SOL    HW119445   4.296   3.051   7.772 -0.6984  3.0449  0.0241
 2603SOL    HW219446   4.269   2.956   7.891  2.1723 -0.0968  1.9187
 2604SOL     OW19447   2.286   3.012   8.676  0.8253  0.0133  0.0021
 2604SOL    HW119448   2.347   2.941   8.699 -2.0226 -2.5525 -0.3306
 2604SOL    HW219449   2.307   3.015   8.583  2.6090  0.9834  0.4426
 2605SOL     OW19450   1.298   2.584  10.142 -0.5245 -0.4981  0.0437
 2605SOL    HW119451   1.373   2.560  10.088 -0.7879 -3.4068  0.9704
 2605SOL    HW219452   1.330   2.636  10.216  0.5913 -0.3608 -0.5521
 2606SOL     OW19453   2.671   3.696   1.559 -0.2522 -0.2388  0.4990
 2606SOL    HW119454   2.607   3.763   1.580  0.6157  0.3909  1.1392
 2606SOL    HW219455   2.732   3.702   1.633  2.4531 -0.1435 -1.7146
 2607SOL     OW19456   2.653   1.373   3.790 -0.0638 -0.1388 -0.2514
 2607SOL    HW119457   2.746   1.354   3.802  0.2426  1.6854  0.3243
 2607SOL    HW219458   2.656   1.453   3.737 -1.8990 -0.9375 -1.5453
 2608SOL     OW19459   0.984   3.222  11.321 -0.2873  0.0575  0.2906
 2608SOL    HW119460   0.900   3.202  11.363 -0.2722  0.1999  0.3896
 2608SOL    HW219461   1.017   3.133  11.311  0.9148  0.2793  2.2365
 2609SOL     OW19462   3.127   3.200   4.135  0.2523  0.0936 -0.5506
 2609SOL    HW119463   3.096   3.239   4.217 -0.0198 -0.9336 -0.1710
 2609SOL    HW219464   3.048   3.181   4.085 -0.2356  1.2982 -0.2415
 2610SOL     OW19465   2.187   0.871   5.443 -0.0576  0.0135 -0.3801
 2610SOL    HW119466   2.133   0.949   5.439  1.4074  0.9141 -2.4464
 2610SOL    HW219467   2.253   0.900   5.506  0.6101 -2.9010  0.2766
 2611SOL     OW19468   4.465   3.937   3.611  0.2345 -0.0854 -0.0493
 2611SOL    HW119469   4.455   4.002   3.681 -1.8936 -0.3083 -0.1667
 2611SOL    HW219470   4.377   3.902   3.597  0.3949 -0.8023  0.8031
 2612SOL     OW19471   1.055   3.828   3.506  0.1967  0.0076  0.2517
 2612SOL    HW119472   0.987   3.803   3.442 -0.0074 -2.7728  1.5615
 2612SOL    HW219473   1.086   3.911   3.470  1.4470 -0.5958 -0.0754
 2613SOL     OW19474   3.942   1.956  13.507  0.4866  0.1275  0.0295
 2613SOL    HW119475   3.906   1.944  13.419  0.7625 -0.2667 -0.0283
 2613SOL    HW219476   4.036   1.947  13.495  0.3763  0.2728 -0.9090
 2614SOL     OW19477   1.577   3.590   2.524  0.9765 -0.0704 -0.1757
 2614SOL    HW119478   1.493   3.610   2.483  1.9223  1.1809 -1.4950
 2614SOL    HW219479   1.613   3.535   2.453  0.6749  0.1696 -0.5133
 2615SOL     OW19480   4.145   4.211   1.813  0.3668  0.2587 -0.3612
 2615SOL    HW119481   4.181   4.176   1.732 -2.1403 -2.4095 -0.3587
 2615SOL    HW219482   4.202   4.286   1.830  1.1004 -0.2805 -0.4521
 2616SOL     OW19483   2.323   1.562   8.376 -0.1939 -0.4731 -0.4222
 2616SOL    HW119484   2.242   1.551   8.426  0.1568 -1.6486 -0.1025
 2616SOL    HW219485   2.392   1.531   8.434 -1.1949  0.5714  1.3539
 2617SOL     OW19486   4.265   2.134   7.786 -0.5027 -0.1671 -0.0577
 2617SOL    HW119487   4.298   2.159   7.873  0.0517  0.6742 -0.5014
 2617SOL    HW219488   4.326   2.173   7.723  0.1807 -0.6237  0.3216
 2618SOL     OW19489   2.321   2.018   0.044 -0.3460 -0.0659 -0.9734
 2618SOL    HW119490   2.322   2.003   0.138  0.2401  0.3976 -0.9009
 2618SOL    HW219491   2.391   1.956   0.020  0.7412  0.9509 -0.4573
 2619SOL     OW19492   4.353   1.765  14.026 -0.0548  0.2462 -0.4390
 2619SOL    HW119493   4.377   1.857  14.037 -1.2736  0.6397 -1.0335
 2619SOL    HW219494   4.400   1.733  13.949 -1.0103  0.4333 -1.0930
 2620SOL     OW19495   4.478   1.474   7.073  0.5443  0.3530  0.0160
 2620SOL    HW119496   4.489   1.543   7.139  0.2075  0.9002 -0.4962
 2620SOL    HW219497   4.386   1.452   7.082  0.9151 -0.2956  2.3080
 2621SOL     OW19498   4.114   1.399   3.104 -0.1125 -0.0595 -0.0923
 2621SOL    HW119499   4.065   1.424   3.026  0.0247 -0.1420 -0.2057
 2621SOL    HW219500   4.174   1.340   3.058  0.8454  1.0559 -0.2676
 2622SOL     OW19501   1.518   0.926   6.752 -0.3161  0.0581 -0.4671
 2622SOL    HW119502   1.541   0.853   6.810 -2.2934  1.7194  2.4413
 2622SOL    HW219503   1.556   1.000   6.800  3.7012 -0.8766 -2.2842
 2623SOL     OW19504   2.525   3.906   7.676  0.9786 -0.0240 -0.0190
 2623SOL    HW119505   2.472   3.933   7.601  2.3202 -1.1049 -1.3527
 2623SOL    HW219506   2.543   3.992   7.715 -1.0063  0.6988 -0.6903
 2624SOL     OW19507   1.804   3.320   4.892  0.2935 -0.2482  0.0695
 2624SOL    HW119508   1.751   3.280   4.962  0.6936  0.1337  0.5948
 2624SOL    HW219509   1.835   3.399   4.937  3.8234 -0.7642 -1.5096
 2625SOL     OW19510   2.537   4.279   3.385 -0.4378  0.0627 -0.0416
 2625SOL    HW119511   2.575   4.193   3.407  1.4500  0.9087  0.0641
 2625SOL    HW219512   2.507   4.276   3.295 -0.9533 -0.7324  0.1531
 2626SOL     OW19513   3.466   0.822   6.615  0.1954 -0.0816 -0.1580
 2626SOL    HW119514   3.524   0.749   6.594  0.0039 -0.2435 -0.1138
 2626SOL    HW219515   3.525   0.894   6.639  1.2226 -0.7716 -0.6187
 2627SOL     OW19516   3.410   2.308   6.989  0.1162  0.1391 -0.4296
 2627SOL    HW119517   3.384   2.398   7.011  1.1237  0.4949 -0.6895
 2627SOL    HW219518   3.373   2.255   7.059  0.3726 -0.0786 -0.4602
 2628SOL     OW19519   3.548   4.051   8.397 -0.9025  0.1536 -0.0425
 2628SOL    HW119520   3.557   4.138   8.435 -2.3375 -0.9042  2.6619
 2628SOL    HW219521   3.482   4.016   8.456 -0.6537 -1.0274 -0.4617
 2629SOL     OW19522   4.074   0.568   9.496 -0.4721 -0.6534  0.0019
 2629SOL    HW119523   4.152   0.527   9.459  0.8449  0.0933  2.0174
 2629SOL    HW219524   4.112   0.582   9.582  0.3851  1.3100 -0.7013
 2630SOL     OW19525   4.661   3.691   1.758  0.2348 -0.3742 -0.1767
 2630SOL    HW119526   4.617   3.610   1.732  0.4758 -0.8230  0.8273
 2630SOL    HW219527   4.699   3.710   1.672  0.3604  0.8585  0.1582
 2631SOL     OW19528   2.264   1.392  11.425 -0.7780  0.1442  0.7900
 2631SOL    HW119529   2.290   1.469  11.476 -0.3438 -1.0586  2.3757
 2631SOL    HW219530   2.174   1.382  11.457 -1.2000  0.6939 -0.2179
 2632SOL     OW19531   2.180   0.691  11.915 -0.0727 -0.1564  0.3913
 2632SOL    HW119532   2.269   0.671  11.887  0.4787  1.7118  0.7993
 2632SOL    HW219533   2.134   0.610  11.891 -2.4916  1.4813 -0.4460
 2633SOL     OW19534   3.584   0.911   7.085 -0.0605  0.2921  0.0586
 2633SOL    HW119535   3.570   0.916   6.990  0.4318 -1.5643 -0.1048
 2633SOL    HW219536   3.662   0.966   7.093 -0.8178  1.5063 -0.8882
 2634SOL     OW19537   0.416   2.292   3.743 -0.1120  0.2582  0.4109
 2634SOL    HW119538   0.395   2.342   3.664 -1.2121 -1.9850 -0.7357
 2634SOL    HW219539   0.381   2.207   3.715 -0.1043  0.4302 -0.1298
 2635SOL     OW19540   0.693   4.042   2.491 -0.2820 -0.4948  0.7433
 2635SOL    HW119541   0.784   4.043   2.520  0.4566 -1.3984 -1.5501
 2635SOL    HW219542   0.672   4.126   2.450 -0.0338 -0.5736  0.4583
 2636SOL     OW19543   2.204   1.786   7.601  0.3588 -0.9842  0.2467
 2636SOL    HW119544   2.191   1.795   7.506  1.4142  0.4401  0.2331
 2636SOL    HW219545   2.114   1.802   7.629  0.2009 -0.3416 -0.6128
 2637SOL     OW19546   0.603   3.157   9.295 -0.3016  0.3803 -0.3280
 2637SOL    HW119547   0.512   3.156   9.325 -0.6916  1.4778 -1.4432
 2637SOL    HW219548   0.591   3.122   9.207 -0.3610  0.0888 -0.2038
 2638SOL     OW19549   4.081   1.222   4.593  0.3677 -0.0647  0.0165
 2638SOL    HW119550   4.125   1.140   4.572  1.5353  0.8071 -0.9343
 2638SOL    HW219551   4.093   1.261   4.507  1.0653 -2.3659 -0.9304
 2639SOL     OW19552   1.684   3.498  16.885 -0.2565 -0.0707 -0.0434
 2639SOL    HW119553   1.712   3.547  16.807  0.0262  0.3240  0.3013
 2639SOL    HW219554   1.651   3.570  16.940  0.5458 -2.4299  3.5114
 2640SOL     OW19555   2.766   3.074  13.978 -0.6374 -0.0521  0.2618
 2640SOL    HW119556   2.801   3.024  13.905  1.3025  0.2231  0.9966
 2640SOL    HW219557   2.699   3.108  13.920 -1.2341 -0.0898  0.9312
 2641SOL     OW19558   0.068   4.043   2.865 -0.4785  0.4778  0.9404
 2641SOL    HW119559   4.715   4.013   2.842 -0.6694  2.2333 -0.6686
 2641SOL    HW219560   0.110   3.957   2.861 -2.6610 -0.5272 -0.8499
 2642SOL     OW19561   2.361   1.036  16.628  0.2441 -0.2369  0.8030
 2642SOL    HW119562   2.295   0.973  16.599 -0.2288  0.8556 -0.4930
 2642SOL    HW219563   2.366   1.015  16.721 -1.8960  1.6299  1.3447
 2643SOL     OW19564   1.994   0.326   5.049 -0.2306 -0.2782  0.1772
 2643SOL    HW119565   2.022   0.236   5.034 -0.3580 -0.2256 -0.3692
 2643SOL    HW219566   2.081   0.366   5.055 -0.2896 -0.1329  0.0463
 2644SOL     OW19567   2.954   0.637  15.525  0.1373  0.1262  0.8535
 2644SOL    HW119568   2.886   0.612  15.463  1.0678 -0.9667  0.2679
 2644SOL    HW219569   3.000   0.705  15.476  0.6125 -4.0723 -4.5441
 2645SOL     OW19570   3.790   3.966  14.460 -0.4939  0.0452 -0.1254
 2645SOL    HW119571   3.876   3.952  14.421 -0.7582  0.3634 -0.8350
 2645SOL    HW219572   3.796   4.059  14.484  3.1298  0.3489 -2.2042
 2646SOL     OW19573   1.372   0.923   3.435  0.1857  0.5968 -0.0894
 2646SOL    HW119574   1.460   0.946   3.404 -0.0475  0.1674 -1.0904
 2646SOL    HW219575   1.323   0.897   3.357 -0.9783  0.9932  0.4980
 2647SOL     OW19576   2.000   2.596   7.205 -0.2616 -0.2082  0.6401
 2647SOL    HW119577   1.978   2.540   7.280 -0.9213 -1.9818 -0.8930
 2647SOL    HW219578   1.947   2.675   7.221  0.4241  0.0857  1.4513
 2648SOL     OW19579   1.937   2.630   5.487 -0.0046 -0.0611 -0.2121
 2648SOL    HW119580   2.020   2.671   5.463 -0.7007  2.0392  0.9831
 2648SOL    HW219581   1.916   2.599   5.399  0.5113 -0.8220 -0.0644
 2649SOL     OW19582   0.668   2.625   7.381 -0.2655  0.3010  0.4372
 2649SOL    HW119583   0.651   2.699   7.439 -0.9426  1.1420 -0.8256
 2649SOL    HW219584   0.705   2.565   7.445 -0.0883  1.8823  1.8345
 2650SOL     OW19585   0.475   4.393   2.955 -0.2847  0.7742 -0.7304
 2650SOL    HW119586   0.461   4.339   2.878 -2.4455  2.0973 -1.2476
 2650SOL    HW219587   0.532   4.337   3.008 -0.5700  0.7425 -0.4573
 2651SOL     OW19588   0.220   2.012   6.318 -0.2655 -0.4678  0.1006
 2651SOL    HW119589   0.169   1.941   6.278  0.2123  0.4194 -2.1172
 2651SOL    HW219590   0.270   2.047   6.244 -2.4398  0.5055 -0.9139
 2652SOL     OW19591   4.483   2.566  10.578 -0.5782 -0.2878 -0.3095
 2652SOL    HW119592   4.441   2.587  10.495 -0.4189  0.4789 -0.2059
 2652SOL    HW219593   4.466   2.648  10.625 -0.6637  0.0547 -0.9406
 2653SOL     OW19594   2.618   3.723   9.717  0.0324 -0.3177  0.0499
 2653SOL    HW119595   2.632   3.752   9.807 -0.6219 -0.6358  0.2518
 2653SOL    HW219596   2.689   3.659   9.716 -2.6559 -3.2577 -1.2038
 2654SOL     OW19597   1.326   3.758   6.564 -0.0077 -0.5204  0.3148
 2654SOL    HW119598   1.368   3.688   6.513 -1.6044 -1.7992  0.7509
 2654SOL    HW219599   1.378   3.837   6.556 -0.3056 -0.1883  1.6432
 2655SOL     OW19600   2.793   1.893  14.012  0.0464 -0.0916  0.3066
 2655SOL    HW119601   2.843   1.953  14.067 -2.0219  2.4595 -0.5884
 2655SOL    HW219602   2.793   1.957  13.941 -0.3641 -2.7788 -2.1233
 2656SOL     OW19603   3.429   3.391   6.154  0.0279 -0.3671  0.5760
 2656SOL    HW119604   3.469   3.469   6.114 -1.8397  0.2839 -0.0156
 2656SOL    HW219605   3.363   3.368   6.089 -0.6761  0.5829  0.9477
 2657SOL     OW19606   4.617   3.280   7.685 -0.5083 -0.9820  0.1278
 2657SOL    HW119607   4.646   3.367   7.661 -1.0684 -0.9903 -0.5789
 2657SOL    HW219608   4.702   3.236   7.687 -0.3908 -0.6346  2.3903
 2658SOL     OW19609   3.475   0.137   4.639  0.3419 -0.5843  0.2875
 2658SOL    HW119610   3.430   0.064   4.681  0.5697 -0.1787  1.2251
 2658SOL    HW219611   3.568   0.118   4.655  0.3411 -2.3146 -1.6344
 2659SOL     OW19612   2.446   1.798   9.765 -0.1879 -0.4289  0.1971
 2659SOL    HW119613   2.408   1.711   9.776 -2.2413  0.1954 -1.9641
 2659SOL    HW219614   2.474   1.805   9.674  0.7096 -0.7888  0.4409
 2660SOL     OW19615   0.143   0.952   0.025  0.2084  0.2873  0.0242
 2660SOL    HW119616   0.061   0.948   0.075 -1.3704  0.5614 -2.5236
 2660SOL    HW219617   0.170   1.044   0.029  0.4046  0.3322 -2.4897
 2661SOL     OW19618   1.181   0.036  16.046  0.5640  0.3064 -0.8286
 2661SOL    HW119619   1.211   0.022  16.136 -1.6491 -0.5671 -0.2259
 2661SOL    HW219620   1.256   0.010  15.993  0.7649 -2.9801  1.0939
 2662SOL     OW19621   3.905   0.146   5.780  0.1896 -0.0188  0.3051
 2662SOL    HW119622   3.917   0.051   5.783  0.0026  0.0256  2.6296
 2662SOL    HW219623   3.810   0.150   5.774  0.2243  0.6154  0.1182
 2663SOL     OW19624   4.316   2.470   4.564 -0.6258  0.2917 -0.1220
 2663SOL    HW119625   4.298   2.378   4.581 -0.0641  0.2562  0.2586
 2663SOL    HW219626   4.386   2.472   4.499 -0.2559 -1.9882  0.2278
 2664SOL     OW19627   2.035   4.058  16.007 -0.0187  0.1937  0.3446
 2664SOL    HW119628   2.110   4.100  15.964  0.9686 -1.5923  0.3031
 2664SOL    HW219629   2.038   4.103  16.092  2.6476  1.4754 -0.4093
 2665SOL     OW19630   3.272   3.006   6.776 -0.2542  0.3242 -0.0052
 2665SOL    HW119631   3.338   2.957   6.824 -0.6094  0.2229  0.3822
 2665SOL    HW219632   3.330   3.064   6.727 -0.1914 -0.3963 -0.7708
 2666SOL     OW19633   1.043   3.371   1.954  0.0772  0.0498 -0.2117
 2666SOL    HW119634   1.011   3.334   2.036 -2.6414  1.4563 -0.6339
 2666SOL    HW219635   1.000   3.455   1.970 -0.2363 -0.0876 -0.3234
 2667SOL     OW19636   3.952   2.863   3.881  0.0202  0.2114 -0.1556
 2667SOL    HW119637   3.963   2.914   3.801  0.8900  1.4273  0.7402
 2667SOL    HW219638   3.938   2.934   3.944 -0.2194  0.0353 -0.0088
 2668SOL     OW19639   4.574   1.454   7.735  0.6693  0.9533  0.5909
 2668SOL    HW119640   4.630   1.478   7.662 -0.7070  0.9429 -0.4755
 2668SOL    HW219641   4.507   1.517   7.708  0.6452  2.0258  3.0518
 2669SOL     OW19642   1.171   1.667   6.743  0.2600  0.4745 -0.1929
 2669SOL    HW119643   1.180   1.643   6.651 -0.1027 -0.7438  0.0875
 2669SOL    HW219644   1.075   1.675   6.749  0.4064  0.9914  1.7161
 2670SOL     OW19645   3.984   4.554   2.743  0.0088  0.0510 -0.0687
 2670SOL    HW119646   4.023   4.641   2.733  1.9260 -1.0265 -1.8834
 2670SOL    HW219647   4.030   4.499   2.679  1.4154  0.2403  0.7780
 2671SOL     OW19648   2.007   0.105   5.631  0.1455  0.6153 -0.0695
 2671SOL    HW119649   1.971   0.171   5.571  0.0587  2.0267  1.5457
 2671SOL    HW219650   2.054   0.156   5.697 -0.6239  0.6035  0.4883
 2672SOL     OW19651   1.824   0.719   5.570  0.3882  0.5681 -0.1696
 2672SOL    HW119652   1.822   0.705   5.475 -0.1294 -1.1088  0.0807
 2672SOL    HW219653   1.910   0.685   5.594 -1.0578 -1.1960  2.5707
 2673SOL     OW19654   4.289   1.820   2.491 -0.0121 -0.0632 -0.3211
 2673SOL    HW119655   4.372   1.834   2.445 -0.2123  2.1262 -0.0043
 2673SOL    HW219656   4.315   1.771   2.568 -0.2876  1.2542  0.6013
 2674SOL     OW19657   1.057   0.711   3.994  0.1920 -0.3763  0.5050
 2674SOL    HW119658   1.039   0.781   3.932 -0.8478  0.2639  1.5123
 2674SOL    HW219659   1.044   0.762   4.074 -3.0051 -1.9628  1.0078
 2675SOL     OW19660   0.932   2.251   4.485 -0.4863 -0.4049  0.2479
 2675SOL    HW119661   1.021   2.280   4.466  0.0559 -1.4647  1.1638
 2675SOL    HW219662   0.885   2.303   4.420  0.1979 -0.1724 -0.0615
 2676SOL     OW19663   3.125   3.227   1.776 -0.2835  0.2019  0.1693
 2676SOL    HW119664   3.071   3.305   1.791  0.0044  0.2824  0.8119
 2676SOL    HW219665   3.068   3.156   1.805  0.5432 -1.1539 -1.6164
 2677SOL     OW19666   4.724   2.711   1.476  0.1069  0.5746  0.1231
 2677SOL    HW119667   4.659   2.640   1.482 -0.8420  1.1967 -2.7239
 2677SOL    HW219668   4.694   2.768   1.547  1.9992  0.8670  0.6800
 2678SOL     OW19669   0.400   3.171   5.685 -0.1801  0.8845 -0.2092
 2678SOL    HW119670   0.327   3.232   5.671 -1.1908 -0.2993 -0.0884
 2678SOL    HW219671   0.404   3.123   5.602  2.0687 -1.7002  1.4092
 2679SOL     OW19672   4.368   2.392   1.326 -0.1875  0.4063  0.3325
 2679SOL    HW119673   4.319   2.369   1.405 -0.3795 -2.3592 -0.6092
 2679SOL    HW219674   4.319   2.337   1.265  1.0882 -0.2618 -0.0839
 2680SOL     OW19675   3.791   4.105   1.723  0.3400  0.0302  0.0583
 2680SOL    HW119676   3.706   4.123   1.765  0.6761 -0.3779  0.8989
 2680SOL    HW219677   3.854   4.116   1.793 -0.1661 -0.4572  0.5880
 2681SOL     OW19678   2.084   0.891   3.727 -0.4891  0.7158 -0.3039
 2681SOL    HW119679   2.117   0.817   3.676  3.5497  1.5108  1.2053
 2681SOL    HW219680   1.994   0.864   3.707 -0.4190 -0.4743  0.9582
 2682SOL     OW19681   2.703   3.433   3.621 -0.2034 -0.0681  0.1920
 2682SOL    HW119682   2.674   3.515   3.660  1.6397  0.0758  1.2192
 2682SOL    HW219683   2.793   3.453   3.598 -0.5718  0.6698 -0.6430
 2683SOL     OW19684   3.112   4.339   9.185 -0.2372 -0.3166  0.2484
 2683SOL    HW119685   3.129   4.256   9.139 -1.6893 -0.0685 -0.7146
 2683SOL    HW219686   3.071   4.307   9.266  0.5433  1.9835  1.5550
 2684SOL     OW19687   0.794   0.975   9.657  0.2803 -0.7399  0.9272
 2684SOL    HW119688   0.826   0.897   9.702  2.0612 -0.1913  0.6181
 2684SOL    HW219689   0.722   1.001   9.713 -1.0124 -0.3249 -0.9241
 2685SOL     OW19690   1.459   3.668  17.002  0.1772  0.4982 -0.0624
 2685SOL    HW119691   1.477   3.685  17.094 -0.3621 -0.7330  0.2695
 2685SOL    HW219692   1.421   3.581  17.009  0.9106  0.1318 -0.6713
 2686SOL     OW19693   1.833   1.306   3.323 -0.1764  0.3578  0.2888
 2686SOL    HW119694   1.889   1.258   3.384 -0.8167 -2.7654 -1.6432
 2686SOL    HW219695   1.891   1.339   3.255 -0.9294 -1.1437 -1.0568
 2687SOL     OW19696   3.580   0.553   4.928  0.7055  0.7522 -0.0018
 2687SOL    HW119697   3.612   0.640   4.902 -1.5556  0.6221 -3.2233
 2687SOL    HW219698   3.654   0.499   4.903 -0.2741 -0.1990 -0.8459
 2688SOL     OW19699   0.442   2.784   1.180 -0.7426  0.3475 -0.1885
 2688SOL    HW119700   0.375   2.838   1.137 -2.8549 -0.1148  2.5590
 2688SOL    HW219701   0.527   2.814   1.147  0.2139 -1.6560  0.5136
 2689SOL     OW19702   0.603   2.107   2.088  0.0799  0.0131 -0.4856
 2689SOL    HW119703   0.555   2.122   2.006  1.6460  0.0883 -1.3806
 2689SOL    HW219704   0.548   2.048   2.140 -1.8452 -0.0050 -2.5171
 2690SOL     OW19705   1.555   0.681   6.924 -0.2657  0.1761 -0.2492
 2690SOL    HW119706   1.483   0.654   6.980  0.9843 -0.0188  1.2583
 2690SOL    HW219707   1.601   0.605   6.889  0.2952  0.5521 -0.3357
 2691SOL     OW19708   3.928   2.996  13.409  0.0392  0.1235  0.2408
 2691SOL    HW119709   3.903   2.904  13.421 -0.6302 -0.1126 -2.9600
 2691SOL    HW219710   3.884   3.038  13.482  0.5978 -0.4148  0.8907
 2692SOL     OW19711   3.094   3.974  10.119 -0.1389  0.2680 -0.1984
 2692SOL    HW119712   3.160   3.944  10.057  1.1695 -2.1338  2.3834
 2692SOL    HW219713   3.104   3.910  10.189 -2.8900 -0.2550 -0.2877
 2693SOL     OW19714   1.955   2.535   2.806  0.3663 -0.2489  0.1982
 2693SOL    HW119715   1.941   2.551   2.713  0.5938 -2.3519 -0.2002
 2693SOL    HW219716   1.870   2.495   2.825 -1.1595  2.0603 -1.7475
 2694SOL     OW19717   1.987   3.888   7.444 -0.7938  0.3563 -0.1471
 2694SOL    HW119718   2.019   3.867   7.532  0.9402 -0.9013 -1.0757
 2694SOL    HW219719   1.956   3.799   7.426  3.5063 -1.3186  0.7252
 2695SOL     OW19720   1.672   4.274  10.377  0.3070 -0.0181 -0.2851
 2695SOL    HW119721   1.657   4.296  10.285 -0.2840  0.2249 -0.1244
 2695SOL    HW219722   1.741   4.207  10.384  1.3303  1.0109 -0.5902
 2696SOL     OW19723   2.812   0.287   5.105 -0.3499 -0.0423  0.8265
 2696SOL    HW119724   2.836   0.210   5.156  1.9388 -0.4294 -0.8627
 2696SOL    HW219725   2.802   0.255   5.016  1.3643  2.3740 -0.2214
 2697SOL     OW19726   1.299   2.537  12.911  0.8928 -0.2464  0.2517
 2697SOL    HW119727   1.331   2.499  12.994  0.8289 -0.6676  0.0832
 2697SOL    HW219728   1.343   2.484  12.844  1.1615  1.3280 -0.8102
 2698SOL     OW19729   3.057   3.005   6.481 -0.6281 -0.1015  0.3548
 2698SOL    HW119730   2.964   3.020   6.501 -0.4444 -0.3891  1.4215
 2698SOL    HW219731   3.052   2.930   6.422  0.0252  0.0530  0.1110
 2699SOL     OW19732   4.462   1.158  11.614 -0.7170  0.3876 -0.3348
 2699SOL    HW119733   4.419   1.073  11.604  0.6092 -0.0365 -2.6785
 2699SOL    HW219734   4.411   1.202  11.546 -1.6501  1.0331  0.7835
 2700SOL     OW19735   1.658   1.585  16.075 -0.3896 -0.0031  0.2480
 2700SOL    HW119736   1.706   1.535  16.009  0.9897  1.9324 -0.2235
 2700SOL    HW219737   1.574   1.588  16.029  0.1358 -1.4307 -0.8025
 2701SOL     OW19738   0.947   3.097   9.182 -0.2708 -0.1573 -0.4589
 2701SOL    HW119739   1.029   3.097   9.232 -1.0279 -0.8450  0.7853
 2701SOL    HW219740   0.889   3.089   9.258 -1.9788  4.0296 -1.3299
 2702SOL     OW19741   0.774   1.867   0.270  0.7120 -0.4029  0.1055
 2702SOL    HW119742   0.761   1.779   0.308  1.6577 -0.3553  0.5353
 2702SOL    HW219743   0.697   1.870   0.213  0.6723  0.0977  0.1870
 2703SOL     OW19744   3.293   2.175   8.822 -0.3036 -0.0940  0.6018
 2703SOL    HW119745   3.244   2.131   8.753 -0.8104  2.3401 -0.5839
 2703SOL    HW219746   3.252   2.261   8.820 -0.2315 -0.0685  0.2617
 2704SOL     OW19747   0.961   2.832   2.120  0.1918 -0.2839  0.2952
 2704SOL    HW119748   0.936   2.845   2.211  1.0954  1.5228  0.2717
 2704SOL    HW219749   0.952   2.737   2.113  2.0790 -0.5757  2.2090
 2705SOL     OW19750   1.600   4.523   5.730  0.0818 -0.0918  0.0931
 2705SOL    HW119751   1.511   4.547   5.703 -1.0086 -1.3856  2.5060
 2705SOL    HW219752   1.618   4.455   5.665 -1.6840 -0.0855 -0.4145
 2706SOL     OW19753   1.998   0.578   8.953  0.0807 -0.2855 -0.5824
 2706SOL    HW119754   1.978   0.487   8.932  0.3147 -0.7250  1.1732
 2706SOL    HW219755   1.906   0.605   8.954  0.3086  0.4526  0.2655
 2707SOL     OW19756   2.144   3.472   5.026  0.5075 -0.4542 -0.0773
 2707SOL    HW119757   2.229   3.516   5.037 -0.4928  1.0397  1.5816
 2707SOL    HW219758   2.122   3.488   4.934 -0.0675  1.0478  0.3248
 2708SOL     OW19759   1.985   3.980   2.148  1.0447  0.0838  0.0620
 2708SOL    HW119760   2.025   3.893   2.158  0.7701 -0.0251  0.2163
 2708SOL    HW219761   1.965   4.004   2.058 -1.2524 -1.6575  0.1060
 2709SOL     OW19762   2.734   1.388  12.389 -0.5104 -0.1008  0.0063
 2709SOL    HW119763   2.829   1.393  12.402 -0.5305 -2.4973  1.2501
 2709SOL    HW219764   2.727   1.317  12.325 -2.2939  3.0117 -3.2379
 2710SOL     OW19765   1.121   3.005   1.792 -0.1985 -0.2226 -1.0943
 2710SOL    HW119766   1.105   3.091   1.753  1.5647  0.3408 -0.5630
 2710SOL    HW219767   1.031   2.974   1.806 -0.0867  0.1903  0.5612
 2711SOL     OW19768   1.905   3.158   4.715  0.1432 -0.5740 -0.4521
 2711SOL    HW119769   1.872   3.226   4.773  1.7700 -0.3573  0.2354
 2711SOL    HW219770   1.979   3.211   4.684  0.9930 -3.0002 -2.5703
 2712SOL     OW19771   1.058   3.269   7.101 -0.5104  0.4966  0.0708
 2712SOL    HW119772   1.150   3.289   7.083  0.1286  0.4309  3.3622
 2712SOL    HW219773   1.048   3.220   7.183  2.4340  1.9264  1.2632
 2713SOL     OW19774   1.752   4.274   6.754  0.3542 -0.2833 -0.4826
 2713SOL    HW119775   1.730   4.311   6.839  2.4420 -2.1156  0.8655
 2713SOL    HW219776   1.845   4.292   6.741  0.6080 -0.6387  0.8024
 2714SOL     OW19777   2.685   3.489   8.704 -0.4841  0.4727 -0.5414
 2714SOL    HW119778   2.750   3.518   8.640 -2.2380  2.5393 -1.3737
 2714SOL    HW219779   2.625   3.563   8.706  0.0363  0.8527  0.9767
 2715SOL     OW19780   0.370   3.963   8.371 -0.0994 -0.4214  0.1668
 2715SOL    HW119781   0.311   4.031   8.338  0.4483  0.2908  0.6619
 2715SOL    HW219782   0.340   3.958   8.461 -1.6970 -0.0378 -0.3438
 2716SOL     OW19783   0.776   4.602   2.887 -0.3853  0.4797 -0.3524
 2716SOL    HW119784   0.767   4.693   2.916 -0.7616  0.1929  0.4296
 2716SOL    HW219785   0.871   4.594   2.877 -0.1972  2.3903 -0.1765
 2717SOL     OW19786   2.630   3.384  12.152  0.0482 -0.3037  0.1983
 2717SOL    HW119787   2.594   3.448  12.090  0.9140  0.6085  0.6253
 2717SOL    HW219788   2.627   3.314  12.087 -1.0913  0.1982 -0.2811
 2718SOL     OW19789   0.852   0.478   6.179 -0.7758  0.2468 -0.2079
 2718SOL    HW119790   0.822   0.497   6.090 -1.9050  0.2620  0.1763
 2718SOL    HW219791   0.847   0.383   6.169  0.9596 -0.2879  3.9994
 2719SOL     OW19792   3.841   1.535   8.509  0.1347  0.1927 -0.0500
 2719SOL    HW119793   3.815   1.512   8.599 -0.5762 -2.8478 -1.0299
 2719SOL    HW219794   3.820   1.628   8.514  1.6090  0.4062  2.4382
 2720SOL     OW19795   3.023   4.213   4.275 -0.3503 -0.0137 -0.3277
 2720SOL    HW119796   2.940   4.224   4.229 -0.8759  2.3961  1.1712
 2720SOL    HW219797   3.066   4.276   4.218  0.7996  0.7506  1.3688
 2721SOL     OW19798   1.076   1.325   3.371  0.1840  0.3704  0.4421
 2721SOL    HW119799   1.114   1.240   3.346 -1.8135 -0.5689  0.5904
 2721SOL    HW219800   1.057   1.364   3.286 -1.6373 -1.9804 -0.2131
 2722SOL     OW19801   2.867   2.689  10.673  0.0614 -0.3185 -0.4809
 2722SOL    HW119802   2.841   2.679  10.581 -1.6269  1.2545 -0.1604
 2722SOL    HW219803   2.780   2.667  10.706 -0.5424  0.2749 -1.6879
 2723SOL     OW19804   0.966   3.089   6.877  0.2985 -0.4113  0.1916
 2723SOL    HW119805   1.023   3.159   6.910 -0.0180  0.5336 -1.2728
 2723SOL    HW219806   1.022   3.018   6.908 -0.1681 -1.9410 -2.4502
 2724SOL     OW19807   1.001   2.695   7.411  0.2728 -0.2035 -0.2824
 2724SOL    HW119808   0.971   2.607   7.434 -1.4208 -0.0322 -1.8182
 2724SOL    HW219809   0.983   2.747   7.489 -0.0442  0.0136 -0.4973
 2725SOL     OW19810   0.061   1.982  16.192  0.4744  0.3477 -0.0635
 2725SOL    HW119811   0.127   2.018  16.251  0.5728  0.2338 -0.1032
 2725SOL    HW219812   0.118   1.930  16.135  0.3711 -1.1982  1.2481
 2726SOL     OW19813   3.815   2.078  14.312 -0.1559 -0.5919 -0.1225
 2726SOL    HW119814   3.829   2.115  14.400 -0.7948 -2.3052  0.6980
 2726SOL    HW219815   3.723   2.052  14.318 -0.3713 -0.0287 -1.0439
 2727SOL     OW19816   4.580   3.225  14.542  0.3458  0.0143 -0.0703
 2727SOL    HW119817   4.561   3.151  14.484  0.2049 -1.1802  1.4798
 2727SOL    HW219818   4.591   3.289  14.472 -1.5028  1.5092  1.0026
 2728SOL     OW19819   2.871   0.814   1.761  0.6044  0.2393 -0.1640
 2728SOL    HW119820   2.934   0.745   1.784 -1.4035 -1.2764  0.7626
 2728SOL    HW219821   2.912   0.846   1.680 -1.7415  1.7130 -0.7808
 2729SOL     OW19822   4.183   0.939  12.750  0.9444 -0.0572  0.3668
 2729SOL    HW119823   4.152   1.028  12.734  0.6541  0.1017  1.8326
 2729SOL    HW219824   4.252   0.935  12.684  0.5849 -3.3782  0.1972
 2730SOL     OW19825   0.529   2.067   3.561 -0.2664  0.1794  0.0073
 2730SOL    HW119826   0.463   2.032   3.619  0.8376 -1.8191  0.0678
 2730SOL    HW219827   0.600   2.076   3.624  0.0702 -1.3588 -0.1466
 2731SOL     OW19828   4.717   2.440   1.726  0.0727  0.3263 -0.0238
 2731SOL    HW119829   4.683   2.476   1.644 -0.4953  1.0623  0.5330
 2731SOL    HW219830   0.011   2.353   1.699 -1.5899  0.3755 -2.0097
 2732SOL     OW19831   3.513   4.222   8.191 -0.1779 -0.0105 -0.1856
 2732SOL    HW119832   3.523   4.157   8.261  0.4769  1.5041  1.1260
 2732SOL    HW219833   3.555   4.298   8.230 -0.0545 -0.1844  0.0211
 2733SOL     OW19834   3.251   2.349  16.271  0.3768 -0.0085  0.2861
 2733SOL    HW119835   3.336   2.367  16.312  1.0026 -0.0954 -0.9619
 2733SOL    HW219836   3.246   2.432  16.223 -0.6800 -1.0669 -1.4282
 2734SOL     OW19837   0.736   4.601   7.268 -0.0108 -0.2165  0.1798
 2734SOL    HW119838   0.802   4.533   7.259 -0.4980 -0.7006  0.2798
 2734SOL    HW219839   0.774   4.653   7.339 -0.8782 -0.4630  0.8270
 2735SOL     OW19840   0.168   3.283  14.295  0.2321  0.0982 -0.6269
 2735SOL    HW119841   0.209   3.218  14.351 -0.8335 -0.4431 -0.4684
 2735SOL    HW219842   0.089   3.236  14.267 -0.3523 -0.8145  2.5137
 2736SOL     OW19843   3.827   1.685   9.120  0.3919  0.6522  0.1234
 2736SOL    HW119844   3.843   1.712   9.030  2.4060  0.8045  0.5307
 2736SOL    HW219845   3.915   1.653   9.141  0.5391  1.4929  0.7750
 2737SOL     OW19846   2.729   3.299   0.629  0.3649  0.7594  0.0250
 2737SOL    HW119847   2.736   3.208   0.601  1.5489  0.2059  2.1483
 2737SOL    HW219848   2.781   3.339   0.559  0.0070  0.3986 -0.4548
 2738SOL     OW19849   2.966   4.334   8.436 -0.1008  0.4064  0.2428
 2738SOL    HW119850   3.031   4.392   8.475  0.6435  0.2638 -0.7683
 2738SOL    HW219851   2.907   4.391   8.386 -0.4877 -0.8087 -0.6961
 2739SOL     OW19852   3.307   4.589   3.661  0.2525  0.2391 -0.0797
 2739SOL    HW119853   3.378   4.526   3.654 -1.0656 -0.9414 -2.9280
 2739SOL    HW219854   3.296   4.615   3.569 -0.7771 -0.8521 -0.2744
 2740SOL     OW19855   3.092   3.449   7.594 -0.2770 -0.0612  0.5660
 2740SOL    HW119856   3.057   3.475   7.508  0.3547 -0.1279  0.2883
 2740SOL    HW219857   3.078   3.354   7.594 -1.3449  0.1005  0.7646
 2741SOL     OW19858   4.167   0.368  12.328  0.0655 -0.2238  0.0017
 2741SOL    HW119859   4.119   0.363  12.245  1.1936  4.0871 -0.9554
 2741SOL    HW219860   4.097   0.396  12.387 -1.5629 -2.2396 -1.0010
 2742SOL     OW19861   4.723   0.392   0.811 -0.0808 -0.2601  0.0530
 2742SOL    HW119862   4.709   0.325   0.878 -0.8545  0.3526  0.5125
 2742SOL    HW219863   0.083   0.399   0.817 -0.0097  0.4950 -2.0751
 2743SOL     OW19864   2.561   1.320   3.442 -0.1017  0.1897 -0.5232
 2743SOL    HW119865   2.520   1.279   3.518 -3.4617  0.8089 -2.0345
 2743SOL    HW219866   2.566   1.250   3.376 -0.5095  0.7114 -1.0961
 2744SOL     OW19867   2.242   1.181  16.321  0.0694  0.0135  0.0990
 2744SOL    HW119868   2.250   1.212  16.231  1.4184 -0.5485  0.0227
 2744SOL    HW219869   2.148   1.190  16.332 -0.2464 -0.2072 -2.4668
 2745SOL     OW19870   2.326   0.783  11.475 -0.5418 -0.1857  0.1104
 2745SOL    HW119871   2.236   0.810  11.493 -1.1895  0.1200 -3.4491
 2745SOL    HW219872   2.369   0.848  11.530 -0.1203 -0.0276 -0.4068
 2746SOL     OW19873   1.838   0.070   0.859  0.1457  0.4660 -0.0259
 2746SOL    HW119874   1.766   0.121   0.821 -0.4929 -0.1417  0.3585
 2746SOL    HW219875   1.882   0.061   0.775 -0.1473 -1.3551  0.0233
 2747SOL     OW19876   0.969   2.980   4.160  0.0097  0.3938  1.0368
 2747SOL    HW119877   1.021   2.913   4.205  0.6930  0.0402 -0.2952
 2747SOL    HW219878   0.877   2.964   4.179 -0.5880  2.0624 -0.5456
 2748SOL     OW19879   4.171   4.623  12.828 -0.7284  0.0488 -0.7105
 2748SOL    HW119880   4.113   4.668  12.889 -0.1707  1.8724 -1.5175
 2748SOL    HW219881   4.219   4.559  12.880 -1.6959 -0.0312  0.0738
 2749SOL     OW19882   4.348   2.107  12.249 -0.1683 -0.0233 -0.1030
 2749SOL    HW119883   4.345   2.054  12.328 -0.2577 -1.1001 -0.8283
 2749SOL    HW219884   4.300   2.040  12.201 -0.1678  0.6540 -1.0601
 2750SOL     OW19885   3.195   3.825   1.442  0.4256 -0.5151 -0.0915
 2750SOL    HW119886   3.253   3.779   1.504 -0.4157  3.1886  3.4117
 2750SOL    HW219887   3.112   3.780   1.457 -0.0876 -0.0772 -1.6711
 2751SOL     OW19888   4.148   3.163   1.657 -0.1003  0.3139 -0.2153
 2751SOL    HW119889   4.059   3.131   1.640  0.7546 -1.9624 -0.3902
 2751SOL    HW219890   4.145   3.146   1.751  1.0557  1.0855 -0.0411
 2752SOL     OW19891   0.923   2.277   5.476 -0.2087  0.2811 -0.0336
 2752SOL    HW119892   0.828   2.271   5.488 -0.5298 -0.0137 -2.7198
 2752SOL    HW219893   0.939   2.300   5.385 -3.5681  0.9696 -0.4391
 2753SOL     OW19894   3.947   3.508   4.957  0.0294  0.4666  0.2241
 2753SOL    HW119895   3.955   3.601   4.935  1.2826  0.3710  0.2599
 2753SOL    HW219896   4.028   3.495   5.006 -2.2406 -2.2987  3.2149
 2754SOL     OW19897   3.714   4.507   5.454  0.3310 -0.3018  0.2919
 2754SOL    HW119898   3.731   4.597   5.426 -2.4257  0.0041 -0.3855
 2754SOL    HW219899   3.705   4.466   5.368  2.3467  1.5705 -0.8279
 2755SOL     OW19900   3.673   1.884  11.006 -0.0137 -0.6837 -0.2592
 2755SOL    HW119901   3.750   1.940  11.006 -1.5320  1.3904 -0.5767
 2755SOL    HW219902   3.699   1.801  11.046 -2.2173 -1.1343  0.2290
 2756SOL     OW19903   0.304   0.225   7.029  0.1984 -0.0342 -0.3740
 2756SOL    HW119904   0.301   0.163   7.101  0.0937  1.6090  1.0179
 2756SOL    HW219905   0.278   0.308   7.069  2.0981  0.9479 -1.1954
 2757SOL     OW19906   1.454   2.935   5.418  0.6270  0.5132 -0.4313
 2757SOL    HW119907   1.419   2.858   5.374 -1.0280  0.3787  1.1442
 2757SOL    HW219908   1.543   2.919   5.385  0.7377  1.3323 -0.5522
 2758SOL     OW19909   1.054   2.020   3.279 -0.1980  0.4350 -0.0674
 2758SOL    HW119910   1.106   2.100   3.281  0.2828  0.0815  2.0378
 2758SOL    HW219911   1.050   1.989   3.370  0.5914  0.7610  0.0797
 2759SOL     OW19912   4.032   0.064   2.648 -0.2360  0.2966  0.3713
 2759SOL    HW119913   4.000   0.124   2.580  1.8454  1.4095  0.3378
 2759SOL    HW219914   4.125   0.083   2.630 -0.5502  1.3379 -0.1648
 2760SOL     OW19915   1.766   1.138   5.979 -0.1338  0.5534 -0.2889
 2760SOL    HW119916   1.838   1.198   6.000  0.6459  0.2688 -2.2065
 2760SOL    HW219917   1.694   1.179   6.027  1.1188  0.8740  1.3396
 2761SOL     OW19918   1.579   2.515   3.437  0.3655 -0.8866 -0.1087
 2761SOL    HW119919   1.614   2.459   3.367 -0.8492  0.3315 -1.7131
 2761SOL    HW219920   1.653   2.572   3.457 -0.0924 -0.4463  0.3307
 2762SOL     OW19921   4.477   3.896   4.320 -1.2460 -0.5055  0.1605
 2762SOL    HW119922   4.524   3.816   4.346 -0.3260 -0.3586 -1.0424
 2762SOL    HW219923   4.515   3.915   4.234 -1.3190  3.6925  1.0627
 2763SOL     OW19924   4.004   1.058   9.898  0.6717 -0.3581 -0.0748
 2763SOL    HW119925   4.009   1.151   9.916 -1.3892 -0.5588  1.4606
 2763SOL    HW219926   3.984   1.025   9.986  2.2081  1.7277  1.0386
 2764SOL     OW19927   1.352   1.807   9.036  0.2677 -0.5333  0.9187
 2764SOL    HW119928   1.389   1.799   9.124 -0.6339 -1.7282  1.1900
 2764SOL    HW219929   1.258   1.813   9.053  0.7639  2.9446  2.4054
 2765SOL     OW19930   0.654   1.458   1.612 -0.0848  0.5171 -0.6751
 2765SOL    HW119931   0.645   1.554   1.617 -0.1473  0.4643  0.2277
 2765SOL    HW219932   0.597   1.423   1.680  1.2537 -0.4637 -0.0648
 2766SOL     OW19933   1.802   4.483   2.365  0.4296 -0.1519  0.7122
 2766SOL    HW119934   1.765   4.425   2.432  3.9119 -0.4801  2.3514
 2766SOL    HW219935   1.892   4.450   2.359  1.0969  1.5555  1.4884
 2767SOL     OW19936   1.000   4.609   5.423  0.2896 -0.2062  0.6501
 2767SOL    HW119937   1.026   4.608   5.515 -0.7132 -0.5023  0.9279
 2767SOL    HW219938   0.982   4.517   5.405  1.5303 -0.3756  0.2760
 2768SOL     OW19939   1.032   1.898   4.580  0.0225  0.2582  0.4000
 2768SOL    HW119940   0.950   1.884   4.628 -0.2485  0.9836  0.1419
 2768SOL    HW219941   1.016   1.950   4.501  0.0534 -0.2497  0.0598
 2769SOL     OW19942   0.040   4.284   5.981  0.0880  0.4581  0.5698
 2769SOL    HW119943   0.063   4.246   6.065 -0.5605  0.3592  0.7024
 2769SOL    HW219944   4.703   4.339   6.012  0.6879  1.0791  0.8631
 2770SOL     OW19945   1.863   2.721   4.065  0.1684 -0.7810  0.4618
 2770SOL    HW119946   1.841   2.805   4.105 -0.0451 -2.6654  4.3497
 2770SOL    HW219947   1.876   2.747   3.974  1.5125 -0.6108  0.7052
 2771SOL     OW19948   2.763   2.070   3.494 -0.1067 -0.1714 -0.3567
 2771SOL    HW119949   2.713   2.151   3.500  2.0183  1.0840  0.5424
 2771SOL    HW219950   2.697   2.034   3.553  0.9147  0.2215  1.0331
 2772SOL     OW19951   2.507   0.504   0.449  0.4034 -0.6118  0.5477
 2772SOL    HW119952   2.517   0.541   0.361 -0.1934 -2.0901 -0.1388
 2772SOL    HW219953   2.572   0.434   0.442  1.6210  0.3802  1.8624
 2773SOL     OW19954   4.553   2.101  16.057 -0.7991 -0.5151 -0.2869
 2773SOL    HW119955   4.589   2.074  15.972  0.1210  0.4591 -0.2063
 2773SOL    HW219956   4.628   2.076  16.111 -0.4467  0.2425 -0.4303
 2774SOL     OW19957   0.709   4.183   4.151 -0.2255 -0.2373  0.3183
 2774SOL    HW119958   0.628   4.170   4.201  0.3481 -1.8034  0.8335
 2774SOL    HW219959   0.696   4.247   4.081  0.0611  0.9843  1.3952
 2775SOL     OW19960   1.500   4.351   7.353  0.7315  0.0055  0.1610
 2775SOL    HW119961   1.414   4.359   7.311  0.5710  1.6697  0.8492
 2775SOL    HW219962   1.553   4.368   7.275 -1.5782  0.7583 -1.2598
 2776SOL     OW19963   4.292   2.233   1.069 -0.5444 -0.0738 -0.0521
 2776SOL    HW119964   4.280   2.144   1.101  0.4220 -1.4007 -3.3869
 2776SOL    HW219965   4.243   2.232   0.987 -2.3470  0.5882  1.0244
 2777SOL     OW19966   3.481   1.019   8.770  0.2364 -0.1474 -0.0776
 2777SOL    HW119967   3.433   1.055   8.845  1.7464  0.2522  0.6892
 2777SOL    HW219968   3.411   0.981   8.718  1.3612 -1.8251 -0.3281
 2778SOL     OW19969   2.348   3.240   2.523 -0.2776 -0.5269 -0.0880
 2778SOL    HW119970   2.352   3.321   2.472  1.2975 -0.9643 -0.6381
 2778SOL    HW219971   2.421   3.264   2.580 -1.1612 -0.5786  1.0625
 2779SOL     OW19972   2.296   0.722   3.997 -0.1530 -0.1137  0.3411
 2779SOL    HW119973   2.237   0.663   3.949  1.0347 -0.6817 -0.4165
 2779SOL    HW219974   2.230   0.781   4.034 -1.9715 -1.1221 -1.2478
 2780SOL     OW19975   2.249   3.765   8.563 -0.2719  0.8440 -0.6769
 2780SOL    HW119976   2.179   3.794   8.620  0.1367  0.5826 -0.0471
 2780SOL    HW219977   2.238   3.835   8.498 -1.4758  1.7487  0.5175
 2781SOL     OW19978   1.680   3.200   4.091 -0.0920  0.8238  0.5064
 2781SOL    HW119979   1.597   3.244   4.111  0.5564  2.7522 -0.9584
 2781SOL    HW219980   1.718   3.269   4.036  0.0100  0.2435 -0.1426
 2782SOL     OW19981   1.267   3.875   2.737  0.5230  0.5583 -0.4568
 2782SOL    HW119982   1.190   3.913   2.693 -0.3320 -0.6402 -0.0062
 2782SOL    HW219983   1.271   3.785   2.704 -0.8097  0.9809 -1.7654
 2783SOL     OW19984   1.540   1.664  16.713 -0.2693  0.7092  0.2621
 2783SOL    HW119985   1.461   1.610  16.717 -0.6503  1.0297 -3.4864
 2783SOL    HW219986   1.497   1.747  16.692  0.7311  0.8431 -1.2192
 2784SOL     OW19987   2.668   0.482   1.991  1.0680  0.0699 -0.2916
 2784SOL    HW119988   2.655   0.527   2.075  2.4830  0.0646 -0.0611
 2784SOL    HW219989   2.654   0.556   1.932  3.0385  0.4265 -0.3218
 2785SOL     OW19990   3.476   0.114  13.855 -0.4165  0.0235  0.3699
 2785SOL    HW119991   3.534   0.115  13.931 -1.2723  0.4156  1.0153
 2785SOL    HW219992   3.536   0.085  13.786  0.9520 -0.2237  1.6635
 2786SOL     OW19993   3.931   3.229   3.333 -0.0949 -0.1181 -0.7193
 2786SOL    HW119994   3.908   3.146   3.290  0.6556 -1.5366  1.6048
 2786SOL    HW219995   3.888   3.289   3.271 -0.2300  1.6796  1.1473
 2787SOL     OW19996   4.307   0.541  17.662 -0.2716 -0.0250 -0.4123
 2787SOL    HW119997   4.394   0.526  17.623 -0.9040 -1.2076 -1.3924
 2787SOL    HW219998   4.290   0.459  17.709  0.0239  1.5550  2.4551
 2788SOL     OW19999   3.602   1.780   7.181  0.4623 -0.0493 -0.7632
 2788SOL    HW120000   3.611   1.874   7.174 -2.8487  0.2500 -1.1411
 2788SOL    HW220001   3.624   1.764   7.273  0.6714  0.5558 -0.7129
 2789SOL     OW20002   1.078   0.543   8.895 -0.1913 -0.0601 -0.5459
 2789SOL    HW120003   1.004   0.559   8.836 -1.7175 -0.0221  1.3659
 2789SOL    HW220004   1.031   0.513   8.974 -2.2398  0.9855 -1.3732
 2790SOL     OW20005   4.226   3.608   1.728  0.2862 -0.0202  0.0790
 2790SOL    HW120006   4.276   3.529   1.710  2.6460  1.2014  1.3337
 2790SOL    HW220007   4.197   3.617   1.637  1.8793  1.0660 -0.3283
 2791SOL     OW20008   2.163   2.694   1.707  0.1331 -0.5209 -0.6884
 2791SOL    HW120009   2.216   2.616   1.725 -0.0119 -0.5278 -0.2917
 2791SOL    HW220010   2.170   2.735   1.794 -0.7404 -1.0409 -0.3703
 2792SOL     OW20011   0.005   3.487   3.461  0.3456 -0.1655  0.0345
 2792SOL    HW120012   4.700   3.565   3.501  0.2613 -0.4740  0.5499
 2792SOL    HW220013   4.717   3.503   3.370 -1.0322  0.2163  0.4528
 2793SOL     OW20014   4.478   1.803  10.357 -0.1530 -0.2443 -0.4036
 2793SOL    HW120015   4.548   1.842  10.305 -0.6366 -0.2960 -1.0901
 2793SOL    HW220016   4.535   1.773  10.427 -0.3450 -1.0601 -0.5911
 2794SOL     OW20017   2.375   4.110  11.801  0.0451  0.2262 -0.2054
 2794SOL    HW120018   2.452   4.057  11.821 -1.5015 -1.1176  2.2488
 2794SOL    HW220019   2.320   4.052  11.747  2.2899 -0.3892 -1.8199
 2795SOL     OW20020   2.435   1.544   3.538 -0.2262 -0.3369 -0.5871
 2795SOL    HW120021   2.400   1.582   3.458  1.0885 -0.0495 -1.0196
 2795SOL    HW220022   2.498   1.484   3.500  0.7184  1.4257 -1.8062
 2796SOL     OW20023   2.133   2.954   7.218 -0.0844  0.1584  0.5509
 2796SOL    HW120024   2.142   2.993   7.131  2.9826 -3.2233 -0.6265
 2796SOL    HW220025   2.106   3.028   7.272  1.1629 -0.0641  1.4828
 2797SOL     OW20026   0.844   0.385  11.730 -0.6344  0.2226  0.0384
 2797SOL    HW120027   0.939   0.393  11.717 -0.8062 -2.4252 -2.8431
 2797SOL    HW220028   0.823   0.477  11.713  1.5062  1.1762  2.5891
 2798SOL     OW20029   0.149   3.136   5.111  0.3126 -0.0852 -0.6694
 2798SOL    HW120030   0.199   3.181   5.178  2.1894  0.9023 -2.7237
 2798SOL    HW220031   0.195   3.053   5.102 -1.1238 -0.7234 -2.2970
 2799SOL     OW20032   3.618   1.967   6.692  0.1455  0.2638 -0.0669
 2799SOL    HW120033   3.570   2.048   6.711  1.1772  1.0669 -0.8588
 2799SOL    HW220034   3.575   1.901   6.746  0.3021  2.5874  2.8582
 2800SOL     OW20035   1.163   0.910   2.432  0.3157  0.1233 -0.0024
 2800SOL    HW120036   1.101   0.934   2.501  0.5130  1.3332 -0.2492
 2800SOL    HW220037   1.155   0.992   2.383  0.1302  0.1531  0.0782
 2801SOL     OW20038   1.147   1.368   5.828 -0.7321  0.1620  0.8244
 2801SOL    HW120039   1.197   1.288   5.845 -0.6393  0.3406  1.3875
 2801SOL    HW220040   1.196   1.431   5.880 -2.2345  1.2379  0.9198
 2802SOL     OW20041   1.845   4.525   6.937 -0.4549 -0.0752  0.1328
 2802SOL    HW120042   1.930   4.494   6.968 -0.0848  0.7516 -0.0828
 2802SOL    HW220043   1.802   4.561   7.015 -2.6149  0.5991 -1.3817
 2803SOL     OW20044   4.589   3.549   4.063 -0.8246  0.3098  0.2354
 2803SOL    HW120045   4.590   3.482   3.995  0.9037  0.2967  0.2639
 2803SOL    HW220046   4.495   3.567   4.063 -0.9773 -0.5240  1.5460
 2804SOL     OW20047   3.074   1.082  15.073 -0.1895  0.1715 -0.2341
 2804SOL    HW120048   3.018   1.023  15.123  1.7435 -0.7152  0.9193
 2804SOL    HW220049   3.019   1.158  15.056  2.5926  2.0565 -0.7388
 2805SOL     OW20050   2.621   4.001   5.932 -0.0249  0.4983 -0.7236
 2805SOL    HW120051   2.594   3.909   5.925 -1.7509  0.9419  0.2382
 2805SOL    HW220052   2.641   4.008   6.025 -0.9808  0.7385 -0.5404
 2806SOL     OW20053   2.023   1.232  16.001 -0.0147 -0.7060 -0.3510
 2806SOL    HW120054   2.010   1.319  16.039 -1.0960 -0.6727 -0.7896
 2806SOL    HW220055   1.936   1.192  15.999  0.8352 -2.6660  2.3082
 2807SOL     OW20056   0.228   2.077   4.891  0.1381 -0.5604  0.3053
 2807SOL    HW120057   0.235   1.983   4.874 -0.3673 -1.1597  3.4065
 2807SOL    HW220058   0.176   2.088   4.971  0.7599  2.6204  0.2657
 2808SOL     OW20059   3.435   4.523   9.303  0.1493 -0.2541 -0.2580
 2808SOL    HW120060   3.448   4.492   9.393  1.4568 -0.5688 -0.5595
 2808SOL    HW220061   3.498   4.594   9.296  1.1486 -1.0299  0.9224
 2809SOL     OW20062   3.060   3.746   5.707 -0.0769  0.4343 -0.5451
 2809SOL    HW120063   3.002   3.808   5.751 -0.9481  0.3926 -1.6122
 2809SOL    HW220064   3.136   3.776   5.757 -0.8259 -2.1640  2.1300
 2810SOL     OW20065   3.282   0.260   6.885  0.6981 -0.5596  0.3494
 2810SOL    HW120066   3.242   0.217   6.961  0.7642 -0.9058  0.1861
 2810SOL    HW220067   3.192   0.272   6.855  1.7835 -2.0470 -3.4728
 2811SOL     OW20068   2.836   0.352   8.395 -0.1131 -0.1018 -0.5279
 2811SOL    HW120069   2.888   0.317   8.467 -3.0973 -0.7426  1.3025
 2811SOL    HW220070   2.832   0.445   8.413 -3.1075 -0.4816  0.7933
 2812SOL     OW20071   1.723   3.958  14.711 -0.2832  0.3997 -0.1299
 2812SOL    HW120072   1.647   3.944  14.655  0.5269 -0.8590 -0.9158
 2812SOL    HW220073   1.762   3.871  14.717 -3.5674 -1.0943 -0.7083
 2813SOL     OW20074   4.521   4.453  11.740  0.5374 -0.1440  0.0599
 2813SOL    HW120075   4.597   4.483  11.790  0.7986 -0.3889 -0.1924
 2813SOL    HW220076   4.531   4.491  11.653  1.3132 -0.5140 -0.0149
 2814SOL     OW20077   4.616   1.598   5.852 -0.1008  0.1320 -0.1204
 2814SOL    HW120078   4.647   1.569   5.938 -0.5449 -0.5615 -0.1898
 2814SOL    HW220079   4.672   1.668   5.820  0.8426 -1.4620 -1.9282
 2815SOL     OW20080   2.930   2.472  11.482 -0.2758  0.1290 -0.0886
 2815SOL    HW120081   2.846   2.512  11.457 -0.2448  1.9209  2.7173
 2815SOL    HW220082   2.954   2.508  11.566 -0.4062 -0.8680  0.3792
 2816SOL     OW20083   2.581   2.629   6.765 -0.4189 -0.2630  0.4304
 2816SOL    HW120084   2.512   2.682   6.804 -1.1791 -1.2447  0.4420
 2816SOL    HW220085   2.659   2.674   6.798  0.3571 -2.3045  1.4393
 2817SOL     OW20086   2.289   4.457   8.625 -0.4071  0.3823  0.1016
 2817SOL    HW120087   2.248   4.374   8.649 -0.7079  1.0151  1.8010
 2817SOL    HW220088   2.275   4.501   8.709 -0.2435 -0.0712  0.3633
 2818SOL     OW20089   0.453   0.087   3.363  0.1397  0.7754  0.0547
 2818SOL    HW120090   0.502   0.168   3.381 -0.5884  1.1610  0.2860
 2818SOL    HW220091   0.365   0.120   3.376 -0.0610 -0.2969  1.4023
 2819SOL     OW20092   2.771   3.173   5.628 -0.4389  0.1044 -0.5230
 2819SOL    HW120093   2.853   3.221   5.631 -0.6141  0.4443 -1.1537
 2819SOL    HW220094   2.739   3.181   5.718  1.9416 -0.4316  0.3559
 2820SOL     OW20095   3.902   3.666  16.269 -0.5449  0.1349  0.1297
 2820SOL    HW120096   3.875   3.663  16.360 -0.7524 -0.8154  0.0315
 2820SOL    HW220097   3.884   3.581  16.229 -1.1846 -0.1112  0.9583
 2821SOL     OW20098   0.435   1.199   3.648 -0.5492  0.0240 -0.3318
 2821SOL    HW120099   0.411   1.118   3.604 -1.1127  0.8762 -1.5766
 2821SOL    HW220100   0.358   1.222   3.699 -1.3686 -3.9959  0.2593
 2822SOL     OW20101   3.239   0.714  10.501 -0.3419  0.4729 -0.0510
 2822SOL    HW120102   3.177   0.679  10.565 -2.2578 -0.3365 -2.3560
 2822SOL    HW220103   3.238   0.651  10.429  1.3038  0.4674 -0.0667
 2823SOL     OW20104   1.220   1.623   7.450 -0.1044 -0.2644 -0.0868
 2823SOL    HW120105   1.152   1.628   7.383  0.3285  0.3078 -0.4819
 2823SOL    HW220106   1.291   1.671   7.407  0.3888 -1.0747 -0.1653
 2824SOL     OW20107   2.783   2.250   5.647 -0.3324 -0.2060  0.1309
 2824SOL    HW120108   2.721   2.264   5.575  0.9433  3.1972 -0.3011
 2824SOL    HW220109   2.749   2.168   5.684  0.2314 -0.3303  0.3743
 2825SOL     OW20110   1.061   3.628   1.803  0.9081  0.3155  0.1132
 2825SOL    HW120111   1.044   3.715   1.767 -2.5614 -0.1937  0.5184
 2825SOL    HW220112   1.076   3.579   1.722  0.7123 -0.1108  0.3285
 2826SOL     OW20113   0.349   0.554   3.302  0.0368 -0.0593  0.2883
 2826SOL    HW120114   0.283   0.609   3.259 -0.5740  0.7812  2.2886
 2826SOL    HW220115   0.414   0.624   3.317  0.5446 -0.5624  0.4600
 2827SOL     OW20116   4.102   4.483   4.373 -0.3948  0.1305 -0.2637
 2827SOL    HW120117   4.064   4.456   4.456 -2.5518 -0.0574 -1.3058
 2827SOL    HW220118   4.047   4.426   4.319 -1.7824  0.7328  0.5081
 2828SOL     OW20119   1.880   2.260   3.921 -0.5838  0.1542  0.2202
 2828SOL    HW120120   1.937   2.191   3.886 -0.3829  0.9395 -1.0227
 2828SOL    HW220121   1.935   2.324   3.967 -1.7242  0.2969  1.3989
 2829SOL     OW20122   4.559   2.732   7.945  0.2702 -0.1955  0.2604
 2829SOL    HW120123   4.519   2.684   8.017 -1.7070  0.3555 -0.4533
 2829SOL    HW220124   4.638   2.763   7.988  0.5706 -0.4730 -0.0936
 2830SOL     OW20125   0.323   1.809   6.783 -0.0018  0.0590 -0.3593
 2830SOL    HW120126   0.401   1.781   6.831  0.5239  1.7568 -0.2165
 2830SOL    HW220127   0.248   1.791   6.840 -0.4006  3.7113  0.2417
 2831SOL     OW20128   1.187   4.688   9.013 -0.2719 -0.6412 -0.1344
 2831SOL    HW120129   1.221   4.638   9.087  3.0008 -2.7419 -3.0443
 2831SOL    HW220130   1.098   4.653   9.014 -1.7494  3.0990  0.2590
 2832SOL     OW20131   0.548   0.891   3.716 -0.8071  0.1566 -0.1386
 2832SOL    HW120132   0.579   0.842   3.640  0.0659 -0.2256  0.4768
 2832SOL    HW220133   0.621   0.952   3.721  0.7960 -1.7238 -0.7480
 2833SOL     OW20134   0.396   0.861   0.122 -0.5961  0.4067 -0.2236
 2833SOL    HW120135   0.429   0.772   0.134 -2.6344 -0.1814  0.9444
 2833SOL    HW220136   0.348   0.845   0.041  1.7084 -1.8382 -1.1671
 2834SOL     OW20137   2.661   4.627  16.285 -0.2149 -0.1165  0.1001
 2834SOL    HW120138   2.733   4.638  16.347 -0.5418  0.0023  0.4669
 2834SOL    HW220139   2.699   4.583  16.210  0.3495  1.0956 -0.3345
 2835SOL     OW20140   0.494   3.281  10.348 -0.0471  0.1578 -1.2993
 2835SOL    HW120141   0.412   3.239  10.370  1.6621 -1.8626  1.2261
 2835SOL    HW220142   0.492   3.295  10.254 -0.8640  2.3116 -0.9567
 2836SOL     OW20143   1.071   4.602   2.770 -0.2517 -0.1861  0.3507
 2836SOL    HW120144   1.044   4.572   2.683  0.3384 -1.3591  0.5718
 2836SOL    HW220145   1.097   4.520   2.811  1.5837  0.8666  1.2420
 2837SOL     OW20146   2.771   2.551   5.831  0.1541  1.0206  0.4111
 2837SOL    HW120147   2.763   2.619   5.764  0.1771 -0.4973 -1.1151
 2837SOL    HW220148   2.833   2.487   5.797  0.3683  1.8671 -0.8065
 2838SOL     OW20149   0.462   3.101   1.844  0.2415 -0.1342 -0.0441
 2838SOL    HW120150   0.541   3.156   1.841  1.2336 -1.4221  2.2492
 2838SOL    HW220151   0.497   3.028   1.896  1.5669 -0.4382 -1.3384
 2839SOL     OW20152   0.723   0.234   4.345  0.4034 -0.2525 -0.2503
 2839SOL    HW120153   0.659   0.243   4.417 -0.9136 -3.4626 -1.0463
 2839SOL    HW220154   0.772   0.315   4.355  3.3067 -2.2486  1.6709
 2840SOL     OW20155   4.169   3.825   9.692  0.3547 -0.0158  0.3591
 2840SOL    HW120156   4.238   3.759   9.680  0.3895  0.1951 -0.5769
 2840SOL    HW220157   4.097   3.778   9.650 -0.9543 -0.3228  2.9570
 2841SOL     OW20158   3.186   3.048  15.290  0.2013  0.3523 -0.0370
 2841SOL    HW120159   3.203   2.988  15.363  1.8232  0.3145 -0.4491
 2841SOL    HW220160   3.243   3.013  15.222 -0.8306 -1.1231 -0.1450
 2842SOL     OW20161   1.323   3.332   5.706 -0.2828  0.6666 -0.3775
 2842SOL    HW120162   1.360   3.417   5.682  0.4349 -0.1488 -2.1212
 2842SOL    HW220163   1.336   3.290   5.621 -1.6524 -0.3283 -0.0915
 2843SOL     OW20164   2.415   2.205   7.668  0.2412  0.8926  0.5464
 2843SOL    HW120165   2.436   2.234   7.757 -0.3111  2.7100  0.0718
 2843SOL    HW220166   2.328   2.234   7.643 -0.7446 -1.3561  1.3698
 2844SOL     OW20167   2.942   2.244   2.913  0.3665  0.4234  0.0408
 2844SOL    HW120168   3.030   2.272   2.937  0.0774 -1.5219  3.2952
 2844SOL    HW220169   2.955   2.156   2.879  1.0361  0.2687  0.6872
 2845SOL     OW20170   4.129   1.200   7.733 -0.2716 -0.0965  0.0999
 2845SOL    HW120171   4.211   1.249   7.721  2.4980 -4.1961  2.4077
 2845SOL    HW220172   4.125   1.148   7.653  1.5544 -0.0554 -0.0080
 2846SOL     OW20173   2.741   2.051   3.795  0.0908  0.2223  0.1572
 2846SOL    HW120174   2.697   1.993   3.857  0.3330 -1.3344 -1.1405
 2846SOL    HW220175   2.814   2.088   3.846  0.0112 -0.0491  0.4679
 2847SOL     OW20176   0.307   4.094   7.497 -0.0640 -0.3362  0.3570
 2847SOL    HW120177   0.380   4.119   7.441  2.1138 -1.6288  2.6012
 2847SOL    HW220178   0.292   4.003   7.471 -1.0488 -0.3644  1.0330
 2848SOL     OW20179   4.198   1.225  17.321 -0.3456  0.7540  0.7707
 2848SOL    HW120180   4.222   1.238  17.229  0.7354 -0.7854  0.8318
 2848SOL    HW220181   4.198   1.131  17.338  0.7147  1.1769  3.1115
 2849SOL     OW20182   0.216   0.187   2.219  0.1897 -0.1655  0.2946
 2849SOL    HW120183   0.294   0.134   2.206 -1.6228 -2.9912  0.9646
 2849SOL    HW220184   0.144   0.125   2.209  0.0688  0.5489 -3.2922
 2850SOL     OW20185   0.741   1.292   1.376  0.1536 -0.3550 -0.5979
 2850SOL    HW120186   0.759   1.350   1.302  0.1503 -0.6436 -0.8250
 2850SOL    HW220187   0.734   1.364   1.439  2.4412 -0.8101  0.1903
 2851SOL     OW20188   0.972   2.218   2.535  0.6280 -0.6300  0.1748
 2851SOL    HW120189   0.932   2.305   2.546  0.5950 -0.5386 -0.6443
 2851SOL    HW220190   0.902   2.158   2.509 -0.0930 -0.0197  0.7089
 2852SOL     OW20191   3.973   0.153   6.540 -0.5631  0.0960  0.2893
 2852SOL    HW120192   4.051   0.180   6.492 -1.4265  1.7603 -0.2233
 2852SOL    HW220193   3.980   0.058   6.542 -1.5647 -0.0009 -0.2970
 2853SOL     OW20194   1.742   2.907  10.256 -0.0413  0.3709 -0.1097
 2853SOL    HW120195   1.824   2.892  10.210  0.7397  0.4773  1.2544
 2853SOL    HW220196   1.677   2.919  10.186  1.1759  1.3240 -1.0828
 2854SOL     OW20197   1.362   2.278   7.591 -0.5436 -0.1279 -0.1267
 2854SOL    HW120198   1.455   2.296   7.601 -0.3601 -1.1734 -0.0349
 2854SOL    HW220199   1.338   2.355   7.539  2.5620  0.1302 -1.1360
 2855SOL     OW20200   2.129   4.625   3.901 -0.1238 -0.7098  0.3626
 2855SOL    HW120201   2.073   4.701   3.887 -0.2722 -0.7659  0.6590
 2855SOL    HW220202   2.087   4.562   3.841 -1.3051  1.3260 -0.9630
 2856SOL     OW20203   0.182   2.160   5.726 -0.4549 -0.4440  0.7747
 2856SOL    HW120204   0.252   2.095   5.734  0.3295  0.4097  0.8676
 2856SOL    HW220205   0.131   2.127   5.652  0.3418  3.8113 -1.6969
 2857SOL     OW20206   2.829   1.876  10.481 -0.0836  0.2369  0.1424
 2857SOL    HW120207   2.866   1.922  10.557  2.2093 -0.7159 -0.4077
 2857SOL    HW220208   2.907   1.828  10.454 -0.2327 -1.3047  2.3283
 2858SOL     OW20209   4.397   4.192  16.044  0.0851 -0.2955  0.5986
 2858SOL    HW120210   4.335   4.191  15.971 -0.2577  0.1255  0.8817
 2858SOL    HW220211   4.377   4.104  16.077  1.6841 -0.7385  0.3600
 2859SOL     OW20212   0.777   2.520  16.815 -0.3633  0.0493  0.4442
 2859SOL    HW120213   0.866   2.544  16.840 -0.4523  0.7782  0.0496
 2859SOL    HW220214   0.760   2.549  16.725  0.4113 -0.2485  0.2046
 2860SOL     OW20215   1.399   0.535   8.092  0.1762  0.2856  0.3769
 2860SOL    HW120216   1.376   0.498   8.178 -1.4109 -0.2353 -0.2718
 2860SOL    HW220217   1.314   0.535   8.047 -0.8626 -2.6154  2.3369
 2861SOL     OW20218   0.179   0.778   6.036 -0.2583 -0.8706  0.3384
 2861SOL    HW120219   0.107   0.726   6.001 -1.1370  0.9284 -0.5316
 2861SOL    HW220220   0.206   0.823   5.956 -0.5168  2.5893  2.1912
 2862SOL     OW20221   2.733   4.025   1.015 -0.0096 -0.4957  0.3081
 2862SOL    HW120222   2.780   4.009   1.097 -1.2180 -0.5054  1.0090
 2862SOL    HW220223   2.657   4.075   1.044 -0.1186 -0.9225  0.7595
 2863SOL     OW20224   0.941   2.019   7.728  0.7434  0.0862  0.0512
 2863SOL    HW120225   0.952   1.936   7.680  0.9597  0.0299  0.2029
 2863SOL    HW220226   1.029   2.055   7.721  0.7676  0.3409  1.8570
 2864SOL     OW20227   0.452   2.533  11.906 -0.0939  0.8229 -0.0091
 2864SOL    HW120228   0.410   2.506  11.825  0.6118  0.8131 -0.3650
 2864SOL    HW220229   0.522   2.588  11.870  1.8695 -1.1862  0.7345
 2865SOL     OW20230   1.643   3.729   7.883 -0.4826 -0.6025 -1.0056
 2865SOL    HW120231   1.582   3.802   7.897 -0.5296 -0.9925  0.8688
 2865SOL    HW220232   1.603   3.660   7.936 -0.0457  0.1080  0.2717
 2866SOL     OW20233   1.720   3.470   9.075  0.1738 -0.1830 -0.0230
 2866SOL    HW120234   1.625   3.461   9.084  0.2623  0.0281  1.0539
 2866SOL    HW220235   1.741   3.560   9.050 -1.5691  0.3997  0.6227
 2867SOL     OW20236   0.638   4.515   0.049 -0.7263  0.0974  0.4289
 2867SOL    HW120237   0.603   4.519  17.700 -0.1624 -2.9095  0.0843
 2867SOL    HW220238   0.628   4.606   0.077  3.0015  0.7900 -0.5636
 2868SOL     OW20239   4.733   2.667   2.275  0.0281  0.4527 -0.1833
 2868SOL    HW120240   0.051   2.720   2.335 -0.7080 -1.6228  2.3234
 2868SOL    HW220241   0.047   2.684   2.195  1.4700 -1.2611  0.3330
 2869SOL     OW20242   1.341   2.245  12.499 -0.5637 -0.7212  0.6907
 2869SOL    HW120243   1.302   2.255  12.586 -2.6754 -1.1105 -0.2098
 2869SOL    HW220244   1.266   2.245  12.440  0.3858  0.0007 -0.5010
 2870SOL     OW20245   4.517   0.799  10.561  0.0225 -0.0556  0.6175
 2870SOL    HW120246   4.563   0.872  10.603  0.5761 -1.0663  1.7707
 2870SOL    HW220247   4.539   0.727  10.619 -0.7843  1.3623  2.6559
 2871SOL     OW20248   4.180   1.256   4.097 -0.7094 -0.5540  0.0699
 2871SOL    HW120249   4.233   1.335   4.082 -0.4127 -0.4260  1.7884
 2871SOL    HW220250   4.093   1.287   4.073 -0.5052 -0.5358 -0.6496
 2872SOL     OW20251   0.657   2.816   5.434 -0.3598 -0.1486 -0.5862
 2872SOL    HW120252   0.721   2.753   5.404  0.5266  0.2306  0.4992
 2872SOL    HW220253   0.603   2.761   5.491 -1.3143  0.5090 -0.8416
 2873SOL     OW20254   4.072   1.945   2.142 -0.3703  0.2021 -0.7154
 2873SOL    HW120255   4.008   1.981   2.203  1.2252  0.9804  0.5053
 2873SOL    HW220256   4.025   1.930   2.060 -1.2891  0.3504 -0.2107
 2874SOL     OW20257   0.092   3.754   4.497  0.4481 -0.0943 -0.1414
 2874SOL    HW120258   0.058   3.834   4.539 -1.3005 -1.1685  0.4772
 2874SOL    HW220259   0.016   3.734   4.443  0.4342 -0.5902  0.0592
 2875SOL     OW20260   1.021   1.022   1.995  0.4679  0.4820 -0.5389
 2875SOL    HW120261   1.047   1.112   1.978 -0.3223  0.9450  0.6895
 2875SOL    HW220262   1.111   0.988   2.000  0.0859 -0.4578  0.1222
 2876SOL     OW20263   2.368   0.365   2.776  0.1050 -0.0684 -0.4546
 2876SOL    HW120264   2.280   0.377   2.811  0.7516  0.8929  0.8457
 2876SOL    HW220265   2.416   0.401   2.850  0.1682  0.8045 -0.9223
 2877SOL     OW20266   2.489   2.206   1.083 -0.2803 -0.0987 -0.3538
 2877SOL    HW120267   2.532   2.148   1.020  0.7766  2.0952 -1.6761
 2877SOL    HW220268   2.512   2.168   1.168 -0.4058 -2.4217 -1.3576
 2878SOL     OW20269   1.243   0.127   8.193  0.1193 -0.2090 -0.1516
 2878SOL    HW120270   1.187   0.081   8.256  0.5496  2.5065  2.2556
 2878SOL    HW220271   1.323   0.074   8.200  0.8995  0.7613 -1.6695
 2879SOL     OW20272   3.328   1.341   5.198 -0.7368  0.4263 -0.4756
 2879SOL    HW120273   3.273   1.264   5.182  1.9626 -1.5316 -0.1983
 2879SOL    HW220274   3.328   1.350   5.293  0.3356  1.5315 -0.5842
 2880SOL     OW20275   3.282   0.362   2.787  0.5270  0.1673  0.7706
 2880SOL    HW120276   3.276   0.457   2.781 -0.7436 -0.1457 -2.7631
 2880SOL    HW220277   3.209   0.330   2.733  2.6408 -1.0693 -1.3544
 2881SOL     OW20278   2.192   2.603   7.794  0.2449  0.2630  0.0447
 2881SOL    HW120279   2.167   2.694   7.811  2.1668  1.1553 -2.0641
 2881SOL    HW220280   2.287   2.610   7.803 -0.0602  1.3575  2.5811
 2882SOL     OW20281   2.491   2.893   3.167 -0.0746 -0.6207 -0.0866
 2882SOL    HW120282   2.439   2.931   3.237  2.2614  2.0025  0.2547
 2882SOL    HW220283   2.461   2.803   3.160 -1.8107 -0.0271 -0.1058
 2883SOL     OW20284   4.709   0.896   9.052 -0.5960  0.8628 -0.0477
 2883SOL    HW120285   0.054   0.854   9.021 -0.8478  1.0141 -0.8877
 2883SOL    HW220286   4.671   0.909   8.965 -1.2793  1.1642  0.2954
 2884SOL     OW20287   4.368   1.210   8.280 -0.1880  0.7664  0.1343
 2884SOL    HW120288   4.336   1.251   8.200 -2.2989 -0.2839  0.4188
 2884SOL    HW220289   4.345   1.119   8.260 -0.5405  0.9426 -0.2494
 2885SOL     OW20290   3.231   0.694   5.590  0.2444 -0.2263  0.2684
 2885SOL    HW120291   3.230   0.681   5.495 -0.0051  1.0697  0.0954
 2885SOL    HW220292   3.167   0.635   5.630  0.5846 -0.7680  0.0179
 2886SOL     OW20293   3.394   3.972   7.956  0.0484  0.0223 -0.5734
 2886SOL    HW120294   3.415   4.062   7.932  1.4766  0.0331  0.6892
 2886SOL    HW220295   3.388   3.930   7.870 -0.9401  1.4604 -1.2058
 2887SOL     OW20296   2.825   1.790   3.006 -0.0253 -0.1463 -0.0500
 2887SOL    HW120297   2.796   1.707   3.044  2.6814 -0.8218  0.5505
 2887SOL    HW220298   2.914   1.795   3.040 -0.0518 -0.9167  0.1427
 2888SOL     OW20299   2.443   2.933   7.689 -0.2325 -0.1792 -0.5868
 2888SOL    HW120300   2.504   2.996   7.728 -1.0226  0.2869 -0.1043
 2888SOL    HW220301   2.437   2.975   7.603  1.3497  1.8626  0.3109
 2889SOL     OW20302   0.337   3.808   8.037  0.1499 -0.8528  0.0320
 2889SOL    HW120303   0.255   3.808   7.987  0.8928 -0.1455 -1.1772
 2889SOL    HW220304   0.333   3.899   8.067 -0.7221 -0.1388 -2.3057
 2890SOL     OW20305   1.653   3.181   7.694  0.3731  0.6706  0.0625
 2890SOL    HW120306   1.570   3.227   7.706  0.9140  0.8492  3.1601
 2890SOL    HW220307   1.693   3.183   7.782 -2.5862 -0.7686  1.4342
 2891SOL     OW20308   3.417   1.693   4.796 -0.3724  0.5901 -0.3251
 2891SOL    HW120309   3.335   1.733   4.826  0.2410  0.5757  1.3566
 2891SOL    HW220310   3.402   1.601   4.814  0.2105  0.7942  1.1885
 2892SOL     OW20311   3.550   2.373   0.763 -0.0948  0.3127  0.1478
 2892SOL    HW120312   3.486   2.424   0.812  0.6277  0.1930  1.2197
 2892SOL    HW220313   3.625   2.433   0.759  1.8383 -2.0846 -0.0498
 2893SOL     OW20314   4.543   2.399   3.735 -0.0627  0.0361  0.2628
 2893SOL    HW120315   4.630   2.400   3.774 -0.1869  1.0466  0.4919
 2893SOL    HW220316   4.558   2.343   3.658  1.2659  0.1607  0.4401
 2894SOL     OW20317   1.006   1.589  13.216 -0.1938 -0.2597 -0.3451
 2894SOL    HW120318   0.980   1.681  13.216 -0.3040 -0.2871  0.2770
 2894SOL    HW220319   0.958   1.551  13.290 -0.2054 -0.4973 -0.4760
 2895SOL     OW20320   4.680   0.774   6.390 -0.1015 -0.4220  0.6109
 2895SOL    HW120321   4.695   0.824   6.470  1.7614  1.1330 -0.7260
 2895SOL    HW220322   4.587   0.753   6.402  0.2358 -1.6475  1.1061
 2896SOL     OW20323   0.151   2.217   2.320  0.3596 -0.1846 -0.3712
 2896SOL    HW120324   0.219   2.174   2.373 -0.2891 -0.7989 -0.0413
 2896SOL    HW220325   0.182   2.198   2.231  0.4167 -0.6207 -0.2599
 2897SOL     OW20326   1.896   2.755   9.215 -0.6918  0.0064 -0.7472
 2897SOL    HW120327   1.979   2.775   9.260 -1.9153 -1.3892  2.1328
 2897SOL    HW220328   1.881   2.825   9.151 -0.7599  0.6643 -0.0095
 2898SOL     OW20329   1.326   4.173   8.649 -0.4988 -0.3388 -0.3546
 2898SOL    HW120330   1.337   4.264   8.676  1.5988  0.2630 -3.3019
 2898SOL    HW220331   1.357   4.116   8.720  0.6205 -0.4223 -0.9141
 2899SOL     OW20332   1.054   2.404  10.095 -0.8101 -0.1603  0.0905
 2899SOL    HW120333   1.055   2.404  10.000  0.4369  1.0180  0.1059
 2899SOL    HW220334   1.122   2.470  10.110 -0.1704 -0.9551  0.7354
 2900SOL     OW20335   3.124   3.382   4.823 -0.7644  0.5069 -0.5432
 2900SOL    HW120336   3.121   3.289   4.846  2.6147  0.7061  0.7152
 2900SOL    HW220337   3.202   3.400   4.876  0.4387  0.0736 -2.1875
 2901SOL     OW20338   2.829   3.783   3.591  0.6021  0.6504 -0.1401
 2901SOL    HW120339   2.913   3.813   3.555 -0.8382  1.3478 -2.9351
 2901SOL    HW220340   2.856   3.716   3.652 -1.9642  0.3374  0.6385
 2902SOL     OW20341   3.672   3.649   2.726  0.5842  0.0117 -0.3428
 2902SOL    HW120342   3.608   3.694   2.782  2.9287 -0.8930  3.0901
 2902SOL    HW220343   3.750   3.704   2.733  0.8483 -0.5637  1.3394
 2903SOL     OW20344   4.257   3.558   4.753  0.8997  0.5957 -0.0041
 2903SOL    HW120345   4.295   3.482   4.797  3.0911  0.9645 -1.2136
 2903SOL    HW220346   4.322   3.621   4.784  0.1853  1.8738 -1.0659
 2904SOL     OW20347   3.440   1.007   0.718  0.2295  0.6727 -0.4990
 2904SOL    HW120348   3.446   0.928   0.664 -0.9329  0.0545  0.2850
 2904SOL    HW220349   3.381   1.059   0.663 -1.3427  0.2456  0.7771
 2905SOL     OW20350   4.081   4.328   5.774 -0.9026  0.1507  0.2382
 2905SOL    HW120351   4.012   4.357   5.834 -0.1946 -0.0456  1.1525
 2905SOL    HW220352   4.035   4.340   5.691  0.3274  0.3310 -0.4130
 2906SOL     OW20353   4.344   0.354   7.140 -0.0879  0.0778 -0.4183
 2906SOL    HW120354   4.266   0.408   7.127 -1.0704 -0.7558  1.9491
 2906SOL    HW220355   4.391   0.382   7.062  1.8000  0.5502  0.9084
 2907SOL     OW20356   4.401   4.223   4.260  0.1389 -0.2294 -0.4544
 2907SOL    HW120357   4.388   4.315   4.235 -0.8503 -0.4273 -0.6485
 2907SOL    HW220358   4.440   4.179   4.184 -1.6898 -0.4127 -1.2726
 2908SOL     OW20359   0.436   2.789   8.493  0.5494  0.4922 -0.2044
 2908SOL    HW120360   0.466   2.737   8.419  0.0423 -0.2951  0.1505
 2908SOL    HW220361   0.489   2.763   8.568  0.8252 -0.7322 -0.8319
 2909SOL     OW20362   1.791   0.980   4.852  0.8757  0.2305 -0.5617
 2909SOL    HW120363   1.800   0.889   4.879 -1.5933  0.3145  0.5272
 2909SOL    HW220364   1.729   1.010   4.919 -0.6606 -2.5215 -0.7383
 2910SOL     OW20365   3.146   2.508   0.157 -0.5926 -0.4940  0.1081
 2910SOL    HW120366   3.219   2.533   0.100 -2.5581  4.5859 -0.1315
 2910SOL    HW220367   3.163   2.414   0.169 -1.5063 -0.5806  0.6850
 2911SOL     OW20368   0.710   0.328   8.573  0.3193  0.1568  0.1489
 2911SOL    HW120369   0.623   0.337   8.534  0.3102  0.0008  0.1352
 2911SOL    HW220370   0.724   0.237   8.598 -0.1309  0.5797  1.9160
 2912SOL     OW20371   3.071   3.246   9.393 -0.3851  0.3662  0.7536
 2912SOL    HW120372   3.018   3.169   9.411 -1.5661  1.1486  0.5952
 2912SOL    HW220373   3.048   3.253   9.300  0.1171  1.9333  0.7415
 2913SOL     OW20374   2.477   4.110   9.209  0.0174  0.1302 -0.2145
 2913SOL    HW120375   2.522   4.031   9.241 -2.8049 -0.1905  2.8526
 2913SOL    HW220376   2.392   4.075   9.185 -0.2914  0.3773  0.5146
 2914SOL     OW20377   1.147   0.684   2.976  0.1530 -0.1740 -0.0455
 2914SOL    HW120378   1.216   0.616   2.975  0.1127 -0.2030 -0.8721
 2914SOL    HW220379   1.181   0.751   2.917  0.0719 -0.9408 -0.9686
 2915SOL     OW20380   0.546   3.373   2.220  0.2866  0.1171 -0.5579
 2915SOL    HW120381   0.507   3.293   2.187 -1.8029 -0.5410  3.5026
 2915SOL    HW220382   0.498   3.442   2.174 -1.6139  0.3366  1.7354
 2916SOL     OW20383   1.166   4.280   8.359 -0.3979 -0.2431  0.7088
 2916SOL    HW120384   1.212   4.327   8.429  0.4394  0.4555 -0.3068
 2916SOL    HW220385   1.177   4.333   8.280 -0.5321  2.0322  2.2211
 2917SOL     OW20386   4.245   2.145  11.079  0.0098  0.0412  0.3105
 2917SOL    HW120387   4.202   2.185  11.003  2.6877  1.4786 -0.4352
 2917SOL    HW220388   4.324   2.112  11.037  0.3993  0.5547  0.6505
 2918SOL     OW20389   1.389   1.617   3.943  0.0492  0.0917  0.8477
 2918SOL    HW120390   1.331   1.602   3.869  0.3286  1.6289  0.3261
 2918SOL    HW220391   1.473   1.598   3.903 -0.4771 -0.0202 -0.1953
 2919SOL     OW20392   2.908   4.502   3.410 -0.8203 -0.2710  0.3124
 2919SOL    HW120393   2.879   4.586   3.375  0.6647 -0.1222 -0.5929
 2919SOL    HW220394   2.995   4.523   3.446 -1.0092  0.0539  0.5816
 2920SOL     OW20395   0.797   2.617   1.918 -0.5109  0.0754  0.1549
 2920SOL    HW120396   0.730   2.592   1.982 -0.3890 -0.2263  0.1641
 2920SOL    HW220397   0.776   2.554   1.850 -0.7067  0.2731  0.0317
 2921SOL     OW20398   4.344   3.040   4.497  0.0597  0.3022 -0.5530
 2921SOL    HW120399   4.375   3.073   4.582 -3.6764  0.3247  0.7865
 2921SOL    HW220400   4.312   2.952   4.515 -2.2554  1.0693 -0.9652
 2922SOL     OW20401   4.429   1.754   2.038 -0.2532 -0.1434 -0.2118
 2922SOL    HW120402   4.493   1.683   2.047 -1.9584 -1.6940 -0.3237
 2922SOL    HW220403   4.349   1.711   2.066  0.0351 -1.4519 -1.3740
 2923SOL     OW20404   0.314   2.370   3.096  0.5588 -0.0152  0.1938
 2923SOL    HW120405   0.394   2.408   3.059  1.0686 -1.3873 -0.1073
 2923SOL    HW220406   0.321   2.413   3.181 -0.0130 -0.0865  0.2730
 2924SOL     OW20407   4.533   4.120   3.803  1.0603  0.6318  0.2936
 2924SOL    HW120408   4.578   4.144   3.721  1.2187  0.4827  0.3380
 2924SOL    HW220409   4.467   4.188   3.816 -0.1572 -0.6797  0.8972
 2925SOL     OW20410   4.019   4.008   9.494  1.2843 -0.4995 -0.3588
 2925SOL    HW120411   4.067   4.070   9.439  1.0910  1.5074  1.7590
 2925SOL    HW220412   4.081   4.002   9.567  1.8055 -1.0660 -0.8450
 2926SOL     OW20413   0.257   2.525   1.542 -0.5285 -0.0230 -0.2517
 2926SOL    HW120414   0.213   2.607   1.564 -1.9673 -0.7633 -0.3507
 2926SOL    HW220415   0.192   2.475   1.493  0.3711 -1.6360  0.1888
 2927SOL     OW20416   0.580   3.276   6.006  0.1062  0.4056  0.4937
 2927SOL    HW120417   0.522   3.200   6.016 -0.7951  1.1219  0.7153
 2927SOL    HW220418   0.663   3.237   6.033  0.6005  1.0058 -0.1612
 2928SOL     OW20419   4.467   3.300   5.419  0.0562 -0.0275  0.6198
 2928SOL    HW120420   4.547   3.278   5.371 -1.0469 -1.1843 -0.6840
 2928SOL    HW220421   4.480   3.260   5.505 -0.1150 -1.1444  0.1268
 2929SOL     OW20422   2.775   0.100   2.043 -0.2595  0.3409  0.1698
 2929SOL    HW120423   2.690   0.057   2.051  0.4636 -1.2867 -0.9250
 2929SOL    HW220424   2.771   0.151   2.124  0.4267 -1.8690  1.6036
 2930SOL     OW20425   1.938   0.142   7.417 -0.9370 -0.0470 -0.0083
 2930SOL    HW120426   1.969   0.213   7.474  0.0014 -0.4309 -0.0454
 2930SOL    HW220427   2.012   0.141   7.357  1.2284  1.6462  2.6762
 2931SOL     OW20428   2.748   4.588  17.012  0.6921 -0.0388 -0.5793
 2931SOL    HW120429   2.684   4.524  17.045 -0.0077  1.0131  0.1284
 2931SOL    HW220430   2.683   4.639  16.963  2.5370  0.5047 -2.4284
 2932SOL     OW20431   2.712   2.404   4.731 -0.2263 -0.0743 -0.5935
 2932SOL    HW120432   2.716   2.378   4.823 -1.3366  0.7946 -0.3051
 2932SOL    HW220433   2.773   2.478   4.728 -0.2919  0.0432  1.2154
 2933SOL     OW20434   2.739   4.496   5.084 -0.2173 -0.3865 -0.2622
 2933SOL    HW120435   2.684   4.574   5.087 -1.0408 -1.0683  2.2012
 2933SOL    HW220436   2.707   4.443   5.157 -0.8538 -0.1542 -0.3750
 2934SOL     OW20437   2.662   2.080   7.999  0.2675  0.5298  0.3804
 2934SOL    HW120438   2.596   2.074   8.068  1.6024 -3.2414  1.2996
 2934SOL    HW220439   2.690   2.171   8.014 -0.9467  0.8713  0.5460
 2935SOL     OW20440   2.435   2.540   2.532  0.1651 -0.1910 -0.1113
 2935SOL    HW120441   2.376   2.508   2.601  0.3912 -1.6216 -0.5731
 2935SOL    HW220442   2.419   2.471   2.467 -0.4680  0.0726 -0.2326
 2936SOL     OW20443   3.638   1.753   8.440  0.3077  0.4335 -0.5647
 2936SOL    HW120444   3.631   1.657   8.435 -3.0853  0.6314  0.5859
 2936SOL    HW220445   3.556   1.788   8.406  0.3816  0.5812 -0.5923
 2937SOL     OW20446   3.412   2.499  13.848  0.2872  0.2717 -0.0634
 2937SOL    HW120447   3.463   2.557  13.792 -1.6381  1.1617 -0.9235
 2937SOL    HW220448   3.459   2.416  13.846  0.4187  0.3831 -2.2643
 2938SOL     OW20449   0.879   0.729   4.876  0.4438  0.4621 -0.6627
 2938SOL    HW120450   0.848   0.790   4.943 -0.6612 -0.9609  0.1200
 2938SOL    HW220451   0.867   0.777   4.793  1.4275 -0.1891 -1.1783
 2939SOL     OW20452   0.295   0.423   9.884  0.2770 -0.2253  0.1378
 2939SOL    HW120453   0.331   0.338   9.858  0.4329 -0.4579  1.1382
 2939SOL    HW220454   0.201   0.412   9.892  0.3209 -0.7776 -0.1233
 2940SOL     OW20455   4.047   0.300   8.236  0.3135 -0.2228 -0.1594
 2940SOL    HW120456   4.054   0.247   8.316 -1.5491 -2.1990 -1.3057
 2940SOL    HW220457   4.058   0.383   8.282  0.8672  0.0580 -0.7996
 2941SOL     OW20458   0.696   1.884  11.762 -0.7095  0.1169  0.4961
 2941SOL    HW120459   0.699   1.855  11.853 -0.4767  0.2703  0.5379
 2941SOL    HW220460   0.606   1.917  11.764 -0.0425  1.8621  1.4783
 2942SOL     OW20461   4.541   3.298   1.818 -0.4109  0.4754  1.0479
 2942SOL    HW120462   4.468   3.359   1.826 -0.7984 -0.0086  1.2204
 2942SOL    HW220463   4.488   3.222   1.792 -0.7647  0.0246  3.1165
 2943SOL     OW20464   4.160   3.565   2.597  0.3574  0.2309  0.1948
 2943SOL    HW120465   4.126   3.477   2.579  0.9646  0.8619 -3.9921
 2943SOL    HW220466   4.213   3.576   2.517  0.0039 -0.5409 -0.1431
 2944SOL     OW20467   3.061   1.322   7.867  0.4378 -0.5009 -0.0775
 2944SOL    HW120468   3.105   1.401   7.837 -2.2065  2.2918  3.4821
 2944SOL    HW220469   3.090   1.316   7.958 -0.4427  0.5274  0.2639
 2945SOL     OW20470   0.724   0.934   9.128  0.5006 -0.0827  0.3240
 2945SOL    HW120471   0.647   0.948   9.183 -1.0313 -2.0350 -1.3335
 2945SOL    HW220472   0.688   0.885   9.055 -0.2525  0.4228  0.3503
 2946SOL     OW20473   2.990   0.164   7.137 -0.8190  0.3934 -0.5487
 2946SOL    HW120474   2.936   0.142   7.213 -1.1909 -0.9250 -1.1965
 2946SOL    HW220475   3.063   0.104   7.150 -0.9542  0.5076  0.7258
 2947SOL     OW20476   3.241   2.652  10.212  0.1504  0.2672  0.2502
 2947SOL    HW120477   3.200   2.707  10.145  1.7163 -0.6856 -1.5125
 2947SOL    HW220478   3.279   2.718  10.269 -0.6724 -0.5329  1.7321
 2948SOL     OW20479   4.076   4.528   6.806 -0.1805  0.3892  0.1435
 2948SOL    HW120480   3.997   4.565   6.769 -2.1292 -1.2278  2.7112
 2948SOL    HW220481   4.143   4.549   6.741  1.0714 -2.6732  0.4246
 2949SOL     OW20482   1.911   4.515   4.781 -0.4585 -0.4045  0.4161
 2949SOL    HW120483   1.863   4.595   4.760 -0.9006 -1.1868 -1.5743
 2949SOL    HW220484   1.984   4.549   4.832 -0.7694 -1.6111  1.6612
 2950SOL     OW20485   0.040   4.686   8.294  0.0483 -0.4582  0.3116
 2950SOL    HW120486   4.686   4.657   8.273  0.1304 -0.6883  0.2803
 2950SOL    HW220487   0.077   4.676   8.206 -0.8824  0.2855 -0.1585
 2951SOL     OW20488   4.303   4.392   8.284  0.0479  0.3767  0.0639
 2951SOL    HW120489   4.229   4.451   8.270  1.0202  1.3660 -0.9444
 2951SOL    HW220490   4.274   4.323   8.224 -4.1980  1.6612  0.6723
 2952SOL     OW20491   2.497   0.867  12.760  0.0721  0.4440 -0.0266
 2952SOL    HW120492   2.554   0.900  12.830 -2.4504  3.6288  0.5390
 2952SOL    HW220493   2.415   0.845  12.805  0.1855 -2.3899 -1.2095
 2953SOL     OW20494   3.792   4.551   8.285  0.1088  0.6999  0.1300
 2953SOL    HW120495   3.705   4.515   8.303  0.4427 -0.5182 -0.6887
 2953SOL    HW220496   3.763   4.622   8.227 -1.7426  0.0119  0.1983
 2954SOL     OW20497   3.820   3.771   5.095  0.0072 -0.7808  0.3103
 2954SOL    HW120498   3.800   3.779   5.002 -2.9277 -1.4614  0.8945
 2954SOL    HW220499   3.916   3.771   5.093  0.0211 -1.2443  0.8785
 2955SOL     OW20500   2.189   2.325   5.387  0.6399 -0.0609 -0.3783
 2955SOL    HW120501   2.187   2.241   5.342  0.4757 -1.0437  1.4209
 2955SOL    HW220502   2.174   2.294   5.477 -1.6724  0.2749 -0.6384
 2956SOL     OW20503   1.568   2.135   3.516  0.6863  0.0511  0.0522
 2956SOL    HW120504   1.580   2.059   3.459  0.7478 -0.1939  0.3914
 2956SOL    HW220505   1.588   2.207   3.457 -2.9582  2.0730  1.2918
 2957SOL     OW20506   1.525   2.624  11.909  0.0789  0.0724 -0.0834
 2957SOL    HW120507   1.586   2.652  11.976  2.5581 -0.2014 -2.2331
 2957SOL    HW220508   1.451   2.629  11.969 -0.0996  2.0918 -0.4670
 2958SOL     OW20509   2.026   3.971  16.577  0.0510  0.5780 -0.3052
 2958SOL    HW120510   2.107   3.971  16.525  0.0753 -0.7415 -0.2658
 2958SOL    HW220511   1.964   3.958  16.505 -0.7415 -1.8088  0.8270
 2959SOL     OW20512   0.348   1.633  16.376  0.0880  0.1550 -0.1654
 2959SOL    HW120513   0.374   1.721  16.350  2.0070 -0.6980 -1.1285
 2959SOL    HW220514   0.271   1.640  16.432  0.4454  0.9285  0.2269
 2960SOL     OW20515   2.593   4.542   2.740 -0.6032 -0.8657 -0.3171
 2960SOL    HW120516   2.498   4.550   2.739 -0.5441 -0.4926 -3.2663
 2960SOL    HW220517   2.617   4.635   2.733 -0.6032 -0.7695  1.0206
 2961SOL     OW20518   4.698   1.387   3.707 -0.5515  0.1496  0.1898
 2961SOL    HW120519   4.682   1.349   3.621 -0.4697 -2.0774  1.1752
 2961SOL    HW220520   4.609   1.382   3.742 -0.8765  0.8794 -0.5330
 2962SOL     OW20521   4.523   1.059   4.271 -0.4684  0.5228  0.5423
 2962SOL    HW120522   4.574   1.058   4.352 -0.8112  0.9750  0.7665
 2962SOL    HW220523   4.432   1.077   4.294 -0.5719  0.9082 -0.1431
 2963SOL     OW20524   4.603   1.894   5.679 -0.1212 -0.0599  0.5233
 2963SOL    HW120525   4.587   1.932   5.592  0.6628  2.0354  1.3006
 2963SOL    HW220526   4.623   1.977   5.722 -1.5741  1.2888 -1.3922
 2964SOL     OW20527   2.863   4.294   4.754  0.1868 -0.2583  0.0954
 2964SOL    HW120528   2.923   4.344   4.698  0.2125 -0.2593  0.1216
 2964SOL    HW220529   2.911   4.302   4.837  1.1492 -0.3882 -0.4441
 2965SOL     OW20530   1.114   1.865   9.241  0.5294  0.2030  0.2839
 2965SOL    HW120531   1.141   1.878   9.331  1.9311 -0.1474 -0.0874
 2965SOL    HW220532   1.107   1.770   9.231 -0.5823  0.2924  0.2491
 2966SOL     OW20533   0.040   3.842   9.747 -0.0114  0.4457 -0.1079
 2966SOL    HW120534   4.698   3.851   9.691 -0.9939  0.8240  1.3077
 2966SOL    HW220535   4.730   3.810   9.825 -0.6453  1.0826 -0.2216
 2967SOL     OW20536   0.110   4.623   9.653 -0.2903 -0.3646 -0.6686
 2967SOL    HW120537   0.048   4.582   9.592 -0.6702 -0.3348 -0.3008
 2967SOL    HW220538   0.193   4.585   9.624 -1.2634 -0.6936 -3.0303
 2968SOL     OW20539   3.474   3.660   1.491  0.0484  0.7073  0.5385
 2968SOL    HW120540   3.525   3.585   1.521  2.7797  1.6276 -1.8120
 2968SOL    HW220541   3.465   3.707   1.574 -2.0309  1.4061 -0.0698
 2969SOL     OW20542   0.604   1.403  14.119  0.4471 -0.1078  0.0131
 2969SOL    HW120543   0.526   1.446  14.154  1.0714  1.5828 -0.6738
 2969SOL    HW220544   0.563   1.359  14.044 -1.5048 -0.3167  1.2019
 2970SOL     OW20545   2.936   0.237   4.112  0.4380  0.1847 -0.3736
 2970SOL    HW120546   2.873   0.264   4.045  2.3513  0.0690 -2.2211
 2970SOL    HW220547   3.022   0.257   4.075 -0.1920  0.0375 -1.9151
 2971SOL     OW20548   1.792   4.053   7.356  0.4612 -0.3647  0.1988
 2971SOL    HW120549   1.857   3.992   7.392 -0.7856 -0.9390  1.5018
 2971SOL    HW220550   1.840   4.135   7.360  1.3504 -0.7550 -2.2728
 2972SOL     OW20551   0.362   0.284  15.691 -0.3727  0.4088  0.1817
 2972SOL    HW120552   0.273   0.262  15.663 -0.6741  1.8714 -0.0182
 2972SOL    HW220553   0.344   0.371  15.727  1.1346  0.2378  1.3481
 2973SOL     OW20554   3.528   2.312   6.241 -0.1752  0.1213 -0.6986
 2973SOL    HW120555   3.456   2.306   6.303  0.7315  0.9300  0.4472
 2973SOL    HW220556   3.544   2.406   6.244 -0.7095  0.2527 -2.3728
 2974SOL     OW20557   1.309   1.624   8.693 -0.7367 -0.3724  0.2446
 2974SOL    HW120558   1.314   1.551   8.755 -1.7308 -0.1942  0.5413
 2974SOL    HW220559   1.397   1.662   8.697 -0.7506 -0.2643 -0.5275
 2975SOL     OW20560   2.817   1.756  15.183  0.4567 -0.2498  0.0149
 2975SOL    HW120561   2.839   1.689  15.248  1.4331 -1.0267 -1.1155
 2975SOL    HW220562   2.904   1.778  15.150  0.0032  0.6793 -0.5406
 2976SOL     OW20563   0.106   0.021   1.598 -0.4579 -0.1718  0.0208
 2976SOL    HW120564   0.198   0.044   1.587 -0.3741 -0.1494  0.7388
 2976SOL    HW220565   0.108   4.663   1.576 -1.1084 -0.3390  0.6762
 2977SOL     OW20566   3.386   3.771   1.949 -0.2111  0.0084 -0.1269
 2977SOL    HW120567   3.385   3.864   1.924  1.4974  0.0162 -0.2002
 2977SOL    HW220568   3.399   3.781   2.043 -2.4504  0.4327  0.1409
 2978SOL     OW20569   2.808   4.508   9.066 -0.5190 -0.1343  0.2337
 2978SOL    HW120570   2.834   4.436   9.009  0.2718  0.2878  0.0509
 2978SOL    HW220571   2.835   4.587   9.019  2.1427 -1.6936 -0.8614
 2979SOL     OW20572   1.715   2.670  17.292 -0.2554  0.6117  0.5345
 2979SOL    HW120573   1.722   2.764  17.307  1.2391  0.7778 -1.1906
 2979SOL    HW220574   1.768   2.635  17.363 -0.2999 -2.6587 -1.0748
 2980SOL     OW20575   2.692   2.552   1.523 -0.1464  0.1911 -0.0431
 2980SOL    HW120576   2.786   2.565   1.539 -0.2818  1.3920 -0.1672
 2980SOL    HW220577   2.673   2.635   1.478 -2.2987  0.3616  1.1669
 2981SOL     OW20578   3.115   2.695  10.788  0.2028 -0.2269 -0.4036
 2981SOL    HW120579   3.153   2.610  10.766  0.4819 -0.4821  1.0282
 2981SOL    HW220580   3.033   2.697  10.738  0.9997  2.4537 -1.5977
 2982SOL     OW20581   1.353   3.339   9.108  0.1322 -0.1115 -0.6023
 2982SOL    HW120582   1.343   3.384   9.024 -0.0692  2.6222  0.8827
 2982SOL    HW220583   1.308   3.396   9.171  0.4454  0.9978 -1.3904
 2983SOL     OW20584   0.269   2.774  17.661 -0.3206  0.5233  0.0558
 2983SOL    HW120585   0.342   2.758  17.600 -0.2539 -1.3983  0.6258
 2983SOL    HW220586   0.269   2.689  17.705  2.8463  0.0971 -0.7210
 2984SOL     OW20587   2.869   0.853   6.205  0.2363  0.1606 -0.0500
 2984SOL    HW120588   2.910   0.848   6.292  0.7043 -1.8907 -0.3901
 2984SOL    HW220589   2.911   0.921   6.154  1.5876 -1.4064 -1.0176
 2985SOL     OW20590   0.491   0.796   3.278 -0.6054  0.4194 -0.5739
 2985SOL    HW120591   0.569   0.812   3.332 -0.7091  2.2155 -0.9751
 2985SOL    HW220592   0.479   0.882   3.239  0.4576  0.0985 -1.6235
 2986SOL     OW20593   3.795   2.674   8.861 -0.1867  0.1806 -0.3284
 2986SOL    HW120594   3.743   2.653   8.783  3.0269 -1.0853 -2.1150
 2986SOL    HW220595   3.731   2.653   8.929 -0.4610 -1.9877 -1.2595
 2987SOL     OW20596   1.398   0.741  16.360 -0.7020 -0.4702 -0.1446
 2987SOL    HW120597   1.468   0.716  16.420 -0.7298  0.4576  0.2767
 2987SOL    HW220598   1.409   0.833  16.334 -3.5233  1.0539  3.8650
 2988SOL     OW20599   3.743   0.786  11.430 -0.0836 -0.4233 -0.0509
 2988SOL    HW120600   3.703   0.700  11.441  1.1601 -0.6187  3.1618
 2988SOL    HW220601   3.724   0.821  11.517  2.9466 -1.0977  0.8610
 2989SOL     OW20602   2.975   3.449   3.937 -0.2424 -0.1276 -0.0421
 2989SOL    HW120603   3.017   3.479   3.857  0.3901 -0.8531  0.0198
 2989SOL    HW220604   2.957   3.532   3.981 -0.4505  0.5281 -1.3522
 2990SOL     OW20605   3.573   4.567  12.678  0.0548  0.5413 -0.1670
 2990SOL    HW120606   3.619   4.485  12.693  0.1180  0.1419 -2.5319
 2990SOL    HW220607   3.646   4.629  12.675  2.2994 -2.2202 -1.7299
 2991SOL     OW20608   4.111   3.866   8.920 -0.2061  0.2782 -0.8313
 2991SOL    HW120609   4.063   3.786   8.899 -0.1936 -0.1131  0.6416
 2991SOL    HW220610   4.091   3.868   9.014 -0.5650  3.1336 -0.9707
 2992SOL     OW20611   0.803   2.849   9.517  0.5140 -0.2142  0.1573
 2992SOL    HW120612   0.888   2.857   9.560  0.8565 -2.4595 -0.1037
 2992SOL    HW220613   0.792   2.931   9.470 -0.0179 -0.9347 -0.9673
 2993SOL     OW20614   3.036   4.027   3.111  0.0185  0.1104  0.6150
 2993SOL    HW120615   2.961   3.989   3.065  0.7543 -1.2926  0.5788
 2993SOL    HW220616   3.076   3.953   3.157  1.1080 -0.4675 -1.2806
 2994SOL     OW20617   4.562   2.380   2.247 -0.0087  0.1495 -0.1941
 2994SOL    HW120618   4.606   2.378   2.162 -2.1720  0.0014 -1.3208
 2994SOL    HW220619   4.470   2.373   2.221 -0.0172 -0.1283 -0.0922
 2995SOL     OW20620   2.485   4.574   9.390  0.4331  0.3230  0.0634
 2995SOL    HW120621   2.514   4.483   9.398  0.8279  0.4948  0.5801
 2995SOL    HW220622   2.487   4.603   9.481 -2.9101 -1.0921  0.5688
 2996SOL     OW20623   1.714   1.321  15.824  0.2055  0.4151  0.1579
 2996SOL    HW120624   1.756   1.290  15.744  1.6116  0.2160  0.9782
 2996SOL    HW220625   1.782   1.381  15.854  2.1089 -1.4600 -0.4247
 2997SOL     OW20626   3.822   1.835  13.685 -0.5205 -0.1352 -0.0301
 2997SOL    HW120627   3.875   1.889  13.625  0.8131  0.0130  1.2730
 2997SOL    HW220628   3.868   1.754  13.665  0.2666  0.7413 -1.8339
 2998SOL     OW20629   2.002   0.890   2.616 -0.4228  0.0686  0.1336
 2998SOL    HW120630   2.084   0.916   2.572  0.5335 -3.3358 -0.0644
 2998SOL    HW220631   2.033   0.835   2.688  1.7849  2.0186  0.7184
 2999SOL     OW20632   4.094   1.330   4.359 -0.2536  0.6175  0.0047
 2999SOL    HW120633   4.145   1.302   4.283 -1.9402 -0.6908 -0.6479
 2999SOL    HW220634   4.170   1.379   4.388 -1.0967  1.4569  0.7999
 3000SOL     OW20635   1.830   0.365   4.685  0.1515  0.7382  0.1521
 3000SOL    HW120636   1.823   0.369   4.780 -2.9139 -1.4979 -0.0054
 3000SOL    HW220637   1.881   0.444   4.665  0.0629  0.5388 -0.8854
 3001SOL     OW20638   0.853   1.327   5.420  0.1432 -0.2504  0.2192
 3001SOL    HW120639   0.888   1.413   5.395 -0.1953 -0.3766 -0.7142
 3001SOL    HW220640   0.879   1.320   5.512  1.0349 -0.6333 -0.0531
 3002SOL     OW20641   3.146   1.577   4.440  0.7347 -0.0459 -0.6930
 3002SOL    HW120642   3.228   1.626   4.429  0.9408 -0.8408 -2.5619
 3002SOL    HW220643   3.107   1.594   4.355  0.7483  0.0746 -0.6764
 3003SOL     OW20644   3.257   3.503   3.302  0.0654 -0.0929  0.1796
 3003SOL    HW120645   3.166   3.510   3.273 -1.0202 -1.9282  3.1025
 3003SOL    HW220646   3.244   3.432   3.366 -0.6126 -0.7604 -0.6956
 3004SOL     OW20647   0.167   0.750   9.416 -0.3213  0.3228  0.2160
 3004SOL    HW120648   0.225   0.795   9.354 -0.1899 -0.2025 -0.0422
 3004SOL    HW220649   0.106   0.817   9.445 -1.4637  0.1668 -1.8227
 3005SOL     OW20650   1.349   0.424   4.066  0.0325  0.6893 -0.4348
 3005SOL    HW120651   1.340   0.452   3.975  3.8906  1.5982 -0.5112
 3005SOL    HW220652   1.394   0.501   4.101  0.5009  0.4900 -0.5990
 3006SOL     OW20653   1.598   1.186  16.287  0.0501  0.1647 -0.3068
 3006SOL    HW120654   1.648   1.156  16.363 -0.9398  0.3735  0.4256
 3006SOL    HW220655   1.543   1.110  16.266 -2.4110  0.9476  3.5005
 3007SOL     OW20656   3.135   0.009   5.791 -0.2234 -0.2427  0.0542
 3007SOL    HW120657   3.140   0.072   5.719  3.5846  0.0968  0.6196
 3007SOL    HW220658   3.201   4.676   5.778  0.6410  0.9432 -1.6711
 3008SOL     OW20659   0.646   3.026   4.674  0.2420 -0.3542  0.3544
 3008SOL    HW120660   0.712   3.094   4.685 -2.5333  2.6285 -1.2844
 3008SOL    HW220661   0.576   3.057   4.732 -0.3043 -0.8116 -0.0581
 3009SOL     OW20662   3.211   4.167  11.098  0.0301 -0.1908  0.3650
 3009SOL    HW120663   3.267   4.099  11.135 -1.3431 -1.5561 -0.0656
 3009SOL    HW220664   3.135   4.160  11.155 -0.4225  0.4433 -0.1468
 3010SOL     OW20665   2.391   4.514   5.052 -0.1081 -0.4682  0.5464
 3010SOL    HW120666   2.441   4.461   5.114  0.4101  0.0403  0.5645
 3010SOL    HW220667   2.458   4.550   4.993  1.1234 -2.6597  0.6159
 3011SOL     OW20668   1.019   2.298  13.456 -0.1033  0.2462 -0.4811
 3011SOL    HW120669   1.031   2.248  13.376  0.9216 -2.4629  1.3629
 3011SOL    HW220670   1.040   2.236  13.525 -0.1780 -0.8105 -1.4097
 3012SOL     OW20671   0.884   2.885  16.513 -0.2947 -0.1621  0.4603
 3012SOL    HW120672   0.915   2.805  16.556 -0.0033  0.1886  0.8984
 3012SOL    HW220673   0.937   2.951  16.557 -1.1271  0.0747  1.1050
 3013SOL     OW20674   4.641   1.339   6.296  0.4818  0.3655  0.2504
 3013SOL    HW120675   4.663   1.387   6.215  1.0719  1.5935  1.1346
 3013SOL    HW220676   4.710   1.273   6.292  0.7510  0.6430  0.2391
 3014SOL     OW20677   2.214   3.653   8.251  0.2181 -0.6068  0.0755
 3014SOL    HW120678   2.228   3.611   8.166  1.7533  2.1557 -1.0486
 3014SOL    HW220679   2.274   3.727   8.244 -1.2245  0.3590 -1.8500
 3015SOL     OW20680   3.464   0.268  12.253  0.9086  0.2960 -0.3258
 3015SOL    HW120681   3.470   0.258  12.348 -1.0102 -1.8892 -0.4356
 3015SOL    HW220682   3.479   0.175  12.237 -1.5900  0.2154 -2.1422
 3016SOL     OW20683   3.610   1.695   2.756 -0.5709  0.0021 -0.5631
 3016SOL    HW120684   3.653   1.746   2.825  0.4196 -1.4208 -0.1264
 3016SOL    HW220685   3.575   1.624   2.809 -0.4771 -0.9917 -1.8456
 3017SOL     OW20686   4.376   2.455   6.170 -0.1846  0.0359 -0.0773
 3017SOL    HW120687   4.359   2.549   6.176 -0.3028  0.1018 -1.4875
 3017SOL    HW220688   4.437   2.440   6.098  0.8236 -0.6699  0.9321
 3018SOL     OW20689   4.352   1.848   2.810  0.1960 -0.1405 -0.0659
 3018SOL    HW120690   4.292   1.910   2.769 -1.6591 -1.2923  0.9302
 3018SOL    HW220691   4.308   1.825   2.892  1.3885 -2.3470 -0.0578
 3019SOL     OW20692   2.374   3.946   6.841  0.1109 -0.5791 -0.0601
 3019SOL    HW120693   2.396   3.859   6.875 -1.3847 -0.3238  1.5807
 3019SOL    HW220694   2.460   3.987   6.846  0.9874 -2.2736 -1.1725
 3020SOL     OW20695   1.608   4.308  15.113  1.0422 -0.1239  0.1302
 3020SOL    HW120696   1.522   4.300  15.072  0.1333  2.4892  1.5447
 3020SOL    HW220697   1.666   4.305  15.036  1.5746  0.4968  0.5066
 3021SOL     OW20698   2.128   0.932   8.752  0.2292 -0.0779 -0.3680
 3021SOL    HW120699   2.095   1.009   8.797  0.5112 -0.5084  0.5624
 3021SOL    HW220700   2.047   0.901   8.713  0.6008 -0.5482 -0.7709
 3022SOL     OW20701   3.855   0.832  17.321 -0.3288 -0.0120 -0.0268
 3022SOL    HW120702   3.854   0.898  17.390 -2.0564  0.0349 -0.1153
 3022SOL    HW220703   3.820   0.757  17.368  0.5570  0.8662  2.0567
 3023SOL     OW20704   3.254   1.506   6.228 -0.3618  0.3121  0.0127
 3023SOL    HW120705   3.204   1.426   6.214  0.8518 -0.4506  0.1608
 3023SOL    HW220706   3.213   1.560   6.297 -3.6991 -0.9013 -1.0138
 3024SOL     OW20707   0.095   0.774  11.371 -0.2172  0.4550 -0.0571
 3024SOL    HW120708   0.000   0.761  11.381 -0.2258  0.7948  0.3052
 3024SOL    HW220709   0.123   0.699  11.318  2.0271  0.9832  0.4097
 3025SOL     OW20710   2.538   3.886   0.793  0.4021  0.4576 -0.1240
 3025SOL    HW120711   2.446   3.879   0.818 -0.1671  1.1915 -1.9878
 3025SOL    HW220712   2.579   3.809   0.831 -1.1529 -1.8157 -3.0785
 3026SOL     OW20713   0.268   3.568   6.709  0.1419  0.1743 -0.2246
 3026SOL    HW120714   0.239   3.518   6.786 -1.2729 -0.8967 -1.4441
 3026SOL    HW220715   0.182   3.603   6.686  0.7378  1.2370 -0.8158
 3027SOL     OW20716   3.545   0.356  10.074  1.1473  0.3552  0.1189
 3027SOL    HW120717   3.521   0.442  10.037  1.1641 -0.3427 -1.4920
 3027SOL    HW220718   3.511   0.347  10.163 -0.2427 -2.5146 -0.6972
 3028SOL     OW20719   2.538   4.433   9.112  0.4101 -0.4001 -0.0113
 3028SOL    HW120720   2.522   4.451   9.205 -2.4387 -1.6992 -0.2326
 3028SOL    HW220721   2.627   4.467   9.117  0.4204 -0.6723  1.9254
 3029SOL     OW20722   4.128   4.077   3.313 -0.2056 -0.2550  0.0186
 3029SOL    HW120723   4.127   4.119   3.400  1.8642  0.4854 -0.3284
 3029SOL    HW220724   4.103   3.989   3.340 -0.3759 -1.0772 -2.8135
 3030SOL     OW20725   3.004   2.886  12.677 -0.4834 -0.5172 -0.2342
 3030SOL    HW120726   2.951   2.925  12.608 -2.2035 -0.4717  1.0947
 3030SOL    HW220727   3.062   2.955  12.708  0.8036 -2.2228  1.1843
 3031SOL     OW20728   2.585   3.656   3.756  0.3487 -0.3717 -0.3939
 3031SOL    HW120729   2.556   3.734   3.708 -1.7706 -0.7947  0.1900
 3031SOL    HW220730   2.624   3.695   3.833 -0.3845  0.6740 -0.5460
 3032SOL     OW20731   3.762   3.113   4.754 -0.6251  0.3221 -0.4375
 3032SOL    HW120732   3.799   3.200   4.740 -0.0451  0.3357  1.1133
 3032SOL    HW220733   3.751   3.101   4.848  0.5559  0.7295 -0.2414
 3033SOL     OW20734   4.094   2.834   2.531 -0.0780 -0.0215 -0.0076
 3033SOL    HW120735   4.144   2.819   2.451 -1.3561  0.9820 -0.9973
 3033SOL    HW220736   4.153   2.802   2.599  1.3632 -0.1934 -1.3434
 3034SOL     OW20737   2.364   3.786   9.697  0.0196  0.3796  0.7024
 3034SOL    HW120738   2.450   3.746   9.685 -0.3886 -0.1630 -0.4191
 3034SOL    HW220739   2.327   3.734   9.768 -0.6701 -0.5268 -0.3292
 3035SOL     OW20740   2.796   1.264  10.938 -0.2753 -0.1377 -0.1314
 3035SOL    HW120741   2.852   1.298  11.008  0.8148  1.9659 -2.0066
 3035SOL    HW220742   2.712   1.298  10.969 -0.8157 -1.8990  0.3201
 3036SOL     OW20743   1.585   0.212   9.630 -0.0579  0.2439  0.4801
 3036SOL    HW120744   1.631   0.281   9.582  1.2409  0.0906  1.5153
 3036SOL    HW220745   1.665   0.164   9.652 -0.5392 -1.9240 -2.3920
 3037SOL     OW20746   2.803   0.266   3.000 -0.1249 -0.5882 -0.3670
 3037SOL    HW120747   2.792   0.171   3.008  1.8290 -0.7157  0.7388
 3037SOL    HW220748   2.840   0.294   3.084 -0.4016  1.5452 -0.9509
 3038SOL     OW20749   1.850   0.093   1.419 -0.4899 -0.1659  0.4103
 3038SOL    HW120750   1.821   0.084   1.328  0.2400  1.0557  0.0698
 3038SOL    HW220751   1.939   0.121   1.399 -0.1321 -1.1416  0.6613
 3039SOL     OW20752   1.390   1.690   4.830 -0.4588  0.1059 -0.9097
 3039SOL    HW120753   1.400   1.596   4.848 -2.3240  0.1966  0.5666
 3039SOL    HW220754   1.300   1.698   4.800 -1.2904 -2.9360  0.7730
 3040SOL     OW20755   3.030   0.127  15.651  0.3433 -0.2499 -0.4660
 3040SOL    HW120756   2.991   0.209  15.622 -0.2439 -0.0433  0.9089
 3040SOL    HW220757   3.099   0.170  15.702  1.0290 -0.5139 -1.1749
 3041SOL     OW20758   1.884   1.728   4.401  0.1930  0.2072 -0.0010
 3041SOL    HW120759   1.822   1.787   4.444 -0.8510  0.2011 -1.5139
 3041SOL    HW220760   1.841   1.654   4.442 -0.2068  0.8359  0.7093
 3042SOL     OW20761   3.229   1.791  13.963 -0.2425  0.8364 -0.0023
 3042SOL    HW120762   3.256   1.800  13.872  1.0651 -0.3655  0.2621
 3042SOL    HW220763   3.298   1.736  13.999 -0.3016  0.5695 -0.2952
 3043SOL     OW20764   2.236   0.867   2.230 -0.0837 -0.0300 -0.1917
 3043SOL    HW120765   2.263   0.903   2.146 -1.4262 -0.9028 -0.9930
 3043SOL    HW220766   2.140   0.863   2.225 -0.1001 -3.2158  2.9996
 3044SOL     OW20767   1.900   1.640   1.847 -0.3476 -0.1931  0.1699
 3044SOL    HW120768   1.973   1.676   1.897 -0.1694 -0.0801 -0.1726
 3044SOL    HW220769   1.942   1.630   1.762  0.2284 -0.3476  0.4707
 3045SOL     OW20770   3.848   1.401  14.509  0.5313  0.0805 -0.1229
 3045SOL    HW120771   3.834   1.425  14.417 -3.0592 -0.8927  0.1681
 3045SOL    HW220772   3.826   1.486  14.546 -0.6392 -1.0446  1.7476
 3046SOL     OW20773   1.124   2.852   8.421 -0.3896  0.4606 -0.3655
 3046SOL    HW120774   1.155   2.942   8.414  0.6906 -0.0281 -1.8156
 3046SOL    HW220775   1.198   2.809   8.379  1.7562  1.7243  2.1583
 3047SOL     OW20776   0.977   2.606   9.498  0.5791 -0.6260 -0.1239
 3047SOL    HW120777   0.915   2.676   9.480  0.7640  0.0150  1.7369
 3047SOL    HW220778   1.060   2.647   9.471  0.4333 -1.1440 -1.3601
 3048SOL     OW20779   2.232   0.390  11.345 -0.0353 -0.0197 -0.1924
 3048SOL    HW120780   2.137   0.393  11.337 -0.2901 -2.1806  2.0006
 3048SOL    HW220781   2.255   0.328  11.414  0.3560  0.9960  0.5913
 3049SOL     OW20782   0.359   0.254  17.334  0.0532 -0.2792 -0.4475
 3049SOL    HW120783   0.280   0.309  17.330  1.2002  1.5430  1.8904
 3049SOL    HW220784   0.431   0.309  17.305 -0.0921 -0.9665 -2.1013
 3050SOL     OW20785   2.361   2.686   8.666  0.2848 -0.6670 -0.1731
 3050SOL    HW120786   2.392   2.739   8.740 -0.4651 -0.0841 -0.2807
 3050SOL    HW220787   2.343   2.612   8.724 -0.2652  0.2435  0.8113
 3051SOL     OW20788   1.489   1.655   3.522 -0.2823 -0.3517  0.6410
 3051SOL    HW120789   1.536   1.572   3.515 -0.6611 -0.4363 -0.9323
 3051SOL    HW220790   1.401   1.630   3.551 -0.0431 -1.5863  0.3038
 3052SOL     OW20791   0.965   2.831   2.624  0.1600 -0.3400  1.0908
 3052SOL    HW120792   0.992   2.782   2.546  2.1322  1.6452  0.5141
 3052SOL    HW220793   1.035   2.809   2.685  0.2908 -3.6980 -0.2224
 3053SOL     OW20794   3.799   3.322   5.939 -0.8762  0.3436  0.4908
 3053SOL    HW120795   3.746   3.330   6.018 -2.5689  2.1709 -0.8394
 3053SOL    HW220796   3.851   3.248   5.969 -2.8334 -0.7156  1.2845
 3054SOL     OW20797   2.284   0.902  15.864 -0.0805 -0.8064  0.4322
 3054SOL    HW120798   2.217   0.920  15.798  1.6578 -0.7703 -1.3002
 3054SOL    HW220799   2.301   0.814  15.831  3.2511 -1.0265  2.7065
 3055SOL     OW20800   0.363   1.137  11.161  0.0047 -0.1217 -0.1847
 3055SOL    HW120801   0.401   1.049  11.151  0.2305  0.1415 -1.7573
 3055SOL    HW220802   0.270   1.122  11.176  0.1942 -2.4224 -1.1487
 3056SOL     OW20803   4.264   4.387   6.966  0.2224  0.3550  0.5587
 3056SOL    HW120804   4.309   4.461   6.926 -0.4749  0.5830  0.1943
 3056SOL    HW220805   4.197   4.379   6.897  0.5542 -0.7981  0.3561
 3057SOL     OW20806   4.454   3.417   2.727 -0.9610 -0.1453  0.1310
 3057SOL    HW120807   4.470   3.444   2.636  0.4115 -1.2217  0.0641
 3057SOL    HW220808   4.416   3.493   2.772 -0.5602 -0.3836  0.8675
 3058SOL     OW20809   2.506   3.278   5.166  0.0661  0.7426  0.1330
 3058SOL    HW120810   2.542   3.274   5.255 -1.2910 -2.2376  0.5636
 3058SOL    HW220811   2.417   3.243   5.174 -0.3170  1.8777  0.8550
 3059SOL     OW20812   3.257   1.706   0.512 -0.4044  0.1611 -0.4076
 3059SOL    HW120813   3.248   1.798   0.537 -2.5224  0.5010 -2.3960
 3059SOL    HW220814   3.206   1.703   0.431  1.7812  1.3208 -1.8234
 3060SOL     OW20815   1.473   4.237   1.760  0.3629 -0.4752  0.5192
 3060SOL    HW120816   1.543   4.182   1.795  1.9910  1.3243  0.0880
 3060SOL    HW220817   1.531   4.312   1.770 -0.1822 -0.2514  1.9755
 3061SOL     OW20818   2.477   2.868   6.031 -0.1507 -0.0132  0.1240
 3061SOL    HW120819   2.439   2.868   6.119  2.4750 -0.9422  1.2321
 3061SOL    HW220820   2.570   2.853   6.044 -0.4806 -2.4561 -0.2852
 3062SOL     OW20821   1.573   2.357   8.600 -0.1636  0.6270 -0.1471
 3062SOL    HW120822   1.545   2.298   8.529  0.5807  0.1424 -0.0364
 3062SOL    HW220823   1.617   2.289   8.651  1.3679  1.7124 -0.0367
 3063SOL     OW20824   0.417   4.632   5.943  0.5916 -0.0296  0.0693
 3063SOL    HW120825   0.329   4.600   5.926  0.4106  1.5159 -1.8794
 3063SOL    HW220826   0.435   4.627   6.037 -0.7245 -2.3122  0.1740
 3064SOL     OW20827   0.134   1.249  10.293  0.3462  0.0256 -0.3905
 3064SOL    HW120828   0.055   1.296  10.266  0.0247 -0.7071 -0.7467
 3064SOL    HW220829   0.153   1.300  10.372  0.2622  1.1800 -1.1291
 3065SOL     OW20830   1.847   0.158   8.456  0.2241  0.3348  0.1413
 3065SOL    HW120831   1.864   0.110   8.375 -2.7312  1.1679 -1.0052
 3065SOL    HW220832   1.931   0.156   8.502  1.1370 -0.0999 -1.5696
 3066SOL     OW20833   3.295   3.538  15.780  0.2346  0.4022 -0.3348
 3066SOL    HW120834   3.355   3.610  15.764  1.1651 -0.4661 -0.7483
 3066SOL    HW220835   3.260   3.565  15.865  4.1395 -0.6493  1.6257
 3067SOL     OW20836   1.543   4.101   7.064 -0.4023  0.4097 -0.2229
 3067SOL    HW120837   1.572   4.190   7.087  0.8553  0.0351 -0.3574
 3067SOL    HW220838   1.455   4.120   7.032 -0.0098  3.4855  0.5251
 3068SOL     OW20839   3.594   0.075   2.917  0.0373 -0.0585 -0.1248
 3068SOL    HW120840   3.657   0.005   2.899  0.4176  0.5706 -1.2256
 3068SOL    HW220841   3.579   0.098   2.825  0.9568  1.6105  0.1463
 3069SOL     OW20842   0.162   1.164   2.076  0.1183  0.4435 -0.4497
 3069SOL    HW120843   0.108   1.206   2.143  0.3200 -0.7419  0.4440
 3069SOL    HW220844   0.241   1.160   2.130 -0.9728  3.1457  1.3329
 3070SOL     OW20845   0.597   1.543   2.192  0.3629 -0.5084  0.1416
 3070SOL    HW120846   0.582   1.464   2.244 -0.1436 -1.1685 -1.0150
 3070SOL    HW220847   0.674   1.528   2.139  0.4218 -0.2158  0.1410
 3071SOL     OW20848   3.608   1.047   7.850 -0.0434  0.3146 -0.3132
 3071SOL    HW120849   3.696   1.034   7.885  1.0274  1.6378 -2.5282
 3071SOL    HW220850   3.548   1.028   7.922 -0.5977 -1.1952 -1.1594
 3072SOL     OW20851   2.731   2.329   2.427  0.0776  0.5307  0.5912
 3072SOL    HW120852   2.755   2.239   2.408  0.2008  0.8468 -0.7511
 3072SOL    HW220853   2.675   2.315   2.503 -0.3061 -0.8199  0.0620
 3073SOL     OW20854   3.550   3.022   5.868  0.4218 -0.2616  0.4168
 3073SOL    HW120855   3.498   2.954   5.825 -2.4692  2.0847  0.2056
 3073SOL    HW220856   3.537   3.091   5.803  1.4086 -1.8467 -1.4483
 3074SOL     OW20857   2.535   1.592   0.736 -0.6639  0.1975  0.0644
 3074SOL    HW120858   2.455   1.554   0.773  0.2548 -0.5533  1.2734
 3074SOL    HW220859   2.552   1.669   0.790 -2.3089  1.5972 -1.3839
 3075SOL     OW20860   1.051   1.420   6.395  0.2237  0.9107 -0.3353
 3075SOL    HW120861   0.969   1.428   6.443  0.1535  3.0677 -0.8019
 3075SOL    HW220862   1.033   1.347   6.336  0.3455 -0.3207  1.1459
 3076SOL     OW20863   2.855   2.805  15.905 -0.3538 -0.1712  0.2164
 3076SOL    HW120864   2.786   2.808  15.972  1.4077  2.1940  1.9447
 3076SOL    HW220865   2.803   2.809  15.825 -1.9289 -1.8900  1.1644
 3077SOL     OW20866   4.216   0.710   5.929 -0.1676  0.7381  0.3886
 3077SOL    HW120867   4.228   0.759   5.848 -0.2271  0.3831  0.1676
 3077SOL    HW220868   4.272   0.752   5.995  0.8569 -1.4032  0.8810
 3078SOL     OW20869   2.261   4.487  15.169  0.3370 -0.0606 -0.2405
 3078SOL    HW120870   2.340   4.484  15.116  0.4279  0.5088 -0.1371
 3078SOL    HW220871   2.291   4.523  15.252 -1.7489 -0.2041  0.5786
 3079SOL     OW20872   1.437   0.594   2.160 -0.0822  0.1978 -0.4945
 3079SOL    HW120873   1.371   0.529   2.183  2.9461 -2.1221  1.7007
 3079SOL    HW220874   1.435   0.583   2.065  1.0214  1.7737 -0.7182
 3080SOL     OW20875   0.415   0.037   8.209 -0.1010 -0.3636 -0.3768
 3080SOL    HW120876   0.492   0.085   8.242  0.9453 -0.9713 -1.9580
 3080SOL    HW220877   0.366   0.034   8.291 -2.8054 -0.2572 -2.0130
 3081SOL     OW20878   0.858   3.773   3.330 -0.5451  0.2402 -0.4368
 3081SOL    HW120879   0.855   3.855   3.281  0.9994  0.9173  0.6087
 3081SOL    HW220880   0.817   3.712   3.268  0.9928 -0.4741 -0.7539
 3082SOL     OW20881   3.510   3.387   2.730 -0.4041  0.1754  0.2118
 3082SOL    HW120882   3.515   3.478   2.700  0.3534 -0.0506 -0.3387
 3082SOL    HW220883   3.589   3.341   2.705 -1.9799 -2.2138 -0.3780
 3083SOL     OW20884   0.433   0.745  10.112 -0.1506 -0.3049 -0.3350
 3083SOL    HW120885   0.369   0.800  10.159 -1.3825 -2.2995  0.3022
 3083SOL    HW220886   0.401   0.755  10.023  2.7057  0.4729 -1.2836
 3084SOL     OW20887   3.649   0.860   4.901  0.2332  0.2221 -0.2099
 3084SOL    HW120888   3.662   0.864   4.806  1.5257 -0.2014 -0.0581
 3084SOL    HW220889   3.739   0.874   4.931  0.4841  0.7480 -1.2038
 3085SOL     OW20890   1.244   1.082   8.002  0.8953  0.5819 -0.0028
 3085SOL    HW120891   1.282   1.001   7.967 -2.5148 -0.4802 -1.1585
 3085SOL    HW220892   1.315   1.146   7.991  0.1904  1.3508 -0.0984
 3086SOL     OW20893   2.136   2.367   8.466  1.1282 -0.6489 -0.0611
 3086SOL    HW120894   2.158   2.459   8.478 -0.7668  0.0941 -2.4435
 3086SOL    HW220895   2.048   2.370   8.502  1.2168 -2.1391  0.2689
 3087SOL     OW20896   2.388   3.736   7.853 -0.1940  0.3347  0.1875
 3087SOL    HW120897   2.441   3.668   7.811 -2.1217  0.6640 -2.7075
 3087SOL    HW220898   2.406   3.811   7.796 -2.8320 -0.0049 -1.0806
 3088SOL     OW20899   2.508   0.161  16.584  0.1798  0.0985 -1.1440
 3088SOL    HW120900   2.434   0.120  16.540 -0.2964  0.7464 -0.9483
 3088SOL    HW220901   2.511   0.238  16.527  1.9201  0.5071 -0.5093
 3089SOL     OW20902   1.524   1.135   1.776  0.5721 -0.3556  0.2828
 3089SOL    HW120903   1.480   1.052   1.760  0.2629 -0.2778  0.7276
 3089SOL    HW220904   1.575   1.119   1.856 -0.9586 -0.8761  1.1446
 3090SOL     OW20905   1.814   0.137   1.132  0.3259  0.1939  0.1389
 3090SOL    HW120906   1.789   0.226   1.108  1.9525  0.4701 -0.5117
 3090SOL    HW220907   1.835   0.103   1.045 -2.5466 -0.8230 -0.1621
 3091SOL     OW20908   1.454   4.731   2.204  0.4963 -0.7242 -0.0091
 3091SOL    HW120909   1.469   4.710   2.296  3.0809 -0.7774 -0.4179
 3091SOL    HW220910   1.495   4.653   2.168  0.5088  1.0514 -3.8381
 3092SOL     OW20911   3.875   2.796  12.247  0.0686 -0.0741 -0.3491
 3092SOL    HW120912   3.895   2.825  12.336 -0.1044 -0.8684 -0.0502
 3092SOL    HW220913   3.882   2.881  12.204 -0.5396 -0.3700 -1.0409
 3093SOL     OW20914   1.016   3.343   6.168  0.9868 -0.0123 -0.2042
 3093SOL    HW120915   1.111   3.355   6.162  1.0825 -0.2602  0.7298
 3093SOL    HW220916   0.995   3.391   6.249 -0.3325  2.0474 -1.7585
 3094SOL     OW20917   2.981   0.682   2.350 -0.7259  0.0482 -0.0451
 3094SOL    HW120918   3.072   0.652   2.354 -0.5739  0.4857 -0.2016
 3094SOL    HW220919   2.949   0.653   2.265 -0.6066  0.2271 -0.1513
 3095SOL     OW20920   2.547   3.292   2.781  0.4457 -0.2721 -0.3962
 3095SOL    HW120921   2.608   3.360   2.811  0.1707 -0.4114  0.4751
 3095SOL    HW220922   2.564   3.227   2.849  1.7169  3.8100  3.2027
 3096SOL     OW20923   4.426   1.583   6.077 -0.1890  0.8200  0.1240
 3096SOL    HW120924   4.390   1.549   5.995  0.1346 -0.9374  0.7046
 3096SOL    HW220925   4.503   1.526   6.086  0.0222  1.0609 -0.1628
 3097SOL     OW20926   1.281   2.185   3.259 -0.1120  0.0865  0.2414
 3097SOL    HW120927   1.298   2.194   3.165  1.5990 -1.6034  0.3943
 3097SOL    HW220928   1.355   2.232   3.297 -0.7576  0.2588  1.2740
 3098SOL     OW20929   1.819   2.545   1.229  0.0228  0.0435 -0.4886
 3098SOL    HW120930   1.832   2.637   1.208 -1.3041  0.5183  0.7938
 3098SOL    HW220931   1.837   2.513   1.140  0.0440  0.1909 -0.5376
 3099SOL     OW20932   0.759   0.052   3.739  0.3043  0.0268  0.4041
 3099SOL    HW120933   0.800   4.732   3.672 -1.9951  0.2956 -1.2017
 3099SOL    HW220934   0.756   0.131   3.685  0.2037  0.4032  0.9678
 3100SOL     OW20935   3.341   3.192   5.706  0.1461  0.2016 -0.2297
 3100SOL    HW120936   3.277   3.164   5.641 -0.6589 -2.4606  1.7337
 3100SOL    HW220937   3.397   3.253   5.659  0.1819 -0.5009 -1.0948
 3101SOL     OW20938   2.533   2.873   4.341 -0.3145  0.3979  0.4256
 3101SOL    HW120939   2.611   2.907   4.298 -0.1131 -0.7048 -0.0854
 3101SOL    HW220940   2.520   2.916   4.425 -0.1523 -0.6669  0.9974
 3102SOL     OW20941   3.260   1.211   4.837  0.2506  0.9014  0.5841
 3102SOL    HW120942   3.223   1.268   4.769 -1.1505  1.2272  1.6166
 3102SOL    HW220943   3.353   1.213   4.816  0.1311  2.1288  0.2028
 3103SOL     OW20944   0.660   0.055  16.362 -0.0932 -0.4211 -0.3960
 3103SOL    HW120945   0.667   4.732  16.286  1.8718  1.2891 -1.5207
 3103SOL    HW220946   0.603   4.728  16.407  2.6924 -2.1467  0.7044
 3104SOL     OW20947   2.209   3.469   8.505  0.1458 -0.6549  0.2756
 3104SOL    HW120948   2.194   3.521   8.426 -1.3847  1.1924  1.7785
 3104SOL    HW220949   2.261   3.528   8.560 -2.4984  2.6074 -0.7009
 3105SOL     OW20950   1.994   3.614  17.677 -0.2626  0.1284 -0.7110
 3105SOL    HW120951   1.970   3.602   0.029  1.3821 -0.3244 -0.3374
 3105SOL    HW220952   1.944   3.557  17.619  0.3859 -0.3033 -0.8472
 3106SOL     OW20953   4.246   3.335   0.796  0.1297 -0.0082  0.1178
 3106SOL    HW120954   4.298   3.329   0.876 -0.0293 -2.2007  0.0526
 3106SOL    HW220955   4.158   3.358   0.827  0.5866  0.9451  0.6946
 3107SOL     OW20956   0.607   0.434   5.254 -0.5227 -0.5117 -0.0253
 3107SOL    HW120957   0.609   0.510   5.311 -1.2880 -1.3831  1.1611
 3107SOL    HW220958   0.560   0.470   5.180 -0.5509 -3.4584 -1.4578
 3108SOL     OW20959   1.229   2.043   5.246  0.7975  1.1413  0.3077
 3108SOL    HW120960   1.226   2.087   5.161  0.3636  0.2454 -0.1361
 3108SOL    HW220961   1.176   2.101   5.301  0.6430  0.1984  1.1462
 3109SOL     OW20962   4.250   1.153   3.008 -0.1996 -0.0983  0.0460
 3109SOL    HW120963   4.319   1.145   2.943  0.7407  1.0614  0.8969
 3109SOL    HW220964   4.226   1.064   3.036 -1.7808  0.4998  0.6045
 3110SOL     OW20965   1.425   1.553   5.648  0.3323  0.9650  0.4646
 3110SOL    HW120966   1.406   1.467   5.610  0.9876  0.7966  0.5228
 3110SOL    HW220967   1.435   1.532   5.740 -1.4242  0.3056  0.5122
 3111SOL     OW20968   3.439   3.903  10.541  0.6462 -0.9297  0.4331
 3111SOL    HW120969   3.457   3.810  10.529 -0.6828 -0.8732 -2.1354
 3111SOL    HW220970   3.389   3.892  10.622  0.0072 -2.0002 -0.1084
 3112SOL     OW20971   0.186   1.071   0.969  0.5807 -0.4398  0.2546
 3112SOL    HW120972   0.247   1.076   1.043  0.4319 -1.5283  0.4551
 3112SOL    HW220973   0.105   1.050   1.016  0.6641  0.1699  0.6591
 3113SOL     OW20974   0.185   2.160  14.289 -0.2717  0.2170  0.5008
 3113SOL    HW120975   0.107   2.214  14.302 -0.6724 -0.7281  2.0552
 3113SOL    HW220976   0.247   2.228  14.316  0.8883 -1.0595  1.0464
 3114SOL     OW20977   3.692   2.335  16.130 -0.1242  0.4542  0.2548
 3114SOL    HW120978   3.733   2.248  16.135  0.1702  0.6720  1.6563
 3114SOL    HW220979   3.745   2.376  16.061  1.0732 -0.2823  0.7299
 3115SOL     OW20980   0.376   4.432  17.351  0.2420 -0.2654  0.0374
 3115SOL    HW120981   0.401   4.341  17.369  0.0247 -0.1654  0.8437
 3115SOL    HW220982   0.425   4.479  17.419 -0.8272 -0.5848  1.0388
 3116SOL     OW20983   2.528   1.190  16.362 -0.1885  0.1277 -0.0292
 3116SOL    HW120984   2.546   1.174  16.269 -1.1453  0.3099 -0.2480
 3116SOL    HW220985   2.433   1.179  16.360 -0.1827  0.4701 -2.1286
 3117SOL     OW20986   3.863   4.452   7.496 -0.5218  0.4558 -0.2692
 3117SOL    HW120987   3.907   4.511   7.435 -1.2341  0.6268 -0.6159
 3117SOL    HW220988   3.875   4.367   7.454 -0.3096  0.5601 -0.4158
 3118SOL     OW20989   2.559   2.925  15.930 -0.0434 -0.4425  0.6744
 3118SOL    HW120990   2.626   2.990  15.951  0.0906 -0.3259 -0.1241
 3118SOL    HW220991   2.483   2.983  15.937 -0.1777 -0.4448 -0.7467
 3119SOL     OW20992   2.140   4.284   4.528 -0.4669  0.5306 -0.1408
 3119SOL    HW120993   2.122   4.361   4.475  4.9482  0.4108 -2.0854
 3119SOL    HW220994   2.070   4.291   4.593 -0.0652 -1.6594  0.5356
 3120SOL     OW20995   4.069   2.783   1.718  0.1664  0.6005  0.4431
 3120SOL    HW120996   4.083   2.766   1.811  1.3929  1.3798  0.3911
 3120SOL    HW220997   3.974   2.796   1.716  0.1777  0.8322  1.7082
 3121SOL     OW20998   2.021   2.157   7.584 -0.1414 -0.4881 -0.7672
 3121SOL    HW120999   1.996   2.121   7.669  1.3836 -0.5691 -0.3536
 3121SOL    HW221000   2.046   2.249   7.594 -0.9757 -0.2839 -0.5112
 3122SOL     OW21001   2.368   4.642   9.114 -0.7871  0.2660  0.1461
 3122SOL    HW121002   2.431   4.573   9.095 -0.1502  0.4851  1.5352
 3122SOL    HW221003   2.377   4.626   9.207  0.6466 -1.0417 -0.2305
 3123SOL     OW21004   4.041   2.002   3.306 -0.2044  0.0807 -0.0518
 3123SOL    HW121005   4.063   2.037   3.219  1.7894 -0.7919  0.0896
 3123SOL    HW221006   4.054   2.079   3.361 -3.7315  0.2000  0.5738
 3124SOL     OW21007   1.286   4.608   4.105 -0.1227 -0.4706  0.2204
 3124SOL    HW121008   1.377   4.610   4.135 -0.1398  0.0559  0.2362
 3124SOL    HW221009   1.247   4.565   4.181 -2.5200  0.9250 -0.2395
 3125SOL     OW21010   0.081   2.910  16.080  0.1307 -0.3513  0.1131
 3125SOL    HW121011   0.123   2.983  16.125 -1.9080  0.9340 -0.0407
 3125SOL    HW221012   0.113   2.918  15.990 -1.0091  1.0917 -0.1730
 3126SOL     OW21013   3.254   1.968   0.568  0.5328  0.5958 -0.6940
 3126SOL    HW121014   3.343   1.942   0.592  0.9185  0.7728 -1.9332
 3126SOL    HW221015   3.251   2.061   0.547  0.8920  0.7025 -0.2544
 3127SOL     OW21016   4.577   0.592  15.606 -0.8173  0.1180  0.3286
 3127SOL    HW121017   4.551   0.677  15.572 -0.3318 -0.0598 -0.5126
 3127SOL    HW221018   4.582   0.550  15.520  0.3462 -0.6403  0.7595
 3128SOL     OW21019   3.158   0.797   8.933  0.0632 -0.6022 -0.8487
 3128SOL    HW121020   3.251   0.819   8.939  0.1075 -1.0184  0.0240
 3128SOL    HW221021   3.124   0.875   8.978 -1.1556 -2.0717  0.8123
 3129SOL     OW21022   4.490   1.965   5.445 -0.3167 -0.5604  0.0806
 3129SOL    HW121023   4.542   1.926   5.375 -0.9489  0.6815 -1.0667
 3129SOL    HW221024   4.415   1.999   5.397  0.2679  1.8455  0.8538
 3130SOL     OW21025   1.920   0.158   4.064  0.7361  0.5434 -0.0691
 3130SOL    HW121026   1.900   0.080   4.011  2.0985  0.2919 -0.2028
 3130SOL    HW221027   1.837   0.155   4.112  0.7180 -2.6049 -0.2635
 3131SOL     OW21028   2.265   3.655  13.796  0.2019 -0.0669  0.0538
 3131SOL    HW121029   2.310   3.724  13.845  0.2067  0.0279 -0.0837
 3131SOL    HW221030   2.175   3.672  13.825  0.2917 -1.4335  1.1614
 3132SOL     OW21031   3.722   4.543   6.173  0.1495 -0.5678 -0.4214
 3132SOL    HW121032   3.739   4.476   6.240  0.8734 -1.0068 -1.0529
 3132SOL    HW221033   3.626   4.540   6.170  0.0999 -0.5757  1.0623
 3133SOL     OW21034   2.905   0.119   7.407 -0.1641  1.0133  0.5833
 3133SOL    HW121035   2.908   0.035   7.453 -0.7265  0.8333  0.2875
 3133SOL    HW221036   2.812   0.136   7.421 -0.2982  0.1309  0.7904
 3134SOL     OW21037   0.147   4.282   2.031 -0.3569 -0.2753  0.6707
 3134SOL    HW121038   0.188   4.288   2.117  0.3751  2.7274  0.0995
 3134SOL    HW221039   0.084   4.354   2.031 -0.9226 -0.7822  1.4715
 3135SOL     OW21040   3.007   0.959   4.147  0.4501  0.7700 -0.2932
 3135SOL    HW121041   2.933   0.916   4.191 -1.3618  2.8160 -1.3470
 3135SOL    HW221042   2.955   1.018   4.093 -0.3766  0.0992 -0.2264
 3136SOL     OW21043   0.050   3.297   3.024  0.5380 -0.4257 -0.0315
 3136SOL    HW121044   0.114   3.359   3.060  2.7931 -1.8661 -1.5381
 3136SOL    HW221045   4.715   3.294   3.089 -0.8023  2.4699 -1.3350
 3137SOL     OW21046   3.127   0.800   7.175  0.1687 -0.1610 -0.2154
 3137SOL    HW121047   3.210   0.752   7.181  0.1841 -0.0447  0.4837
 3137SOL    HW221048   3.095   0.802   7.265  0.9620  1.2088  0.0294
 3138SOL     OW21049   2.784   0.888   4.327  0.2882  0.5505  0.0683
 3138SOL    HW121050   2.789   0.797   4.358  0.1277  0.8899  1.0974
 3138SOL    HW221051   2.782   0.939   4.408 -1.8807 -2.3426  1.8564
 3139SOL     OW21052   0.654   2.662   7.100  0.1808 -0.0059 -0.6901
 3139SOL    HW121053   0.561   2.666   7.074 -0.2029 -0.7368  0.5685
 3139SOL    HW221054   0.645   2.635   7.191  0.1655  0.1598 -0.6444
 3140SOL     OW21055   2.622   1.122   3.281 -0.2856 -0.0992 -0.6005
 3140SOL    HW121056   2.635   1.114   3.186 -0.1986  0.6430 -0.6515
 3140SOL    HW221057   2.707   1.092   3.313 -0.1976 -0.0735 -0.8069
 3141SOL     OW21058   4.384   1.538   2.529 -0.2733  0.5885  0.1760
 3141SOL    HW121059   4.441   1.594   2.582  2.5105 -1.7408 -0.3256
 3141SOL    HW221060   4.407   1.555   2.437 -1.1377  0.5728 -0.0364
 3142SOL     OW21061   3.493   3.739   9.290 -1.5602  0.0259 -0.0868
 3142SOL    HW121062   3.440   3.697   9.222 -0.3041 -0.4418 -0.7881
 3142SOL    HW221063   3.506   3.668   9.353 -0.7301 -0.4456 -0.8023
 3143SOL     OW21064   3.936   1.222   8.655 -0.3650 -0.2374 -0.4103
 3143SOL    HW121065   3.948   1.127   8.656 -0.6091 -0.2584  0.5660
 3143SOL    HW221066   3.992   1.251   8.582 -0.8520  2.2211  0.1798
 3144SOL     OW21067   4.521   2.496   5.164 -0.6955 -0.4522  0.3284
 3144SOL    HW121068   4.530   2.584   5.202 -0.2359  0.0115 -0.8668
 3144SOL    HW221069   4.433   2.504   5.128 -0.8177 -0.3872  0.6433
 3145SOL     OW21070   2.176   3.273   9.782  0.5486  0.0789  0.6527
 3145SOL    HW121071   2.205   3.240   9.697 -1.3998  0.2848 -0.0935
 3145SOL    HW221072   2.091   3.233   9.799 -0.7499  1.7306 -1.9953
 3146SOL     OW21073   2.920   1.950   4.455 -0.3419  0.2211  0.1198
 3146SOL    HW121074   2.880   1.878   4.503 -0.8405  0.3352 -0.1233
 3146SOL    HW221075   2.917   2.014   4.526  2.4266 -0.4563  0.8515
 3147SOL     OW21076   3.601   4.601   3.630  0.2333  0.6082 -0.3842
 3147SOL    HW121077   3.654   4.679   3.646  3.1243 -1.3589 -0.2763
 3147SOL    HW221078   3.628   4.579   3.541  1.3024  0.0187  0.0771
 3148SOL     OW21079   4.712   0.130  15.272 -0.0141  0.3317 -0.0449
 3148SOL    HW121080   4.677   0.196  15.332  0.7503  2.5461 -2.0166
 3148SOL    HW221081   4.631   0.084  15.252 -1.4046  1.9476  1.9501
 3149SOL     OW21082   4.673   0.084   0.565 -0.4624  0.0704  0.4361
 3149SOL    HW121083   0.007   0.022   0.540 -0.9736  0.6772 -2.4949
 3149SOL    HW221084   4.602   0.055   0.507 -1.1499 -0.5316  1.5862
 3150SOL     OW21085   0.118   4.587  14.818 -0.3792  0.5188 -0.9765
 3150SOL    HW121086   0.177   4.571  14.745 -0.7532 -0.2213 -1.1142
 3150SOL    HW221087   0.079   4.673  14.800 -0.5158  0.7849  0.5875
 3151SOL     OW21088   2.259   1.804   9.060  0.3876 -0.1810  0.0143
 3151SOL    HW121089   2.320   1.764   8.997  1.9226 -1.3323  2.2471
 3151SOL    HW221090   2.327   1.816   9.126  1.1520 -1.4601 -0.5355
 3152SOL     OW21091   0.968   3.265  13.376  0.0454 -0.3556  0.1072
 3152SOL    HW121092   1.059   3.273  13.348  0.7234 -0.3650  2.2564
 3152SOL    HW221093   0.958   3.353  13.413 -0.5351 -0.0909 -0.6897
 3153SOL     OW21094   1.929   3.532   0.941  0.4107 -1.0099 -1.1029
 3153SOL    HW121095   1.934   3.515   1.035  0.6429  1.1253 -0.7243
 3153SOL    HW221096   1.854   3.479   0.914 -0.7559  0.4059 -0.5811
 3154SOL     OW21097   1.257   2.446   2.046 -0.9164  0.3997  0.5812
 3154SOL    HW121098   1.325   2.387   2.014 -0.6095  2.1220 -1.9840
 3154SOL    HW221099   1.316   2.512   2.082  2.4585 -3.4564  2.0219
 3155SOL     OW21100   3.770   2.509   4.649  0.0730 -0.0051 -0.4187
 3155SOL    HW121101   3.861   2.479   4.644  0.2726  0.4841  0.2930
 3155SOL    HW221102   3.762   2.565   4.572  0.7937  1.5496  0.6351
 3156SOL     OW21103   1.000   2.020   0.372  0.0572 -1.2646  0.1004
 3156SOL    HW121104   0.917   1.973   0.366 -1.0758  0.8246 -0.6839
 3156SOL    HW221105   0.962   2.107   0.360 -3.0649 -2.5218  0.8202
 3157SOL     OW21106   2.440   3.805   8.184  0.4705 -0.3424  0.3185
 3157SOL    HW121107   2.485   3.792   8.101  2.5882 -0.1348  1.4535
 3157SOL    HW221108   2.510   3.803   8.249  2.3180  3.6002 -1.5771
 3158SOL     OW21109   1.501   1.384   1.445  0.0312  0.7341 -0.5875
 3158SOL    HW121110   1.473   1.446   1.378  2.5383  1.1493 -1.2632
 3158SOL    HW221111   1.423   1.335   1.472  0.5556 -0.3717 -1.1037
 3159SOL     OW21112   3.305   2.042   7.477 -0.0444 -0.1096 -0.3795
 3159SOL    HW121113   3.225   1.999   7.447  1.4189 -0.3865 -3.8775
 3159SOL    HW221114   3.368   2.034   7.405  0.0529 -0.4891 -0.2493
 3160SOL     OW21115   2.343   1.637   6.562 -0.0104 -0.4230 -0.1497
 3160SOL    HW121116   2.272   1.646   6.626 -0.7533 -0.4258 -0.9899
 3160SOL    HW221117   2.300   1.562   6.520  0.9434 -0.8699 -0.3308
 3161SOL     OW21118   0.027   1.998   1.415 -0.2614  0.4439 -0.4068
 3161SOL    HW121119   0.089   1.927   1.398  0.7936  0.9933  1.0820
 3161SOL    HW221120   4.683   1.966   1.373  0.4548 -3.0881  0.9486
 3162SOL     OW21121   2.931   1.749  12.509 -0.0695 -0.3836  0.1045
 3162SOL    HW121122   2.993   1.819  12.492  0.2264 -0.8061 -0.5572
 3162SOL    HW221123   2.994   1.678  12.497  0.7286  0.1191  1.2969
 3163SOL     OW21124   1.786   0.670   3.372  0.1596 -0.4982  0.7913
 3163SOL    HW121125   1.780   0.579   3.400 -0.9931 -0.1218  1.7358
 3163SOL    HW221126   1.875   0.681   3.338 -0.5910  1.1640 -0.6798
 3164SOL     OW21127   4.201   0.011   0.805 -0.0480  0.1192  0.0369
 3164SOL    HW121128   4.220   0.027   0.712 -0.2760  2.5741  0.4029
 3164SOL    HW221129   4.164   0.094   0.837  0.3509 -0.7235  2.6235
 3165SOL     OW21130   4.718   0.512  10.439  0.4943 -0.5727 -0.1433
 3165SOL    HW121131   4.675   0.498  10.523 -3.0103 -2.1915 -2.2197
 3165SOL    HW221132   0.066   0.467  10.453 -0.0653 -1.2995  0.8951
 3166SOL     OW21133   4.696   2.580   6.012 -0.2643 -0.1476 -0.0755
 3166SOL    HW121134   0.023   2.652   6.007  2.8164 -2.8303  0.3578
 3166SOL    HW221135   0.002   2.517   6.070 -1.9233 -1.7379 -0.6284
 3167SOL     OW21136   0.385   0.669   2.999  0.1878 -0.4139 -0.6897
 3167SOL    HW121137   0.414   0.745   2.949 -1.0577 -0.0167 -0.7941
 3167SOL    HW221138   0.319   0.710   3.055  0.3790  1.0229 -1.5398
 3168SOL     OW21139   2.395   4.656   8.024  0.3573 -0.2041  0.3676
 3168SOL    HW121140   2.364   4.701   8.102  0.3971  0.3104  0.0851
 3168SOL    HW221141   2.412   4.735   7.972 -1.5991 -0.3598 -0.5196
 3169SOL     OW21142   0.753   0.559   3.424 -0.7606  0.7377  0.2196
 3169SOL    HW121143   0.789   0.552   3.335 -1.4359 -2.4075  0.1794
 3169SOL    HW221144   0.823   0.513   3.471 -0.1883 -0.9617 -2.2413
 3170SOL     OW21145   1.306   3.574   6.056 -0.3828  0.2555  0.7676
 3170SOL    HW121146   1.218   3.586   6.020 -1.1057 -0.4460  2.2955
 3170SOL    HW221147   1.357   3.592   5.977  0.1434  0.9874  1.2748
 3171SOL     OW21148   4.227   0.409   0.767  0.4274  0.4892  0.0576
 3171SOL    HW121149   4.165   0.390   0.697 -1.6465  4.0406  0.9327
 3171SOL    HW221150   4.204   0.342   0.831 -1.2167 -0.0024 -1.0776
 3172SOL     OW21151   1.072   3.927  15.062  0.5522 -0.1060  0.1838
 3172SOL    HW121152   1.038   3.842  15.091 -0.6493  0.0965 -0.6642
 3172SOL    HW221153   1.033   3.931  14.975  1.5222 -0.7023 -0.2818
 3173SOL     OW21154   0.890   3.476   9.315 -0.0987 -0.1391 -0.3822
 3173SOL    HW121155   0.831   3.518   9.252 -0.6059 -0.7695 -0.3297
 3173SOL    HW221156   0.821   3.427   9.360 -1.2416  2.9967  1.2687
 3174SOL     OW21157   4.598   4.726  14.187  0.7159  0.0378  0.2652
 3174SOL    HW121158   4.663   4.735  14.257  0.0997 -0.9126  0.9689
 3174SOL    HW221159   4.527   0.043  14.224  0.7520 -0.4832  1.0841
 3175SOL     OW21160   4.332   1.863   6.004  0.3973  0.1531 -0.4362
 3175SOL    HW121161   4.327   1.772   6.033  0.9964 -0.1841 -1.4085
 3175SOL    HW221162   4.319   1.861   5.910  4.2683  0.2319 -0.9582
 3176SOL     OW21163   2.814   0.158  12.476 -0.7593  0.4815  0.4318
 3176SOL    HW121164   2.815   0.085  12.414 -1.2043 -0.3064  1.3477
 3176SOL    HW221165   2.753   0.122  12.540 -0.9186  0.7647  0.4344
 3177SOL     OW21166   4.730   3.575   7.393  0.4687  0.6651  0.2693
 3177SOL    HW121167   4.704   3.610   7.308  2.5297  1.6326  0.0428
 3177SOL    HW221168   0.055   3.503   7.374 -1.6210 -1.1070  0.3731
 3178SOL     OW21169   2.811   3.592  11.431  0.2867  0.6829  0.0365
 3178SOL    HW121170   2.776   3.575  11.343  2.2306 -3.0162  0.0085
 3178SOL    HW221171   2.886   3.646  11.406  0.5920 -0.4243 -1.4223
 3179SOL     OW21172   4.348   1.125  15.143 -0.3730  0.3809 -0.5294
 3179SOL    HW121173   4.312   1.159  15.061  3.1287  1.9107 -1.4262
 3179SOL    HW221174   4.265   1.090  15.176 -0.3863 -0.0060 -0.9823
 3180SOL     OW21175   1.800   3.377   6.500  0.2157 -0.2088 -0.1106
 3180SOL    HW121176   1.774   3.286   6.489 -0.1829  0.0362 -1.1884
 3180SOL    HW221177   1.755   3.430   6.434  1.2888  0.7827 -0.0484
 3181SOL     OW21178   2.212   4.520  11.224 -0.5475 -0.0529  0.8024
 3181SOL    HW121179   2.230   4.505  11.131 -0.3688 -2.1355  1.1633
 3181SOL    HW221180   2.266   4.451  11.264 -2.3534 -2.9248 -1.6300
 3182SOL     OW21181   4.456   0.259   4.178  0.0541 -0.0219 -0.0888
 3182SOL    HW121182   4.514   0.329   4.207 -0.9894  0.7456  0.1670
 3182SOL    HW221183   4.500   0.189   4.226  1.3590  0.6394 -0.3158
 3183SOL     OW21184   2.284   2.405   7.373 -0.6711 -0.2206 -0.0523
 3183SOL    HW121185   2.379   2.417   7.376 -0.3504 -2.3173 -2.2895
 3183SOL    HW221186   2.249   2.468   7.436 -1.4977 -2.3440  1.6167
 3184SOL     OW21187   0.579   3.740   7.370 -0.3822  0.4322 -0.4611
 3184SOL    HW121188   0.552   3.665   7.319  2.3077  0.0945 -1.4050
 3184SOL    HW221189   0.583   3.707   7.460 -0.7661  2.0966  0.1790
 3185SOL     OW21190   0.930   0.460   3.943  0.2567  0.1171 -0.4563
 3185SOL    HW121191   0.860   0.482   4.004 -0.0180  0.9068 -1.0404
 3185SOL    HW221192   0.981   0.541   3.937 -0.7946  0.8565  0.6287
 3186SOL     OW21193   1.500   4.126   8.423 -0.1141 -0.6216 -0.2506
 3186SOL    HW121194   1.555   4.199   8.449  0.7185 -0.5513 -2.2152
 3186SOL    HW221195   1.440   4.120   8.497  0.8527  3.1478  0.8108
 3187SOL     OW21196   1.071   2.766  15.148  0.5132  0.6884  0.5398
 3187SOL    HW121197   1.059   2.774  15.242 -0.9100  3.6178  0.1292
 3187SOL    HW221198   1.032   2.852  15.130 -0.5258  0.5972  2.3462
 3188SOL     OW21199   3.278   0.419   1.811  0.1375 -0.0525 -0.9725
 3188SOL    HW121200   3.353   0.461   1.769 -0.8884  3.2209  0.4498
 3188SOL    HW221201   3.320   0.337   1.837 -0.0228  1.3003  3.4888
 3189SOL     OW21202   1.910   1.353   2.305 -0.0936  0.1423  0.0681
 3189SOL    HW121203   1.936   1.284   2.365 -0.0757  0.1902  0.1157
 3189SOL    HW221204   1.916   1.417   2.375 -0.2883 -1.4236  1.5070
 3190SOL     OW21205   3.466   4.668   6.707  0.4752  0.7410 -0.2432
 3190SOL    HW121206   3.398   4.729   6.680  0.4909  0.4720 -0.9031
 3190SOL    HW221207   3.539   4.723   6.678  1.0684  0.7379  1.2549
 3191SOL     OW21208   0.924   2.189   1.420  0.3174  0.1774  0.0041
 3191SOL    HW121209   1.004   2.138   1.422 -0.0456 -0.2871  2.4620
 3191SOL    HW221210   0.946   2.247   1.347  0.4439 -3.1097 -2.5447
 3192SOL     OW21211   4.697   0.468   2.163  0.2233  0.2263 -0.1861
 3192SOL    HW121212   0.051   0.460   2.130  1.0275  2.0001  1.4939
 3192SOL    HW221213   4.666   0.378   2.160 -2.7908  1.2447  0.0729
 3193SOL     OW21214   4.462   4.510   3.636 -0.5357  0.7052  0.6754
 3193SOL    HW121215   4.413   4.429   3.618  1.8853 -0.6626  0.2477
 3193SOL    HW221216   4.410   4.547   3.708  2.3097  2.8008  1.6598
 3194SOL     OW21217   2.197   2.257  11.941 -0.0830  0.6212  0.1007
 3194SOL    HW121218   2.229   2.323  11.879 -1.3605  2.5872  1.5638
 3194SOL    HW221219   2.272   2.244  11.999 -0.2632  1.2203  0.4595
 3195SOL     OW21220   2.628   4.127   1.801  0.0161  0.2314 -0.3571
 3195SOL    HW121221   2.624   4.049   1.856 -1.1819  0.3590 -0.2470
 3195SOL    HW221222   2.722   4.138   1.788  0.1614 -0.4532  0.1000
 3196SOL     OW21223   4.472   4.578   2.341  0.1706 -0.0453 -0.3121
 3196SOL    HW121224   4.460   4.632   2.262 -1.8280  2.2383  1.5503
 3196SOL    HW221225   4.439   4.493   2.314  1.4046 -0.7485  0.4141
 3197SOL     OW21226   0.556   0.601  10.914  0.6378 -0.1628 -0.0398
 3197SOL    HW121227   0.543   0.506  10.909  1.6269 -0.2929 -0.2429
 3197SOL    HW221228   0.592   0.610  11.002 -2.5799 -0.1279  1.2871
 3198SOL     OW21229   1.975   4.036   2.751  0.0759 -0.4391  0.3687
 3198SOL    HW121230   2.059   4.080   2.760 -1.1265  2.6368 -3.0412
 3198SOL    HW221231   1.912   4.099   2.787 -1.1544 -1.0630 -0.6646
 3199SOL     OW21232   1.588   3.143  10.466 -0.3984 -0.2201  0.4558
 3199SOL    HW121233   1.599   3.147  10.561  0.2731  1.9667  0.2944
 3199SOL    HW221234   1.676   3.132  10.430  0.2926  0.9147  1.7978
 3200SOL     OW21235   4.090   1.644  13.992 -0.5815  0.4792 -0.0290
 3200SOL    HW121236   4.076   1.600  13.909 -0.3494  1.5723 -0.6466
 3200SOL    HW221237   4.176   1.683  13.977 -0.8068  0.6960 -0.7605
 3201SOL     OW21238   1.398   0.199   6.949 -0.4307 -0.0482 -0.3533
 3201SOL    HW121239   1.433   0.128   6.895  3.4113  1.6141 -0.0211
 3201SOL    HW221240   1.455   0.188   7.025  0.2935  0.2193 -0.8530
 3202SOL     OW21241   1.546   0.471   6.728  0.4190  0.1863  0.4411
 3202SOL    HW121242   1.471   0.477   6.669 -0.1730  1.0038  1.2850
 3202SOL    HW221243   1.564   0.377   6.724 -0.3582 -0.0022  1.4681
 3203SOL     OW21244   1.688   2.503   3.121 -0.3651  0.0435  0.2223
 3203SOL    HW121245   1.782   2.496   3.141  0.0770 -2.3506 -2.7124
 3203SOL    HW221246   1.684   2.467   3.033 -0.6740 -0.3225  0.3860
 3204SOL     OW21247   0.793   1.566  10.545 -0.3960  0.0004  0.1127
 3204SOL    HW121248   0.812   1.524  10.629  0.4215 -2.0862 -1.1210
 3204SOL    HW221249   0.864   1.524  10.496  0.0669  0.4545  0.3901
 3205SOL     OW21250   3.596   2.656   3.059 -0.2536  0.0206  0.0650
 3205SOL    HW121251   3.510   2.686   3.088  0.5942  0.9244  1.6556
 3205SOL    HW221252   3.625   2.733   3.012 -0.4200 -1.1641 -1.9794
 3206SOL     OW21253   0.499   0.414   3.068  0.8170 -0.2980 -0.4998
 3206SOL    HW121254   0.414   0.376   3.046 -0.1359  0.2735  2.2749
 3206SOL    HW221255   0.480   0.506   3.085 -0.5693 -1.2012  2.8120
 3207SOL     OW21256   3.727   4.727   8.107  0.3217 -0.0954 -0.0447
 3207SOL    HW121257   3.716   0.083   8.078 -1.2589 -0.0461  0.7198
 3207SOL    HW221258   3.740   4.676   8.027  3.0927 -1.0726  1.0343
 3208SOL     OW21259   2.989   1.034   2.097  0.0734 -0.3610  0.0355
 3208SOL    HW121260   2.925   0.999   2.158  0.8692  1.4726  1.9003
 3208SOL    HW221261   3.044   0.957   2.078  1.0903 -0.0386  1.6942
 3209SOL     OW21262   2.407   2.410   8.254  0.3089 -0.0745  0.3269
 3209SOL    HW121263   2.409   2.392   8.348 -0.8291 -2.4053 -0.0869
 3209SOL    HW221264   2.495   2.385   8.228  0.3887  0.6429 -0.0753
 3210SOL     OW21265   3.954   3.653   3.158 -0.4374  1.0971  0.3171
 3210SOL    HW121266   4.050   3.655   3.164 -0.3412 -0.9141 -0.5548
 3210SOL    HW221267   3.930   3.731   3.107  2.3224  1.2063 -0.8188
 3211SOL     OW21268   1.594   3.743   2.737 -0.6192 -0.5972  0.0764
 3211SOL    HW121269   1.511   3.716   2.777 -0.4093 -1.6169 -0.2020
 3211SOL    HW221270   1.588   3.697   2.653  1.0918  1.4281 -1.1657
 3212SOL     OW21271   1.336   0.769  14.957  0.9117  0.0203 -0.1877
 3212SOL    HW121272   1.344   0.847  14.902 -1.8922  1.5825  1.6232
 3212SOL    HW221273   1.261   0.790  15.013 -0.1801 -1.2491 -1.1469
 3213SOL     OW21274   1.751   2.538   7.580 -0.3117  0.1499 -0.1448
 3213SOL    HW121275   1.834   2.578   7.605 -0.7187  0.8096  0.1263
 3213SOL    HW221276   1.714   2.598   7.516  1.1594 -0.1331 -1.2544
 3214SOL     OW21277   3.437   4.532   6.180  0.4451  0.0342 -0.5415
 3214SOL    HW121278   3.380   4.469   6.225  2.1107 -0.9819  0.1311
 3214SOL    HW221279   3.371   4.600   6.162 -0.6066 -0.6869  0.5896
 3215SOL     OW21280   2.599   4.102   4.138 -0.5194  0.9750  0.0260
 3215SOL    HW121281   2.636   4.032   4.192  2.2072  1.1216 -1.6844
 3215SOL    HW221282   2.608   4.173   4.202 -3.0742  1.0854  0.2830
 3216SOL     OW21283   3.485   0.627   2.722 -0.1554  0.0165 -0.3880
 3216SOL    HW121284   3.529   0.550   2.758  2.4332  0.7022 -2.1040
 3216SOL    HW221285   3.551   0.696   2.729 -0.4831  0.2191  0.7488
 3217SOL     OW21286   2.142   1.125   5.710 -0.3395 -0.0979 -0.2626
 3217SOL    HW121287   2.100   1.100   5.628 -0.7086 -0.1575 -0.0550
 3217SOL    HW221288   2.104   1.059   5.769  3.0563 -1.3122  0.5739
 3218SOL     OW21289   2.247   2.235   9.245  0.4346  0.0817  0.0195
 3218SOL    HW121290   2.281   2.281   9.168  1.5124 -0.4369  0.1887
 3218SOL    HW221291   2.320   2.257   9.302  0.6937  1.0946 -0.6913
 3219SOL     OW21292   4.577   2.489  11.416  0.1102  0.1726  0.1349
 3219SOL    HW121293   4.518   2.504  11.490 -0.5813 -4.1585  0.4599
 3219SOL    HW221294   4.537   2.414  11.371  0.9626 -0.8233  1.0063
 3220SOL     OW21295   2.696   2.430   6.415 -0.1093 -0.1190  0.1162
 3220SOL    HW121296   2.761   2.371   6.452 -0.0529  1.4487  2.5188
 3220SOL    HW221297   2.669   2.383   6.337  1.9809  0.5177 -1.0017
 3221SOL     OW21298   4.271   4.693   6.546  0.4011  0.7789  0.5019
 3221SOL    HW121299   4.334   4.622   6.533 -0.1880 -0.2410  3.0325
 3221SOL    HW221300   4.325   0.026   6.586  1.1151 -0.5936  1.8761
 3222SOL     OW21301   1.484   4.387   1.313 -0.0318 -0.0307 -0.0235
 3222SOL    HW121302   1.434   4.330   1.372 -1.2814  0.6862 -0.3994
 3222SOL    HW221303   1.574   4.393   1.344 -0.0852  0.4383  0.0330
 3223SOL     OW21304   3.807   0.150   4.282  0.3470  0.1896 -0.7767
 3223SOL    HW121305   3.739   0.086   4.307 -1.2597  2.0238 -0.4821
 3223SOL    HW221306   3.826   0.119   4.193 -0.1779 -2.2597 -0.0472
 3224SOL     OW21307   4.413   1.414   5.812 -0.1236  0.1531 -0.6780
 3224SOL    HW121308   4.387   1.442   5.725  0.1529  1.9788 -0.1748
 3224SOL    HW221309   4.483   1.479   5.820 -1.4561  1.6680 -1.1973
 3225SOL     OW21310   0.519   2.851   6.197  0.7243 -0.5095  0.1027
 3225SOL    HW121311   0.604   2.814   6.172  1.5860  1.4708  0.0732
 3225SOL    HW221312   0.527   2.833   6.291 -1.3370 -1.2220  0.1353
 3226SOL     OW21313   1.828   2.085   3.212  0.2725 -0.1218  0.6074
 3226SOL    HW121314   1.873   2.010   3.253  1.5155 -0.1627 -0.8493
 3226SOL    HW221315   1.865   2.154   3.266  1.0692 -1.2632  1.5350
 3227SOL     OW21316   0.909   0.335   2.090 -0.2573 -0.5754  0.2298
 3227SOL    HW121317   0.907   0.391   2.168  0.6967  1.3268 -1.0837
 3227SOL    HW221318   0.827   0.287   2.099 -1.1783  0.4126 -2.7875
 3228SOL     OW21319   3.354   2.383   2.739 -0.7210  0.6302 -0.3000
 3228SOL    HW121320   3.278   2.441   2.731 -0.6664  0.8837  0.9010
 3228SOL    HW221321   3.380   2.396   2.830  1.9084  2.4536 -1.3270
 3229SOL     OW21322   0.884   0.614  16.919 -0.0183 -0.3644 -0.2172
 3229SOL    HW121323   0.947   0.664  16.867 -3.0106  0.3459 -3.1406
 3229SOL    HW221324   0.872   0.674  16.992 -1.3565  0.9807 -1.5402
 3230SOL     OW21325   4.481   0.165   1.902  0.6809 -0.4131 -0.5140
 3230SOL    HW121326   4.524   0.234   1.852  1.0547 -1.0901 -1.1260
 3230SOL    HW221327   4.420   0.132   1.836  0.3955  0.8991 -0.9093
 3231SOL     OW21328   1.909   1.702   8.997 -0.3241 -0.8130 -0.0370
 3231SOL    HW121329   1.853   1.770   8.959 -0.5551 -2.1455 -2.0734
 3231SOL    HW221330   1.977   1.685   8.931 -0.6736  0.0359 -0.6250
 3232SOL     OW21331   3.733   2.205   2.203  0.2550 -0.1695 -0.4883
 3232SOL    HW121332   3.771   2.118   2.217  0.3211  0.1201  1.0841
 3232SOL    HW221333   3.759   2.243   2.287  1.4271  0.1674 -0.9925
 3233SOL     OW21334   0.428   1.395   2.727 -0.6640  0.5083  0.1997
 3233SOL    HW121335   0.504   1.429   2.776 -0.4379  0.2636  0.0165
 3233SOL    HW221336   0.435   1.302   2.746  0.4604  0.9706  2.1254
 3234SOL     OW21337   0.349   3.535   9.889  0.5553  0.1662 -0.2613
 3234SOL    HW121338   0.408   3.576   9.826  0.0178 -0.4496 -1.1627
 3234SOL    HW221339   0.286   3.502   9.824 -0.7721  0.0880  1.0522
 3235SOL     OW21340   2.621   0.704   1.839 -0.1369  0.2677  0.6274
 3235SOL    HW121341   2.694   0.747   1.794 -0.5422  0.3323  0.0340
 3235SOL    HW221342   2.609   0.759   1.917 -0.7350 -0.5722  1.1295
 3236SOL     OW21343   3.117   2.956   3.330 -0.3078  0.5345  0.6139
 3236SOL    HW121344   3.062   3.030   3.306 -0.1437  0.5810  0.3838
 3236SOL    HW221345   3.083   2.885   3.275  0.2845 -0.1058  1.0682
 3237SOL     OW21346   0.033   3.097   2.458 -0.6037 -0.4398 -0.3899
 3237SOL    HW121347   0.071   3.069   2.541 -1.3336 -1.6787 -0.4846
 3237SOL    HW221348   0.040   3.193   2.464 -2.4091 -0.3980  0.9618
 3238SOL     OW21349   2.001   3.943   5.166  0.2891 -0.8230 -0.2720
 3238SOL    HW121350   1.919   3.895   5.161  0.5072 -1.2260  0.0258
 3238SOL    HW221351   2.011   3.970   5.257 -1.1623  3.9258 -1.5343
 3239SOL     OW21352   1.649   2.627   7.008 -0.5340  0.6227  0.2362
 3239SOL    HW121353   1.738   2.598   6.989 -0.9168  1.6814 -3.3164
 3239SOL    HW221354   1.613   2.547   7.047 -0.4843  0.3488 -0.2648
 3240SOL     OW21355   2.238   2.849   0.823 -0.3048  0.4375  0.2161
 3240SOL    HW121356   2.217   2.758   0.844 -0.6320  0.3705 -0.3937
 3240SOL    HW221357   2.274   2.885   0.904 -0.4622 -1.5199  1.1590
 3241SOL     OW21358   0.755   4.580  16.176 -0.0957 -0.0671 -0.4597
 3241SOL    HW121359   0.817   4.573  16.249 -0.0065 -2.0752 -0.7198
 3241SOL    HW221360   0.798   4.641  16.117 -0.7028  0.4088 -0.4098
 3242SOL     OW21361   2.684   3.819   3.950 -0.2133 -0.6448  0.0192
 3242SOL    HW121362   2.621   3.889   3.937  0.7239  0.6767  2.5983
 3242SOL    HW221363   2.767   3.859   3.976 -0.5114  1.6695 -2.5370
 3243SOL     OW21364   2.970   4.403   2.333  0.1722 -0.1440  0.1578
 3243SOL    HW121365   2.903   4.335   2.326 -0.0314  0.2321 -1.4410
 3243SOL    HW221366   2.933   4.455   2.405 -1.0489 -0.2299 -0.4096
 3244SOL     OW21367   0.911   0.700   8.662  0.0671  0.2650  0.0118
 3244SOL    HW121368   0.846   0.649   8.710  1.1362  0.2232  1.4121
 3244SOL    HW221369   0.931   0.631   8.600  0.3806  0.9735 -0.6684
 3245SOL     OW21370   2.599   4.349  17.062  0.2553 -0.1064 -0.0182
 3245SOL    HW121371   2.508   4.379  17.060 -0.3526 -1.9513 -0.0601
 3245SOL    HW221372   2.608   4.261  17.026 -2.6936 -0.6245  0.4719
 3246SOL     OW21373   1.732   0.156   5.972 -0.2677  0.5622  0.1005
 3246SOL    HW121374   1.767   0.240   5.944  0.1175  0.5902  0.6771
 3246SOL    HW221375   1.761   0.147   6.063  0.6074 -0.4261 -0.2802
 3247SOL     OW21376   3.213   1.867   4.905  0.3098  0.7941 -0.0817
 3247SOL    HW121377   3.125   1.889   4.934 -0.3060  1.1168 -2.2105
 3247SOL    HW221378   3.241   1.950   4.865 -1.1937  0.6042 -1.5211
 3248SOL     OW21379   1.134   2.719   2.428  0.4725 -0.0559 -0.6743
 3248SOL    HW121380   1.126   2.636   2.381 -0.2639 -1.9826  2.8143
 3248SOL    HW221381   1.216   2.759   2.400  2.4692 -2.2621  2.0204
 3249SOL     OW21382   0.552   0.530   3.662 -0.5419 -0.5099 -0.1717
 3249SOL    HW121383   0.589   0.547   3.575  0.4618 -2.6186 -0.1592
 3249SOL    HW221384   0.463   0.500   3.642 -0.8276 -0.8531  1.6531
 3250SOL     OW21385   4.664   0.865   3.023  0.0769  0.1100 -0.1600
 3250SOL    HW121386   4.626   0.946   3.058  1.0772 -0.6494  2.7086
 3250SOL    HW221387   4.637   0.799   3.087 -0.5087  1.5050  1.0396
 3251SOL     OW21388   4.627   0.155   3.711 -0.8976  0.0516 -0.3511
 3251SOL    HW121389   4.690   0.089   3.680 -1.9882 -0.6660 -1.0148
 3251SOL    HW221390   4.672   0.170   3.795 -2.7731 -0.4752  0.7531
 3252SOL     OW21391   3.112   3.840   4.228 -0.4042 -0.4115  1.0708
 3252SOL    HW121392   3.047   3.789   4.275  0.2177 -2.6934 -0.5622
 3252SOL    HW221393   3.135   3.770   4.167  0.5034  1.7536 -1.1016
 3253SOL     OW21394   3.295   2.410   2.237  0.1913  0.1519 -0.3100
 3253SOL    HW121395   3.355   2.377   2.171  0.7107 -0.4417  0.4702
 3253SOL    HW221396   3.297   2.342   2.305 -2.1543 -0.1151 -0.5009
 3254SOL     OW21397   3.302   3.200   1.203 -0.0261  0.8219 -0.1560
 3254SOL    HW121398   3.364   3.138   1.242  0.5057  2.1067  1.0553
 3254SOL    HW221399   3.364   3.265   1.170  0.1969  0.3116 -0.7479
 3255SOL     OW21400   1.263   1.593  13.282  0.0748  0.2928 -0.1613
 3255SOL    HW121401   1.267   1.598  13.378  0.0686  0.1370 -0.1533
 3255SOL    HW221402   1.169   1.589  13.264  0.0267  1.7915 -0.3082
 3256SOL     OW21403   3.253   1.714   7.225 -0.0941  0.1379 -0.3853
 3256SOL    HW121404   3.282   1.805   7.239 -1.0821  0.1940  1.3281
 3256SOL    HW221405   3.247   1.713   7.129 -0.2073 -1.1672 -0.3642
 3257SOL     OW21406   3.420   3.532   4.806 -0.3574 -0.7730 -0.2683
 3257SOL    HW121407   3.413   3.472   4.880  0.3580 -0.2246  0.2539
 3257SOL    HW221408   3.368   3.487   4.741  2.5116 -0.8462 -2.5094
 3258SOL     OW21409   0.880   0.491  13.019 -0.0343  0.1388  0.0279
 3258SOL    HW121410   0.954   0.445  12.980 -2.2741 -3.4727 -0.0350
 3258SOL    HW221411   0.808   0.428  13.022 -0.6721  0.9622  1.7291
 3259SOL     OW21412   0.048   1.643   2.278 -0.4080 -0.8893  0.1856
 3259SOL    HW121413   0.054   1.735   2.256 -0.6364 -0.7591  0.6703
 3259SOL    HW221414   0.108   1.636   2.353 -1.7524 -1.0459  1.2391
 3260SOL     OW21415   0.940   4.227   9.921  0.0575 -0.6699 -0.2131
 3260SOL    HW121416   0.870   4.185   9.871  0.5557 -1.9101  0.1475
 3260SOL    HW221417   0.933   4.194  10.010  0.9452  1.1701  0.5477
 3261SOL     OW21418   0.356   3.323   2.663 -0.1277 -0.0667  0.9531
 3261SOL    HW121419   0.393   3.253   2.717 -0.6566 -2.1947 -1.4312
 3261SOL    HW221420   0.372   3.293   2.573 -1.7040  2.5390 -0.1809
 3262SOL     OW21421   3.373   3.283   7.563 -0.0885  0.9240 -0.0461
 3262SOL    HW121422   3.450   3.257   7.614  1.1531 -1.5942 -3.1876
 3262SOL    HW221423   3.396   3.373   7.544  0.4065  0.2535 -2.6055
 3263SOL     OW21424   4.041   3.735   4.817  0.2010 -0.5880  0.2457
 3263SOL    HW121425   4.005   3.734   4.728 -2.5586 -0.6622  1.3545
 3263SOL    HW221426   4.122   3.685   4.809  0.9080  0.3665  1.4464
 3264SOL     OW21427   1.049   1.377   2.992 -0.4566  0.3579  0.2821
 3264SOL    HW121428   1.118   1.312   3.005 -2.1791 -1.4978  0.0719
 3264SOL    HW221429   1.025   1.355   2.902  0.7244 -0.8578  0.2743
 3265SOL     OW21430   2.479   1.505   2.818  0.1499 -0.1599  0.2363
 3265SOL    HW121431   2.560   1.506   2.766  0.3428  0.6081  0.5453
 3265SOL    HW221432   2.431   1.573   2.771 -2.1688 -0.9504  1.4378
 3266SOL     OW21433   3.479   0.739   2.302 -0.5977  0.6259 -0.2769
 3266SOL    HW121434   3.540   0.765   2.233 -0.4494 -0.6409 -0.6268
 3266SOL    HW221435   3.503   0.808   2.364  0.8074 -2.1310  2.2054
 3267SOL     OW21436   4.173   0.553   7.065 -0.8701  0.2126 -0.1137
 3267SOL    HW121437   4.089   0.587   7.034  0.2101  0.5228 -2.6528
 3267SOL    HW221438   4.228   0.570   6.989 -0.2996 -1.7727 -0.1483
 3268SOL     OW21439   1.505   3.754  11.567  0.3001  0.2784  0.0145
 3268SOL    HW121440   1.422   3.737  11.523 -0.0208  2.2776 -0.1546
 3268SOL    HW221441   1.563   3.707  11.506 -0.2662 -1.9138  1.1411
 3269SOL     OW21442   1.355   1.397   2.446  0.4730 -0.2817  0.5286
 3269SOL    HW121443   1.428   1.443   2.405  0.0252  2.0752  2.3451
 3269SOL    HW221444   1.405   1.331   2.494 -0.3185  0.7179  2.7664
 3270SOL     OW21445   1.996   4.424   8.867 -0.4966 -0.6839 -0.0025
 3270SOL    HW121446   2.082   4.447   8.902 -0.9969  0.8390  0.2077
 3270SOL    HW221447   1.951   4.507   8.880 -1.9735 -1.7698  1.7168
 3271SOL     OW21448   2.292   2.223   3.043  0.7891 -0.5868  0.4600
 3271SOL    HW121449   2.250   2.239   3.128 -1.7646  0.7911 -1.0433
 3271SOL    HW221450   2.248   2.285   2.985 -1.5766 -2.0267  0.6935
 3272SOL     OW21451   4.618   4.263  10.926 -0.4033  0.4415 -0.0685
 3272SOL    HW121452   4.592   4.344  10.969  0.4985  1.2426 -1.0360
 3272SOL    HW221453   4.704   4.249  10.963 -0.9552  0.5243  1.2380
 3273SOL     OW21454   0.940   2.472   2.635  0.4718 -0.2123  0.7417
 3273SOL    HW121455   0.869   2.516   2.589  0.9039 -1.4933 -1.1744
 3273SOL    HW221456   0.900   2.433   2.713 -2.0663 -0.2371 -0.5764
 3274SOL     OW21457   0.530   4.486   9.020  0.5984 -0.1961 -0.6330
 3274SOL    HW121458   0.593   4.549   8.985  0.3658 -0.3247 -1.2790
 3274SOL    HW221459   0.591   4.423   9.056 -0.8051 -0.5509  1.1388
 3275SOL     OW21460   1.892   3.084   9.860  0.5151 -0.0496  0.6300
 3275SOL    HW121461   1.800   3.076   9.885 -0.2389 -0.2653 -2.2679
 3275SOL    HW221462   1.880   3.122   9.773  1.8640  0.7818  0.8088
 3276SOL     OW21463   0.878   0.509   5.140 -0.3136  0.1781  0.4562
 3276SOL    HW121464   0.796   0.471   5.173  0.1844  0.2916  1.8094
 3276SOL    HW221465   0.865   0.510   5.045  0.0339  0.1068  0.4072
 3277SOL     OW21466   0.265   0.289  14.549  0.3115 -0.2260 -0.2747
 3277SOL    HW121467   0.259   0.245  14.465  1.1365  0.0218 -0.4606
 3277SOL    HW221468   0.323   0.238  14.605  0.2511  0.9695  0.8929
 3278SOL     OW21469   4.648   2.997   2.778 -0.3643  0.8533  0.2929
 3278SOL    HW121470   4.655   2.913   2.823 -0.5856  0.4947 -0.3306
 3278SOL    HW221471   0.003   3.024   2.759 -1.1653  1.9566 -1.9214
 3279SOL     OW21472   3.161   3.431   7.145 -0.4057 -0.0812 -0.5310
 3279SOL    HW121473   3.239   3.442   7.199  0.6601 -0.5264 -1.9985
 3279SOL    HW221474   3.095   3.462   7.207  1.0316  0.4188  0.7519
 3280SOL     OW21475   1.010   0.374   5.349  0.8954 -0.0297 -0.7294
 3280SOL    HW121476   0.957   0.295   5.337 -0.8849  0.8338  1.4543
 3280SOL    HW221477   0.999   0.429   5.271 -2.0550  0.9541  0.4050
 3281SOL     OW21478   0.495   0.943   5.374 -0.2376 -0.0519 -0.4015
 3281SOL    HW121479   0.533   0.956   5.287  1.3418 -1.3790  0.0962
 3281SOL    HW221480   0.418   1.000   5.379 -1.8773 -2.4421  1.5733
 3282SOL     OW21481   3.817   1.132  12.683  0.2875  0.2436 -0.2799
 3282SOL    HW121482   3.906   1.166  12.676 -0.4107  2.0224 -0.4996
 3282SOL    HW221483   3.850   1.049  12.649  0.8945  1.2055 -2.0584
 3283SOL     OW21484   3.098   3.379   6.316 -0.6265 -0.2480 -0.3266
 3283SOL    HW121485   3.173   3.322   6.331 -0.6988  0.0671  1.2066
 3283SOL    HW221486   3.047   3.328   6.253  1.7943 -1.3680 -1.3867
 3284SOL     OW21487   4.346   1.087  15.648  0.0146  0.6621 -0.0804
 3284SOL    HW121488   4.354   1.078  15.553 -2.8709  0.3987 -0.2842
 3284SOL    HW221489   4.357   0.997  15.680  0.6600  1.0120  0.6828
 3285SOL     OW21490   4.380   4.553   3.925  0.2695 -0.3101 -0.5548
 3285SOL    HW121491   4.377   4.518   4.015 -2.4486  1.3131 -0.0344
 3285SOL    HW221492   4.391   4.646   3.943 -0.5196 -0.3548  0.1830
 3286SOL     OW21493   4.538   0.370  17.699  0.9552 -0.2969  0.1478
 3286SOL    HW121494   4.546   0.285   0.002 -2.1721 -0.3060  0.6532
 3286SOL    HW221495   4.611   0.402   0.013 -0.2810  2.1627  0.3541
 3287SOL     OW21496   3.904   4.148   7.039  1.0274 -0.4454  0.4529
 3287SOL    HW121497   3.883   4.118   6.951  0.6269  2.6951 -0.5036
 3287SOL    HW221498   3.930   4.067   7.085  2.3655 -0.3898 -0.2177
 3288SOL     OW21499   0.269   3.704   4.272 -0.2102 -0.2192  0.2555
 3288SOL    HW121500   0.354   3.701   4.316 -0.1178  0.6922  0.1405
 3288SOL    HW221501   0.213   3.726   4.347  1.2623 -0.8360  1.5256
 3289SOL     OW21502   2.862   0.599   9.316 -0.2397  0.3002  0.7968
 3289SOL    HW121503   2.852   0.646   9.232 -0.4083  0.6069  0.9884
 3289SOL    HW221504   2.877   0.510   9.284 -0.0949  1.1798 -1.6026
 3290SOL     OW21505   2.514   1.974   8.549 -0.3834 -0.0318  0.5644
 3290SOL    HW121506   2.501   1.880   8.565 -0.2772 -0.0374  0.6167
 3290SOL    HW221507   2.571   1.971   8.472 -1.7038  0.5328 -0.4380
 3291SOL     OW21508   2.706   4.423  12.151  0.3319 -0.3681  0.0938
 3291SOL    HW121509   2.762   4.489  12.109  1.7493 -1.3870  0.3753
 3291SOL    HW221510   2.712   4.355  12.084 -3.3760 -0.0566 -0.5789
 3292SOL     OW21511   3.508   3.924   3.740 -0.0114  0.5403  0.0371
 3292SOL    HW121512   3.441   3.922   3.808  0.6453 -0.5800  0.6656
 3292SOL    HW221513   3.456   3.979   3.682 -1.1036 -0.0691  0.4549
 3293SOL     OW21514   4.371   1.731  14.766  0.3417  0.1032  0.2590
 3293SOL    HW121515   4.341   1.733  14.675 -0.2408  1.2303  0.4847
 3293SOL    HW221516   4.306   1.670  14.800 -1.0799  0.1232 -2.3810
 3294SOL     OW21517   0.813   2.117  11.735 -0.1544  0.4500 -0.0489
 3294SOL    HW121518   0.756   2.044  11.755 -1.1455  1.6314  1.4643
 3294SOL    HW221519   0.804   2.126  11.640 -1.5776  1.4850  0.1706
 3295SOL     OW21520   2.937   2.929   2.305  0.4150 -0.5233 -0.4949
 3295SOL    HW121521   2.971   3.019   2.306  2.0695 -1.1387 -1.2643
 3295SOL    HW221522   2.847   2.941   2.336  1.4578  1.3575  1.8042
 3296SOL     OW21523   4.267   0.917  17.036  1.0329 -0.0287 -0.1717
 3296SOL    HW121524   4.323   0.983  17.077 -0.1524  0.8936 -0.0420
 3296SOL    HW221525   4.240   0.857  17.107  0.4751 -1.7722 -1.8554
 3297SOL     OW21526   2.111   3.112   2.418  0.1774  0.3635 -0.3925
 3297SOL    HW121527   2.187   3.147   2.465 -1.1550  1.1726  1.1921
 3297SOL    HW221528   2.138   3.021   2.415  0.0218  0.3044 -0.0395
 3298SOL     OW21529   0.506   0.152   5.466 -0.1864  0.3162 -0.2298
 3298SOL    HW121530   0.455   0.072   5.454 -1.1931  1.1438 -1.4062
 3298SOL    HW221531   0.593   0.123   5.439 -0.9272 -3.3482  1.3073
 3299SOL     OW21532   0.324   4.650   6.986  0.5526  0.1978 -0.3575
 3299SOL    HW121533   0.259   4.622   7.051  1.9820 -0.7342  0.6838
 3299SOL    HW221534   0.315   0.008   7.007  0.5178 -0.3795  2.2855
 3300SOL     OW21535   2.076   0.443  11.809  0.2289 -0.7649 -0.7690
 3300SOL    HW121536   2.083   0.380  11.881  2.5624 -0.3658 -0.6375
 3300SOL    HW221537   2.166   0.444  11.775  0.6909 -0.5431  0.4646
 3301SOL     OW21538   2.617   0.784   3.693 -0.1777 -0.1986 -0.3794
 3301SOL    HW121539   2.569   0.838   3.756 -0.2907  0.1151 -0.7403
 3301SOL    HW221540   2.651   0.719   3.754 -0.1004 -0.6934 -0.9518
 3302SOL     OW21541   2.335   1.641  15.864  0.1888 -0.4037  0.2262
 3302SOL    HW121542   2.240   1.642  15.867  0.2408  0.8138  1.1587
 3302SOL    HW221543   2.341   1.545  15.867 -2.6455 -0.5396  0.9628
 3303SOL     OW21544   0.218   4.060   1.886 -0.0878 -0.6128 -0.1879
 3303SOL    HW121545   0.163   3.985   1.908 -1.6934  0.2333 -1.2974
 3303SOL    HW221546   0.186   4.135   1.936 -1.1716 -0.6299 -0.8604
 3304SOL     OW21547   4.244   3.640   3.159 -0.4548  0.2891  0.4257
 3304SOL    HW121548   4.290   3.660   3.240 -3.2187  5.4453  0.7307
 3304SOL    HW221549   4.279   3.553   3.141  2.4747  2.0260 -2.1836
 3305SOL     OW21550   0.560   1.069   2.436 -0.1284 -0.3326 -0.2723
 3305SOL    HW121551   0.562   1.016   2.515  1.6337  2.2713  1.4464
 3305SOL    HW221552   0.535   1.004   2.371  1.1876 -2.2659  1.1659
 3306SOL     OW21553   1.421   2.107   2.448 -0.1268 -0.0740 -0.0691
 3306SOL    HW121554   1.389   2.194   2.475  0.2503 -0.3702  1.3512
 3306SOL    HW221555   1.337   2.063   2.440  0.7926 -2.3361  2.8090
 3307SOL     OW21556   4.013   4.723  13.340 -0.3465  0.0772 -0.0784
 3307SOL    HW121557   4.023   4.698  13.432 -0.9790 -3.5230 -0.9926
 3307SOL    HW221558   3.919   0.005  13.332 -0.4293 -0.2367  0.2440
 3308SOL     OW21559   4.545   1.367  15.387  0.0344 -0.5457 -0.3654
 3308SOL    HW121560   4.572   1.359  15.295  0.2461  0.2480 -0.3764
 3308SOL    HW221561   4.495   1.448  15.377 -0.5371 -0.9501 -0.7651
 3309SOL     OW21562   2.820   3.589   4.091 -0.3767  0.4348  0.8414
 3309SOL    HW121563   2.791   3.652   4.026  0.5701  0.2715  0.2562
 3309SOL    HW221564   2.760   3.517   4.072  2.0007 -1.5043  0.5995
 3310SOL     OW21565   4.563   3.975   8.285 -0.5082 -0.3874  0.1374
 3310SOL    HW121566   4.530   3.970   8.374 -1.9079  2.2042 -0.2193
 3310SOL    HW221567   4.501   3.920   8.237  0.2141 -1.3269  0.2729
 3311SOL     OW21568   3.966   3.106  17.402 -0.1261  0.2625 -0.1582
 3311SOL    HW121569   3.941   3.182  17.454  2.8607  1.7534 -0.9092
 3311SOL    HW221570   4.061   3.118  17.400 -0.0582 -0.1951  0.2750
 3312SOL     OW21571   1.071   0.212   2.992 -0.2087 -0.4024 -0.7977
 3312SOL    HW121572   0.987   0.190   3.033  0.0387 -0.1397 -0.1491
 3312SOL    HW221573   1.037   0.253   2.913  2.5983  0.3046 -1.6191
 3313SOL     OW21574   2.502   0.371   3.704  0.2385 -0.2274  0.4659
 3313SOL    HW121575   2.481   0.380   3.797 -0.9979 -0.4944  0.2123
 3313SOL    HW221576   2.561   0.296   3.697  0.6592  0.0212  1.3378
 3314SOL     OW21577   4.535   0.943   7.941  0.3621 -0.6668 -0.2353
 3314SOL    HW121578   4.498   1.018   7.987  1.4162  0.8593 -1.8808
 3314SOL    HW221579   4.603   0.989   7.893 -0.0322 -0.2110 -0.3606
 3315SOL     OW21580   4.255   1.142   5.292 -0.2828  0.0816 -0.0283
 3315SOL    HW121581   4.236   1.223   5.340  1.3115 -0.8450  2.2105
 3315SOL    HW221582   4.289   1.174   5.209  2.5730  1.0776  1.5060
 3316SOL     OW21583   2.013   0.253   2.640 -0.3258 -0.7905 -0.1929
 3316SOL    HW121584   2.052   0.265   2.727  2.2685  2.2534 -1.7840
 3316SOL    HW221585   1.942   0.317   2.647  0.7957  0.6320 -2.1405
 3317SOL     OW21586   1.127   4.207  14.770 -0.0257  0.0616  0.4094
 3317SOL    HW121587   1.156   4.296  14.792  0.1938  0.8522 -3.1076
 3317SOL    HW221588   1.213   4.167  14.757  0.1807  0.7206 -0.2570
 3318SOL     OW21589   2.457   2.199   1.553 -0.2276 -0.1152 -0.2259
 3318SOL    HW121590   2.406   2.266   1.508  1.5011  0.1709 -1.7370
 3318SOL    HW221591   2.478   2.142   1.479  2.2517  0.0990  0.3147
 3319SOL     OW21592   2.135   2.247   6.800  0.3485 -0.6524  0.5698
 3319SOL    HW121593   2.041   2.230   6.792  0.2133  0.4123 -0.2215
 3319SOL    HW221594   2.144   2.341   6.816 -1.2444 -0.8178  2.3373
 3320SOL     OW21595   1.243   3.950   7.254  0.7503  0.0455  0.0202
 3320SOL    HW121596   1.336   3.926   7.256  0.3891 -1.2914  1.8428
 3320SOL    HW221597   1.201   3.867   7.228  0.6316 -0.0156  0.3987
 3321SOL     OW21598   2.496   4.126   7.285  0.2525 -0.2003  0.2681
 3321SOL    HW121599   2.419   4.146   7.234 -0.1218  1.2274  1.4023
 3321SOL    HW221600   2.452   4.089   7.362 -1.2623  0.2183 -0.4063
 3322SOL     OW21601   1.139   1.937  16.726  0.0224  0.7734  0.2837
 3322SOL    HW121602   1.113   1.868  16.786 -0.0202 -0.9637 -1.7294
 3322SOL    HW221603   1.226   1.905  16.700 -0.2267  0.8599 -0.6795
 3323SOL     OW21604   4.028   1.357   8.191 -0.4283 -0.1657  0.1658
 3323SOL    HW121605   3.934   1.377   8.185 -0.9986 -2.4262  1.6905
 3323SOL    HW221606   4.024   1.273   8.236 -1.0463  0.1416  0.6914
 3324SOL     OW21607   1.506   0.825  10.383  0.1720 -0.2598  0.0937
 3324SOL    HW121608   1.521   0.731  10.396  0.3314 -0.2157  0.2352
 3324SOL    HW221609   1.591   0.849  10.346  0.8779  0.0566  1.8886
 3325SOL     OW21610   2.611   2.226  11.107  0.0664 -0.8678  0.3767
 3325SOL    HW121611   2.698   2.258  11.083  0.4753 -2.2702 -0.0368
 3325SOL    HW221612   2.598   2.144  11.058 -0.0404  0.6628 -2.1757
 3326SOL     OW21613   2.296   4.229   2.276 -0.2856  0.6862  0.3937
 3326SOL    HW121614   2.269   4.207   2.187  0.4644 -0.1061  0.3623
 3326SOL    HW221615   2.387   4.202   2.268 -0.4313 -0.0760  1.3375
 3327SOL     OW21616   2.624   0.196  16.258  0.1689 -0.2167  0.0049
 3327SOL    HW121617   2.709   0.156  16.240  0.4326  0.2959  0.1243
 3327SOL    HW221618   2.566   0.120  16.261 -1.5225  1.0794 -0.0288
 3328SOL     OW21619   0.372   0.945   4.176  0.7905  0.2517  0.1704
 3328SOL    HW121620   0.394   0.933   4.083  0.2358  1.1504 -0.0701
 3328SOL    HW221621   0.452   0.914   4.219  1.5923 -0.2192 -1.6473
 3329SOL     OW21622   3.912   0.613   8.037  0.5848  0.8300 -0.3237
 3329SOL    HW121623   3.873   0.536   8.080  2.0093  0.5536  0.4753
 3329SOL    HW221624   3.987   0.625   8.096 -0.7023  0.4459  1.3810
 3330SOL     OW21625   2.528   2.859  10.877  0.2114  0.3837 -0.4307
 3330SOL    HW121626   2.473   2.880  10.953  1.6724  0.0738  0.7297
 3330SOL    HW221627   2.480   2.897  10.804 -1.6568  1.7429  1.5029
 3331SOL     OW21628   1.049   1.792  13.878  0.7293 -0.1630 -0.0023
 3331SOL    HW121629   1.143   1.799  13.895  0.6158  0.5738  0.3560
 3331SOL    HW221630   1.016   1.829  13.960  2.9376 -2.8942  2.1358
 3332SOL     OW21631   0.871   1.983   2.106 -0.2803  0.4726  0.3256
 3332SOL    HW121632   0.782   2.017   2.098 -0.1523  0.8279  0.3994
 3332SOL    HW221633   0.922   2.050   2.061 -0.1141 -0.3029 -0.6291
 3333SOL     OW21634   1.424   4.038   8.866 -0.1781  0.0401  0.1611
 3333SOL    HW121635   1.485   3.975   8.828  1.1378  0.9049  0.8353
 3333SOL    HW221636   1.391   3.972   8.928  0.1447 -1.0770 -0.8646
 3334SOL     OW21637   0.594   0.494   2.197  0.5728  0.2473  0.4144
 3334SOL    HW121638   0.609   0.442   2.276 -0.3663 -0.0065  0.4302
 3334SOL    HW221639   0.639   0.575   2.220  1.7803 -0.5308  0.7955
 3335SOL     OW21640   0.093   3.574   2.153 -0.3264  0.1105 -0.7821
 3335SOL    HW121641   0.107   3.484   2.185 -1.7011  0.3926  0.6735
 3335SOL    HW221642   0.008   3.589   2.195  0.5980  2.4963  0.2186
 3336SOL     OW21643   3.230   3.438   8.115 -0.3919  0.7080 -0.1627
 3336SOL    HW121644   3.320   3.409   8.101 -0.4479 -0.0131  1.0093
 3336SOL    HW221645   3.245   3.531   8.129  0.0482  0.7688 -1.0253
 3337SOL     OW21646   3.584   2.856  10.480  0.1082  0.0924  0.3567
 3337SOL    HW121647   3.610   2.822  10.395  0.8982 -0.6436  0.8910
 3337SOL    HW221648   3.553   2.945  10.465  1.9634  0.4313 -1.4724
 3338SOL     OW21649   1.333   1.075   3.976  0.5352 -0.6252  0.1207
 3338SOL    HW121650   1.380   1.158   3.979 -1.1129  0.3430 -0.7128
 3338SOL    HW221651   1.242   1.104   3.987  0.4762 -0.8974  0.3528
 3339SOL     OW21652   3.482   4.563  10.355 -0.3728  0.0773 -0.4011
 3339SOL    HW121653   3.507   4.654  10.371 -1.9930  0.2788  1.0037
 3339SOL    HW221654   3.388   4.580  10.349 -0.2474  0.8367 -0.1696
 3340SOL     OW21655   1.232   0.730  16.679 -0.1855 -0.6384  1.0465
 3340SOL    HW121656   1.187   0.646  16.685 -0.9765 -0.4578 -1.9054
 3340SOL    HW221657   1.205   0.772  16.596  0.9581 -1.9099  0.0336
 3341SOL     OW21658   0.848   1.750   9.548  0.2162 -0.1884 -0.1021
 3341SOL    HW121659   0.793   1.721   9.476  0.5698 -0.1111 -0.3987
 3341SOL    HW221660   0.940   1.727   9.531 -0.2281 -1.2328 -1.0460
 3342SOL     OW21661   4.647   0.003   9.940 -0.1337  0.5868 -0.2570
 3342SOL    HW121662   4.729   0.002   9.990  0.0654  0.8010 -0.5766
 3342SOL    HW221663   4.593   0.029  10.014  2.3550  0.1033  1.7331
 3343SOL     OW21664   4.510   1.294   2.199 -0.4666 -0.0104 -0.2417
 3343SOL    HW121665   4.478   1.222   2.254  2.8911 -0.1754  1.4889
 3343SOL    HW221666   4.604   1.288   2.213 -0.1633  2.3326 -1.2354
 3344SOL     OW21667   0.306   4.150   8.993  0.5301  0.1658  0.0626
 3344SOL    HW121668   0.363   4.151   8.917 -0.1621  2.8153 -0.4066
 3344SOL    HW221669   0.284   4.243   8.993 -1.4423 -0.2705  3.8940
 3345SOL     OW21670   1.688   3.763   0.340  0.6325  0.0495  0.0696
 3345SOL    HW121671   1.717   3.755   0.430  0.9120 -1.2129 -0.1303
 3345SOL    HW221672   1.601   3.799   0.359  1.0588  1.0446  0.1242
 3346SOL     OW21673   0.454   4.621   9.362 -0.3242 -0.3245  0.1115
 3346SOL    HW121674   0.375   4.648   9.314  0.6330  0.6607 -0.8960
 3346SOL    HW221675   0.459   4.530   9.336 -0.7169 -0.2169 -0.3391
 3347SOL     OW21676   3.296   4.164   5.440 -0.5418  0.1973  0.2331
 3347SOL    HW121677   3.204   4.176   5.420 -0.6179  1.7561  1.4885
 3347SOL    HW221678   3.333   4.194   5.357  1.8835 -1.1879  0.7838
 3348SOL     OW21679   3.336   4.439   3.935  0.7234 -0.5335  0.1447
 3348SOL    HW121680   3.382   4.520   3.913  0.8751 -0.9034 -0.8607
 3348SOL    HW221681   3.296   4.407   3.854 -0.9272  2.3406 -0.1759
 3349SOL     OW21682   2.208   3.642   1.303  0.2603  0.1392 -0.2346
 3349SOL    HW121683   2.209   3.714   1.239  2.5619 -0.4808 -0.8846
 3349SOL    HW221684   2.257   3.587   1.242 -0.6723 -0.4106 -0.4950
 3350SOL     OW21685   1.685   2.744  12.093 -0.8621 -0.1843  0.0075
 3350SOL    HW121686   1.774   2.731  12.127 -0.5528  0.0402 -0.6959
 3350SOL    HW221687   1.662   2.807  12.161  0.1489  1.1103 -0.8381
 3351SOL     OW21688   3.814   3.634   9.153 -0.1995  0.1201  0.4301
 3351SOL    HW121689   3.783   3.569   9.215  0.3127  0.5396  1.1277
 3351SOL    HW221690   3.910   3.629   9.152 -0.1562  0.4449  2.1761
 3352SOL     OW21691   2.345   1.156   8.678  0.0174  0.4357 -0.8230
 3352SOL    HW121692   2.410   1.090   8.702 -2.1248 -0.9745  1.2031
 3352SOL    HW221693   2.289   1.149   8.756  0.1425 -0.5055 -0.8151
 3353SOL     OW21694   3.058   3.686   8.209 -0.0624  0.1880  0.2652
 3353SOL    HW121695   3.099   3.605   8.239 -1.5291  0.0397  1.8670
 3353SOL    HW221696   3.121   3.756   8.228  1.2556 -0.4609 -1.6500
 3354SOL     OW21697   1.355   0.565   4.435 -0.2284  0.6200 -0.2906
 3354SOL    HW121698   1.417   0.560   4.362  0.7543 -2.5236  0.7535
 3354SOL    HW221699   1.314   0.479   4.448 -1.2689  1.0662 -0.6392
 3355SOL     OW21700   1.604   0.221  15.822 -0.0909  0.1898  0.1154
 3355SOL    HW121701   1.542   0.171  15.875 -1.1545 -1.6420 -2.8850
 3355SOL    HW221702   1.571   0.208  15.733 -1.7562  0.3336  0.7113
 3356SOL     OW21703   3.265   2.252   6.398 -0.3912 -0.2806  0.2962
 3356SOL    HW121704   3.240   2.181   6.456 -0.7119 -1.5987 -1.4417
 3356SOL    HW221705   3.203   2.241   6.326  0.9826 -0.7746 -0.8109
 3357SOL     OW21706   0.846   2.273  10.307 -0.1180 -0.1250 -0.0010
 3357SOL    HW121707   0.874   2.304  10.221 -3.1550 -1.9993 -1.6513
 3357SOL    HW221708   0.909   2.200  10.308 -1.3589 -1.1933 -1.2649
 3358SOL     OW21709   0.579   1.072   0.622  0.5301 -0.0327 -0.3440
 3358SOL    HW121710   0.495   1.046   0.583 -0.8902  1.0202  2.0399
 3358SOL    HW221711   0.546   1.098   0.708  0.2957  0.7945 -0.6867
 3359SOL     OW21712   1.311   3.607   2.448 -0.5220  0.3390 -0.3608
 3359SOL    HW121713   1.277   3.618   2.359 -4.0415 -0.4379  0.8706
 3359SOL    HW221714   1.257   3.537   2.485 -1.8508  1.4876 -0.1089
 3360SOL     OW21715   4.500   0.407   8.529 -0.4685 -0.0915  0.5033
 3360SOL    HW121716   4.588   0.444   8.536  0.2563 -1.3420 -1.9945
 3360SOL    HW221717   4.490   0.364   8.614 -0.7282  1.5133  1.2826
 3361SOL     OW21718   0.218   0.054  15.152 -0.5630 -0.2977 -0.1913
 3361SOL    HW121719   0.188   4.712  15.199 -0.1833 -0.2573  0.1169
 3361SOL    HW221720   0.136   0.099  15.173 -0.4146 -1.3564  2.6660
 3362SOL     OW21721   1.409   1.485   2.073  0.4378  0.6502 -0.1690
 3362SOL    HW121722   1.343   1.528   2.019  1.6868  2.5215 -0.1746
 3362SOL    HW221723   1.491   1.530   2.054  0.8541  0.3485  0.9068
 3363SOL     OW21724   1.367   0.903   4.809  0.2650 -0.0058 -0.5108
 3363SOL    HW121725   1.349   0.817   4.846 -2.1805  0.5941 -0.3265
 3363SOL    HW221726   1.383   0.875   4.719 -0.6113 -0.1908 -0.6045
 3364SOL     OW21727   2.604   4.501   8.462 -0.0232 -0.7995 -0.3776
 3364SOL    HW121728   2.588   4.461   8.547  0.3157 -3.2211 -1.4792
 3364SOL    HW221729   2.525   4.551   8.443  0.5514 -0.2924 -1.4495
 3365SOL     OW21730   3.944   3.673  13.271 -0.7186  0.0439  0.1551
 3365SOL    HW121731   3.967   3.598  13.216  3.0498  1.3731 -0.1092
 3365SOL    HW221732   3.936   3.621  13.350  0.1860  0.3726  0.4635
 3366SOL     OW21733   4.461   2.696   5.460 -0.1342 -0.0268 -0.4915
 3366SOL    HW121734   4.394   2.640   5.499 -0.6854  1.9347  1.3980
 3366SOL    HW221735   4.414   2.773   5.428  1.0388  2.2738  3.3258
 3367SOL     OW21736   3.324   0.623   4.743  0.3401 -0.0441  0.0511
 3367SOL    HW121737   3.373   0.649   4.665 -1.4510  3.3611  0.0853
 3367SOL    HW221738   3.383   0.638   4.817 -0.8313  0.9707  0.7845
 3368SOL     OW21739   0.377   0.172   1.963 -0.3200  0.0881 -0.1734
 3368SOL    HW121740   0.445   0.238   1.951  0.3240 -0.6355 -0.5357
 3368SOL    HW221741   0.420   0.106   2.018 -0.1921  0.1202 -0.2351
 3369SOL     OW21742   3.836   3.891  16.971  0.3824  0.0163  0.0541
 3369SOL    HW121743   3.766   3.949  17.003  1.6604  1.4045  0.3511
 3369SOL    HW221744   3.881   3.863  17.050 -2.2512 -4.9138 -0.2237
 3370SOL     OW21745   1.435   0.978  16.237  0.0564  0.5863 -0.2438
 3370SOL    HW121746   1.456   0.925  16.160 -0.0705  0.3554 -0.1208
 3370SOL    HW221747   1.340   0.970  16.242  0.0137  1.9474  1.3557
 3371SOL     OW21748   3.977   3.412   6.214 -0.1921  0.5828  0.3086
 3371SOL    HW121749   3.894   3.367   6.199  0.4804 -0.1398 -1.2446
 3371SOL    HW221750   4.037   3.354   6.261 -1.6197 -1.4076 -0.3257
 3372SOL     OW21751   4.612   1.824   5.228 -0.0891  0.0487 -0.5220
 3372SOL    HW121752   4.693   1.782   5.199 -1.3215 -2.5850 -0.1556
 3372SOL    HW221753   4.561   1.743   5.241 -0.0459  0.4783  2.3699
 3373SOL     OW21754   2.107   3.991  16.881  0.1328 -0.2531  0.0265
 3373SOL    HW121755   2.023   3.945  16.888  0.4212 -0.9784 -1.3092
 3373SOL    HW221756   2.165   3.930  16.926 -1.3962 -0.8763  1.1674
 3374SOL     OW21757   2.736   1.937   5.481  0.0660 -0.0490 -0.0427
 3374SOL    HW121758   2.725   1.948   5.575  0.7230  0.8327 -0.0694
 3374SOL    HW221759   2.668   1.997   5.449 -0.2105 -1.6650 -2.4632
 3375SOL     OW21760   1.372   3.214   2.709 -0.6178  0.1036  0.0314
 3375SOL    HW121761   1.411   3.127   2.718 -0.5163 -0.0894 -2.4378
 3375SOL    HW221762   1.451   3.268   2.708 -0.6427  0.1312 -0.4094
 3376SOL     OW21763   4.712   0.350   0.517  0.2926 -0.0963 -0.3643
 3376SOL    HW121764   4.713   0.380   0.608  0.3876  0.7801 -0.6515
 3376SOL    HW221765   4.686   0.260   0.536 -1.8407  0.2912 -1.4196
 3377SOL     OW21766   0.231   0.362   8.367 -0.4978 -0.4658  0.0561
 3377SOL    HW121767   0.299   0.417   8.329 -0.0903 -1.9025 -1.3202
 3377SOL    HW221768   0.273   0.276   8.375  3.4261  1.5003  0.0938
 3378SOL     OW21769   1.559   2.923   4.884  0.1889 -0.1341  0.5732
 3378SOL    HW121770   1.497   2.985   4.847 -2.8621 -1.5213  3.3219
 3378SOL    HW221771   1.509   2.842   4.897  0.0453  0.0013  0.8674
 3379SOL     OW21772   3.203   3.917  12.677 -0.2876 -0.4434 -0.1116
 3379SOL    HW121773   3.231   3.901  12.767 -2.3936 -0.6368  0.5212
 3379SOL    HW221774   3.284   3.916  12.626  0.6597  1.0726  1.3669
 3380SOL     OW21775   3.046   1.560   2.596 -0.4000  0.8036 -0.3324
 3380SOL    HW121776   3.018   1.635   2.648  2.3793  0.0723  2.1810
 3380SOL    HW221777   3.058   1.597   2.508  1.1680  0.0352 -0.4433
 3381SOL     OW21778   2.977   2.676  12.326  0.2226  0.3629 -0.5147
 3381SOL    HW121779   2.963   2.582  12.333 -1.1046  0.8277  2.9080
 3381SOL    HW221780   2.885   2.702  12.321 -0.7082 -2.5921  1.0879
 3382SOL     OW21781   4.424   1.853   1.769  0.1436  0.1462  0.1491
 3382SOL    HW121782   4.393   1.802   1.844 -1.5312  0.4816 -0.2937
 3382SOL    HW221783   4.390   1.939   1.794 -1.2024 -0.0556 -0.9461
 3383SOL     OW21784   1.507   1.034   7.126 -0.2137  1.2202  0.1313
 3383SOL    HW121785   1.466   1.091   7.190 -0.7383  1.2990 -0.2692
 3383SOL    HW221786   1.576   1.001   7.183 -1.0867 -1.6643 -0.4434
 3384SOL     OW21787   0.595   1.795  11.540 -0.0365 -0.2738 -0.0735
 3384SOL    HW121788   0.626   1.839  11.619 -3.4526 -1.2529  1.8363
 3384SOL    HW221789   0.603   1.703  11.564  0.6600 -0.2898 -0.3924
 3385SOL     OW21790   4.339   3.944   7.645 -0.1660  0.0252  0.8759
 3385SOL    HW121791   4.422   3.898   7.634  1.1666  2.4471  0.7732
 3385SOL    HW221792   4.371   4.034   7.649  1.4260 -0.5700  1.7460
 3386SOL     OW21793   4.333   4.646   8.030 -0.1275 -0.5236  0.0313
 3386SOL    HW121794   4.251   4.613   7.992 -0.8580  0.1185  1.0276
 3386SOL    HW221795   4.309   4.733   8.061  2.4273  1.1041 -2.6310
 3387SOL     OW21796   0.146   1.440   7.325 -0.3923  0.2989 -0.5769
 3387SOL    HW121797   0.119   1.418   7.414  1.1401 -0.8302 -0.3940
 3387SOL    HW221798   0.234   1.476   7.331 -0.3036  0.1506 -1.0225
 3388SOL     OW21799   0.449   4.605   7.330  0.7428 -0.1520  0.6168
 3388SOL    HW121800   0.539   4.637   7.333  0.7580 -0.1681  0.3382
 3388SOL    HW221801   0.426   4.596   7.423 -0.0923  0.4789  0.4721
 3389SOL     OW21802   1.566   2.071   3.109  0.0332  0.0094  0.2441
 3389SOL    HW121803   1.659   2.087   3.123  0.4599  0.0454 -2.6561
 3389SOL    HW221804   1.569   1.976   3.098  1.1759  0.5431 -3.7161
 3390SOL     OW21805   1.132   3.830   5.592 -0.1745 -0.9854 -0.2866
 3390SOL    HW121806   1.055   3.809   5.645 -1.2136  0.8303 -1.0865
 3390SOL    HW221807   1.106   3.795   5.507  0.9123 -2.5922  0.0344
 3391SOL     OW21808   3.685   2.360   7.154 -0.3453 -0.0710  0.2541
 3391SOL    HW121809   3.706   2.351   7.061  2.2367  1.1314  0.7099
 3391SOL    HW221810   3.654   2.450   7.160  1.4205  0.7061 -2.0901
 3392SOL     OW21811   0.746   1.979   8.378 -0.7388 -0.9568 -0.5864
 3392SOL    HW121812   0.714   1.888   8.380 -0.5945 -1.0342 -1.7886
 3392SOL    HW221813   0.842   1.974   8.377 -0.6423  0.9015  2.0759
 3393SOL     OW21814   0.779   0.749   7.846 -0.0632 -0.3819  0.0799
 3393SOL    HW121815   0.863   0.788   7.871  0.0533 -0.0348 -0.8745
 3393SOL    HW221816   0.786   0.659   7.877  1.3800 -0.2668  0.0874
 3394SOL     OW21817   1.256   2.994   6.611  0.8110  0.1468  0.2317
 3394SOL    HW121818   1.341   3.026   6.639  0.8990  0.4531 -0.3954
 3394SOL    HW221819   1.293   2.951   6.534  0.3313 -2.0631  1.2087
 3395SOL     OW21820   3.453   4.506   2.808  0.3645 -0.3908  0.2751
 3395SOL    HW121821   3.386   4.574   2.800  1.1059  0.1703 -1.0753
 3395SOL    HW221822   3.538   4.548   2.799  0.7870 -1.5597 -1.0769
 3396SOL     OW21823   3.480   3.122   1.885  0.0849 -0.0100 -0.7495
 3396SOL    HW121824   3.473   3.216   1.900 -0.5166 -0.7416  3.5485
 3396SOL    HW221825   3.466   3.082   1.971  2.3062 -0.2562 -0.4978
 3397SOL     OW21826   3.230   3.688   4.026 -0.4250 -0.2302  0.3091
 3397SOL    HW121827   3.201   3.650   3.943  0.2246 -1.8071  0.7974
 3397SOL    HW221828   3.303   3.632   4.054 -0.6438 -0.1176  1.1026
 3398SOL     OW21829   1.779   2.214   2.036  0.1585  0.3471 -0.1875
 3398SOL    HW121830   1.772   2.126   2.072  1.9981  0.7572  1.1937
 3398SOL    HW221831   1.813   2.200   1.947 -0.2545  1.2530 -0.4830
 3399SOL     OW21832   2.138   3.057   6.964  0.8424  0.0872 -0.2048
 3399SOL    HW121833   2.063   3.037   6.909  0.9723 -0.5705 -0.1377
 3399SOL    HW221834   2.208   3.022   6.909 -0.9996 -2.2096 -1.0693
 3400SOL     OW21835   2.406   2.763   2.350 -0.1510  0.3760 -0.1010
 3400SOL    HW121836   2.435   2.691   2.406 -0.0728  0.6670  0.2321
 3400SOL    HW221837   2.318   2.778   2.386  0.2108 -0.0975  0.9765
 3401SOL     OW21838   2.536   3.700   6.696  0.0669 -0.2288 -0.2861
 3401SOL    HW121839   2.532   3.605   6.696 -1.2782 -0.1717 -1.7370
 3401SOL    HW221840   2.502   3.712   6.785 -2.2245  0.3776 -1.2497
 3402SOL     OW21841   2.930   3.767   1.390 -0.1729 -0.1672 -0.6041
 3402SOL    HW121842   2.897   3.761   1.300  1.0553  3.1080 -1.2532
 3402SOL    HW221843   2.891   3.853   1.405  0.6237  0.2524 -0.9255
 3403SOL     OW21844   3.492   0.124   3.519  0.5700 -0.3693  0.0826
 3403SOL    HW121845   3.555   0.169   3.576  0.4491 -0.3580  0.2091
 3403SOL    HW221846   3.494   0.041   3.567  1.6140 -1.3597 -1.7083
 3404SOL     OW21847   0.424   3.307   5.025  0.5917  0.3304 -0.1408
 3404SOL    HW121848   0.416   3.256   5.106 -0.7927 -0.3985 -0.7489
 3404SOL    HW221849   0.515   3.335   5.037  0.1348  0.8926  2.2080
 3405SOL     OW21850   4.450   4.024   8.552 -0.3629  0.4959 -0.1738
 3405SOL    HW121851   4.421   3.952   8.608 -0.4068  0.5293 -0.1538
 3405SOL    HW221852   4.369   4.039   8.502 -0.8460 -0.4303  0.3506
 3406SOL     OW21853   3.717   3.653  12.871 -0.2707  0.2409  0.0184
 3406SOL    HW121854   3.664   3.664  12.792  1.3648  2.4661 -0.8013
 3406SOL    HW221855   3.651   3.658  12.940 -0.7194 -1.1663 -0.3111
 3407SOL     OW21856   3.238   0.616   3.716  0.0101  0.0819 -0.6808
 3407SOL    HW121857   3.295   0.691   3.698  0.9298  0.1519  2.5377
 3407SOL    HW221858   3.179   0.665   3.774 -0.9634 -0.3440 -1.3118
 3408SOL     OW21859   3.430   1.027   6.243  0.7042  0.2515 -0.2659
 3408SOL    HW121860   3.383   0.945   6.231  1.4799  0.0200 -1.7186
 3408SOL    HW221861   3.484   1.024   6.164  1.8419  0.4407  0.5027
 3409SOL     OW21862   0.026   2.734   7.250 -0.0060  0.2746 -0.4549
 3409SOL    HW121863   0.109   2.712   7.293 -1.4112  1.9558  3.1156
 3409SOL    HW221864   4.713   2.747   7.332 -1.0626  0.8069 -1.1681
 3410SOL     OW21865   2.090   3.455  14.691 -0.5723  0.4064 -0.3758
 3410SOL    HW121866   2.173   3.489  14.725 -1.1149  0.0214  1.3406
 3410SOL    HW221867   2.103   3.455  14.596 -0.0535  2.3131 -0.2903
 3411SOL     OW21868   4.616   2.285   5.615  0.5191  0.0001 -0.7219
 3411SOL    HW121869   4.560   2.290   5.538  0.6639  1.9702 -0.6974
 3411SOL    HW221870   4.688   2.225   5.593  0.4689 -0.9552  1.6598
 3412SOL     OW21871   2.284   0.592   2.614  0.3775  0.3365  0.1827
 3412SOL    HW121872   2.203   0.615   2.660 -0.2420 -4.2316  1.4004
 3412SOL    HW221873   2.328   0.536   2.677 -2.3665 -1.3354  0.6149
 3413SOL     OW21874   3.961   2.974   4.941  0.4540 -0.1644  0.1097
 3413SOL    HW121875   4.002   3.022   4.869  1.9053  0.3995  1.3040
 3413SOL    HW221876   3.905   2.908   4.901 -0.3937  1.2140 -0.9931
 3414SOL     OW21877   4.658   4.191   3.075  0.4034 -0.3973  0.6410
 3414SOL    HW121878   0.018   4.186   3.076  0.5289  2.2439 -0.1533
 3414SOL    HW221879   4.638   4.097   3.065 -1.5791  0.0393  0.5206
 3415SOL     OW21880   4.451   4.024   0.861  0.1722  0.2261  0.0759
 3415SOL    HW121881   4.384   3.972   0.906 -1.0913  1.7368 -0.0565
 3415SOL    HW221882   4.450   3.993   0.771  0.8238  0.6238 -0.0724
 3416SOL     OW21883   0.566   2.748   9.389 -0.1249 -0.0434 -0.0085
 3416SOL    HW121884   0.657   2.778   9.390  0.7954 -2.9372  2.1003
 3416SOL    HW221885   0.564   2.693   9.310  0.1220  0.0988 -0.1133
 3417SOL     OW21886   0.853   2.250   1.705 -0.6768  0.4945 -0.2912
 3417SOL    HW121887   0.855   2.155   1.718  1.1290  0.8921  2.3263
 3417SOL    HW221888   0.914   2.255   1.631 -0.4599 -1.6872 -0.2682
 3418SOL     OW21889   1.719   0.865  11.707  0.1974 -0.2280  0.9212
 3418SOL    HW121890   1.774   0.788  11.691  1.9040  1.5245 -1.7455
 3418SOL    HW221891   1.781   0.923  11.751  0.8959  1.0355 -1.7275
 3419SOL     OW21892   0.296   2.123  14.023 -0.3023  0.3606 -0.2069
 3419SOL    HW121893   0.204   2.109  14.042  0.0883  1.1951  2.3115
 3419SOL    HW221894   0.342   2.067  14.087 -1.2903 -1.5362 -1.1580
 3420SOL     OW21895   3.731   3.312   0.189 -1.0065 -1.1353  0.3281
 3420SOL    HW121896   3.798   3.314   0.257 -2.2850 -0.8342  1.5699
 3420SOL    HW221897   3.755   3.397   0.153  0.3210 -1.9125 -0.6426
 3421SOL     OW21898   3.746   3.594   3.847 -0.6534  0.8566 -0.5211
 3421SOL    HW121899   3.751   3.619   3.939 -1.0197  0.1696 -0.3129
 3421SOL    HW221900   3.655   3.569   3.829 -0.1859  1.1782 -3.4079
 3422SOL     OW21901   4.009   0.846  17.574 -0.1335 -0.2081  0.4850
 3422SOL    HW121902   4.044   0.853  17.663  3.9061  1.6625 -1.2410
 3422SOL    HW221903   3.925   0.803  17.592  1.1063 -1.9831  1.9668
 3423SOL     OW21904   1.640   1.353  17.687 -0.6641  0.4770 -0.0964
 3423SOL    HW121905   1.631   1.329  17.594 -0.0885 -0.6220  0.1288
 3423SOL    HW221906   1.556   1.321  17.721  0.1625  0.1532  1.6089
 3424SOL     OW21907   3.327   4.316   3.679 -0.0841  0.0461 -0.2532
 3424SOL    HW121908   3.365   4.366   3.606  0.0839 -1.4591 -1.2099
 3424SOL    HW221909   3.291   4.247   3.623 -1.8552  0.4799  0.3631
 3425SOL     OW21910   1.986   2.514   9.070 -0.1398  0.1804  0.0099
 3425SOL    HW121911   1.926   2.583   9.096  1.4512  0.8343  1.8851
 3425SOL    HW221912   2.059   2.574   9.061 -0.9931  1.2799  0.4659
 3426SOL     OW21913   2.969   4.341   2.823 -0.0825 -0.3071 -0.0213
 3426SOL    HW121914   2.994   4.335   2.915 -3.0926  1.2099  0.8766
 3426SOL    HW221915   2.881   4.307   2.836 -0.4669  1.1428  1.1290
 3427SOL     OW21916   3.492   2.913   0.713 -0.1683 -0.0803  0.0149
 3427SOL    HW121917   3.514   2.848   0.646  0.8167 -0.8478  1.0750
 3427SOL    HW221918   3.411   2.953   0.684  1.0354  2.4121  0.0754
 3428SOL     OW21919   0.047   3.784  16.846  0.5322 -0.3211  0.2142
 3428SOL    HW121920   0.005   3.739  16.773  0.3619  0.5291 -0.2150
 3428SOL    HW221921   0.025   3.877  16.837 -0.8957 -0.6845 -0.0193
 3429SOL     OW21922   4.510   2.973  17.631 -0.7680  0.0507  0.2235
 3429SOL    HW121923   4.542   2.892  17.671  1.9579  0.2983 -1.4200
 3429SOL    HW221924   4.468   3.011  17.708  0.9013  0.6573  0.8322
 3430SOL     OW21925   2.366   2.722   5.825 -0.5656 -0.8157 -0.1300
 3430SOL    HW121926   2.272   2.726   5.844 -0.0921  1.5136  1.7393
 3430SOL    HW221927   2.406   2.772   5.896  0.2405 -1.5864 -0.0362
 3431SOL     OW21928   0.782   4.240  15.573 -0.0524 -0.3083 -0.9471
 3431SOL    HW121929   0.755   4.219  15.483 -1.6072 -1.2796 -0.2472
 3431SOL    HW221930   0.877   4.250  15.568 -0.0625 -0.1628 -0.8377
 3432SOL     OW21931   2.270   0.709  14.978 -0.2909 -0.0281  0.3444
 3432SOL    HW121932   2.222   0.790  14.993 -0.4931 -0.4948  2.1826
 3432SOL    HW221933   2.250   0.669  15.063 -0.3195 -3.3108 -1.2302
 3433SOL     OW21934   4.672   2.186  13.295 -0.3036 -0.0540 -0.2845
 3433SOL    HW121935   4.685   2.099  13.257  1.3335  0.9960 -2.1465
 3433SOL    HW221936   4.710   2.242  13.227  0.9198 -1.8777 -1.1067
 3434SOL     OW21937   3.140   2.462   8.202  0.1469  0.6273 -0.2545
 3434SOL    HW121938   3.062   2.454   8.148 -1.6926 -0.0110  2.5089
 3434SOL    HW221939   3.173   2.372   8.200 -0.5826  0.3185  1.2505
 3435SOL     OW21940   3.977   0.177   0.263 -0.2710 -0.4022  0.2612
 3435SOL    HW121941   4.033   0.254   0.269  0.4763 -0.8838 -0.4579
 3435SOL    HW221942   3.892   0.220   0.263 -0.0118  0.1524 -1.9658
 3436SOL     OW21943   0.973   0.958   0.540 -0.5539 -0.7179 -0.2062
 3436SOL    HW121944   1.058   0.994   0.513 -0.0885 -0.5792  1.4495
 3436SOL    HW221945   0.914   1.005   0.480  0.8754  1.2726 -0.0457
 3437SOL     OW21946   2.341   1.086  12.655 -0.0588  0.9430  0.3992
 3437SOL    HW121947   2.405   1.015  12.645 -1.5215 -0.2682 -0.4245
 3437SOL    HW221948   2.368   1.163  12.604  2.4148 -1.5636 -2.0703
 3438SOL     OW21949   2.520   4.178   6.781  0.3806 -0.5457  0.3058
 3438SOL    HW121950   2.491   4.231   6.707  3.8000  0.8804 -0.0321
 3438SOL    HW221951   2.606   4.140   6.762  0.1139 -1.1183  0.2482
 3439SOL     OW21952   4.329   3.639  13.759  0.1516 -0.4619  0.2138
 3439SOL    HW121953   4.275   3.669  13.685 -1.4492 -0.9880  1.1715
 3439SOL    HW221954   4.333   3.549  13.727  0.8014 -0.6939  0.9673
 3440SOL     OW21955   2.175   0.118   3.692  0.2143  0.4110 -0.3405
 3440SOL    HW121956   2.229   0.053   3.646  0.3870  2.2228 -2.7020
 3440SOL    HW221957   2.206   0.108   3.782 -0.9610 -1.5439 -0.1618
 3441SOL     OW21958   3.126   1.891  12.034 -0.0596  1.1503  0.1814
 3441SOL    HW121959   3.199   1.847  11.991  1.3724  3.2905  0.4133
 3441SOL    HW221960   3.136   1.981  12.001  1.1689  0.2961 -1.7447
 3442SOL     OW21961   2.998   1.774   7.937  0.3452 -0.0888  0.5954
 3442SOL    HW121962   2.937   1.821   7.993 -1.0038  0.0179 -0.9550
 3442SOL    HW221963   3.059   1.724   7.991 -0.3889  0.6443  2.1071
 3443SOL     OW21964   1.358   0.434   3.530 -0.2746 -0.1669 -0.1646
 3443SOL    HW121965   1.415   0.406   3.459 -1.9685  0.9212 -1.9361
 3443SOL    HW221966   1.399   0.390   3.605 -1.8519 -0.6271  0.4315
 3444SOL     OW21967   0.394   0.207   7.472  0.0586  0.2793 -0.6101
 3444SOL    HW121968   0.341   0.178   7.397  0.0228  1.0735 -0.8901
 3444SOL    HW221969   0.439   0.279   7.427  2.6031 -0.2136  1.1120
 3445SOL     OW21970   4.184   2.810  17.193  0.0901  0.1392 -0.4594
 3445SOL    HW121971   4.233   2.799  17.274 -3.0707 -0.2650  1.4201
 3445SOL    HW221972   4.093   2.807  17.222  0.7587 -0.9840  1.4736
 3446SOL     OW21973   3.126   0.900   3.457 -0.1641 -0.8921  0.4958
 3446SOL    HW121974   3.221   0.886   3.447  0.2171  1.6898  0.4009
 3446SOL    HW221975   3.120   0.990   3.490 -0.3438 -0.5054 -0.5919
 3447SOL     OW21976   0.822   0.370  17.040  0.1415  0.1237  0.5703
 3447SOL    HW121977   0.895   0.325  17.083  0.3291  0.2832  0.4210
 3447SOL    HW221978   0.864   0.440  16.989 -2.2524  0.6018 -0.7476
 3448SOL     OW21979   3.068   3.803  10.702 -0.3149 -0.3089 -0.9405
 3448SOL    HW121980   3.055   3.874  10.764  0.1288 -0.8199 -0.2568
 3448SOL    HW221981   3.011   3.735  10.738 -0.3679  0.8857  1.2155
 3449SOL     OW21982   0.324   4.453   9.570 -0.2436  0.4987 -0.4145
 3449SOL    HW121983   0.418   4.449   9.582 -0.3926  3.4275  1.6133
 3449SOL    HW221984   0.308   4.378   9.627  0.0935 -0.5979 -1.7604
 3450SOL     OW21985   1.433   2.860  10.021 -0.1182 -0.1260 -0.0317
 3450SOL    HW121986   1.391   2.886  10.103 -0.3602  0.7287 -0.4178
 3450SOL    HW221987   1.361   2.810   9.983  0.6699 -2.1385  1.1498
 3451SOL     OW21988   4.659   0.401   0.245 -0.4309 -0.2503 -0.1136
 3451SOL    HW121989   0.009   0.362   0.226  0.5937  2.1957 -0.4487
 3451SOL    HW221990   4.673   0.396   0.340 -1.3317 -1.8959 -0.0665
 3452SOL     OW21991   0.671   0.259   3.604  0.1127 -0.7001 -0.2637
 3452SOL    HW121992   0.676   0.343   3.649 -1.2625  0.7451 -2.8248
 3452SOL    HW221993   0.621   0.277   3.525 -0.4928  2.0452  0.7329
 3453SOL     OW21994   3.022   1.629   6.594  0.2410 -0.1672  0.2907
 3453SOL    HW121995   2.929   1.643   6.613  0.0377  0.2927 -0.9840
 3453SOL    HW221996   3.034   1.674   6.510  1.0314 -0.2193  0.3776
 3454SOL     OW21997   3.128   0.277  10.669 -0.0218  0.8400  0.3081
 3454SOL    HW121998   3.062   0.346  10.669  1.1409  1.9679 -0.0667
 3454SOL    HW221999   3.077   0.207  10.709 -0.0784  0.8212  0.2049
 3455SOL     OW22000   3.767   3.290   1.824  0.4258 -0.3053 -0.4609
 3455SOL    HW122001   3.797   3.367   1.776  1.1148  0.5767  1.3703
 3455SOL    HW222002   3.730   3.338   1.899  0.4340  1.0256 -1.3191
 3456SOL     OW22003   4.631   0.230   5.621 -0.8774 -0.1592 -0.2665
 3456SOL    HW122004   4.722   0.254   5.640  0.2116 -2.9082 -1.9252
 3456SOL    HW222005   4.588   0.291   5.680  1.7451  1.3566  0.0836
 3457SOL     OW22006   3.744   1.701   3.559  0.2516  0.6849 -0.6858
 3457SOL    HW122007   3.754   1.752   3.479 -0.8614  1.9328 -0.0461
 3457SOL    HW222008   3.749   1.762   3.633 -1.8139 -1.5914  1.3278
 3458SOL     OW22009   3.033   4.594   9.276  1.0478  0.0223  0.4274
 3458SOL    HW122010   3.068   4.513   9.239  1.2372  0.9858 -1.4956
 3458SOL    HW222011   2.945   4.569   9.250  0.3995  4.3930 -1.4739
 3459SOL     OW22012   2.872   4.447   5.365  0.6432 -0.6778  0.2668
 3459SOL    HW122013   2.922   4.520   5.403 -1.1091  0.5678  0.1446
 3459SOL    HW222014   2.785   4.485   5.360  0.9761  0.0613  0.1776
 3460SOL     OW22015   1.884   3.213   2.366  0.0254 -0.0564  0.1212
 3460SOL    HW122016   1.868   3.157   2.291 -1.7805  0.2786  0.2569
 3460SOL    HW222017   1.980   3.209   2.371  0.1999  1.4562 -2.1341
 3461SOL     OW22018   4.673   2.258   7.008 -0.3335 -0.3417 -0.2410
 3461SOL    HW122019   4.588   2.303   7.005 -0.9835 -1.5582  0.2522
 3461SOL    HW222020   4.702   2.280   7.096 -0.1684 -1.1129 -0.1063
 3462SOL     OW22021   1.499   1.495   7.521 -0.1589  0.9958 -0.3902
 3462SOL    HW122022   1.410   1.509   7.555 -0.5567  1.9480 -1.8094
 3462SOL    HW222023   1.545   1.492   7.605 -2.7884 -2.1183  0.9667
 3463SOL     OW22024   0.877   0.899  16.353  0.1918 -0.4964  0.4874
 3463SOL    HW122025   0.874   0.860  16.266 -0.4793  1.2985 -0.2945
 3463SOL    HW222026   0.867   0.990  16.325  0.0524 -0.6746 -0.0376
 3464SOL     OW22027   1.964   4.525  15.440 -0.0917 -0.1271 -0.1300
 3464SOL    HW122028   1.897   4.537  15.373 -0.1576  0.7811  0.0932
 3464SOL    HW222029   1.998   4.442  15.406 -0.7849 -1.2088  1.7771
 3465SOL     OW22030   1.390   1.537   6.890  0.2975 -0.1947 -0.0880
 3465SOL    HW122031   1.350   1.585   6.818 -0.5307  1.2011  1.2977
 3465SOL    HW222032   1.484   1.553   6.887 -0.1726  2.5972 -0.1243
 3466SOL     OW22033   3.122   3.951   2.611 -0.6399 -0.1408 -0.5127
 3466SOL    HW122034   3.098   4.007   2.537  0.3698 -0.3991 -1.0304
 3466SOL    HW222035   3.154   4.018   2.672 -0.0589 -1.4640  0.6188
 3467SOL     OW22036   4.075   1.558   7.611 -0.2033  0.4385  0.5646
 3467SOL    HW122037   4.010   1.549   7.681 -0.9117  0.1752 -0.1398
 3467SOL    HW222038   4.078   1.650   7.586  0.3997  0.9929  2.5935
 3468SOL     OW22039   3.962   0.968   0.612 -0.5475 -0.0897  0.3212
 3468SOL    HW122040   3.987   1.029   0.543  1.5002 -1.3192 -0.0396
 3468SOL    HW222041   4.006   1.002   0.689 -1.7792  0.7409  0.6506
 3469SOL     OW22042   3.931   1.370  10.673  0.6473  0.2204  0.4390
 3469SOL    HW122043   3.966   1.451  10.709  2.5165 -0.2252 -0.3371
 3469SOL    HW222044   3.928   1.324  10.757 -0.1709 -2.4574 -1.0523
 3470SOL     OW22045   0.964   2.810   7.672  0.9336  0.0453  0.0886
 3470SOL    HW122046   0.881   2.855   7.684  0.7548 -0.3196  0.2338
 3470SOL    HW222047   0.954   2.736   7.732 -0.4654  0.9076  0.8893
 3471SOL     OW22048   1.018   2.083  13.685  0.5883  0.1077  0.1577
 3471SOL    HW122049   0.931   2.064  13.652  0.2903 -0.3148  1.1990
 3471SOL    HW222050   1.003   2.125  13.769 -0.0446 -2.5591  1.3854
 3472SOL     OW22051   3.909   4.339   4.203  0.3665 -0.5478 -0.0145
 3472SOL    HW122052   3.941   4.276   4.138  1.0747 -1.7314  1.4777
 3472SOL    HW222053   3.842   4.284   4.243  0.1116 -0.9610 -1.0151
 3473SOL     OW22054   1.124   3.387   0.090  0.2780 -0.4029 -0.5355
 3473SOL    HW122055   1.074   3.468   0.092  1.0240  0.1317 -2.7118
 3473SOL    HW222056   1.165   3.388   0.176  0.8566  0.3475 -0.8169
 3474SOL     OW22057   4.099   3.091   5.696 -0.2553  0.4880 -0.2022
 3474SOL    HW122058   4.157   3.054   5.763  1.5589  2.7434 -0.5338
 3474SOL    HW222059   4.145   3.055   5.620  0.1116  3.2267 -1.2684
 3475SOL     OW22060   1.217   2.650  10.532  0.5961  0.5334  0.2513
 3475SOL    HW122061   1.138   2.602  10.507  0.0887  2.1463 -1.2629
 3475SOL    HW222062   1.243   2.599  10.609 -1.3858 -2.6278 -1.2211
 3476SOL     OW22063   0.012   3.584   2.777  0.2054  0.1086 -0.6101
 3476SOL    HW122064   4.726   3.495   2.750 -3.0828  0.8333 -0.4165
 3476SOL    HW222065   0.106   3.575   2.763 -0.0914 -0.1185 -2.5342
 3477SOL     OW22066   1.254   1.286   6.899  0.0855 -0.0081 -0.0324
 3477SOL    HW122067   1.187   1.322   6.956 -1.2881 -0.8099 -1.1209
 3477SOL    HW222068   1.326   1.348   6.905  1.8168 -2.1423  1.2121
 3478SOL     OW22069   0.312   0.056   4.480  0.7192 -0.2471 -0.0812
 3478SOL    HW122070   0.301   0.005   4.399  1.5275  0.1357 -0.4379
 3478SOL    HW222071   0.262   0.136   4.464 -0.2622 -0.6939  0.7725
 3479SOL     OW22072   0.394   0.828  16.856 -0.1041 -0.2960  0.1345
 3479SOL    HW122073   0.347   0.825  16.773 -0.0830  0.8277  0.0843
 3479SOL    HW222074   0.348   0.759  16.904  4.5120 -2.3051  1.6714
 3480SOL     OW22075   3.556   1.142   2.683 -0.0935 -0.0528 -0.0646
 3480SOL    HW122076   3.472   1.181   2.659 -0.5370 -1.7875 -1.2619
 3480SOL    HW222077   3.524   1.074   2.742  0.7156  0.5253  1.0358
 3481SOL     OW22078   0.516   3.658   9.727 -0.2900  0.5145 -0.0702
 3481SOL    HW122079   0.444   3.707   9.688 -0.1478  0.7753 -0.0058
 3481SOL    HW222080   0.585   3.689   9.668 -0.3689  1.8393  0.5205
 3482SOL     OW22081   2.018   3.835   6.773  0.2698  0.2117 -0.0724
 3482SOL    HW122082   1.972   3.899   6.718  0.9564  0.3317 -0.5060
 3482SOL    HW222083   2.102   3.823   6.729  0.0854  0.5640 -0.5255
 3483SOL     OW22084   0.574   3.539   5.987 -0.4012  0.6696 -0.2707
 3483SOL    HW122085   0.567   3.444   5.989  0.7351  0.5705 -1.5654
 3483SOL    HW222086   0.534   3.560   6.072  2.2963 -0.5080  1.2937
 3484SOL     OW22087   2.237   3.326   0.309  0.8692 -0.4748  0.0456
 3484SOL    HW122088   2.171   3.274   0.264 -0.6287 -0.5274  2.2942
 3484SOL    HW222089   2.289   3.254   0.345 -0.3804  0.2159  3.2462
 3485SOL     OW22090   1.975   4.229   0.748  0.5119 -0.4051 -0.0268
 3485SOL    HW122091   1.950   4.318   0.722 -1.3087 -0.2796  2.1011
 3485SOL    HW222092   2.059   4.248   0.790 -0.1503 -2.8841  2.3698
 3486SOL     OW22093   4.298   1.327   8.813 -0.0657  0.3367  0.6554
 3486SOL    HW122094   4.229   1.290   8.869 -0.3401 -0.5112 -0.2494
 3486SOL    HW222095   4.315   1.413   8.852 -0.6310  1.1574 -0.9280
 3487SOL     OW22096   3.377   1.579   0.212  0.3749 -0.1201  0.5832
 3487SOL    HW122097   3.282   1.594   0.214  0.5826  1.3143 -0.3373
 3487SOL    HW222098   3.409   1.669   0.221 -0.7274  0.1122  2.2756
 3488SOL     OW22099   0.654   2.415  15.185 -0.0986  0.0700 -0.7305
 3488SOL    HW122100   0.723   2.478  15.167 -2.1676  2.1229 -1.5392
 3488SOL    HW222101   0.682   2.346  15.125  0.8757  0.4411 -0.7025
 3489SOL     OW22102   3.973   3.490   5.484 -0.0991  0.5575 -0.0267
 3489SOL    HW122103   3.994   3.430   5.413  1.7265 -2.3481  2.9240
 3489SOL    HW222104   4.060   3.528   5.497 -0.2441  0.7530  0.3990
 3490SOL     OW22105   2.325   3.287   5.903 -0.2029 -0.0653  0.1748
 3490SOL    HW122106   2.271   3.360   5.933 -0.3020  0.0010 -0.1571
 3490SOL    HW222107   2.409   3.331   5.890 -0.7639  1.0771  0.4411
 3491SOL     OW22108   4.454   1.109  15.400 -0.4143  0.1999  0.2214
 3491SOL    HW122109   4.416   1.112  15.312  0.1038 -0.9244 -0.0391
 3491SOL    HW222110   4.493   1.195  15.409  0.6158 -0.4021  1.4168
 3492SOL     OW22111   4.353   3.856   6.966  0.2991  0.1506  0.2872
 3492SOL    HW122112   4.281   3.810   6.923  0.5886  0.4006 -0.4560
 3492SOL    HW222113   4.311   3.895   7.043  1.9823  1.0146  0.7667
 3493SOL     OW22114   1.645   4.416   9.215  0.3135 -0.4540 -0.1044
 3493SOL    HW122115   1.732   4.379   9.201  1.2392  1.5278  0.4400
 3493SOL    HW222116   1.665   4.485   9.277  0.3507  1.2781 -2.0571
 3494SOL     OW22117   2.504   1.259   7.041 -0.7336 -0.2033 -0.4020
 3494SOL    HW122118   2.548   1.299   6.966 -1.3745  2.2042  0.5134
 3494SOL    HW222119   2.571   1.215   7.095 -0.6410  1.8249  1.1363
 3495SOL     OW22120   3.183   1.148   5.091 -0.0492  0.0615  0.1166
 3495SOL    HW122121   3.095   1.185   5.099 -0.2181 -0.4961  0.7510
 3495SOL    HW222122   3.226   1.185   5.013  1.3471 -1.0056  0.3821
 3496SOL     OW22123   2.282   4.510   6.246 -0.0710  0.3161 -0.5317
 3496SOL    HW122124   2.299   4.578   6.311  1.1689 -0.5046  0.0280
 3496SOL    HW222125   2.264   4.566   6.171  0.9480  1.0496 -0.2298
 3497SOL     OW22126   3.177   1.343  13.308  0.0179  0.0129 -0.2026
 3497SOL    HW122127   3.134   1.365  13.391  1.8467 -1.2672  1.0575
 3497SOL    HW222128   3.241   1.274  13.326  0.0534 -0.1814 -1.1065
 3498SOL     OW22129   4.698   2.401   7.915  0.1442  0.4647 -0.0339
 3498SOL    HW122130   4.732   2.364   7.997 -0.6266  2.4077  1.1661
 3498SOL    HW222131   0.020   2.476   7.900  2.8387 -1.8209 -1.1646
 3499SOL     OW22132   0.259   4.405   2.717 -0.0015  0.0138 -0.3802
 3499SOL    HW122133   0.180   4.355   2.698 -0.2792  1.2145 -2.3747
 3499SOL    HW222134   0.317   4.382   2.644 -0.2529  1.8310 -1.1497
 3500SOL     OW22135   0.777   0.105   5.634  0.1566 -1.0391  0.2125
 3500SOL    HW122136   0.863   0.122   5.594  0.1550  1.1468  1.1267
 3500SOL    HW222137   0.802   0.110   5.727  0.2632  0.3515  0.1191
 3501SOL     OW22138   3.094   0.773  13.438 -0.0902  0.3605  0.3798
 3501SOL    HW122139   3.058   0.808  13.357 -1.1415  0.4671  0.8908
 3501SOL    HW222140   3.173   0.826  13.449  0.3690 -0.2681  0.0762
 3502SOL     OW22141   0.753   2.844   2.801 -0.4056 -0.1172 -0.0288
 3502SOL    HW122142   0.820   2.850   2.732 -1.5488 -1.1434 -1.2348
 3502SOL    HW222143   0.754   2.939   2.814 -0.6153 -0.0930 -0.1867
 3503SOL     OW22144   2.421   0.400   4.468  0.3060  0.3213 -0.1301
 3503SOL    HW122145   2.343   0.454   4.454 -0.6608 -1.3834 -1.3053
 3503SOL    HW222146   2.448   0.435   4.553  1.0476 -0.7337  0.0663
 3504SOL     OW22147   0.752   3.076   5.126 -0.0137  0.1690  0.0178
 3504SOL    HW122148   0.751   3.169   5.104  1.1658  0.2769  0.4247
 3504SOL    HW222149   0.697   3.068   5.204 -0.9384  0.8534 -0.5597
 3505SOL     OW22150   0.140   0.650  17.549 -0.0770  0.2258  0.1008
 3505SOL    HW122151   0.151   0.556  17.535 -2.4399  0.1130 -0.8981
 3505SOL    HW222152   0.127   0.651  17.644 -0.1932 -2.3253  0.1139
 3506SOL     OW22153   4.633   4.714   1.263  0.3312  0.1442 -0.1516
 3506SOL    HW122154   4.592   0.062   1.241  0.6999  0.0805 -1.0600
 3506SOL    HW222155   4.589   4.696   1.347  2.1511 -0.8713  0.5921
 3507SOL     OW22156   1.666   0.304   5.600 -0.0371  0.6016  0.0084
 3507SOL    HW122157   1.758   0.314   5.572  0.4496 -0.0335  1.3691
 3507SOL    HW222158   1.617   0.272   5.524  0.5344  0.6337 -0.3841
 3508SOL     OW22159   0.937   1.606   3.880 -0.2896  0.2996  0.3172
 3508SOL    HW122160   0.969   1.616   3.790  1.6560  1.6794  1.1711
 3508SOL    HW222161   0.976   1.522   3.906 -0.9465  0.8517  3.0431
 3509SOL     OW22162   1.082   0.295  16.000 -0.6421 -0.1705 -0.1527
 3509SOL    HW122163   1.071   0.264  15.910 -0.1295 -1.7312  0.3233
 3509SOL    HW222164   1.137   0.231  16.046  0.7038  1.5803  0.6435
 3510SOL     OW22165   0.743   1.820   3.566 -0.4049  0.4281  0.0437
 3510SOL    HW122166   0.730   1.862   3.481 -2.8686  0.9976  0.7023
 3510SOL    HW222167   0.682   1.747   3.557  0.3553 -0.2303  0.2624
 3511SOL     OW22168   4.065   2.275  16.686 -0.6324 -0.0242  0.0467
 3511SOL    HW122169   4.048   2.181  16.694  0.7789 -0.3774 -1.1150
 3511SOL    HW222170   4.101   2.305  16.770  0.5204  0.0302 -0.4702
 3512SOL     OW22171   1.362   1.565  12.624 -0.0885  0.0079 -0.2399
 3512SOL    HW122172   1.418   1.496  12.587 -2.3622 -1.4291 -1.0414
 3512SOL    HW222173   1.391   1.572  12.715 -2.4912 -2.9545  0.7796
 3513SOL     OW22174   0.651   2.335  13.607  0.2804 -0.6105  0.2338
 3513SOL    HW122175   0.634   2.274  13.535 -0.0083  0.4291 -0.5650
 3513SOL    HW222176   0.620   2.283  13.681 -1.1525 -1.3950 -0.9249
 3514SOL     OW22177   1.310   1.165   3.036  0.4173 -0.0665 -0.2124
 3514SOL    HW122178   1.355   1.231   2.982 -0.4473 -0.6635 -1.6705
 3514SOL    HW222179   1.349   1.082   3.006  0.1633 -0.6243  1.0226
 3515SOL     OW22180   4.257   0.355  11.795  0.1723 -0.0265  0.1263
 3515SOL    HW122181   4.277   0.378  11.704  2.5855  0.3185  0.7492
 3515SOL    HW222182   4.162   0.353  11.798  0.2216 -0.0345  2.0052
 3516SOL     OW22183   2.589   0.733   8.998 -0.0342  0.1412  0.3693
 3516SOL    HW122184   2.637   0.720   8.916  2.0902  1.2448  1.4603
 3516SOL    HW222185   2.604   0.825   9.019  1.8968  0.0426 -0.6762
 3517SOL     OW22186   4.000   1.194  17.557  0.4629 -0.2084  0.4347
 3517SOL    HW122187   3.955   1.278  17.552 -0.6172 -0.7825  0.4689
 3517SOL    HW222188   4.060   1.196  17.483  0.8338  0.7143  0.7667
 3518SOL     OW22189   2.743   3.373   6.416  0.3143  0.7226  0.1891
 3518SOL    HW122190   2.663   3.420   6.390 -1.7083 -1.3386  2.6856
 3518SOL    HW222191   2.753   3.432   6.491 -0.8156  0.9925  0.1397
 3519SOL     OW22192   4.549   3.617   2.184 -0.1670 -0.3004 -0.1269
 3519SOL    HW122193   4.528   3.617   2.091 -0.9560  1.1788  0.0655
 3519SOL    HW222194   4.564   3.523   2.195 -0.8063 -0.2217  1.4762
 3520SOL     OW22195   2.644   1.948  17.604 -0.3328 -0.7102  0.0308
 3520SOL    HW122196   2.586   1.875  17.625 -1.0006 -0.7145 -1.8139
 3520SOL    HW222197   2.650   1.958  17.509  1.8982  0.9775  0.3449
 3521SOL     OW22198   0.215   4.588   3.790 -0.2049 -0.0178  0.4422
 3521SOL    HW122199   0.146   4.635   3.743  0.2289 -1.7363 -1.9286
 3521SOL    HW222200   0.176   4.596   3.877  1.4375  1.3601  1.0484
 3522SOL     OW22201   1.480   2.374   6.650  0.2920  0.3259  0.1394
 3522SOL    HW122202   1.510   2.311   6.715 -0.7309 -0.5953 -0.2812
 3522SOL    HW222203   1.431   2.318   6.590 -0.4684  0.6379  0.4611
 3523SOL     OW22204   4.312   2.139  14.205 -0.1750  0.5320  0.7751
 3523SOL    HW122205   4.271   2.071  14.258  1.1024  0.2179  1.3473
 3523SOL    HW222206   4.300   2.100  14.118  0.3267  0.5281  0.7104
 3524SOL     OW22207   2.522   0.435   6.090  0.2847 -0.0480 -0.0485
 3524SOL    HW122208   2.561   0.370   6.148 -2.6287 -0.0025  1.9826
 3524SOL    HW222209   2.583   0.508   6.100 -0.7549  0.8505 -0.2099
 3525SOL     OW22210   0.773   0.830  10.418  0.2211  0.5340 -0.5395
 3525SOL    HW122211   0.765   0.832  10.322 -1.4899  1.0302 -0.3935
 3525SOL    HW222212   0.717   0.756  10.439 -1.8085  2.0078 -0.6949
 3526SOL     OW22213   4.512   3.105  16.152 -0.2357 -0.0357  0.3525
 3526SOL    HW122214   4.537   3.182  16.101  0.0317 -1.2621 -1.3409
 3526SOL    HW222215   4.443   3.068  16.098  1.4121 -0.9342 -1.1438
 3527SOL     OW22216   0.211   0.324  10.501 -0.9545 -0.3044  0.1201
 3527SOL    HW122217   0.226   0.309  10.408  0.6634  2.1383 -0.0220
 3527SOL    HW222218   0.168   0.244  10.532  0.8992 -0.3315  2.5883
 3528SOL     OW22219   3.500   2.447   5.637 -0.1502  0.1265 -0.4144
 3528SOL    HW122220   3.452   2.466   5.557  0.0739 -2.1155 -1.0788
 3528SOL    HW222221   3.588   2.415   5.618 -0.5392 -1.3076  0.2371
 3529SOL     OW22222   3.520   4.650   5.576  0.4414  0.0871 -0.4398
 3529SOL    HW122223   3.563   4.732   5.551 -0.8955  0.3518 -1.8543
 3529SOL    HW222224   3.592   4.591   5.554  1.3906  2.0491 -2.5823
 3530SOL     OW22225   4.248   2.658   7.681 -0.1416  0.3396 -0.0052
 3530SOL    HW122226   4.261   2.603   7.604  1.8557  2.2062 -0.9948
 3530SOL    HW222227   4.250   2.740   7.631  2.0780 -0.6739 -1.5984
 3531SOL     OW22228   4.708   1.631  10.216  0.1034 -0.4232  0.1364
 3531SOL    HW122229   0.053   1.628  10.164  0.9796  1.0771  1.3805
 3531SOL    HW222230   4.695   1.726  10.223  1.5147 -0.0403 -2.5180
 3532SOL     OW22231   3.602   4.566   1.421  0.5601  0.4292 -0.0167
 3532SOL    HW122232   3.604   4.611   1.505  0.5876 -1.0772  0.7901
 3532SOL    HW222233   3.570   4.483   1.455  0.5294  0.5749  0.3027
 3533SOL     OW22234   1.003   2.422  12.326 -0.1408  0.2349 -0.2751
 3533SOL    HW122235   1.076   2.360  12.330 -0.1221  0.2628 -0.1712
 3533SOL    HW222236   0.934   2.388  12.270  0.8809 -2.5210  0.1679
 3534SOL     OW22237   4.176   3.534   5.099 -0.3629  0.5756 -0.4603
 3534SOL    HW122238   4.256   3.541   5.048  1.2295  2.1003  2.2664
 3534SOL    HW222239   4.171   3.620   5.142 -0.5836 -0.8879  2.4587
 3535SOL     OW22240   1.062   4.022   2.129 -0.2823  0.9466  0.4595
 3535SOL    HW122241   1.045   4.068   2.047 -1.7390 -1.1626 -0.4286
 3535SOL    HW222242   0.992   3.957   2.121 -0.2540  1.1069 -1.2056
 3536SOL     OW22243   4.400   1.851   8.989 -0.6605  0.4261 -0.2427
 3536SOL    HW122244   4.478   1.893   9.024  1.4761 -3.8443  0.1201
 3536SOL    HW222245   4.436   1.798   8.917 -1.3633  0.3941 -0.5790
 3537SOL     OW22246   0.318   0.753  17.353  0.1584 -0.1681 -0.1306
 3537SOL    HW122247   0.257   0.748  17.426  3.1413 -2.0927  2.2682
 3537SOL    HW222248   0.260   0.779  17.282  0.9089 -1.6729 -1.3216
 3538SOL     OW22249   1.225   2.140   8.752 -0.0045 -0.2468 -1.2848
 3538SOL    HW122250   1.248   2.063   8.803  0.0126 -0.0471 -0.9942
 3538SOL    HW222251   1.236   2.108   8.662  0.5086  0.0520 -1.3289
 3539SOL     OW22252   0.840   2.144  10.617  0.0866  0.2331 -0.1056
 3539SOL    HW122253   0.778   2.112  10.552  2.3993  2.1652 -3.2725
 3539SOL    HW222254   0.912   2.081  10.618 -0.4613 -0.3723  0.5455
 3540SOL     OW22255   2.908   3.854   8.502  0.2011  0.9178 -0.4267
 3540SOL    HW122256   2.973   3.853   8.573 -0.8312  1.5157  0.5366
 3540SOL    HW222257   2.945   3.922   8.446  1.5072  1.2756  0.8701
 3541SOL     OW22258   2.709   2.440  13.709 -0.2266  0.0615  0.1270
 3541SOL    HW122259   2.666   2.526  13.710  2.6345  1.5245 -1.7737
 3541SOL    HW222260   2.740   2.429  13.799 -1.2989  0.4529  0.5475
 3542SOL     OW22261   1.366   1.378   8.245  0.0853 -0.2914  0.0438
 3542SOL    HW122262   1.302   1.343   8.307  0.0598 -1.7614 -0.8109
 3542SOL    HW222263   1.316   1.403   8.167  0.9945 -2.5863 -1.2615
 3543SOL     OW22264   3.479   2.962   2.164  0.1440  0.4704  0.7361
 3543SOL    HW122265   3.505   2.935   2.252  0.6739 -1.3676  0.0278
 3543SOL    HW222266   3.394   3.000   2.188 -0.2074  0.3489 -0.2768
 3544SOL     OW22267   4.394   2.408   4.852  0.0229 -0.2022 -0.0288
 3544SOL    HW122268   4.352   2.330   4.813 -0.1811  0.6248 -1.4578
 3544SOL    HW222269   4.329   2.440   4.915  0.1166  0.0182 -0.0452
 3545SOL     OW22270   3.939   4.652   9.544 -0.2004  0.2295  0.0894
 3545SOL    HW122271   3.998   4.625   9.614  0.6440 -0.5035 -0.9170
 3545SOL    HW222272   3.898   4.725   9.591  1.7088  0.9301  0.6738
 3546SOL     OW22273   2.548   4.502   4.268 -0.1983 -0.1132  0.0570
 3546SOL    HW122274   2.460   4.488   4.232  0.3200 -1.5415 -0.6713
 3546SOL    HW222275   2.521   4.574   4.324  1.6577 -0.9051  1.9578
 3547SOL     OW22276   1.124   1.363  12.410 -0.7543  0.1478 -0.4528
 3547SOL    HW122277   1.032   1.341  12.404 -1.2841  2.1748  0.0559
 3547SOL    HW222278   1.163   1.344  12.325 -2.0190 -1.2181 -0.7134
 3548SOL     OW22279   0.199   0.914   3.013  0.2961  0.3237  0.3356
 3548SOL    HW122280   0.231   0.935   2.925 -1.3653  1.7163  0.0803
 3548SOL    HW222281   0.105   0.927   3.005  0.4864  1.0313 -0.8964
 3549SOL     OW22282   1.435   1.911   1.776 -0.5574  0.4665  0.6963
 3549SOL    HW122283   1.447   2.001   1.746 -1.2633  0.2493 -0.2545
 3549SOL    HW222284   1.522   1.897   1.812  0.9549  0.5092 -2.8840
 3550SOL     OW22285   2.405   1.760   8.200  0.3089 -1.4249 -0.8416
 3550SOL    HW122286   2.489   1.719   8.181  0.5575 -2.2299  1.9821
 3550SOL    HW222287   2.371   1.690   8.256 -0.7220 -1.2123 -1.1941
 3551SOL     OW22288   3.797   4.123   4.319 -0.2135 -0.6688 -0.2578
 3551SOL    HW122289   3.846   4.042   4.336  0.8130 -0.5330 -2.5729
 3551SOL    HW222290   3.740   4.090   4.250  0.7151  0.3383 -1.5058
 3552SOL     OW22291   0.491   0.992  13.070  0.4185  0.0492  0.4759
 3552SOL    HW122292   0.487   0.967  12.977  1.5819  3.8183 -0.5915
 3552SOL    HW222293   0.513   0.906  13.106 -0.7767 -0.1211  0.7859
 3553SOL     OW22294   2.520   0.088  12.935  0.0795 -0.1115  0.0499
 3553SOL    HW122295   2.425   0.076  12.940  0.0700  0.4078  1.1846
 3553SOL    HW222296   2.531   0.159  12.999  2.4012 -0.6233  0.2174
 3554SOL     OW22297   4.023   0.343   1.419  0.0138  0.1300 -1.0466
 3554SOL    HW122298   4.061   0.358   1.332  0.6498 -0.6201 -0.8972
 3554SOL    HW222299   3.979   0.426   1.438  1.0478  0.4343 -0.0179
 3555SOL     OW22300   4.219   3.871   0.802 -0.0099 -0.2505 -0.1003
 3555SOL    HW122301   4.223   3.832   0.890  0.4073 -0.0877 -0.0510
 3555SOL    HW222302   4.186   3.796   0.753 -1.1921 -0.4953  1.0455
 3556SOL     OW22303   2.137   3.289   4.666  0.1893 -0.4575 -0.0738
 3556SOL    HW122304   2.227   3.318   4.656  0.4431 -0.6510  1.6834
 3556SOL    HW222305   2.087   3.369   4.646  0.6063 -0.8233 -2.5101
 3557SOL     OW22306   2.744   3.786  15.480  0.0687  0.1978  0.2699
 3557SOL    HW122307   2.768   3.721  15.546 -0.3103 -0.0554  0.1594
 3557SOL    HW222308   2.651   3.766  15.466  0.6386 -0.3418 -2.7187
 3558SOL     OW22309   0.325   2.238  10.518  0.3768  0.2376  0.1722
 3558SOL    HW122310   0.405   2.270  10.475  0.0027  0.5467 -0.2896
 3558SOL    HW222311   0.277   2.316  10.545  2.7795  1.1432  1.8406
 3559SOL     OW22312   0.863   0.848   4.632  0.4148  0.2062  0.1902
 3559SOL    HW122313   0.949   0.886   4.616  0.3388 -0.1148 -0.9613
 3559SOL    HW222314   0.851   0.801   4.550  2.0095  0.1337 -0.0017
 3560SOL     OW22315   2.438   1.426   5.064  0.0739  0.1980 -0.0684
 3560SOL    HW122316   2.448   1.410   5.158 -1.3276  0.6466  0.1487
 3560SOL    HW222317   2.493   1.502   5.043 -0.4146  0.5473 -0.0832
 3561SOL     OW22318   0.382   2.281   9.598  0.5492  0.5424 -0.0298
 3561SOL    HW122319   0.430   2.198   9.592  1.6350  1.1209  0.6162
 3561SOL    HW222320   0.447   2.330   9.548  2.3029  0.9533  2.6250
 3562SOL     OW22321   0.650   2.427   4.647 -0.0505  0.0089  0.4694
 3562SOL    HW122322   0.686   2.443   4.560 -0.1287 -1.3238  0.1886
 3562SOL    HW222323   0.719   2.368   4.677 -0.0685 -0.1886  0.1179
 3563SOL     OW22324   2.862   0.936   9.878 -0.0452 -0.0956  0.4153
 3563SOL    HW122325   2.783   0.882   9.881  0.7940 -1.2516  1.4776
 3563SOL    HW222326   2.933   0.874   9.860  0.1584  0.7640 -1.8270
 3564SOL     OW22327   2.934   2.954   7.374 -0.2106  0.8116  0.4660
 3564SOL    HW122328   2.942   2.872   7.326  1.0534  1.0419  0.2744
 3564SOL    HW222329   2.961   2.937   7.464  1.7509 -0.8074 -0.4101
 3565SOL     OW22330   2.990   0.940   6.614  0.5679  0.0817  0.0112
 3565SOL    HW122331   2.981   1.034   6.599  0.2192 -0.2097 -1.5579
 3565SOL    HW222332   3.028   0.947   6.702  2.9405 -2.0823 -0.8268
 3566SOL     OW22333   2.482   0.818   3.087 -0.0248 -0.7436 -0.0873
 3566SOL    HW122334   2.419   0.873   3.133  1.5484  0.8244  0.1713
 3566SOL    HW222335   2.471   0.845   2.996 -0.0626 -2.0756 -0.4921
 3567SOL     OW22336   0.934   2.238   6.777 -0.2312 -0.0513  0.3823
 3567SOL    HW122337   0.839   2.246   6.784  0.0383  2.6745  0.9003
 3567SOL    HW222338   0.962   2.263   6.866  2.8113  1.6873 -1.0496
 3568SOL     OW22339   2.979   2.124   4.906 -0.3250  0.1450 -0.1600
 3568SOL    HW122340   3.022   2.192   4.958 -1.5965 -0.9338  2.3049
 3568SOL    HW222341   2.963   2.062   4.977 -1.4055 -1.6506 -1.9741
 3569SOL     OW22342   1.617   0.839   8.809 -0.1196  0.6933  0.2366
 3569SOL    HW122343   1.521   0.834   8.805  0.0556 -1.6961 -0.9949
 3569SOL    HW222344   1.635   0.874   8.722  2.3252  1.8412  1.2215
 3570SOL     OW22345   1.111   1.058  10.664 -0.1752 -0.2338 -0.6626
 3570SOL    HW122346   1.057   1.093  10.593 -0.1725  0.3152 -0.3934
 3570SOL    HW222347   1.181   1.005  10.624 -0.1139 -0.3159 -0.4464
 3571SOL     OW22348   1.093   2.551   6.900 -0.2044  0.4641 -0.1937
 3571SOL    HW122349   1.101   2.602   6.819  0.0376 -0.9824 -1.0824
 3571SOL    HW222350   1.001   2.563   6.921 -0.4464 -0.6631 -0.6194
 3572SOL     OW22351   2.322   1.257   6.706 -0.9476 -0.8305  0.0021
 3572SOL    HW122352   2.302   1.318   6.635 -3.1731 -1.0558  0.4089
 3572SOL    HW222353   2.252   1.195   6.686 -0.3389 -1.8677  1.0980
 3573SOL     OW22354   3.536   2.088  10.250  0.5040  0.5942  0.4272
 3573SOL    HW122355   3.451   2.070  10.210 -0.1861  1.5320  1.4550
 3573SOL    HW222356   3.595   2.026  10.208 -0.5247 -0.7575  0.9525
 3574SOL     OW22357   0.998   2.375   5.723  0.4331  0.0465 -0.4572
 3574SOL    HW122358   0.932   2.313   5.756  0.3885  0.3300 -0.0058
 3574SOL    HW222359   1.009   2.344   5.633  3.1931  1.0662 -0.4599
 3575SOL     OW22360   4.175   4.183   9.374  0.3428  0.2198  0.5016
 3575SOL    HW122361   4.178   4.267   9.420  2.1822 -0.6131  1.8502
 3575SOL    HW222362   4.192   4.202   9.281  0.9819 -2.6021  0.0692
 3576SOL     OW22363   3.115   1.149  16.829 -0.3596 -0.2944  0.1312
 3576SOL    HW122364   3.192   1.159  16.772 -1.3926  0.8734 -1.0409
 3576SOL    HW222365   3.039   1.154  16.772  0.9924  3.3394 -1.3331
 3577SOL     OW22366   3.247   4.020   6.707  0.3954 -0.6594  0.1868
 3577SOL    HW122367   3.277   3.978   6.627 -0.8779  1.7430 -1.5446
 3577SOL    HW222368   3.161   4.054   6.682  0.7875  0.4384  0.3446
 3578SOL     OW22369   1.567   3.404   7.027 -0.0904 -0.1711 -0.0491
 3578SOL    HW122370   1.575   3.371   6.937 -0.7551  2.7935 -1.1941
 3578SOL    HW222371   1.649   3.450   7.041  0.0410  0.4328 -2.7764
 3579SOL     OW22372   0.055   4.683   6.356  0.3771 -0.2243 -0.0135
 3579SOL    HW122373   0.083   4.715   6.270 -1.0368  1.4599  0.1578
 3579SOL    HW222374   4.703   4.721   6.369  0.0744 -0.3217 -1.8166
 3580SOL     OW22375   0.800   4.526   4.302  0.3130  0.4610  0.0986
 3580SOL    HW122376   0.851   4.595   4.345  1.0022  0.2501 -0.3720
 3580SOL    HW222377   0.776   4.570   4.220 -0.2816  1.4122  0.7737
 3581SOL     OW22378   1.071   3.810   5.328  0.0101  0.1876 -0.3396
 3581SOL    HW122379   1.117   3.879   5.282 -2.4772  2.5604  0.6883
 3581SOL    HW222380   1.052   3.752   5.254 -1.8834 -0.8630  0.9585
 3582SOL     OW22381   4.413   4.388  16.864  0.4379 -0.7888  0.2878
 3582SOL    HW122382   4.421   4.386  16.959 -1.4499 -0.0222  0.4658
 3582SOL    HW222383   4.317   4.388  16.860  0.3639  3.0368  1.8982
 3583SOL     OW22384   4.358   4.192   2.846 -0.0552  0.1947 -0.1954
 3583SOL    HW122385   4.367   4.272   2.898 -0.5630  0.6585 -0.8212
 3583SOL    HW222386   4.343   4.129   2.916 -0.4453  0.7000  0.1787
 3584SOL     OW22387   3.354   0.357   8.361 -0.5629  0.5693 -0.2847
 3584SOL    HW122388   3.318   0.358   8.450 -0.5905 -1.2663 -0.2624
 3584SOL    HW222389   3.446   0.343   8.383 -1.3182 -1.6293  1.4109
 3585SOL     OW22390   1.826   2.902   7.818 -0.0277 -0.0739  0.1162
 3585SOL    HW122391   1.800   2.945   7.899  0.3220  0.7454 -0.1970
 3585SOL    HW222392   1.911   2.866   7.841  1.0718  1.5249 -1.4116
 3586SOL     OW22393   0.586   0.681  16.516  0.2111  0.6428  0.1814
 3586SOL    HW122394   0.532   0.618  16.563 -1.1236  1.0027 -0.8569
 3586SOL    HW222395   0.522   0.726  16.461  0.5491  1.4800  0.4763
 3587SOL     OW22396   2.790   1.161   5.979 -0.1194 -0.1137  0.4539
 3587SOL    HW122397   2.860   1.105   5.947 -0.8543  0.1587 -1.6657
 3587SOL    HW222398   2.722   1.099   6.005 -1.9274  1.6361 -0.0365
 3588SOL     OW22399   4.551   4.308   6.800 -0.5315  0.6838 -0.3247
 3588SOL    HW122400   4.479   4.366   6.825  0.5194  0.8684  2.2837
 3588SOL    HW222401   4.619   4.358   6.846  0.6839 -0.2743 -1.0664
 3589SOL     OW22402   4.505   0.784   4.878  0.1106  0.3007  0.3827
 3589SOL    HW122403   4.535   0.864   4.921  2.6723  0.8593 -2.3967
 3589SOL    HW222404   4.471   0.736   4.952  3.4936 -0.8753  1.1986
 3590SOL     OW22405   0.343   3.820   3.096 -0.0211  0.0986 -0.2932
 3590SOL    HW122406   0.313   3.756   3.161  2.2870 -0.1195  0.5775
 3590SOL    HW222407   0.438   3.810   3.099  0.2068  1.5010 -3.6866
 3591SOL     OW22408   0.517   0.171   9.232  0.5255 -0.3891 -0.0334
 3591SOL    HW122409   0.593   0.143   9.283  0.3359 -0.7826  0.0273
 3591SOL    HW222410   0.457   0.098   9.246 -0.2057  0.3625  0.7870
 3592SOL     OW22411   1.894   1.727  17.668 -0.2860 -0.6257 -0.1619
 3592SOL    HW122412   1.975   1.776  17.674 -0.6933  0.1400 -0.9481
 3592SOL    HW222413   1.831   1.798  17.677  1.8704  1.4080 -1.3970
 3593SOL     OW22414   4.045   1.162  15.735  0.1504 -0.3258 -0.1101
 3593SOL    HW122415   4.140   1.158  15.732  0.1262 -0.2511 -0.8918
 3593SOL    HW222416   4.024   1.161  15.829 -1.1843  1.3243 -0.3954
 3594SOL     OW22417   3.849   2.342  16.934 -0.6351 -0.8614  0.0190
 3594SOL    HW122418   3.933   2.378  16.906 -0.5248 -1.4051 -0.3631
 3594SOL    HW222419   3.875   2.261  16.980  2.2630 -0.5651 -1.1276
 3595SOL     OW22420   2.314   4.276  17.319 -0.4014  0.0412  0.1360
 3595SOL    HW122421   2.393   4.222  17.313  0.2491  1.0083  0.0146
 3595SOL    HW222422   2.261   4.248  17.244  1.1276 -0.4697 -0.7567
 3596SOL     OW22423   3.085   3.332  15.977 -0.2047 -0.2390 -0.1833
 3596SOL    HW122424   3.077   3.425  15.956  0.7384  0.0484  0.7256
 3596SOL    HW222425   3.132   3.341  16.059  0.4415  0.1504 -0.5990
 3597SOL     OW22426   1.059   2.568  16.842 -0.0296 -0.3854  0.6049
 3597SOL    HW122427   1.065   2.657  16.807  2.1376 -1.3184 -1.4987
 3597SOL    HW222428   1.141   2.560  16.891 -0.5793  0.6750  1.6610
 3598SOL     OW22429   1.682   4.661  17.569 -0.6718  0.6063 -0.0804
 3598SOL    HW122430   1.716   4.579  17.605  1.8033  1.1700 -1.1175
 3598SOL    HW222431   1.591   4.648  17.595 -0.0998 -2.8441  0.2906
 3599SOL     OW22432   2.290   4.527  12.828 -0.1374 -0.8521  0.7065
 3599SOL    HW122433   2.377   4.488  12.832  1.0646  1.6042 -0.9362
 3599SOL    HW222434   2.293   4.593  12.758  0.2263 -0.2139  1.3161
 3600SOL     OW22435   0.096   0.897   4.198  0.0596 -0.1044  0.3406
 3600SOL    HW122436   0.105   0.856   4.284 -1.5967  0.4851  0.8006
 3600SOL    HW222437   0.181   0.940   4.199 -1.0209  2.0806 -0.1445
 3601SOL     OW22438   3.835   2.215   1.939 -0.4001 -0.3172 -0.4020
 3601SOL    HW122439   3.853   2.308   1.924  1.5166 -0.9439 -2.0376
 3601SOL    HW222440   3.784   2.222   2.020  1.4779 -1.8213  0.9053
 3602SOL     OW22441   4.680   4.678   2.556 -0.2112  0.2159 -0.4125
 3602SOL    HW122442   4.682   4.583   2.546  0.8747  0.3604 -1.5124
 3602SOL    HW222443   4.640   4.701   2.473  0.9627  0.2900 -0.9534
 3603SOL     OW22444   3.966   3.843   8.038  0.2064  0.3773  0.1071
 3603SOL    HW122445   4.036   3.794   7.996  0.7595  0.1427  1.2853
 3603SOL    HW222446   3.978   3.823   8.131  0.2149 -0.4115 -0.0649
 3604SOL     OW22447   0.436   1.477   4.803 -0.0326 -0.1827 -0.2856
 3604SOL    HW122448   0.479   1.512   4.724 -0.1467 -0.4054 -0.4463
 3604SOL    HW222449   0.510   1.428   4.839 -0.1925  0.1206  0.4490
 3605SOL     OW22450   1.436   0.697  13.439 -0.4165  0.2455 -0.3481
 3605SOL    HW122451   1.400   0.785  13.451  0.2625  0.3720  0.8055
 3605SOL    HW222452   1.379   0.652  13.378  0.5061 -2.2275  0.5835
 3606SOL     OW22453   2.662   4.667  14.336 -0.4512  0.7734 -0.1310
 3606SOL    HW122454   2.628   4.722  14.266  0.2930  2.4915  0.8780
 3606SOL    HW222455   2.732   4.725  14.366  0.6099  0.4719 -1.9791
 3607SOL     OW22456   0.052   2.417   2.975  0.1214 -0.5278  0.0532
 3607SOL    HW122457   0.126   2.359   2.991  0.5345 -0.3912 -1.3258
 3607SOL    HW222458   0.042   2.420   2.880  1.1488  0.2545 -0.0219
 3608SOL     OW22459   3.252   3.896   6.447 -0.2573  0.1880 -0.2261
 3608SOL    HW122460   3.320   3.909   6.380  0.3301  1.9236  0.6968
 3608SOL    HW222461   3.233   3.802   6.446 -1.1445  0.3819 -1.7904
 3609SOL     OW22462   4.640   4.183  11.523  0.2399 -0.1981 -0.2606
 3609SOL    HW122463   4.733   4.165  11.508  0.2750  0.3830 -0.7598
 3609SOL    HW222464   4.629   4.253  11.459  2.0645 -1.7082 -2.2009
 3610SOL     OW22465   1.624   1.015  17.669  0.4252  0.2878 -0.1245
 3610SOL    HW122466   1.637   1.070  17.591 -0.4155 -0.5484 -0.8599
 3610SOL    HW222467   1.702   1.023  17.724  2.4725  1.6219 -3.1558
 3611SOL     OW22468   4.544   2.395   7.372  0.2253 -0.6853 -0.7443
 3611SOL    HW122469   4.527   2.454   7.299 -1.2534  1.1155  1.0624
 3611SOL    HW222470   4.627   2.358   7.342  0.7799  1.1251 -1.4136
 3612SOL     OW22471   1.532   3.034   6.656 -0.4075  0.1983  0.0626
 3612SOL    HW122472   1.598   3.069   6.596 -0.7869 -0.5863 -0.8271
 3612SOL    HW222473   1.589   2.976   6.707  0.8625  1.0483 -0.3782
 3613SOL     OW22474   1.242   3.074   2.988  0.3593 -0.2644 -0.2648
 3613SOL    HW122475   1.267   2.993   2.944 -0.2433 -1.3207  1.3487
 3613SOL    HW222476   1.261   3.053   3.079  0.9709 -1.3904 -0.6531
 3614SOL     OW22477   3.095   1.031   0.841 -0.1370 -0.5691 -0.3819
 3614SOL    HW122478   3.012   0.987   0.827 -0.4308 -0.2350  0.3430
 3614SOL    HW222479   3.124   1.056   0.753  0.7549 -2.5136 -0.6330
 3615SOL     OW22480   0.152   2.415  11.524 -0.3611  0.6389 -0.1232
 3615SOL    HW122481   0.059   2.432  11.510 -0.9109 -2.6331 -0.5559
 3615SOL    HW222482   0.183   2.392  11.436 -0.3624  0.9459 -0.2032
 3616SOL     OW22483   1.848   1.586   2.176 -0.3482 -0.7324  0.0056
 3616SOL    HW122484   1.933   1.607   2.139 -1.1272 -0.4944 -1.6468
 3616SOL    HW222485   1.862   1.497   2.211  0.8466 -0.6034 -0.1447
 3617SOL     OW22486   3.030   0.506   5.117 -0.0554  0.2405  0.0812
 3617SOL    HW122487   3.037   0.472   5.027  0.3565 -1.2638  0.6784
 3617SOL    HW222488   2.984   0.437   5.165 -1.1540 -1.1683 -2.9402
 3618SOL     OW22489   1.881   3.049  10.455 -0.0295  0.0337  0.5243
 3618SOL    HW122490   1.875   3.027  10.362  2.3186 -2.8812  1.0612
 3618SOL    HW222491   1.937   2.975  10.477 -0.9904 -0.2302  2.0578
 3619SOL     OW22492   0.579   2.688  12.242 -0.1914  0.0645 -0.8838
 3619SOL    HW122493   0.594   2.755  12.175 -1.7353  0.9755 -0.3235
 3619SOL    HW222494   0.488   2.713  12.261 -0.1175 -0.5632  0.2989
 3620SOL     OW22495   0.131   2.756   4.852  0.2794 -0.1924 -0.3000
 3620SOL    HW122496   0.204   2.796   4.804  2.2697 -2.2613  0.9915
 3620SOL    HW222497   0.108   2.674   4.809 -0.5014  1.8414 -3.7767
 3621SOL     OW22498   4.573   3.974   5.787 -0.9465  0.0279  0.8378
 3621SOL    HW122499   4.557   4.015   5.872  0.4148  1.2554  0.5024
 3621SOL    HW222500   4.573   3.878   5.796 -0.0588  0.1397  2.0219
 3622SOL     OW22501   1.209   2.445   5.554  0.2690  0.3125 -0.6326
 3622SOL    HW122502   1.255   2.528   5.540  0.5116  0.1875 -0.5808
 3622SOL    HW222503   1.120   2.475   5.571  0.4161  0.1517  0.4539
 3623SOL     OW22504   0.990   0.128   0.711 -0.1533 -0.2873 -0.4458
 3623SOL    HW122505   0.935   0.196   0.674 -0.2810 -1.1527 -1.8333
 3623SOL    HW222506   1.074   0.157   0.675  0.2502 -0.2461  0.5149
 3624SOL     OW22507   0.628   3.518  17.172 -0.3003 -0.3301 -0.6439
 3624SOL    HW122508   0.661   3.436  17.136  0.6361  0.0509 -0.6658
 3624SOL    HW222509   0.619   3.491  17.264  0.3953 -1.1365 -0.8145
 3625SOL     OW22510   0.014   2.734  10.168 -0.1766  0.9438  0.1863
 3625SOL    HW122511   0.018   2.740  10.263  0.8419  2.6162  0.0337
 3625SOL    HW222512   0.039   2.642  10.161 -1.0710  0.7751 -0.7882
 3626SOL     OW22513   1.812   4.673   2.632 -0.0475  0.0234  0.6463
 3626SOL    HW122514   1.739   4.735   2.641  0.2287  0.6095 -0.9871
 3626SOL    HW222515   1.775   4.593   2.669  0.6664 -0.9808 -0.8045
 3627SOL     OW22516   4.605   3.442   1.289 -0.6964 -0.0932  0.1057
 3627SOL    HW122517   4.649   3.384   1.227 -0.9947  0.8381 -0.9707
 3627SOL    HW222518   4.525   3.467   1.243  1.0797  1.3490 -2.1775
 3628SOL     OW22519   1.040   1.333   1.889 -0.3983 -0.0743 -0.1407
 3628SOL    HW122520   1.125   1.315   1.849 -0.5546 -1.1687  0.0480
 3628SOL    HW222521   1.022   1.415   1.841 -1.2505 -1.2613 -1.8402
 3629SOL     OW22522   1.222   1.037   0.601 -0.4381 -0.2591 -0.0705
 3629SOL    HW122523   1.292   1.103   0.599 -0.1448 -0.6099 -1.1939
 3629SOL    HW222524   1.192   1.034   0.692  2.4696  2.5305  1.0160
 3630SOL     OW22525   0.546   4.620   3.870  0.1402  0.2824 -0.7188
 3630SOL    HW122526   0.481   4.611   3.800  0.0335 -1.5875 -0.3710
 3630SOL    HW222527   0.631   4.639   3.830  1.2214 -2.7085  0.2069
 3631SOL     OW22528   3.363   2.106  12.016  0.2122 -0.0632 -0.3296
 3631SOL    HW122529   3.383   2.184  12.068 -0.6063 -0.1200  0.0629
 3631SOL    HW222530   3.288   2.143  11.971 -0.2219  0.3842  0.7595
 3632SOL     OW22531   2.380   3.846  10.623 -0.1651  0.0630 -0.0224
 3632SOL    HW122532   2.441   3.780  10.657  0.8045  1.0612  0.1875
 3632SOL    HW222533   2.423   3.874  10.543  2.4683  0.7672  1.6409
 3633SOL     OW22534   1.686   1.861   4.541 -0.1231 -0.8595  0.3807
 3633SOL    HW122535   1.635   1.805   4.599 -0.1136 -0.1204  1.1073
 3633SOL    HW222536   1.616   1.876   4.477  0.3868 -3.9577 -0.9011
 3634SOL     OW22537   4.213   0.804   0.639  0.0638  0.0739  0.2592
 3634SOL    HW122538   4.279   0.826   0.573  0.4156 -0.8461  0.3111
 3634SOL    HW222539   4.148   0.869   0.612 -0.6043 -0.7903 -0.1976
 3635SOL     OW22540   3.006   1.977  10.662 -0.3808 -0.5051 -0.0268
 3635SOL    HW122541   3.094   1.960  10.696 -1.5399 -1.5015  2.4489
 3635SOL    HW222542   2.984   2.047  10.723  0.7131 -0.3694  0.2050
 3636SOL     OW22543   1.894   2.741   3.473 -0.5462  0.4894  0.0471
 3636SOL    HW122544   1.821   2.745   3.535 -0.2236  2.5437  0.2941
 3636SOL    HW222545   1.928   2.830   3.479  0.7095  0.1139 -1.6017
 3637SOL     OW22546   3.927   1.491   1.724  0.6341 -0.5746  0.2257
 3637SOL    HW122547   3.889   1.403   1.731  2.0269 -1.1441  0.6117
 3637SOL    HW222548   3.891   1.527   1.805  2.5319 -1.8827  1.6490
 3638SOL     OW22549   1.523   3.428   3.509  0.3096  0.4245  0.2479
 3638SOL    HW122550   1.591   3.454   3.571 -0.3670 -0.3649  1.3514
 3638SOL    HW222551   1.498   3.341   3.540 -0.3620  0.5045 -0.0612
 3639SOL     OW22552   1.391   3.050  10.286  0.5372  1.3361  0.1312
 3639SOL    HW122553   1.381   2.956  10.303 -1.2475  1.1974 -1.7290
 3639SOL    HW222554   1.450   3.089  10.351  1.7268 -1.3052  0.6702
 3640SOL     OW22555   3.241   4.684  10.284 -0.2255  0.3781 -0.1180
 3640SOL    HW122556   3.310   4.720  10.228 -1.6795  2.1958 -0.7597
 3640SOL    HW222557   3.164   4.723  10.242 -0.3010 -0.2984 -0.6213
 3641SOL     OW22558   0.081   4.657   1.889  0.0480  0.1804  0.2596
 3641SOL    HW122559   0.149   4.602   1.851 -0.7752  0.5865 -1.8170
 3641SOL    HW222560   0.078   4.724   1.821 -0.5504  0.4264  0.5267
 3642SOL     OW22561   0.343   1.946  12.052  0.1892 -0.2150  0.7523
 3642SOL    HW122562   0.370   2.033  12.023  1.4212 -0.4966  1.0513
 3642SOL    HW222563   0.333   1.970  12.144  2.2205  2.0920  0.3646
 3643SOL     OW22564   3.702   0.511   9.280  0.0433 -0.1446  0.6189
 3643SOL    HW122565   3.758   0.588   9.290 -2.1706  1.3253  1.6738
 3643SOL    HW222566   3.754   0.437   9.311 -1.2093 -2.6544 -3.2322
 3644SOL     OW22567   2.684   0.164   3.694  0.2694  0.0232  0.4795
 3644SOL    HW122568   2.759   0.139   3.641 -0.1507  1.5065 -0.8296
 3644SOL    HW222569   2.652   0.074   3.696  0.6770 -0.1495 -1.1730
 3645SOL     OW22570   1.443   3.534   6.424  0.5782  0.0378 -0.1652
 3645SOL    HW122571   1.531   3.518   6.390  0.5159  0.6862 -0.6406
 3645SOL    HW222572   1.456   3.497   6.511 -2.0027 -1.7387 -0.5257
 3646SOL     OW22573   4.527   0.167   8.860 -0.3664  0.2222 -0.8197
 3646SOL    HW122574   4.611   0.150   8.902 -1.3774  2.4460  2.0927
 3646SOL    HW222575   4.487   0.230   8.919 -1.4875 -0.1504 -1.1696
 3647SOL     OW22576   3.723   3.758   7.910  0.2214  0.3709  0.2313
 3647SOL    HW122577   3.816   3.745   7.925 -0.7100 -2.2959  3.7485
 3647SOL    HW222578   3.716   3.774   7.816 -2.3360 -1.7576  0.0623
 3648SOL     OW22579   1.309   2.201   7.201 -0.9783 -0.0301 -0.4528
 3648SOL    HW122580   1.253   2.274   7.174 -0.6955  0.7484  1.0234
 3648SOL    HW222581   1.398   2.228   7.180 -0.1648 -1.0427  1.6411
 3649SOL     OW22582   2.915   3.747   1.755 -0.3638 -0.4745  0.4887
 3649SOL    HW122583   2.990   3.693   1.729 -0.8086 -1.9077  2.1110
 3649SOL    HW222584   2.884   3.703   1.835 -0.2932 -1.6293 -0.1141
 3650SOL     OW22585   2.068   4.713   2.735 -0.3440  0.6639 -0.1397
 3650SOL    HW122586   1.981   4.697   2.699 -1.0519  2.2512  0.8637
 3650SOL    HW222587   2.069   0.073   2.726 -0.4396  0.8599  2.0095
 3651SOL     OW22588   0.132   1.206   6.228  0.2599  0.0907 -0.2530
 3651SOL    HW122589   0.171   1.119   6.225 -0.2705 -0.2191  1.8738
 3651SOL    HW222590   0.192   1.251   6.288  0.9145 -0.6100 -0.3922
 3652SOL     OW22591   2.611   4.256  17.341  0.6933 -0.4760 -0.5191
 3652SOL    HW122592   2.706   4.267  17.350  0.4511  1.7433 -0.5060
 3652SOL    HW222593   2.598   4.272  17.247  0.4866 -1.1926 -0.6128
 3653SOL     OW22594   4.313   2.125   6.976  0.2794 -0.2695 -0.4523
 3653SOL    HW122595   4.337   2.053   7.036 -0.4795  0.8611  1.2190
 3653SOL    HW222596   4.223   2.139   7.003 -0.1582 -2.9095 -0.5382
 3654SOL     OW22597   2.719   4.125   0.726 -0.1921  0.0784 -0.2355
 3654SOL    HW122598   2.809   4.155   0.737 -0.2583  0.7028 -1.3461
 3654SOL    HW222599   2.710   4.059   0.794 -2.3197 -0.5861 -1.1380
 3655SOL     OW22600   0.630   1.253   3.147 -0.0695 -0.1196  0.2587
 3655SOL    HW122601   0.541   1.223   3.131  0.1349 -0.1809 -0.7964
 3655SOL    HW222602   0.659   1.192   3.214 -1.0294 -2.1827 -1.2040
 3656SOL     OW22603   2.937   4.409   0.604 -0.1170  0.1156 -0.3443
 3656SOL    HW122604   2.976   4.451   0.680  1.8211  0.6753 -1.6566
 3656SOL    HW222605   3.005   4.392   0.538 -1.3549 -3.2232 -0.7399
 3657SOL     OW22606   2.005   2.591   6.396  0.0925 -0.5471  0.1346
 3657SOL    HW122607   1.964   2.612   6.480 -0.6300  0.1563 -0.3910
 3657SOL    HW222608   2.061   2.518   6.422  0.5852 -0.8155 -1.6947
 3658SOL     OW22609   4.369   0.624   9.150  0.7055 -0.0610  0.0646
 3658SOL    HW122610   4.417   0.702   9.177 -2.3672  1.0639  2.2992
 3658SOL    HW222611   4.345   0.646   9.060  1.9254  1.4185  0.1253
 3659SOL     OW22612   1.120   0.994  13.824  0.4398  0.4797 -0.5985
 3659SOL    HW122613   1.212   1.015  13.806  0.0611  2.6751 -0.0280
 3659SOL    HW222614   1.083   1.082  13.827  1.4329  0.8309  1.8136
 3660SOL     OW22615   4.184   0.142  15.560  0.0979  0.2918  0.2930
 3660SOL    HW122616   4.193   0.055  15.520  1.0788  0.7940 -0.5910
 3660SOL    HW222617   4.214   0.204  15.493  1.7492 -1.6695 -0.7852
 3661SOL     OW22618   0.908   4.049   5.100 -0.0879 -0.2374  0.0171
 3661SOL    HW122619   0.968   3.995   5.048  1.4700  1.7050 -0.2272
 3661SOL    HW222620   0.844   4.084   5.039 -0.1034 -0.4280 -0.0752
 3662SOL     OW22621   2.446   1.859  17.222 -0.3186 -0.0926  0.7194
 3662SOL    HW122622   2.472   1.768  17.233 -1.9162 -0.3011  2.7532
 3662SOL    HW222623   2.351   1.855  17.207  0.0355 -2.5902 -0.8299
 3663SOL     OW22624   2.002   3.851   8.648  0.2767 -0.0308  0.2542
 3663SOL    HW122625   1.948   3.838   8.571  1.3498  1.7864 -0.8025
 3663SOL    HW222626   1.939   3.912   8.687 -0.0273 -1.0211  1.3335
 3664SOL     OW22627   3.806   0.244   0.749 -0.3983  0.4762  0.0027
 3664SOL    HW122628   3.778   0.250   0.658  1.4833  0.1299 -0.6086
 3664SOL    HW222629   3.783   0.333   0.775  0.0246  0.2525  1.1944
 3665SOL     OW22630   1.862   2.769  16.828  0.1487 -0.2970  0.0104
 3665SOL    HW122631   1.903   2.742  16.746 -1.3826 -1.3929 -0.3997
 3665SOL    HW222632   1.933   2.790  16.889  0.8448  2.1423 -1.6346
 3666SOL     OW22633   0.134   2.699   8.493  0.3889 -0.0148  0.1909
 3666SOL    HW122634   0.150   2.758   8.566  0.9819  1.9495 -1.5166
 3666SOL    HW222635   0.149   2.765   8.425 -1.0629  1.2267  1.0901
 3667SOL     OW22636   3.550   1.504   5.388 -0.2996  0.4971 -0.5892
 3667SOL    HW122637   3.583   1.416   5.408  0.1500  1.2169  1.8854
 3667SOL    HW222638   3.458   1.490   5.408 -0.0979 -0.4067 -0.2730
 3668SOL     OW22639   2.635   3.495  17.123  0.1316 -0.3095  0.0762
 3668SOL    HW122640   2.700   3.425  17.110  0.3643 -0.4677  2.1384
 3668SOL    HW222641   2.670   3.547  17.195  2.3890  1.1232 -2.0378
 3669SOL     OW22642   4.624   0.664  17.414 -0.2840  0.3504  0.0518
 3669SOL    HW122643   4.606   0.751  17.450  0.2269  1.5471 -2.6380
 3669SOL    HW222644   4.690   0.639  17.480  1.0471 -4.1245 -2.9745
 3670SOL     OW22645   0.348   3.406   1.969  0.6377 -0.7401  0.5098
 3670SOL    HW122646   0.271   3.446   1.927  0.0639 -1.7589  0.5695
 3670SOL    HW222647   0.329   3.412   2.063 -0.8396 -1.0937  0.2440
 3671SOL     OW22648   0.981   0.794  13.127 -0.0745  0.2334 -0.0580
 3671SOL    HW122649   1.008   0.781  13.218 -0.6845  1.7858  0.3446
 3671SOL    HW222650   0.902   0.740  13.128  0.4277 -0.4989 -0.8669
 3672SOL     OW22651   3.181   1.993  10.453  0.2278  0.1227  0.0193
 3672SOL    HW122652   3.213   2.080  10.427 -0.8706  0.5490  0.0890
 3672SOL    HW222653   3.137   2.016  10.535 -0.0077 -0.6699  0.1205
 3673SOL     OW22654   1.540   0.751   9.200  0.3379  0.0836  0.3399
 3673SOL    HW122655   1.471   0.774   9.137  0.7101 -0.8574 -0.4051
 3673SOL    HW222656   1.486   0.718   9.272  0.9839  1.6618  1.5314
 3674SOL     OW22657   4.087   3.750   4.001 -0.1736  0.0761 -0.2608
 3674SOL    HW122658   3.997   3.750   4.035  0.9421  0.6979  2.6215
 3674SOL    HW222659   4.081   3.812   3.928 -1.1597 -0.1853 -0.4031
 3675SOL     OW22660   0.957   1.630  12.229 -0.4572 -0.4414  0.0547
 3675SOL    HW122661   0.994   1.641  12.141 -2.7083  0.5152 -0.7509
 3675SOL    HW222662   0.990   1.543  12.251 -0.1654 -0.2352  0.4326
 3676SOL     OW22663   0.961   3.083   3.582  0.6202  0.1813 -0.4573
 3676SOL    HW122664   1.026   3.070   3.652 -0.6576  0.2979  0.7625
 3676SOL    HW222665   0.884   3.047   3.627  0.6485 -1.2151 -1.5248
 3677SOL     OW22666   0.856   3.214  12.606 -0.6507 -0.0037  0.0036
 3677SOL    HW122667   0.848   3.208  12.701 -0.6927 -1.4885 -0.1005
 3677SOL    HW222668   0.867   3.127  12.567 -1.0523  0.4150 -1.0510
 3678SOL     OW22669   0.655   4.484  11.428  0.0462 -0.1373  0.5886
 3678SOL    HW122670   0.682   4.554  11.368 -1.3098 -0.2090 -0.1164
 3678SOL    HW222671   0.731   4.426  11.424 -0.2303 -0.2914 -2.3475
 3679SOL     OW22672   0.035   0.226   1.039  0.4302  0.4500 -0.2799
 3679SOL    HW122673   4.725   0.251   1.120  1.2848 -1.9807  0.9256
 3679SOL    HW222674   4.722   0.145   1.023 -0.9711  1.5182 -1.4984
 3680SOL     OW22675   2.365   1.959   5.490 -0.8629  0.1760  0.5040
 3680SOL    HW122676   2.334   1.944   5.401 -0.1117 -2.3010  0.6392
 3680SOL    HW222677   2.387   1.873   5.527 -0.5566 -0.8124 -1.9542
 3681SOL     OW22678   3.504   0.513  13.185 -0.2469 -0.0542  0.4811
 3681SOL    HW122679   3.554   0.577  13.136  1.9672 -1.6425  0.6407
 3681SOL    HW222680   3.541   0.521  13.273  0.3383 -0.1687  0.2438
 3682SOL     OW22681   2.754   0.157   0.132  0.4000  0.0433 -0.0474
 3682SOL    HW122682   2.695   0.187   0.063 -0.6257 -0.0525  0.7849
 3682SOL    HW222683   2.761   0.242   0.176  2.1352 -0.1539  0.0392
 3683SOL     OW22684   3.482   3.058   1.346 -0.3506  0.5042  0.2043
 3683SOL    HW122685   3.485   3.070   1.441 -1.9463 -2.0053  0.5702
 3683SOL    HW222686   3.572   3.027   1.333 -0.6555  0.1855 -1.1452
 3684SOL     OW22687   1.865   0.754   0.686  0.7750  0.1771 -0.1632
 3684SOL    HW122688   1.938   0.769   0.746 -0.5725  1.3944  1.1982
 3684SOL    HW222689   1.798   0.798   0.738 -1.2994 -1.7202 -1.2296
 3685SOL     OW22690   4.274   3.425   9.401 -0.7211  0.2937 -0.0029
 3685SOL    HW122691   4.211   3.426   9.329  2.8450 -1.0325 -3.1737
 3685SOL    HW222692   4.300   3.515   9.422  1.1536  0.0037 -1.0626
 3686SOL     OW22693   1.025   1.336   3.713  0.1919  0.0223 -0.2474
 3686SOL    HW122694   1.040   1.268   3.647 -1.4856 -2.7025  2.1385
 3686SOL    HW222695   0.929   1.336   3.705  0.0714  0.1186  1.2168
 3687SOL     OW22696   2.254   1.619  11.586 -0.1109 -0.2902 -0.6474
 3687SOL    HW122697   2.344   1.649  11.585 -0.5192  0.9678  2.2902
 3687SOL    HW222698   2.212   1.686  11.639 -2.4816 -0.8444 -1.7793
 3688SOL     OW22699   0.355   3.660   8.503 -0.2244  0.0593 -0.2838
 3688SOL    HW122700   0.321   3.747   8.484  2.3204  1.4793  1.5824
 3688SOL    HW222701   0.306   3.623   8.576  0.6873  1.3459  0.9781
 3689SOL     OW22702   0.614   1.767   9.430  0.0696 -0.3153 -0.1812
 3689SOL    HW122703   0.549   1.817   9.381  0.5597 -0.1574 -0.6649
 3689SOL    HW222704   0.559   1.719   9.492  0.4583 -0.4738  0.0430
 3690SOL     OW22705   2.459   0.837   9.858 -0.1184  0.2133  0.3718
 3690SOL    HW122706   2.515   0.914   9.869  1.3697 -0.7902 -0.3286
 3690SOL    HW222707   2.487   0.801   9.774 -2.2344 -0.6669  0.0398
 3691SOL     OW22708   1.905   4.497   0.648  0.5658  0.2139  0.3921
 3691SOL    HW122709   1.953   4.577   0.623  2.2351 -1.0920 -0.6079
 3691SOL    HW222710   1.886   4.538   0.733 -2.5997 -2.2893  0.8390
 3692SOL     OW22711   0.315   1.516   5.049  0.3005  0.5637 -0.2194
 3692SOL    HW122712   0.372   1.502   4.973 -0.7324  0.5181 -0.9815
 3692SOL    HW222713   0.359   1.589   5.093 -0.0451 -0.1953  1.4012
 3693SOL     OW22714   4.062   3.464   4.606 -0.2017 -0.0691  0.3215
 3693SOL    HW122715   4.128   3.505   4.662 -2.1110  1.9788  1.0201
 3693SOL    HW222716   4.120   3.410   4.552 -1.2514  1.1176 -1.9543
 3694SOL     OW22717   4.124   2.347   6.245  0.1303 -0.2560  0.5467
 3694SOL    HW122718   4.074   2.360   6.165 -0.7719 -2.3322  0.7804
 3694SOL    HW222719   4.212   2.368   6.212 -0.0836 -1.3044 -0.7014
 3695SOL     OW22720   4.116   4.044  14.262  0.6032 -0.2214 -0.1510
 3695SOL    HW122721   4.070   3.965  14.289 -0.3688  0.7613  1.0688
 3695SOL    HW222722   4.083   4.062  14.174  0.3146 -0.4070 -0.0791
 3696SOL     OW22723   4.359   4.603  17.402  0.0623  0.0407 -0.1901
 3696SOL    HW122724   4.427   4.651  17.354  0.1398 -1.0184 -1.1329
 3696SOL    HW222725   4.356   4.653  17.484 -2.5766  0.4583 -0.5645
 3697SOL     OW22726   2.331   2.484   1.700  0.3991 -0.2615 -0.1968
 3697SOL    HW122727   2.411   2.537   1.699 -0.4771  1.1502  2.5208
 3697SOL    HW222728   2.324   2.458   1.608  1.4554  1.5475 -0.7826
 3698SOL     OW22729   2.219   4.032  13.568 -0.3806 -0.9659 -0.4854
 3698SOL    HW122730   2.168   4.110  13.587 -0.3189 -1.0889  0.1785
 3698SOL    HW222731   2.308   4.045  13.602 -0.8805 -0.1114  0.4979
 3699SOL     OW22732   2.558   0.853   7.535  0.4466 -0.3074  0.1979
 3699SOL    HW122733   2.524   0.866   7.446 -1.0696 -1.9333  0.5492
 3699SOL    HW222734   2.650   0.877   7.522  0.1845  0.5792 -0.0711
 3700SOL     OW22735   1.426   1.378   8.816  0.2503 -0.0555  0.2772
 3700SOL    HW122736   1.448   1.298   8.865  0.2839 -0.5431 -0.5318
 3700SOL    HW222737   1.456   1.376   8.725 -0.5605  1.7811 -0.0212
 3701SOL     OW22738   0.575   1.903   8.665 -0.1588  0.9254 -0.2647
 3701SOL    HW122739   0.621   1.837   8.716 -1.4503 -0.6676 -1.1906
 3701SOL    HW222740   0.499   1.856   8.631  2.0633 -2.0690 -1.0695
 3702SOL     OW22741   4.035   0.846   2.686 -0.1455  0.0158  0.0688
 3702SOL    HW122742   4.070   0.936   2.688 -0.1856  0.0378 -0.1920
 3702SOL    HW222743   3.944   0.868   2.704  0.9534  4.7104  0.1127
 3703SOL     OW22744   1.396   0.284  16.426  0.3549 -0.0255 -0.1604
 3703SOL    HW122745   1.369   0.375  16.412 -0.4787 -0.3964 -0.9545
 3703SOL    HW222746   1.322   0.235  16.388  0.2825 -1.4302  1.8056
 3704SOL     OW22747   3.331   1.276   8.074  0.1610 -0.8582 -0.7293
 3704SOL    HW122748   3.324   1.318   7.989 -0.9315 -0.4295 -0.4273
 3704SOL    HW222749   3.257   1.314   8.122  1.0431  2.6391 -2.1265
 3705SOL     OW22750   2.346   3.065  12.717 -0.0094 -0.5502 -0.2156
 3705SOL    HW122751   2.252   3.058  12.700  0.1135  1.8161 -1.8351
 3705SOL    HW222752   2.343   3.053  12.812 -1.7983  0.9468 -0.0932
 3706SOL     OW22753   2.558   1.284  13.576  0.0393 -0.1073  0.5671
 3706SOL    HW122754   2.587   1.363  13.531 -0.5655  0.0967  0.5448
 3706SOL    HW222755   2.464   1.299  13.581 -0.0543 -0.3582 -0.3632
 3707SOL     OW22756   4.063   0.578   5.164  0.0828 -0.0074 -0.4474
 3707SOL    HW122757   4.046   0.538   5.078 -0.6638  2.9779 -1.6795
 3707SOL    HW222758   4.040   0.667   5.139 -0.6371 -0.4569 -1.4048
 3708SOL     OW22759   0.379   0.300   0.096  0.3814  0.3985 -0.1367
 3708SOL    HW122760   0.409   0.346   0.017  0.9324  1.2371  0.5514
 3708SOL    HW222761   0.452   0.325   0.153 -0.2268 -0.5929  1.0722
 3709SOL     OW22762   1.619   2.318   7.644  0.1160  0.1963  0.6523
 3709SOL    HW122763   1.673   2.395   7.626 -1.5485  1.4137  0.9523
 3709SOL    HW222764   1.654   2.295   7.730  4.1772 -4.0813 -2.1118
 3710SOL     OW22765   3.298   4.242   0.580 -0.3714  0.0066  0.1459
 3710SOL    HW122766   3.247   4.252   0.500 -1.2209 -0.4360  0.6390
 3710SOL    HW222767   3.247   4.177   0.628  2.4637 -1.1601  1.5717
 3711SOL     OW22768   4.322   4.120   3.106  0.3301  0.3100 -0.6553
 3711SOL    HW122769   4.385   4.168   3.160  0.2739 -0.4079  0.0390
 3711SOL    HW222770   4.246   4.122   3.164  0.5523  0.1044 -0.3572
 3712SOL     OW22771   3.214   1.065   9.544  0.2000 -0.0050 -0.1050
 3712SOL    HW122772   3.185   0.995   9.487 -0.5803  0.4996 -0.3238
 3712SOL    HW222773   3.291   1.029   9.588  0.9186  0.2926 -1.1337
 3713SOL     OW22774   0.553   0.363   1.942 -0.1184 -0.6623 -0.0458
 3713SOL    HW122775   0.544   0.409   2.025 -1.6075  1.1965 -1.2492
 3713SOL    HW222776   0.599   0.423   1.883  0.3977  0.4903  1.5477
 3714SOL     OW22777   0.223   2.073   1.834  0.0408  0.5046  0.8649
 3714SOL    HW122778   0.246   2.000   1.891  1.9245 -0.7521 -1.4998
 3714SOL    HW222779   0.305   2.123   1.838  0.7089 -0.3611 -1.8542
 3715SOL     OW22780   4.168   4.641   1.336  0.3166 -0.1332  0.0066
 3715SOL    HW122781   4.076   4.655   1.354  0.3635  0.0878  0.0699
 3715SOL    HW222782   4.179   4.656   1.242 -1.4070 -0.0340 -0.1791
 3716SOL     OW22783   1.208   4.597  15.604  0.2934  0.6021 -0.0051
 3716SOL    HW122784   1.247   4.563  15.523  1.4977 -2.0018  1.7038
 3716SOL    HW222785   1.142   4.662  15.579  0.1027 -0.3728 -2.0277
 3717SOL     OW22786   0.605   3.209   5.368 -0.2253 -0.7021 -0.3001
 3717SOL    HW122787   0.666   3.155   5.419  0.5681  1.1051  0.6382
 3717SOL    HW222788   0.635   3.299   5.382 -0.6513 -0.6694  0.4204
 3718SOL     OW22789   4.226   2.487  11.501  0.7044 -0.2559  0.5453
 3718SOL    HW122790   4.165   2.430  11.548  2.7239 -1.8319  1.2969
 3718SOL    HW222791   4.307   2.492  11.553  2.0380 -1.7094 -1.3788
 3719SOL     OW22792   2.048   3.781   5.694 -0.3548  0.5859 -0.1746
 3719SOL    HW122793   1.968   3.821   5.662 -0.0995  0.3251 -1.1463
 3719SOL    HW222794   2.108   3.799   5.621  1.1447 -0.9980  0.6468
 3720SOL     OW22795   1.260   0.338   6.610 -0.2925 -0.1251  0.1752
 3720SOL    HW122796   1.166   0.356   6.618 -0.1442  0.2019  1.2380
 3720SOL    HW222797   1.258   0.242   6.612 -1.5307 -0.0791  1.2939
 3721SOL     OW22798   4.392   4.096   6.772 -0.2473  0.4385 -0.0826
 3721SOL    HW122799   4.443   4.016   6.783  1.0680  0.8417 -3.1282
 3721SOL    HW222800   4.457   4.164   6.759 -3.0033  3.4308  1.6651
 3722SOL     OW22801   0.831   0.205   6.164  0.0773  0.3578  0.2313
 3722SOL    HW122802   0.775   0.155   6.105  2.5144 -3.2511  0.9847
 3722SOL    HW222803   0.858   0.135   6.224  1.6651 -0.9652 -2.0150
 3723SOL     OW22804   4.688   2.649   3.437 -0.0582 -0.1426 -0.0416
 3723SOL    HW122805   0.020   2.713   3.459  0.5352 -1.1678  1.1148
 3723SOL    HW222806   4.627   2.654   3.510  1.0376  0.5701  0.8256
 3724SOL     OW22807   2.325   0.912  17.591 -0.6938 -0.2715  0.4938
 3724SOL    HW122808   2.363   0.913  17.503 -0.8726  3.3221  0.4448
 3724SOL    HW222809   2.275   0.831  17.581 -0.4727 -0.2515 -0.6917
 3725SOL     OW22810   0.441   2.935   6.918 -0.3287  0.3505 -0.3121
 3725SOL    HW122811   0.458   2.957   7.009  0.7174 -1.2026 -0.1513
 3725SOL    HW222812   0.361   2.883   6.927 -0.5253  0.5343 -0.9891
 3726SOL     OW22813   4.657   3.756   8.709  0.2265 -0.1427 -0.5295
 3726SOL    HW122814   4.719   3.699   8.663  2.2500  1.4780  0.1814
 3726SOL    HW222815   4.696   3.834   8.671  0.1631 -0.3309 -0.9733
 3727SOL     OW22816   2.141   0.272   2.208 -0.2294 -0.4769 -0.2883
 3727SOL    HW122817   2.106   0.233   2.128  1.7950  2.2553 -2.5009
 3727SOL    HW222818   2.101   0.357   2.223  3.8800  1.8011 -2.2026
 3728SOL     OW22819   2.101   3.595   1.544 -0.8780  0.0302 -0.3191
 3728SOL    HW122820   2.160   3.626   1.612 -1.0058  1.1808 -0.7454
 3728SOL    HW222821   2.141   3.627   1.463 -3.0691  3.6447  0.0529
 3729SOL     OW22822   2.893   3.166   3.959  0.0686 -0.2641  0.2851
 3729SOL    HW122823   2.799   3.174   3.978  0.1408  1.5613 -0.1730
 3729SOL    HW222824   2.922   3.256   3.946 -0.8327  0.0688  0.5956
 3730SOL     OW22825   0.749   1.017   0.413 -0.2673  0.3323 -0.3534
 3730SOL    HW122826   0.701   1.045   0.491  2.0550 -0.2429  1.3071
 3730SOL    HW222827   0.680   1.014   0.348  0.0385 -1.3236 -0.6222
 3731SOL     OW22828   3.110   1.127   8.873  0.2440  0.2239 -0.0961
 3731SOL    HW122829   3.195   1.140   8.915  0.4010  0.8890 -0.6192
 3731SOL    HW222830   3.039   1.144   8.935  1.6544  0.5318  1.4105
 3732SOL     OW22831   3.569   2.011  12.452  0.1765 -0.1344 -0.0706
 3732SOL    HW122832   3.637   2.065  12.412 -0.3528  0.4221 -0.2032
 3732SOL    HW222833   3.535   1.963  12.377  0.2321 -1.9172  1.0396
 3733SOL     OW22834   2.592   2.490   3.255 -0.2913 -0.4820 -0.0859
 3733SOL    HW122835   2.684   2.478   3.275 -0.5475 -0.5099  1.0495
 3733SOL    HW222836   2.597   2.478   3.160  1.6993 -0.7476  0.0587
 3734SOL     OW22837   1.865   2.728   9.563 -0.3329 -0.0869  0.2179
 3734SOL    HW122838   1.903   2.717   9.650  0.8078  2.3354  0.0466
 3734SOL    HW222839   1.904   2.811   9.535 -1.1900  0.3327  0.2742
 3735SOL     OW22840   4.349   3.077   4.767 -0.0449 -0.4667  0.2405
 3735SOL    HW122841   4.433   3.121   4.749 -0.2639  0.0231  0.4153
 3735SOL    HW222842   4.369   3.013   4.834  2.1444  0.6264  0.6395
 3736SOL     OW22843   2.366   0.345   2.506  0.1371 -0.3364  0.4496
 3736SOL    HW122844   2.341   0.437   2.500  2.7053  0.2607 -1.2260
 3736SOL    HW222845   2.358   0.332   2.600 -1.3781 -1.1292  0.2105
 3737SOL     OW22846   2.143   4.706   6.870  0.0022  0.8084 -0.3281
 3737SOL    HW122847   2.190   0.044   6.910 -1.5345  1.8369 -0.3885
 3737SOL    HW222848   2.120   4.639   6.935  1.4984  0.6805  0.0649
 3738SOL     OW22849   3.646   2.365   9.905 -0.0194 -0.5131  0.0551
 3738SOL    HW122850   3.651   2.339   9.997 -0.5220 -0.5192  0.0807
 3738SOL    HW222851   3.560   2.406   9.901  0.5940  0.7362 -0.5088
 3739SOL     OW22852   3.573   4.172   9.481  0.6634 -0.4036 -0.1112
 3739SOL    HW122853   3.598   4.177   9.388  1.2607  2.6653  0.2101
 3739SOL    HW222854   3.615   4.089   9.501  0.0125 -0.3387  1.5377
 3740SOL     OW22855   4.608   2.720   8.327 -0.2607  0.1368 -0.4786
 3740SOL    HW122856   4.667   2.752   8.395  0.9176 -0.9583 -0.9949
 3740SOL    HW222857   4.594   2.796   8.270 -1.9812  0.4601  0.3827
 3741SOL     OW22858   1.027   3.696   5.960  0.2291  0.2096  0.0115
 3741SOL    HW122859   1.005   3.744   5.880 -0.7804  0.6776  0.5739
 3741SOL    HW222860   1.015   3.606   5.929 -1.0470  0.6123 -0.6945
 3742SOL     OW22861   2.394   1.769   7.909 -0.4870  1.0212 -0.0737
 3742SOL    HW122862   2.417   1.765   8.002  0.0508 -0.6105 -0.2689
 3742SOL    HW222863   2.339   1.690   7.908 -1.8919  2.0204 -1.3757
 3743SOL     OW22864   4.369   1.318   7.367 -0.6532  0.1689  0.4535
 3743SOL    HW122865   4.327   1.402   7.387 -0.8697  0.7521 -2.5647
 3743SOL    HW222866   4.343   1.294   7.278 -1.0615  2.6912 -0.0937
 3744SOL     OW22867   3.644   1.618   7.423 -0.2030  0.0037  0.5623
 3744SOL    HW122868   3.707   1.546   7.422 -0.7326 -0.4520  0.1318
 3744SOL    HW222869   3.570   1.568   7.388 -1.1053  1.2673  0.6913
 3745SOL     OW22870   1.338   3.792  12.603 -0.0637 -0.0167  1.1330
 3745SOL    HW122871   1.397   3.787  12.678  0.0322 -1.6132  0.9425
 3745SOL    HW222872   1.371   3.720  12.549 -0.3039  1.3783 -0.8869
 3746SOL     OW22873   1.243   0.835   3.194 -0.5290  0.5784  0.1529
 3746SOL    HW122874   1.221   0.779   3.119 -0.8312  2.3782 -1.0900
 3746SOL    HW222875   1.187   0.814   3.269  0.8384  1.6798  1.4952
 3747SOL     OW22876   2.081   3.473   3.721  0.4144  0.2295  0.2292
 3747SOL    HW122877   2.156   3.519   3.683  1.5378 -0.8878  1.1021
 3747SOL    HW222878   2.008   3.490   3.662  0.6198  1.5775  0.3404
 3748SOL     OW22879   4.484   1.626   5.624 -0.2742  0.3669 -0.1947
 3748SOL    HW122880   4.532   1.693   5.575  0.3865  2.2374  3.0454
 3748SOL    HW222881   4.536   1.622   5.704  1.0150  0.4343 -1.0286
 3749SOL     OW22882   0.475   2.171  13.768 -0.2544  0.2137  0.8385
 3749SOL    HW122883   0.408   2.130  13.713 -0.1475  2.1741 -0.7555
 3749SOL    HW222884   0.420   2.186  13.845 -1.1330  1.2386  0.0207
 3750SOL     OW22885   2.047   2.209   2.116  0.1050 -0.1743 -0.1197
 3750SOL    HW122886   2.064   2.237   2.026 -2.1390  0.0206 -0.4886
 3750SOL    HW222887   1.953   2.190   2.119  0.1221  0.3550  4.3927
 3751SOL     OW22888   1.761   0.588   0.406 -0.0127  0.1548 -0.0746
 3751SOL    HW122889   1.781   0.607   0.315 -1.1204 -0.3224 -0.4250
 3751SOL    HW222890   1.729   0.675   0.431  2.5304  0.9965  0.2502
 3752SOL     OW22891   0.313   2.391  14.069  0.1203  0.1105  0.4517
 3752SOL    HW122892   0.224   2.401  14.036  0.3164  1.7445  0.4129
 3752SOL    HW222893   0.297   2.300  14.093  0.7916 -0.1645 -0.1491
 3753SOL     OW22894   3.396   2.627  17.419  0.0529  0.5894 -0.2780
 3753SOL    HW122895   3.455   2.556  17.392 -2.3878 -1.4990 -0.0670
 3753SOL    HW222896   3.322   2.589  17.465  2.2152  2.2443  4.5610
 3754SOL     OW22897   0.395   3.848   1.773  0.1507  0.1691  0.0173
 3754SOL    HW122898   0.322   3.905   1.795 -0.3741 -0.6992  0.5034
 3754SOL    HW222899   0.360   3.796   1.701  2.8813  0.2366 -1.3672
 3755SOL     OW22900   3.922   4.060   8.211 -0.0622 -0.0879  0.1800
 3755SOL    HW122901   3.997   4.030   8.159 -1.0529 -0.6152 -0.9411
 3755SOL    HW222902   3.850   4.020   8.162  1.6673 -1.5449 -1.1986
 3756SOL     OW22903   0.344   3.180  12.414 -0.3045  0.2339  0.0792
 3756SOL    HW122904   0.287   3.218  12.347 -2.2375 -2.9892 -0.0988
 3756SOL    HW222905   0.333   3.249  12.479 -0.7633  0.2561 -0.0180
 3757SOL     OW22906   1.009   3.158  15.884 -0.0066 -0.6950 -0.1266
 3757SOL    HW122907   0.967   3.086  15.931 -0.8229  0.1303  0.4000
 3757SOL    HW222908   1.059   3.101  15.824 -1.2395 -2.3076  0.3756
 3758SOL     OW22909   2.944   3.687   6.500  0.3355 -0.0240 -0.1772
 3758SOL    HW122910   3.011   3.624   6.474 -1.5723 -1.3132 -2.0260
 3758SOL    HW222911   2.953   3.758   6.437  1.3416 -0.9816 -1.1034
 3759SOL     OW22912   0.158   3.731   6.231  0.1743  0.3402  0.1562
 3759SOL    HW122913   0.190   3.651   6.191  0.5988 -0.1609  1.4866
 3759SOL    HW222914   0.231   3.793   6.232  1.2351 -0.9057 -2.6162
 3760SOL     OW22915   2.493   1.429   8.744 -0.3577  0.6517  0.0555
 3760SOL    HW122916   2.455   1.341   8.744 -0.7097  0.7761 -2.6112
 3760SOL    HW222917   2.518   1.445   8.653  0.2413  1.5835  0.3923
 3761SOL     OW22918   3.628   4.433  12.981 -0.5713 -0.0044 -0.2877
 3761SOL    HW122919   3.553   4.378  13.004 -0.3536 -0.2142 -0.0719
 3761SOL    HW222920   3.698   4.368  12.983 -1.5192 -0.9870  1.1009
 3762SOL     OW22921   1.794   1.864  12.014 -0.5550 -0.1209  0.2279
 3762SOL    HW122922   1.880   1.890  11.979 -0.5006 -0.6613 -0.0532
 3762SOL    HW222923   1.751   1.949  12.019  2.3488  1.1710  3.2899
 3763SOL     OW22924   3.410   0.836   9.033  0.0770  0.4034 -0.0701
 3763SOL    HW122925   3.481   0.898   9.048 -0.3476  0.8972 -0.0963
 3763SOL    HW222926   3.364   0.837   9.118  0.0623  0.2736 -0.0767
 3764SOL     OW22927   0.458   0.401  15.137 -0.0976  0.3145  0.0357
 3764SOL    HW122928   0.536   0.398  15.082 -0.0596 -1.1935  0.1591
 3764SOL    HW222929   0.386   0.362  15.087 -0.1439  0.5242 -0.0581
 3765SOL     OW22930   0.635   4.247  17.496 -0.4005  0.1275 -0.1328
 3765SOL    HW122931   0.723   4.273  17.470  0.0508  0.8944  2.1843
 3765SOL    HW222932   0.582   4.226  17.419 -0.5129  0.0532 -0.0346
 3766SOL     OW22933   4.249   2.911   8.187  0.3662 -0.1095 -0.3297
 3766SOL    HW122934   4.224   2.835   8.241  0.2149  1.0144  1.1831
 3766SOL    HW222935   4.238   2.867   8.103  0.6662  0.0802 -0.4660
 3767SOL     OW22936   3.814   1.081   4.415  0.8982 -0.0096  0.2372
 3767SOL    HW122937   3.836   1.066   4.323  2.4495  1.6361  0.3551
 3767SOL    HW222938   3.826   1.176   4.416 -1.6263  0.3117  1.9621
 3768SOL     OW22939   0.417   0.543   4.628 -0.4719  0.2311  0.2546
 3768SOL    HW122940   0.456   0.630   4.621 -2.1079  1.1070  2.0221
 3768SOL    HW222941   0.502   0.501   4.638 -0.1461  0.3678 -1.9319
 3769SOL     OW22942   0.528   3.192   8.259 -0.5581 -0.1432 -0.0407
 3769SOL    HW122943   0.567   3.112   8.294  3.1981  2.3060  1.3111
 3769SOL    HW222944   0.602   3.252   8.271 -1.2063  0.2830  1.7985
 3770SOL     OW22945   4.104   0.951  11.797 -0.9542 -0.1340  0.4181
 3770SOL    HW122946   4.174   0.930  11.735 -1.1021 -0.7376  0.4561
 3770SOL    HW222947   4.079   0.862  11.823  0.9155 -0.7446  0.1248
 3771SOL     OW22948   0.745   3.538   3.729  0.1844 -0.5538 -1.0344
 3771SOL    HW122949   0.826   3.588   3.718  0.6465 -0.6249  1.9529
 3771SOL    HW222950   0.763   3.504   3.816  1.0076  2.0318 -0.1866
 3772SOL     OW22951   1.584   0.535  10.467 -0.1900  0.6408  0.2686
 3772SOL    HW122952   1.539   0.541  10.383  2.8730 -0.3816 -1.4475
 3772SOL    HW222953   1.675   0.522  10.440  0.3470  0.1077  2.3283
 3773SOL     OW22954   1.334   4.380   5.252 -0.0981  0.3792 -0.1473
 3773SOL    HW122955   1.259   4.337   5.212  1.4811 -1.3461 -1.2666
 3773SOL    HW222956   1.295   4.384   5.339 -0.1840 -0.5774 -0.1373
 3774SOL     OW22957   2.088   0.157  15.209  0.0446 -0.0794 -0.6761
 3774SOL    HW122958   2.157   0.136  15.272 -0.1653 -0.6584 -0.6333
 3774SOL    HW222959   2.091   0.082  15.149  0.7202 -0.4758 -0.1412
 3775SOL     OW22960   4.495   3.521   3.662  0.4879  0.0015  0.1203
 3775SOL    HW122961   4.524   3.468   3.737  1.8289 -0.7039 -0.8967
 3775SOL    HW222962   4.548   3.600   3.669 -1.4388  1.2553  0.6966
 3776SOL     OW22963   2.450   2.408   5.456  0.4589 -0.3796 -0.5237
 3776SOL    HW122964   2.381   2.380   5.396  1.0857  2.6212 -2.6507
 3776SOL    HW222965   2.420   2.493   5.488  0.5204  0.1726 -1.9329
 3777SOL     OW22966   1.851   3.360  14.057 -0.4965  0.1568 -0.1566
 3777SOL    HW122967   1.908   3.363  14.134 -1.0899 -1.7323  0.3376
 3777SOL    HW222968   1.763   3.359  14.095 -0.7468 -1.6424 -0.8033
 3778SOL     OW22969   4.186   4.391   3.611  0.0733  0.0954  0.8556
 3778SOL    HW122970   4.191   4.415   3.518  1.4467 -1.5746  0.4939
 3778SOL    HW222971   4.137   4.460   3.654 -1.6336 -0.6404  0.1222
 3779SOL     OW22972   3.205   2.566   4.366  0.2616  0.4765 -0.3074
 3779SOL    HW122973   3.204   2.584   4.272 -1.2514 -1.0556 -0.5732
 3779SOL    HW222974   3.140   2.630   4.396 -1.2884 -1.2201 -0.0440
 3780SOL     OW22975   0.516   0.360   6.574  0.4816 -0.1420  0.0175
 3780SOL    HW122976   0.433   0.347   6.528  0.3005 -0.3204  0.3959
 3780SOL    HW222977   0.549   0.272   6.592  0.0493 -0.8107 -2.4666
 3781SOL     OW22978   2.072   1.987  11.965  0.2938  0.0991 -0.0793
 3781SOL    HW122979   2.101   2.077  11.950 -0.0056 -0.1628 -2.2737
 3781SOL    HW222980   2.079   1.989  12.060  0.8435  0.4938 -0.1254
 3782SOL     OW22981   3.829   3.152   5.698  0.5839  0.1865 -0.2485
 3782SOL    HW122982   3.840   3.179   5.789  1.7835  2.2720 -0.9913
 3782SOL    HW222983   3.908   3.099   5.688  0.6646  0.4627 -1.0824
 3783SOL     OW22984   4.273   2.076   8.067 -0.1014  0.0233 -0.3719
 3783SOL    HW122985   4.241   2.023   8.140  0.0453  0.8413  0.2884
 3783SOL    HW222986   4.197   2.070   8.009 -0.3387 -4.2424  0.3811
 3784SOL     OW22987   0.772   3.636   8.904 -0.0473  0.3276 -0.1814
 3784SOL    HW122988   0.715   3.587   8.845  0.5344  0.3736 -0.7785
 3784SOL    HW222989   0.795   3.710   8.848  1.8385 -0.0406  0.0936
 3785SOL     OW22990   3.202   4.453  10.649  0.1036 -0.0496  0.3626
 3785SOL    HW122991   3.279   4.505  10.624  0.5460 -1.3512 -0.9196
 3785SOL    HW222992   3.228   4.408  10.729  1.0668 -0.1544 -0.0107
 3786SOL     OW22993   4.205   2.605   5.810 -0.0607 -0.4092  0.1425
 3786SOL    HW122994   4.153   2.601   5.890  1.1030  3.2159  1.0666
 3786SOL    HW222995   4.287   2.634   5.849 -0.8130 -0.0262  1.4541
 3787SOL     OW22996   0.745   3.238   9.736 -0.0653  0.0739 -0.5936
 3787SOL    HW122997   0.740   3.326   9.698 -0.6958  1.2451  2.2564
 3787SOL    HW222998   0.711   3.251   9.824 -3.1144 -2.9081 -1.3481
 3788SOL     OW22999   4.023   0.990   2.321  0.0387 -0.5432  0.8238
 3788SOL    HW123000   4.078   0.984   2.243 -0.6729  1.5127  0.1727
 3788SOL    HW223001   3.942   1.022   2.282  0.3949 -1.0349 -0.3189
 3789SOL     OW23002   1.611   1.500   2.318  0.0799  0.1185  0.0125
 3789SOL    HW123003   1.701   1.530   2.329 -0.5437  1.2492  1.8466
 3789SOL    HW223004   1.624   1.432   2.251 -1.9763  0.2513 -0.5293
 3790SOL     OW23005   3.042   2.424   8.727  0.5080  0.3237  0.0311
 3790SOL    HW123006   3.025   2.456   8.816  0.0540 -2.8728  1.0993
 3790SOL    HW223007   2.953   2.397   8.707 -0.0258  1.1313  1.2914
 3791SOL     OW23008   1.030   3.753   8.449 -0.4797 -0.3811 -0.2753
 3791SOL    HW123009   1.100   3.755   8.384 -1.5393 -2.4093 -1.4731
 3791SOL    HW223010   1.072   3.812   8.512 -0.8088 -0.9585  0.4860
 3792SOL     OW23011   1.774   1.085   8.122  0.0870 -0.1950  0.1138
 3792SOL    HW123012   1.692   1.097   8.169  1.2627  1.7350  1.6563
 3792SOL    HW223013   1.761   1.155   8.058 -1.9638 -1.0979 -0.4822
 3793SOL     OW23014   2.089   0.583   7.471 -0.3773 -0.1874  0.8396
 3793SOL    HW123015   2.144   0.508   7.447  0.8223  1.2349 -0.8296
 3793SOL    HW223016   2.140   0.661   7.451 -2.2419  0.6036 -0.8250
 3794SOL     OW23017   2.416   2.000   0.320  0.2739  0.4342  0.2139
 3794SOL    HW123018   2.470   2.078   0.308  0.1880  0.5250  0.4170
 3794SOL    HW223019   2.436   1.978   0.411 -0.5940 -3.7534 -0.5847
 3795SOL     OW23020   2.746   1.594   3.664 -0.6615 -0.4064 -0.2353
 3795SOL    HW123021   2.799   1.672   3.649 -0.3354 -0.7441 -0.8247
 3795SOL    HW223022   2.706   1.594   3.577 -2.5709  0.2333  0.6257
 3796SOL     OW23023   0.557   1.414   9.429 -0.0274  0.0232  0.3030
 3796SOL    HW123024   0.535   1.505   9.452  1.7725  0.4335  0.4163
 3796SOL    HW223025   0.625   1.403   9.496  1.0906 -0.1237 -0.8708
 3797SOL     OW23026   2.890   1.836   3.691  0.2246  0.2182 -0.4457
 3797SOL    HW123027   2.974   1.874   3.666  0.7719 -0.5627  0.2115
 3797SOL    HW223028   2.847   1.910   3.733  0.4224 -0.5574  1.1448
 3798SOL     OW23029   0.386   1.403  15.163  0.4218  0.0952  0.2975
 3798SOL    HW123030   0.390   1.319  15.118 -0.9701 -0.0618  0.4463
 3798SOL    HW223031   0.314   1.383  15.223  0.6590  2.9547  1.5565
 3799SOL     OW23032   1.781   4.554   4.328 -0.2394 -0.2062  0.1237
 3799SOL    HW123033   1.860   4.501   4.338 -1.3941 -1.9760 -0.1219
 3799SOL    HW223034   1.795   4.627   4.389 -1.2279  0.6348 -0.6572
 3800SOL     OW23035   0.746   2.309   2.835  0.3852 -0.0200  0.6009
 3800SOL    HW123036   0.833   2.276   2.859  0.6609 -0.4147 -0.9243
 3800SOL    HW223037   0.711   2.328   2.921  0.7700 -0.7860  0.9304
 3801SOL     OW23038   2.832   1.898   8.106 -0.1479  0.0753  0.3058
 3801SOL    HW123039   2.879   1.927   8.184 -1.5794  0.5872  0.9873
 3801SOL    HW223040   2.782   1.978   8.091  0.6866  0.8949  1.8801
 3802SOL     OW23041   1.171   0.113  14.992  0.3797 -0.5034  0.0479
 3802SOL    HW123042   1.234   0.123  14.921 -0.0880 -0.0350 -0.3071
 3802SOL    HW223043   1.092   0.070  14.957 -0.2168  0.4026  0.2676
 3803SOL     OW23044   2.751   0.002   5.556 -0.0961 -0.0400  0.1212
 3803SOL    HW123045   2.824   0.063   5.565  1.1498 -1.5947  0.4777
 3803SOL    HW223046   2.767   4.694   5.640  0.1890 -0.2648 -0.0501
 3804SOL     OW23047   0.032   1.365   2.212 -0.3797  0.2480  0.4426
 3804SOL    HW123048   0.025   1.364   2.308 -3.2438 -0.6566  0.2376
 3804SOL    HW223049   0.093   1.437   2.197 -2.1166  1.7572  0.5255
 3805SOL     OW23050   3.856   1.843   5.590  0.2451  0.0547  0.0227
 3805SOL    HW123051   3.784   1.882   5.540  0.2483 -2.4452 -1.9008
 3805SOL    HW223052   3.897   1.920   5.631 -2.9587  0.7140  1.9628
 3806SOL     OW23053   3.487   0.502   9.113  0.5402  0.0490  0.0630
 3806SOL    HW123054   3.400   0.520   9.149  0.9536 -0.3349  1.2391
 3806SOL    HW223055   3.547   0.530   9.182 -0.4785  3.5213 -0.4581
 3807SOL     OW23056   1.389   1.013  14.838 -0.3033 -0.1373 -0.2860
 3807SOL    HW123057   1.302   1.030  14.874 -0.3157  3.2864 -2.0074
 3807SOL    HW223058   1.446   1.030  14.913  2.5038  0.0090 -2.4760
 3808SOL     OW23059   0.570   1.112  16.152 -0.2364  0.1469 -0.4086
 3808SOL    HW123060   0.499   1.176  16.147 -0.2870  0.0153 -1.2755
 3808SOL    HW223061   0.616   1.146  16.229 -0.7823 -0.9096  0.3855
 3809SOL     OW23062   1.671   3.159  16.403  0.0499  0.2208 -0.0063
 3809SOL    HW123063   1.707   3.070  16.410  2.6480  1.0686 -2.9284
 3809SOL    HW223064   1.620   3.155  16.323 -0.3052 -1.2645  0.2862
 3810SOL     OW23065   4.108   4.560   8.995 -1.0284  0.6138 -0.1288
 3810SOL    HW123066   4.202   4.543   9.000 -1.2961 -0.9475 -0.3031
 3810SOL    HW223067   4.126   4.630   8.933 -2.6980  1.4798  0.3693
 3811SOL     OW23068   1.106   3.948   2.959 -0.6340 -0.1562 -0.4872
 3811SOL    HW123069   1.178   3.929   2.900 -0.3665 -2.3257  0.5505
 3811SOL    HW223070   1.036   3.905   2.910 -0.9790 -2.4374  2.0020
 3812SOL     OW23071   1.418   2.483  17.271 -0.2583 -0.5335 -0.2870
 3812SOL    HW123072   1.503   2.439  17.269 -0.4963 -0.8937 -2.1320
 3812SOL    HW223073   1.354   2.424  17.231 -0.9243 -0.1133  0.1688
 3813SOL     OW23074   2.329   2.980   6.774 -0.3429  0.8164 -0.0530
 3813SOL    HW123075   2.249   2.964   6.724 -0.0300  2.5970 -1.1237
 3813SOL    HW223076   2.387   2.916   6.733  1.6290  3.9826 -2.0958
 3814SOL     OW23077   3.655   0.486   7.811  0.5101 -0.1755  0.4654
 3814SOL    HW123078   3.692   0.403   7.779  1.2823  1.4355 -2.7954
 3814SOL    HW223079   3.692   0.482   7.899  0.3866 -0.0478  0.5236
 3815SOL     OW23080   0.039   4.268   8.436 -0.0809  0.2252 -0.0153
 3815SOL    HW123081   4.686   4.304   8.444 -0.8578 -1.5898 -0.4336
 3815SOL    HW223082   0.031   4.239   8.345  2.7932 -1.2100  0.1797
 3816SOL     OW23083   4.238   3.370  10.673 -0.3156 -0.0622 -0.2055
 3816SOL    HW123084   4.277   3.456  10.690  1.1048 -1.0604  1.6488
 3816SOL    HW223085   4.231   3.341  10.764  0.7090  0.1824 -0.0416
 3817SOL     OW23086   1.497   3.807  10.708  0.2406  0.1074  0.0087
 3817SOL    HW123087   1.564   3.866  10.672  0.3079  0.3905  0.5998
 3817SOL    HW223088   1.427   3.864  10.740  0.4395  0.9442 -1.0411
 3818SOL     OW23089   2.193   3.567   7.058  0.2641 -0.5259  0.0344
 3818SOL    HW123090   2.129   3.523   7.001  1.5614 -0.6721 -1.3155
 3818SOL    HW223091   2.250   3.498   7.091  1.4485  1.2618  1.6977
 3819SOL     OW23092   0.397   1.672   0.223 -0.3650 -0.1532 -0.6673
 3819SOL    HW123093   0.337   1.741   0.249  0.4328  1.1705 -2.3195
 3819SOL    HW223094   0.470   1.718   0.181 -0.4996 -0.1360 -0.8789
 3820SOL     OW23095   0.725   2.128   8.615  0.3155 -0.1499  0.3106
 3820SOL    HW123096   0.665   2.053   8.620  1.1079 -0.7002  1.5580
 3820SOL    HW223097   0.743   2.123   8.521  1.1681  1.4415  0.3907
 3821SOL     OW23098   2.596   0.788  12.531  0.0328 -0.3203 -0.3892
 3821SOL    HW123099   2.552   0.703  12.533 -0.6588  0.0656  1.0662
 3821SOL    HW223100   2.575   0.805  12.623  1.0751 -0.1348 -0.1897
 3822SOL     OW23101   1.355   3.239  16.027 -0.0333 -0.9500  0.2766
 3822SOL    HW123102   1.387   3.329  16.036 -0.7314 -0.4295 -2.1965
 3822SOL    HW223103   1.263   3.263  16.015  0.2183 -0.9098 -1.7016
 3823SOL     OW23104   0.811   2.670   4.404 -0.4965 -0.0663 -0.1391
 3823SOL    HW123105   0.784   2.732   4.336 -0.3063 -0.1513 -0.2952
 3823SOL    HW223106   0.818   2.725   4.482 -1.2479 -1.7071  1.0882
 3824SOL     OW23107   2.025   0.896   5.844 -0.7948 -0.2096 -0.5308
 3824SOL    HW123108   2.036   0.839   5.769  1.1966  1.0723 -1.1888
 3824SOL    HW223109   1.946   0.852   5.876 -0.8891 -0.1076 -0.6238
 3825SOL     OW23110   0.528   3.991   6.606 -0.4199 -0.1598  0.5029
 3825SOL    HW123111   0.466   4.059   6.578  1.5098  0.2153 -2.9317
 3825SOL    HW223112   0.471   3.915   6.603 -1.9851  0.9583  1.7519
 3826SOL     OW23113   1.835   1.040   4.062 -0.0070 -0.3708  0.7746
 3826SOL    HW123114   1.790   1.085   4.133 -0.3991  0.8769 -0.2398
 3826SOL    HW223115   1.856   0.956   4.101  1.4035 -0.1646  0.4936
 3827SOL     OW23116   2.681   1.119   3.005  0.0570  0.3778  0.2880
 3827SOL    HW123117   2.655   1.090   2.918  1.6153  0.3171 -0.1579
 3827SOL    HW223118   2.691   1.211   2.981  1.2313  0.0021 -0.6795
 3828SOL     OW23119   2.536   4.302  17.604  0.1166 -0.2124 -0.2120
 3828SOL    HW123120   2.468   4.369  17.595  1.3688  1.1847  0.6870
 3828SOL    HW223121   2.562   4.286  17.513  0.7135 -0.0816 -0.0601
 3829SOL     OW23122   2.992   0.201  14.638 -0.0829  0.2264  0.5014
 3829SOL    HW123123   2.981   0.255  14.716 -2.1303 -1.4645  1.4016
 3829SOL    HW223124   3.082   0.225  14.617 -0.1387 -0.3598 -0.4204
 3830SOL     OW23125   0.679   1.865  15.018  0.4302  0.5362  0.7270
 3830SOL    HW123126   0.670   1.803  14.946 -2.0303 -1.7026  2.9858
 3830SOL    HW223127   0.699   1.801  15.086 -1.2988 -2.2213 -1.3560
 3831SOL     OW23128   0.529   4.053   7.852  0.3141  0.6609  0.6292
 3831SOL    HW123129   0.556   4.140   7.884  0.9274 -0.3008  2.7185
 3831SOL    HW223130   0.613   4.008   7.839  1.1012  2.0084  0.9307
 3832SOL     OW23131   4.112   2.395   7.231 -0.1001 -0.7103 -0.0291
 3832SOL    HW123132   4.075   2.444   7.305 -1.8139 -0.7869 -0.8358
 3832SOL    HW223133   4.078   2.430   7.149 -0.8431 -0.2727  0.4650
 3833SOL     OW23134   1.975   3.234  16.023  0.1633  0.6147  0.1380
 3833SOL    HW123135   1.916   3.271  16.089  0.3069 -1.3608  1.3730
 3833SOL    HW223136   2.027   3.182  16.084 -1.4334 -1.7474 -0.4738
 3834SOL     OW23137   4.097   1.863   7.654 -0.5149 -0.3093  0.1310
 3834SOL    HW123138   4.180   1.905   7.633 -0.6574  0.2595  0.6898
 3834SOL    HW223139   4.033   1.929   7.625  1.3729  0.7501 -1.6425
 3835SOL     OW23140   2.647   0.505  15.516  0.6138 -0.0885 -0.1852
 3835SOL    HW123141   2.587   0.520  15.588  0.3700 -0.1450 -0.3780
 3835SOL    HW223142   2.610   0.559  15.446 -1.1234 -0.8759  0.1348
 3836SOL     OW23143   3.842   2.766   2.921  0.0913 -0.3597  0.2010
 3836SOL    HW123144   3.901   2.786   2.994 -1.3052 -0.6509  1.4065
 3836SOL    HW223145   3.904   2.752   2.850 -0.7242 -1.2175 -0.3402
 3837SOL     OW23146   1.146   3.341   2.915  0.6039  0.2084  0.2125
 3837SOL    HW123147   1.237   3.314   2.909  0.2186 -1.4136  1.8839
 3837SOL    HW223148   1.131   3.328   3.008  1.1452  0.3217  0.3148
 3838SOL     OW23149   0.519   2.480   5.167 -0.0791  0.3419  0.3322
 3838SOL    HW123150   0.424   2.494   5.170 -0.1590 -0.3067  0.7547
 3838SOL    HW223151   0.533   2.447   5.078 -1.7464 -0.5001  0.3933
 3839SOL     OW23152   3.021   3.463   4.556 -0.0574  0.1583  0.5040
 3839SOL    HW123153   3.066   3.413   4.624 -1.0512 -1.8377 -0.2818
 3839SOL    HW223154   2.982   3.532   4.609  4.4368 -0.6026  4.7693
 3840SOL     OW23155   4.432   1.617   5.251 -0.4107 -0.0740  0.7052
 3840SOL    HW123156   4.381   1.691   5.282  1.4861  0.9523  1.4054
 3840SOL    HW223157   4.358   1.568   5.215  0.6553  0.0587 -1.7128
 3841SOL     OW23158   3.241   4.687   1.975  0.1808  0.1500  0.3965
 3841SOL    HW123159   3.178   4.624   2.009  0.1611 -0.4579 -0.7726
 3841SOL    HW223160   3.190   0.032   1.988  0.1075  0.4870 -1.9828
 3842SOL     OW23161   0.561   2.952  13.018  0.1162 -0.3644 -0.2474
 3842SOL    HW123162   0.597   2.966  12.931 -2.3938 -0.6321 -1.3205
 3842SOL    HW223163   0.475   2.994  13.014  1.0624  1.8049  1.9979
 3843SOL     OW23164   3.320   2.823   7.942 -0.7610 -0.1118  0.0805
 3843SOL    HW123165   3.387   2.798   8.005  1.5687  2.4581 -1.3711
 3843SOL    HW223166   3.296   2.737   7.907 -1.6135  0.2168 -0.1533
 3844SOL     OW23167   0.974   2.346  14.960 -0.1449  0.5835  0.5353
 3844SOL    HW123168   1.023   2.341  14.878  0.3799 -1.5212  0.9884
 3844SOL    HW223169   1.026   2.422  14.989 -1.4464  1.5986  0.1974
 3845SOL     OW23170   0.203   2.887  13.624 -0.1525 -0.4667 -0.0320
 3845SOL    HW123171   0.114   2.906  13.655  0.4758  0.4550  1.2009
 3845SOL    HW223172   0.234   2.975  13.605  0.4157  0.1463  3.6002
 3846SOL     OW23173   2.169   1.318   6.976  0.3276 -0.4721  0.2463
 3846SOL    HW123174   2.161   1.320   7.072  0.7348  0.8890  0.2559
 3846SOL    HW223175   2.256   1.278   6.979  1.9704  3.0049 -1.1224
 3847SOL     OW23176   1.059   4.096   8.913 -0.0591 -0.4817 -0.0728
 3847SOL    HW123177   1.141   4.146   8.908 -0.1078 -0.4356 -0.3948
 3847SOL    HW223178   1.092   4.028   8.972  2.7379  0.8894 -0.0376
 3848SOL     OW23179   4.385   1.506  17.550 -0.1689 -0.0331 -0.1022
 3848SOL    HW123180   4.430   1.471  17.474 -0.7938 -0.0486 -0.4689
 3848SOL    HW223181   4.295   1.493  17.520 -0.3758  1.0446  0.0176
 3849SOL     OW23182   4.421   4.684   2.090  0.0872  0.0863  0.1482
 3849SOL    HW123183   4.361   4.655   2.022 -1.1340 -2.1604  2.1828
 3849SOL    HW223184   4.477   0.015   2.050 -0.8838  1.3157  0.8435
 3850SOL     OW23185   3.509   4.453  15.919  0.7054  0.7110 -0.6343
 3850SOL    HW123186   3.531   4.543  15.939 -0.6952  0.8558  0.2237
 3850SOL    HW223187   3.421   4.435  15.951 -0.0123  2.5892 -1.5594
 3851SOL     OW23188   2.779   1.471   9.280 -0.3604  0.3928  0.2862
 3851SOL    HW123189   2.781   1.387   9.233 -2.3629 -0.1729  1.2076
 3851SOL    HW223190   2.702   1.454   9.334 -0.1682  1.5901  0.9297
 3852SOL     OW23191   3.904   0.750   8.897  0.2842  0.0573  0.6811
 3852SOL    HW123192   3.860   0.673   8.863 -0.7605  0.6508  0.6723
 3852SOL    HW223193   3.876   0.749   8.988  0.2131  0.6953  0.6673
 3853SOL     OW23194   4.730   3.714  17.266 -0.0712  0.0043  0.1124
 3853SOL    HW123195   4.723   3.687  17.357 -3.4739 -0.4992 -0.2994
 3853SOL    HW223196   0.086   3.736  17.251 -0.2174  0.8417  0.4491
 3854SOL     OW23197   0.786   2.754   6.152  0.7116 -0.6211  0.2883
 3854SOL    HW123198   0.790   2.781   6.244 -1.0793 -0.5429  0.3464
 3854SOL    HW223199   0.845   2.679   6.157 -0.2655 -1.4213 -0.1127
 3855SOL     OW23200   0.255   1.870   4.196 -0.3517  0.1239 -0.4024
 3855SOL    HW123201   0.268   1.833   4.109 -0.1269 -0.0561 -0.2914
 3855SOL    HW223202   0.345   1.898   4.210 -0.8735  1.0167  1.1979
 3856SOL     OW23203   0.649   2.981  12.780  0.2881  0.2402 -0.0551
 3856SOL    HW123204   0.603   3.027  12.710  1.7105  2.5030  0.4965
 3856SOL    HW223205   0.721   3.036  12.809 -0.2797  0.0161  1.8042
 3857SOL     OW23206   1.731   1.626  14.259  0.2807  0.1370 -0.5116
 3857SOL    HW123207   1.719   1.538  14.293  1.0162  0.4705  0.6446
 3857SOL    HW223208   1.678   1.675  14.322 -0.1946 -1.2435  0.1589
 3858SOL     OW23209   3.443   4.249   4.861 -0.6960  0.0717 -0.2192
 3858SOL    HW123210   3.398   4.201   4.791 -1.4167 -0.8369  0.8648
 3858SOL    HW223211   3.366   4.290   4.902 -0.0241 -0.3497  1.4304
 3859SOL     OW23212   3.597   1.766   2.119  0.1786  0.2281  0.4299
 3859SOL    HW123213   3.668   1.727   2.171  0.1642 -2.5792 -1.6751
 3859SOL    HW223214   3.643   1.797   2.041 -0.6418 -1.1953 -0.6119
 3860SOL     OW23215   3.449   4.691  16.772 -0.2207 -1.0797  0.3436
 3860SOL    HW123216   3.387   0.027  16.756 -0.3248 -1.2411  0.0209
 3860SOL    HW223217   3.432   4.667  16.864 -0.0743  0.1395  0.6806
 3861SOL     OW23218   3.830   0.695   6.004 -0.0519 -0.3667 -0.2600
 3861SOL    HW123219   3.883   0.627   5.963  0.7864 -0.0735  0.3344
 3861SOL    HW223220   3.778   0.713   5.925 -0.4251  0.5366  0.1940
 3862SOL     OW23221   3.195   3.165  10.491 -0.8368 -0.2278  0.1410
 3862SOL    HW123222   3.106   3.163  10.528 -1.3648 -0.8355 -1.1796
 3862SOL    HW223223   3.178   3.202  10.405 -3.0924  0.0561  0.7071
 3863SOL     OW23224   3.571   4.116   3.976  0.1896  0.2636  0.1457
 3863SOL    HW123225   3.618   4.044   4.017  1.5501  0.7673 -0.5356
 3863SOL    HW223226   3.534   4.070   3.901 -1.9888  2.8953 -0.4107
 3864SOL     OW23227   4.595   0.824   1.151 -0.7312  0.0077 -0.1527
 3864SOL    HW123228   4.627   0.734   1.142  0.5730  0.2805  1.7968
 3864SOL    HW223229   4.622   0.859   1.066 -3.3131  0.7464 -0.6595
 3865SOL     OW23230   2.542   4.558   1.977  0.5102  0.2348  0.6726
 3865SOL    HW123231   2.523   4.589   2.065  0.4152  0.3757  0.6008
 3865SOL    HW223232   2.565   4.465   1.985  0.8926  0.3020  0.4087
 3866SOL     OW23233   3.717   0.053   5.423  0.4284  0.0317  0.0385
 3866SOL    HW123234   3.664   0.102   5.360 -1.7005 -0.4964  1.4170
 3866SOL    HW223235   3.803   0.073   5.387 -0.2362  2.6922 -0.1067
 3867SOL     OW23236   3.124   2.428  10.359  0.2430  0.4269  0.1478
 3867SOL    HW123237   3.086   2.426  10.271 -1.6469  0.5948  0.9803
 3867SOL    HW223238   3.188   2.497  10.339  0.5099 -0.0211 -0.5781
 3868SOL     OW23239   3.291   2.033   3.982 -0.0927  0.0326 -0.1344
 3868SOL    HW123240   3.311   2.069   3.895 -1.1070 -2.7819 -1.5248
 3868SOL    HW223241   3.326   1.945   3.963  0.1345  0.0134  0.3848
 3869SOL     OW23242   0.406   2.207  12.001  0.0402  0.6583  0.6349
 3869SOL    HW123243   0.445   2.276  12.056  2.4987 -1.4020  1.4948
 3869SOL    HW223244   0.325   2.247  11.972  0.7976  0.1848 -2.0754
 3870SOL     OW23245   0.850   3.326   8.976 -0.3119  0.0875  0.4992
 3870SOL    HW123246   0.808   3.306   9.059 -1.2176 -0.6040 -0.1307
 3870SOL    HW223247   0.785   3.294   8.914 -0.4929 -1.8927  1.6950
 3871SOL     OW23248   3.219   3.324  16.214 -0.4731  0.1805 -0.1627
 3871SOL    HW123249   3.221   3.419  16.224 -0.3193  0.0732  0.8312
 3871SOL    HW223250   3.191   3.297  16.301 -1.9762 -0.0345 -0.7155
 3872SOL     OW23251   0.160   4.394  15.028  0.2742  0.1447  0.4304
 3872SOL    HW123252   0.232   4.378  14.966 -0.0153  1.1126 -0.1566
 3872SOL    HW223253   0.099   4.453  14.985  0.3210 -0.3368 -0.2939
 3873SOL     OW23254   4.643   1.098   1.928  0.3314  0.2956 -0.3058
 3873SOL    HW123255   4.654   1.191   1.947 -1.1127  0.7496 -1.6663
 3873SOL    HW223256   4.667   1.075   2.018 -1.0305  0.9553  0.2246
 3874SOL     OW23257   4.602   4.356   4.502 -0.4312  0.3604 -0.0282
 3874SOL    HW123258   4.556   4.370   4.585 -0.2452  0.6712  0.0212
 3874SOL    HW223259   4.540   4.301   4.453 -0.2899  0.4170 -0.2716
 3875SOL     OW23260   1.019   4.238   3.604  0.2893  0.0887 -0.0615
 3875SOL    HW123261   0.928   4.234   3.574  0.4216 -0.1586 -0.4270
 3875SOL    HW223262   1.066   4.188   3.537  2.6967  1.1817  0.8174
 3876SOL     OW23263   0.354   1.508   3.205  0.4991 -0.8879  0.2921
 3876SOL    HW123264   0.306   1.509   3.122 -0.8224  1.1218  1.1032
 3876SOL    HW223265   0.444   1.517   3.173  0.7769  0.1892  1.4322
 3877SOL     OW23266   1.520   3.929   5.220 -0.2833 -0.6831 -0.2325
 3877SOL    HW123267   1.519   4.022   5.241  1.9122 -0.6048 -0.5521
 3877SOL    HW223268   1.472   3.898   5.298  0.7532 -1.6487  0.0232
 3878SOL     OW23269   0.875   2.243   3.359  0.2971 -0.0047  0.6710
 3878SOL    HW123270   0.897   2.269   3.270 -1.8478 -1.4312 -0.2948
 3878SOL    HW223271   0.789   2.284   3.371 -1.0413 -2.2615 -1.1357
 3879SOL     OW23272   3.248   3.417   2.842 -0.2088 -0.4496  0.3684
 3879SOL    HW123273   3.324   3.459   2.802 -0.0842 -1.4197 -0.4275
 3879SOL    HW223274   3.279   3.397   2.930  3.0287 -1.6878 -1.0506
 3880SOL     OW23275   2.220   2.632  12.491  0.1356 -0.2000 -0.5138
 3880SOL    HW123276   2.207   2.719  12.453 -1.5242  0.5621  1.7293
 3880SOL    HW223277   2.125   2.626  12.506  0.2768 -1.6594 -0.1921
 3881SOL     OW23278   0.186   0.796  17.127 -0.3731  0.2449  0.4815
 3881SOL    HW123279   0.114   0.858  17.118 -0.5197 -0.3120 -2.0336
 3881SOL    HW223280   0.169   0.727  17.064 -2.3200  1.3092 -0.1482
 3882SOL     OW23281   4.704   0.503   5.479 -0.0802 -0.1801  0.3454
 3882SOL    HW123282   4.652   0.463   5.549  2.2561 -0.9801  1.6303
 3882SOL    HW223283   0.022   0.577   5.510  1.4686 -1.5022  0.8439
 3883SOL     OW23284   3.720   4.436   0.432 -0.3090  0.0813  0.3425
 3883SOL    HW123285   3.633   4.433   0.473 -0.8566 -0.5185 -0.8421
 3883SOL    HW223286   3.778   4.453   0.505  0.7486 -0.0291 -0.4671
 3884SOL     OW23287   1.562   4.164   7.531  0.7174 -0.7623 -0.3433
 3884SOL    HW123288   1.651   4.161   7.498  1.3761  1.7210  1.1559
 3884SOL    HW223289   1.524   4.218   7.462  2.9557 -1.5936 -2.1985
 3885SOL     OW23290   4.142   0.385   2.939 -0.0864  1.0712  0.4158
 3885SOL    HW123291   4.122   0.460   2.882 -0.2748  1.0264  0.4210
 3885SOL    HW223292   4.232   0.369   2.911  0.6233  1.7609  2.3329
 3886SOL     OW23293   0.236   1.287   3.349 -0.3039  0.2376 -0.0489
 3886SOL    HW123294   0.236   1.315   3.440 -1.2526 -0.8529  0.3003
 3886SOL    HW223295   0.293   1.353   3.310 -2.5356  1.4038 -1.3926
 3887SOL     OW23296   2.715   4.050  14.208  0.2644  0.0313  0.5208
 3887SOL    HW123297   2.660   4.062  14.130 -0.7051  1.8866  1.4908
 3887SOL    HW223298   2.800   4.019  14.175 -0.3273 -0.9141 -0.1083
 3888SOL     OW23299   0.617   3.483   8.742 -1.0674 -0.2581  0.0063
 3888SOL    HW123300   0.534   3.442   8.718  0.3859 -1.1671 -3.5829
 3888SOL    HW223301   0.676   3.408   8.735  1.6917  1.8515  0.5515
 3889SOL     OW23302   2.668   1.677   8.138  0.3307  0.8158 -0.0061
 3889SOL    HW123303   2.683   1.674   8.232  1.2435 -1.1710 -0.2215
 3889SOL    HW223304   2.749   1.724   8.120  0.1128  1.5041  0.7906
 3890SOL     OW23305   4.408   3.811   8.108 -0.1167 -0.2653  0.7931
 3890SOL    HW123306   4.341   3.876   8.082 -0.0068 -0.7756 -0.7660
 3890SOL    HW223307   4.357   3.730   8.112 -0.4206 -0.2756 -3.4497
 3891SOL     OW23308   4.287   1.466   4.518 -0.6826 -0.1597  0.1103
 3891SOL    HW123309   4.346   1.537   4.542 -0.1213 -0.4295 -0.4854
 3891SOL    HW223310   4.341   1.388   4.505 -1.4755 -0.8989  1.2720
 3892SOL     OW23311   1.334   3.982  15.096 -0.0265  0.4502 -0.0933
 3892SOL    HW123312   1.246   3.945  15.084  0.1361 -0.1376  0.5690
 3892SOL    HW223313   1.306   4.069  15.124  1.3839  0.9997 -0.3859
 3893SOL     OW23314   2.745   1.638  11.158 -0.2426  0.8677  0.1466
 3893SOL    HW123315   2.834   1.662  11.184  0.4884  0.8780 -2.3163
 3893SOL    HW223316   2.726   1.567  11.218  0.2258  1.8073  1.4004
 3894SOL     OW23317   0.328   0.963   9.264 -0.0655  0.2790  0.1800
 3894SOL    HW123318   0.394   1.030   9.283 -0.7947  0.7529  1.0641
 3894SOL    HW223319   0.251   1.020   9.259 -1.9824 -2.2370  1.0481
 3895SOL     OW23320   2.054   1.793   2.025  0.4120 -0.2017  0.0099
 3895SOL    HW123321   2.102   1.873   2.003  0.5845 -0.3352 -0.0910
 3895SOL    HW223322   2.128   1.742   2.057  1.8989  1.5901 -0.5994
 3896SOL     OW23323   2.126   3.324   1.677  0.3255  0.2773  0.4068
 3896SOL    HW123324   2.201   3.376   1.708  1.3821 -0.3261 -1.1569
 3896SOL    HW223325   2.098   3.375   1.601 -3.0263  0.4821  1.7586
 3897SOL     OW23326   2.572   4.005   5.552 -0.4180  0.1304 -0.0912
 3897SOL    HW123327   2.613   4.091   5.543 -2.2247  1.0389  0.3797
 3897SOL    HW223328   2.574   3.994   5.647  1.1542  3.3891  0.2637
 3898SOL     OW23329   1.832   1.281  16.631  0.6962 -0.1013  0.1135
 3898SOL    HW123330   1.805   1.368  16.602  0.4017  0.3496  1.7482
 3898SOL    HW223331   1.750   1.243  16.663 -0.6300  2.9520  0.3578
 3899SOL     OW23332   2.885   0.400   5.996  0.4601  0.0703  0.4999
 3899SOL    HW123333   2.887   0.494   5.978  1.5814 -0.1534 -0.5559
 3899SOL    HW223334   2.932   0.392   6.079  0.2309 -0.0518  0.6150
 3900SOL     OW23335   3.046   0.123   3.286  0.0670  0.3145  0.1179
 3900SOL    HW123336   3.075   0.201   3.239  2.5465 -1.2949 -1.0619
 3900SOL    HW223337   3.062   0.066   3.211  0.0096  0.7224 -0.2057
 3901SOL     OW23338   2.242   0.531  12.848 -0.2554  0.3786 -0.4639
 3901SOL    HW123339   2.161   0.556  12.804 -1.0188  0.0273  0.7305
 3901SOL    HW223340   2.256   0.608  12.902 -0.6179 -0.1982  0.4512
 3902SOL     OW23341   3.745   2.454   2.613  0.0330  0.3374 -0.2065
 3902SOL    HW123342   3.779   2.531   2.659  0.4119 -0.6470  1.1397
 3902SOL    HW223343   3.765   2.478   2.522  1.6062  0.6651  0.2298
 3903SOL     OW23344   0.172   2.251   9.068  0.4338 -0.0978  0.0136
 3903SOL    HW123345   0.117   2.321   9.103  0.5179 -0.4496  0.8377
 3903SOL    HW223346   0.213   2.212   9.145  0.4089  1.4434  0.7963
 3904SOL     OW23347   0.202   1.816   8.139  0.6216  0.8061 -0.0581
 3904SOL    HW123348   0.129   1.772   8.095  0.8544 -2.0551  2.4020
 3904SOL    HW223349   0.205   1.757   8.215 -0.0645  0.4555 -0.2958
 3905SOL     OW23350   1.962   2.992  12.281 -0.4636  0.1825  0.0748
 3905SOL    HW123351   1.906   2.916  12.263 -0.9077  1.0555 -2.2464
 3905SOL    HW223352   1.939   3.034  12.198  1.1015 -1.0628 -1.0071
 3906SOL     OW23353   0.801   0.954   8.603 -0.4108  0.1639  0.2352
 3906SOL    HW123354   0.854   0.974   8.525 -1.5156  2.4851  0.0744
 3906SOL    HW223355   0.839   0.869   8.624 -0.5285  0.6698  2.4664
 3907SOL     OW23356   4.325   3.160   5.197 -0.0429 -0.1127  0.1642
 3907SOL    HW123357   4.359   3.177   5.285  1.8366 -0.3662 -0.5109
 3907SOL    HW223358   4.343   3.067   5.184 -1.4629 -0.3794  0.1015
 3908SOL     OW23359   1.559   0.459   7.321 -0.4136 -0.3156 -0.2177
 3908SOL    HW123360   1.591   0.401   7.252 -0.0018  0.0906 -0.3692
 3908SOL    HW223361   1.632   0.514   7.348 -1.5849  0.6711  0.9552
 3909SOL     OW23362   1.906   2.280   4.304 -0.1649 -0.2015  0.1839
 3909SOL    HW123363   1.935   2.370   4.290  0.1537 -0.3008  0.1847
 3909SOL    HW223364   1.986   2.241   4.340 -0.4515  0.7949  1.9072
 3910SOL     OW23365   3.801   1.328   5.819  0.0993 -0.2767 -0.4118
 3910SOL    HW123366   3.721   1.380   5.812 -0.2546 -0.4866  1.9867
 3910SOL    HW223367   3.780   1.249   5.869 -2.8722  1.1485  0.5759
 3911SOL     OW23368   2.140   4.564   0.813  0.2541  0.2772  0.6246
 3911SOL    HW123369   2.136   4.647   0.766  0.4874 -0.2730 -0.3773
 3911SOL    HW223370   2.229   4.530   0.798 -0.2251 -0.5824 -0.2548
 3912SOL     OW23371   4.147   4.356   2.999  0.4612  0.2355 -0.4655
 3912SOL    HW123372   4.185   4.391   2.918 -0.7566  0.1799 -1.0726
 3912SOL    HW223373   4.218   4.375   3.060  3.4282 -1.9872 -3.2587
 3913SOL     OW23374   1.846   1.334   7.862 -0.3672 -0.0543  0.3148
 3913SOL    HW123375   1.767   1.347   7.914  0.4510 -0.0599  1.5538
 3913SOL    HW223376   1.898   1.412   7.879  0.7525 -0.6753 -0.2158
 3914SOL     OW23377   3.007   1.294  17.318  0.6410 -0.0430  0.1154
 3914SOL    HW123378   2.941   1.227  17.335  1.6854 -0.8267  1.0815
 3914SOL    HW223379   2.966   1.327  17.238 -0.4310 -1.7040 -0.0277
 3915SOL     OW23380   3.917   4.190   9.182  0.0585 -0.2979  0.4339
 3915SOL    HW123381   3.986   4.171   9.246 -0.5589 -1.3599  0.7723
 3915SOL    HW223382   3.949   4.276   9.154  0.1873 -1.1126 -1.9279
 3916SOL     OW23383   0.608   4.228   8.402 -0.6773  0.2219 -0.3803
 3916SOL    HW123384   0.610   4.149   8.347  0.9584 -0.0525  0.0909
 3916SOL    HW223385   0.654   4.282   8.338  0.6264 -0.9861 -0.4718
 3917SOL     OW23386   0.138   1.669   2.639 -0.3421  0.6202  0.5950
 3917SOL    HW123387   0.202   1.646   2.572  0.6104  0.8139  1.4395
 3917SOL    HW223388   0.161   1.762   2.639 -1.8658  0.9894 -0.2309
 3918SOL     OW23389   3.807   1.387  14.895  0.7284 -0.5530 -0.3023
 3918SOL    HW123390   3.715   1.395  14.872  0.7359 -3.2532 -1.2712
 3918SOL    HW223391   3.806   1.370  14.989  1.6041 -0.7517 -0.3206
 3919SOL     OW23392   2.623   2.972   9.480 -0.0656 -0.4161 -0.1922
 3919SOL    HW123393   2.538   2.927   9.476  0.0520 -0.5483 -1.2054
 3919SOL    HW223394   2.629   2.984   9.385  1.3784  0.7447  0.0536
 3920SOL     OW23395   3.264   3.131   6.361  0.1793  0.0685 -0.5844
 3920SOL    HW123396   3.256   3.095   6.272 -2.0254 -0.3910 -0.1935
 3920SOL    HW223397   3.208   3.073   6.413 -0.6746  2.0951  0.7447
 3921SOL     OW23398   0.468   0.497   8.261 -0.0898  0.2348 -0.5507
 3921SOL    HW123399   0.559   0.467   8.257 -0.4318 -0.8810  0.1931
 3921SOL    HW223400   0.461   0.536   8.174  3.1284  2.0342 -0.0252
 3922SOL     OW23401   3.136   0.823   8.294  0.0537 -0.3595  0.5745
 3922SOL    HW123402   3.069   0.800   8.229 -0.7090 -2.7699  2.2229
 3922SOL    HW223403   3.086   0.825   8.376 -1.5117 -0.4448 -0.3655
 3923SOL     OW23404   1.125   3.463   8.458  0.0981 -0.1075  0.0470
 3923SOL    HW123405   1.071   3.405   8.511  0.3819  1.4479  2.0134
 3923SOL    HW223406   1.100   3.550   8.490  2.2776  0.7523 -0.5655
 3924SOL     OW23407   0.979   3.558   1.023  0.1932  0.0902 -0.5326
 3924SOL    HW123408   0.915   3.595   1.084  0.4008 -0.5531  0.0852
 3924SOL    HW223409   0.936   3.551   0.938 -1.1216  2.4430 -0.0506
 3925SOL     OW23410   0.132   0.646  15.972  0.2044  0.4993 -0.4393
 3925SOL    HW123411   0.059   0.605  15.927 -0.1220 -0.4099  0.9112
 3925SOL    HW223412   0.137   0.584  16.045  0.3340  0.1412 -0.7551
 3926SOL     OW23413   0.675   1.764   3.875 -0.3225  0.0402  0.3565
 3926SOL    HW123414   0.728   1.706   3.930 -1.0421  0.2978  1.3144
 3926SOL    HW223415   0.725   1.771   3.794 -2.8899  1.5089 -1.0954
 3927SOL     OW23416   2.592   3.238   3.375 -0.0380 -0.4865  0.1471
 3927SOL    HW123417   2.672   3.208   3.419 -0.2640 -1.9447 -0.4303
 3927SOL    HW223418   2.527   3.170   3.394 -0.7169 -0.2719 -1.4558
 3928SOL     OW23419   0.278   0.987   2.763  0.4233 -0.2533 -0.0490
 3928SOL    HW123420   0.356   1.035   2.792  1.2914 -0.2278 -2.3543
 3928SOL    HW223421   0.308   0.928   2.693  2.0621  1.4566 -0.7893
 3929SOL     OW23422   1.526   1.621   2.670  0.3109  0.3398  0.7021
 3929SOL    HW123423   1.456   1.670   2.627  0.1513 -0.3284  0.2093
 3929SOL    HW223424   1.575   1.583   2.598  1.4729  0.6545  1.3201
 3930SOL     OW23425   0.133   3.388   3.685 -0.1776 -0.3172  0.5164
 3930SOL    HW123426   0.194   3.456   3.711  0.5897 -1.7637  2.4663
 3930SOL    HW223427   0.094   3.421   3.604 -2.5333 -6.1975 -0.7458
 3931SOL     OW23428   2.239   0.627  17.639 -0.3945 -0.1499  0.1827
 3931SOL    HW123429   2.246   0.532  17.644  0.0420 -0.1517 -0.5110
 3931SOL    HW223430   2.162   0.644  17.694 -1.1929  2.7964 -1.7934
 3932SOL     OW23431   1.192   1.274  13.384 -0.3476 -0.3398 -0.2275
 3932SOL    HW123432   1.265   1.256  13.325 -1.5672 -2.7485 -1.0093
 3932SOL    HW223433   1.120   1.227  13.342 -2.3024 -0.0981  2.9051
 3933SOL     OW23434   4.059   2.725   8.962  0.1736 -0.1135  0.1116
 3933SOL    HW123435   4.045   2.643   9.009  1.5718  0.4223  1.4893
 3933SOL    HW223436   3.977   2.727   8.914  0.3714  0.0103 -0.2230
 3934SOL     OW23437   4.239   1.819   3.061 -0.1324  0.2927  0.0035
 3934SOL    HW123438   4.262   1.886   3.125  0.8035  0.2878 -0.3375
 3934SOL    HW223439   4.144   1.833   3.061 -0.0157  1.1495 -1.3324
 3935SOL     OW23440   1.133   0.490  10.544  0.5302 -0.5350 -0.2791
 3935SOL    HW123441   1.082   0.571  10.544  0.4002 -0.6146 -0.7883
 3935SOL    HW223442   1.219   0.526  10.565 -0.2150 -1.4125  4.2483
 3936SOL     OW23443   3.980   1.128  15.996  0.0120  0.3766 -0.3865
 3936SOL    HW123444   4.012   1.110  16.084  1.2642  0.2803 -0.8587
 3936SOL    HW223445   3.937   1.214  16.007 -0.0812  0.1902  0.7377
 3937SOL     OW23446   2.397   0.126   3.051  0.0902 -0.0509  0.1205
 3937SOL    HW123447   2.327   0.103   3.112 -0.5777 -1.1843 -1.0859
 3937SOL    HW223448   2.417   0.215   3.080 -0.5278 -0.4277  1.6999
 3938SOL     OW23449   2.594   3.053   9.188  0.0276  0.7352 -0.1015
 3938SOL    HW123450   2.673   3.105   9.206  0.1652 -0.1523  1.8886
 3938SOL    HW223451   2.593   3.035   9.094  0.3685 -1.0440  0.2448
 3939SOL     OW23452   0.899   1.409  16.700  0.2535 -0.0413  0.2502
 3939SOL    HW123453   0.870   1.410  16.609  2.6466  3.2185 -0.4821
 3939SOL    HW223454   0.818   1.405  16.751  0.1981 -3.1657 -0.1241
 3940SOL     OW23455   1.823   2.118   1.779 -0.4251  0.6441 -0.1195
 3940SOL    HW123456   1.773   2.036   1.782  0.0932  0.2361 -2.6217
 3940SOL    HW223457   1.807   2.131   1.686 -0.7598 -0.3606 -0.1964
 3941SOL     OW23458   0.299   3.571   2.744  0.4114  0.2804  0.0663
 3941SOL    HW123459   0.383   3.609   2.772 -0.5003  2.9141 -0.7218
 3941SOL    HW223460   0.323   3.480   2.728 -3.8699 -0.8557  0.1495
 3942SOL     OW23461   4.481   2.328   5.390  0.1671  0.5480 -0.0819
 3942SOL    HW123462   4.386   2.313   5.395  0.0472  1.3400  0.1010
 3942SOL    HW223463   4.490   2.399   5.326  1.4639  0.4857  0.0483
 3943SOL     OW23464   0.613   2.689   7.908  0.1405  0.1047 -0.4842
 3943SOL    HW123465   0.607   2.745   7.830  1.0532  1.2691  0.2686
 3943SOL    HW223466   0.705   2.668   7.923  0.0097  0.5187  0.9163
 3944SOL     OW23467   0.736   1.520   1.196  0.1328  0.3912  0.2479
 3944SOL    HW123468   0.788   1.598   1.215  0.3821  1.0266 -3.1396
 3944SOL    HW223469   0.758   1.522   1.103  0.3354  2.8858  0.3552
 3945SOL     OW23470   1.852   4.171  16.691  0.1568  0.0012  0.2828
 3945SOL    HW123471   1.904   4.097  16.659  0.6192 -0.0699  1.2063
 3945SOL    HW223472   1.860   4.237  16.622  0.5814 -0.2561  0.0789
 3946SOL     OW23473   1.208   2.321   7.952 -0.1744 -0.2909 -0.2365
 3946SOL    HW123474   1.295   2.307   7.912 -0.9731 -1.8260 -1.4474
 3946SOL    HW223475   1.201   2.417   7.945  1.7643  0.0013  1.9590
 3947SOL     OW23476   1.810   3.818   5.573 -0.0893 -0.1383 -0.2444
 3947SOL    HW123477   1.734   3.811   5.515 -0.5117  1.5912  0.1096
 3947SOL    HW223478   1.873   3.782   5.510  0.1154 -0.8186  0.3457
 3948SOL     OW23479   2.310   3.895  13.309  0.7987  0.2564  0.4214
 3948SOL    HW123480   2.343   3.969  13.360  0.7955 -0.3890  1.3594
 3948SOL    HW223481   2.243   3.855  13.365  2.1159  1.6750  2.9925
 3949SOL     OW23482   0.736   2.380   4.959 -0.2892 -0.2888 -0.0802
 3949SOL    HW123483   0.762   2.466   4.927  1.8145 -0.5731  0.8381
 3949SOL    HW223484   0.758   2.334   4.878 -0.2503  0.6863 -0.6169
 3950SOL     OW23485   0.087   4.412  17.681 -0.3716 -0.0787 -0.5277
 3950SOL    HW123486   0.177   4.428  17.710 -0.7240 -0.1858  0.6335
 3950SOL    HW223487   0.065   4.346   0.007  1.3154 -3.4687 -3.3178
 3951SOL     OW23488   4.356   1.833  11.729  0.0127 -0.4731  0.0202
 3951SOL    HW123489   4.338   1.751  11.775 -0.3439 -0.7241 -0.5554
 3951SOL    HW223490   4.366   1.794  11.642  0.5483 -1.9454  0.7449
 3952SOL     OW23491   0.574   2.315   3.409  0.0319 -0.3609 -0.0978
 3952SOL    HW123492   0.532   2.389   3.453  0.8972  0.5190 -0.7644
 3952SOL    HW223493   0.537   2.247   3.465 -0.3327  1.8553  2.3122
 3953SOL     OW23494   4.210   2.566   2.867 -0.4741 -0.0027 -0.5191
 3953SOL    HW123495   4.289   2.513   2.861  0.4310  1.5279 -2.1984
 3953SOL    HW223496   4.237   2.636   2.808  1.5761 -0.5498 -0.2355
 3954SOL     OW23497   3.414   0.155   8.655 -0.0562 -0.1956  0.4416
 3954SOL    HW123498   3.430   0.235   8.706  0.9575 -1.2141  1.7089
 3954SOL    HW223499   3.494   0.147   8.603  0.2527 -0.2580  0.9275
 3955SOL     OW23500   3.919   0.828   9.795 -0.7638 -0.0487 -0.6355
 3955SOL    HW123501   3.956   0.915   9.810 -0.7102 -0.2372  0.3767
 3955SOL    HW223502   3.992   0.772   9.770 -1.0120 -0.1041 -1.2229
 3956SOL     OW23503   0.404   1.036   7.737 -0.1226 -0.4928 -0.0849
 3956SOL    HW123504   0.355   1.054   7.657  1.3762 -0.3968 -0.9779
 3956SOL    HW223505   0.483   1.086   7.718 -0.3129 -0.4187 -0.6870
 3957SOL     OW23506   2.182   4.328   5.289 -0.5809  0.0131 -0.4905
 3957SOL    HW123507   2.147   4.328   5.200 -1.8511 -0.9608  0.0118
 3957SOL    HW223508   2.168   4.237   5.315  1.2122  0.3682  1.6739
 3958SOL     OW23509   2.018   3.778   2.479  0.4965  0.2254  0.2319
 3958SOL    HW123510   1.980   3.779   2.391 -2.1818 -0.7220  1.3836
 3958SOL    HW223511   2.066   3.860   2.477 -1.4245  1.4014  1.9320
 3959SOL     OW23512   3.962   3.577   1.010  0.3026  0.3888  0.3506
 3959SOL    HW123513   3.894   3.644   1.013  0.1174  0.0516  3.1487
 3959SOL    HW223514   4.031   3.621   1.058 -1.0495  0.5282  2.1670
 3960SOL     OW23515   2.145   1.342   7.237  0.0924  0.0884  0.1354
 3960SOL    HW123516   2.103   1.263   7.272 -0.5323  0.5567  0.4323
 3960SOL    HW223517   2.179   1.388   7.314  1.0282 -0.3963  0.0113
 3961SOL     OW23518   1.039   3.524   8.904  0.3449  0.3865 -0.3507
 3961SOL    HW123519   0.958   3.575   8.899 -0.6862 -1.2671 -0.8101
 3961SOL    HW223520   0.990   3.445   8.926 -0.6209  1.5753  1.7656
 3962SOL     OW23521   3.246   0.046   7.987 -0.0791  0.3285 -0.2409
 3962SOL    HW123522   3.226   0.108   8.057  1.6704 -1.7740  2.1276
 3962SOL    HW223523   3.201   4.700   8.011  1.9664 -0.7498  0.0154
 3963SOL     OW23524   3.599   3.100   6.856  0.3816 -0.1376  0.0177
 3963SOL    HW123525   3.566   3.171   6.911  0.8351  0.5486 -0.6068
 3963SOL    HW223526   3.566   3.125   6.770  0.2277 -1.5027 -0.3228
 3964SOL     OW23527   0.884   2.678   7.946 -0.2624  0.1293 -0.2848
 3964SOL    HW123528   0.908   2.586   7.933 -1.3423 -0.2869  0.7143
 3964SOL    HW223529   0.937   2.688   8.025  0.6687 -0.5576 -0.8141
 3965SOL     OW23530   3.861   0.215  17.132 -0.3735  0.0734  0.0433
 3965SOL    HW123531   3.784   0.183  17.084 -0.7113  0.4910  0.3139
 3965SOL    HW223532   3.913   0.134  17.131  0.1842  0.4429 -1.1344
 3966SOL     OW23533   4.446   3.094   5.834  0.0132  0.0083  0.2602
 3966SOL    HW123534   4.386   3.108   5.907 -0.5958 -0.7624 -0.0884
 3966SOL    HW223535   4.530   3.070   5.874 -0.2833 -1.4696  0.0067
 3967SOL     OW23536   3.403   4.443  14.397 -0.5202 -1.0013 -0.0249
 3967SOL    HW123537   3.498   4.426  14.398  0.0140  1.9239 -0.6307
 3967SOL    HW223538   3.373   4.377  14.460 -0.9977 -0.2960  0.4875
 3968SOL     OW23539   3.060   3.616  15.947  0.1066 -0.0428  0.6965
 3968SOL    HW123540   3.089   3.704  15.922  1.3694 -0.4534  0.7275
 3968SOL    HW223541   2.973   3.624  15.985  0.1528  2.0987  0.3404
 3969SOL     OW23542   0.841   2.198   7.503 -0.5560  0.2727  0.1875
 3969SOL    HW123543   0.909   2.173   7.441 -0.4668 -2.4966  1.4055
 3969SOL    HW223544   0.865   2.140   7.575  1.1908  1.9335  0.9690
 3970SOL     OW23545   1.062   2.792   9.867 -0.4880  0.0214 -0.4921
 3970SOL    HW123546   1.031   2.795   9.777 -0.4737 -1.5968 -0.5575
 3970SOL    HW223547   1.018   2.869   9.903 -1.5652 -0.4670 -0.7754
 3971SOL     OW23548   0.105   2.817   2.056 -0.7826  0.0266 -0.3736
 3971SOL    HW123549   0.145   2.881   1.997  0.7639 -0.3205  0.2966
 3971SOL    HW223550   0.106   2.736   2.005  1.1207  1.1126 -2.0798
 3972SOL     OW23551   0.133   1.357  16.288  0.4518  0.3447  0.3084
 3972SOL    HW123552   0.135   1.413  16.210 -1.3147  0.8237  0.6139
 3972SOL    HW223553   0.062   1.400  16.335  1.0682  1.2542  0.4219
 3973SOL     OW23554   2.396   2.961   9.691 -0.0948 -0.1408  0.4857
 3973SOL    HW123555   2.460   3.009   9.744 -0.6277 -0.0606  1.0638
 3973SOL    HW223556   2.377   2.889   9.752 -0.1421 -2.7130 -2.5832
 3974SOL     OW23557   0.587   2.741   0.288  0.5999  0.1918  0.0218
 3974SOL    HW123558   0.497   2.726   0.314  0.8782  1.6860  1.8421
 3974SOL    HW223559   0.586   2.832   0.259  3.0904  0.6487  1.2745
 3975SOL     OW23560   2.586   4.322   9.378  0.3227  0.0333  0.0389
 3975SOL    HW123561   2.576   4.262   9.304  0.1835  0.3268 -0.1806
 3975SOL    HW223562   2.524   4.281   9.438 -0.5403  0.8908 -0.2674
 3976SOL     OW23563   2.350   0.327   6.412  0.1726 -0.4571  0.6323
 3976SOL    HW123564   2.353   0.250   6.469  0.6304  2.2755  4.2730
 3976SOL    HW223565   2.438   0.316   6.376  0.0646 -2.7378  1.0572
 3977SOL     OW23566   3.065   2.853   7.097 -0.4518 -0.1404 -0.2864
 3977SOL    HW123567   3.007   2.919   7.059  1.4140  0.6603 -1.7269
 3977SOL    HW223568   3.015   2.774   7.080  0.0267  0.1225 -2.9227
 3978SOL     OW23569   4.259   0.573   8.653 -0.2215 -0.1482 -0.0750
 3978SOL    HW123570   4.214   0.512   8.594 -1.8233  0.8254  0.1426
 3978SOL    HW223571   4.347   0.562   8.619 -0.0256  1.7557 -0.1765
 3979SOL     OW23572   3.238   4.651   3.422 -0.1561  0.2694  0.3517
 3979SOL    HW123573   3.202   0.001   3.401 -0.2430  0.8055  2.6861
 3979SOL    HW223574   3.264   4.618   3.336 -0.0069  2.3064 -0.3828
 3980SOL     OW23575   4.068   4.172   2.188 -0.1650  0.1943 -0.3892
 3980SOL    HW123576   4.076   4.254   2.139 -1.0708  0.2511 -0.4413
 3980SOL    HW223577   4.159   4.141   2.190  0.1000  0.9265 -0.6724
 3981SOL     OW23578   3.134   1.730  14.830  0.3460 -0.4243 -0.2714
 3981SOL    HW123579   3.066   1.676  14.789 -0.2082  0.3426 -0.3483
 3981SOL    HW223580   3.105   1.739  14.920  0.8651 -1.0727 -0.0311
 3982SOL     OW23581   1.179   0.660  12.975 -0.3237 -0.2022 -0.6789
 3982SOL    HW123582   1.100   0.706  13.002 -0.1589  0.8917 -2.0282
 3982SOL    HW223583   1.207   0.609  13.051  0.6300 -0.5427 -1.2548
 3983SOL     OW23584   3.959   0.979   1.639  0.4881  0.2843 -0.0131
 3983SOL    HW123585   4.034   1.013   1.687 -1.6404 -0.4427  3.7952
 3983SOL    HW223586   3.993   0.977   1.549  2.6372 -1.7945  0.8720
 3984SOL     OW23587   4.618   2.590  14.120 -0.8401  0.1970  0.0514
 3984SOL    HW123588   4.571   2.648  14.061 -0.4387  0.2016 -0.2645
 3984SOL    HW223589   4.566   2.510  14.129 -1.3110  0.3124 -1.7408
 3985SOL     OW23590   3.648   3.440   2.078  0.2122 -0.2197  0.8436
 3985SOL    HW123591   3.638   3.367   2.138  2.0371  0.4973  2.0230
 3985SOL    HW223592   3.572   3.423   2.022  0.6300 -2.8539  1.0916
 3986SOL     OW23593   1.887   0.139   7.835  0.3156 -0.0122 -0.6572
 3986SOL    HW123594   1.975   0.111   7.862  0.3092  0.4069 -0.1951
 3986SOL    HW223595   1.901   0.208   7.770 -1.0895  0.6581 -0.2327
 3987SOL     OW23596   2.020   2.083   7.851  0.6353  0.3166 -0.3671
 3987SOL    HW123597   1.989   2.059   7.938 -1.5773  0.9626 -0.9585
 3987SOL    HW223598   2.115   2.083   7.859  0.6931  0.4042 -1.0132
 3988SOL     OW23599   4.333   3.840   2.666 -0.0452 -0.2613 -0.8354
 3988SOL    HW123600   4.244   3.876   2.665  0.8030  1.8231 -0.4266
 3988SOL    HW223601   4.318   3.750   2.695 -2.8873  0.1136 -1.1108
 3989SOL     OW23602   0.117   0.166  14.775 -0.8420  0.4203  0.1671
 3989SOL    HW123603   0.022   0.150  14.771 -0.6890 -0.1400 -1.1325
 3989SOL    HW223604   0.145   0.170  14.684  0.6294 -0.2207  0.5899
 3990SOL     OW23605   0.629   4.105  17.718 -0.2229  0.3655  1.0175
 3990SOL    HW123606   0.629   4.149  17.633 -3.2200 -1.2447  0.1741
 3990SOL    HW223607   0.634   4.179   0.039 -0.2643  1.2481 -0.0493
 3991SOL     OW23608   0.324   3.579   3.780 -0.0436 -0.8876  0.1075
 3991SOL    HW123609   0.290   3.656   3.734 -0.7907 -1.1673  0.1866
 3991SOL    HW223610   0.336   3.616   3.868  0.0163 -1.9526  0.5518
 3992SOL     OW23611   3.505   3.447   8.054 -0.6488  0.7320  0.6869
 3992SOL    HW123612   3.529   3.354   8.062 -0.8492  0.5613 -0.7059
 3992SOL    HW223613   3.588   3.488   8.079 -0.1555  0.7229 -0.9254
 3993SOL     OW23614   4.638   4.150   2.518 -0.8197  0.1424 -0.3328
 3993SOL    HW123615   4.655   4.092   2.592  1.5499 -0.1887 -1.1554
 3993SOL    HW223616   4.692   4.117   2.446  1.4140 -1.8970  2.3012
 3994SOL     OW23617   0.528   2.154   7.620 -0.0459 -0.1115 -0.0337
 3994SOL    HW123618   0.566   2.184   7.537  1.4298  1.1975  1.1133
 3994SOL    HW223619   0.570   2.069   7.633 -1.1303 -0.5406  0.5910
 3995SOL     OW23620   3.707   3.944  11.206  0.1631 -0.4140  0.0672
 3995SOL    HW123621   3.738   3.854  11.209  0.7191 -0.2173  0.2135
 3995SOL    HW223622   3.634   3.925  11.147 -0.9974  0.2868  1.2560
 3996SOL     OW23623   3.067   2.557   7.517 -0.4242 -0.2974  0.5296
 3996SOL    HW123624   3.006   2.487   7.491 -1.9564  1.1020  0.3096
 3996SOL    HW223625   3.140   2.556   7.456 -0.8540 -0.4344  0.0110
 3997SOL     OW23626   2.583   4.499   8.739  0.5355  0.0525 -0.4543
 3997SOL    HW123627   2.605   4.467   8.827  2.0017  1.5284 -0.3094
 3997SOL    HW223628   2.589   4.591   8.764  0.6007 -0.5494  1.7152
 3998SOL     OW23629   2.091   3.323   6.366  0.2966 -0.3559  0.1338
 3998SOL    HW123630   2.124   3.244   6.325  1.8610 -0.8071  2.2698
 3998SOL    HW223631   2.149   3.389   6.331  1.6159 -0.4374  2.1467
 3999SOL     OW23632   0.884   1.433   3.198 -0.2209  0.4333 -0.6718
 3999SOL    HW123633   0.938   1.461   3.123  0.8536  1.3711  0.4524
 3999SOL    HW223634   0.800   1.450   3.154 -0.9568  0.4185  0.7188
 4000SOL     OW23635   2.273   1.265   7.750  0.2873 -0.0312  0.6297
 4000SOL    HW123636   2.352   1.212   7.745  0.2183 -0.2316  1.8454
 4000SOL    HW223637   2.254   1.262   7.656 -0.9486  1.9916  0.8074
 4001SOL     OW23638   2.536   0.361   5.089 -0.1415  0.4737 -0.6502
 4001SOL    HW123639   2.583   0.438   5.056  1.0009 -0.3324 -0.9387
 4001SOL    HW223640   2.589   0.342   5.166 -2.2232 -1.2876  0.3378
 4002SOL     OW23641   1.524   1.381   4.281  0.2926  0.2255  0.1073
 4002SOL    HW123642   1.532   1.391   4.376 -1.9929  1.2222  0.2074
 4002SOL    HW223643   1.465   1.450   4.251  0.9824  0.7923  0.0773
 4003SOL     OW23644   1.391   1.252   6.367  0.4742 -0.0869  0.4080
 4003SOL    HW123645   1.451   1.307   6.419 -0.0748 -0.8483  1.8490
 4003SOL    HW223646   1.325   1.233   6.434 -1.5433  1.4751 -1.1291
 4004SOL     OW23647   1.319   4.689   7.159  0.5169 -0.1847 -0.4544
 4004SOL    HW123648   1.238   4.639   7.148  0.2740 -0.1142  1.0129
 4004SOL    HW223649   1.293   0.045   7.171 -1.4751 -0.7915 -0.1612
 4005SOL     OW23650   1.303   3.067  15.024  0.0975 -0.0930  0.1537
 4005SOL    HW123651   1.337   3.087  14.937 -0.5491 -0.8655 -0.2727
 4005SOL    HW223652   1.365   2.999  15.053 -1.3019 -1.7818 -0.7924
 4006SOL     OW23653   0.284   0.227  14.287 -0.6672 -0.4495  0.0598
 4006SOL    HW123654   0.362   0.265  14.247 -0.0099  0.5187  2.2651
 4006SOL    HW223655   0.269   0.150  14.233 -1.6534 -0.3543  0.1830
 4007SOL     OW23656   2.153   4.329   1.531  0.0508 -0.4160  0.1735
 4007SOL    HW123657   2.132   4.235   1.527 -2.1934  0.0658  0.2696
 4007SOL    HW223658   2.078   4.355   1.586  0.0161  0.3879 -0.2479
 4008SOL     OW23659   0.717   1.026   0.976 -0.4150 -0.6895 -0.0747
 4008SOL    HW123660   0.774   1.065   0.910  0.9400  0.0254  1.5289
 4008SOL    HW223661   0.767   0.946   0.992  0.8058 -0.2466 -1.8055
 4009SOL     OW23662   3.284   4.648  13.829 -0.2822 -0.2343 -0.0886
 4009SOL    HW123663   3.227   4.671  13.902  0.5186 -1.7304  1.0005
 4009SOL    HW223664   3.356   4.712  13.836  0.2465 -0.8916  0.4698
 4010SOL     OW23665   2.088   1.256   7.989  0.1487  0.1974  0.2211
 4010SOL    HW123666   1.997   1.253   7.960  0.0141 -0.2747  0.6930
 4010SOL    HW223667   2.136   1.236   7.909  0.9397 -0.0392  0.7598
 4011SOL     OW23668   3.275   0.737  13.199 -0.2437 -0.0299 -0.5340
 4011SOL    HW123669   3.308   0.808  13.144 -0.4818  0.4955 -0.0010
 4011SOL    HW223670   3.205   0.786  13.243 -0.8166  0.6869 -2.2671
 4012SOL     OW23671   0.586   1.266   2.212  0.3727  0.2693  0.4725
 4012SOL    HW123672   0.578   1.197   2.277  0.4587  1.6522  1.9437
 4012SOL    HW223673   0.639   1.232   2.140 -0.3407  1.5285 -0.6404
 4013SOL     OW23674   1.854   2.246   2.440  0.2392  0.7006 -0.1938
 4013SOL    HW123675   1.803   2.168   2.422 -0.9500  1.6629 -1.0083
 4013SOL    HW223676   1.857   2.237   2.535  1.1992 -0.9026 -0.3839
 4014SOL     OW23677   0.134   1.807   5.460  0.2761  0.1883  0.0044
 4014SOL    HW123678   0.105   1.719   5.436 -0.5044  1.0118 -2.1361
 4014SOL    HW223679   0.220   1.811   5.418  0.3883 -0.6809  0.1567
 4015SOL     OW23680   2.642   0.445   2.852  0.0236 -0.0018 -0.1026
 4015SOL    HW123681   2.695   0.373   2.885 -1.3305  0.8595  3.9629
 4015SOL    HW223682   2.644   0.510   2.922  1.3474 -0.2231  0.0584
 4016SOL     OW23683   1.286   1.716   7.714 -0.3229  0.7669 -0.8975
 4016SOL    HW123684   1.208   1.719   7.770 -0.5558 -1.4991 -1.1136
 4016SOL    HW223685   1.249   1.694   7.629  0.5180 -1.7624 -0.6130
 4017SOL     OW23686   4.389   4.358   2.261 -0.1729 -0.2275 -0.1960
 4017SOL    HW123687   4.389   4.262   2.265  0.4624 -0.2714 -1.1383
 4017SOL    HW223688   4.309   4.378   2.212  0.4863 -0.4091 -1.3524
 4018SOL     OW23689   4.628   3.821   6.878 -0.2016 -0.0544 -0.3861
 4018SOL    HW123690   4.648   3.911   6.854 -0.1537  0.1735  0.5072
 4018SOL    HW223691   4.538   3.822   6.911  1.3199  0.5709  3.7306
 4019SOL     OW23692   3.274   1.620   9.402 -0.5905  0.0934 -0.3881
 4019SOL    HW123693   3.319   1.552   9.453  0.8091  0.1126 -1.6037
 4019SOL    HW223694   3.192   1.581   9.371 -1.3479  0.6765  0.8734
 4020SOL     OW23695   3.927   3.461   2.134 -0.4167  0.0015 -0.2222
 4020SOL    HW123696   3.836   3.463   2.105 -0.6506  2.3189  0.6428
 4020SOL    HW223697   3.954   3.548   2.105 -1.5677  0.4811  0.1488
 4021SOL     OW23698   4.359   4.002   9.471  0.1038  0.3970  0.0730
 4021SOL    HW123699   4.296   4.063   9.433 -0.4922  0.0521  0.4999
 4021SOL    HW223700   4.407   3.985   9.390 -0.1042 -0.3555  0.1019
 4022SOL     OW23701   4.513   2.486   4.372  0.0634  0.7220  0.1010
 4022SOL    HW123702   4.487   2.444   4.290 -1.6075 -0.6229  1.3327
 4022SOL    HW223703   4.603   2.452   4.379 -0.5525 -0.9025  0.1459
 4023SOL     OW23704   0.282   1.575   3.450  0.1173 -0.3838 -0.0023
 4023SOL    HW123705   0.304   1.564   3.358  2.3438  1.2882  0.3238
 4023SOL    HW223706   0.187   1.588   3.453  0.1308 -0.1213 -0.8082
 4024SOL     OW23707   4.126   3.983  12.168 -0.1070  0.1199 -0.0569
 4024SOL    HW123708   4.189   4.036  12.120 -2.5676  3.5983  0.6024
 4024SOL    HW223709   4.150   3.891  12.153  0.7924  0.0912  1.5831
 4025SOL     OW23710   2.661   2.605   7.938 -0.0070  0.4048 -0.3045
 4025SOL    HW123711   2.729   2.669   7.913 -1.9601  1.9988 -1.5200
 4025SOL    HW223712   2.630   2.646   8.018  2.4503 -1.1412  1.4223
 4026SOL     OW23713   1.778   2.594   1.854 -0.0905  0.7069 -0.5830
 4026SOL    HW123714   1.815   2.570   1.768 -0.2674  0.4199 -0.5781
 4026SOL    HW223715   1.703   2.649   1.832 -0.0798  0.7862 -0.4167
 4027SOL     OW23716   4.126   3.807  13.923 -0.2633  0.1088 -0.1808
 4027SOL    HW123717   4.220   3.792  13.930  0.2030  2.2227 -2.0166
 4027SOL    HW223718   4.126   3.901  13.937  0.6882 -0.0074  0.5634
 4028SOL     OW23719   3.730   2.550  11.555 -0.5141 -0.2904  0.1243
 4028SOL    HW123720   3.814   2.505  11.543 -0.0062  0.2082  1.7490
 4028SOL    HW223721   3.742   2.576  11.646  1.1558  2.0165 -0.7536
 4029SOL     OW23722   2.581   1.321   6.777  0.2062 -0.7259 -0.5901
 4029SOL    HW123723   2.493   1.285   6.767  0.3429 -0.6737 -1.9247
 4029SOL    HW223724   2.631   1.278   6.707 -0.8408  0.2032 -1.8869
 4030SOL     OW23725   4.562   1.726   6.555 -0.4033 -0.3279 -0.0585
 4030SOL    HW123726   4.654   1.750   6.563 -0.7238  1.0847 -0.6231
 4030SOL    HW223727   4.571   1.631   6.565  1.8583 -0.0762  0.2737
 4031SOL     OW23728   3.993   0.541   1.204 -0.7372  0.2230 -0.5356
 4031SOL    HW123729   4.019   0.582   1.121  0.3595 -2.4587 -1.5249
 4031SOL    HW223730   3.934   0.474   1.169 -1.9038  1.0196 -0.0800
 4032SOL     OW23731   4.125   3.124   1.009  0.4793  0.0885 -0.5483
 4032SOL    HW123732   4.125   3.133   1.105  0.5934  1.4553 -0.6875
 4032SOL    HW223733   4.187   3.051   1.004  1.5846  0.8164  2.7640
 4033SOL     OW23734   0.764   3.102  13.482 -0.3873 -0.0493 -0.0664
 4033SOL    HW123735   0.743   3.043  13.410 -1.9483  0.2608  0.1334
 4033SOL    HW223736   0.835   3.154  13.444  0.8693 -1.9202 -0.2870
 4034SOL     OW23737   2.051   4.235   7.458  0.3480 -0.1799 -0.4538
 4034SOL    HW123738   2.073   4.236   7.364  1.0066  1.7653 -0.2764
 4034SOL    HW223739   2.141   4.252   7.488  0.7659 -0.6583 -1.4254
 4035SOL     OW23740   1.520   0.190   5.386 -0.1505 -0.3109 -0.1777
 4035SOL    HW123741   1.433   0.177   5.423 -0.7115 -1.1532 -1.7625
 4035SOL    HW223742   1.508   0.129   5.313  0.4758 -1.2762  0.5299
 4036SOL     OW23743   1.036   1.146   2.398  0.0399 -0.1436  0.2105
 4036SOL    HW123744   1.010   1.178   2.311 -0.0025 -1.4441 -0.2475
 4036SOL    HW223745   0.955   1.170   2.444 -1.1691 -1.7278 -1.1129
 4037SOL     OW23746   3.431   1.653   8.822  0.5434 -0.0914 -0.1149
 4037SOL    HW123747   3.454   1.745   8.838 -0.3111  0.0434  0.3586
 4037SOL    HW223748   3.383   1.633   8.902  2.2944 -0.4111  0.8471
 4038SOL     OW23749   0.694   1.342   9.661 -0.1154 -0.0236  0.1985
 4038SOL    HW123750   0.674   1.387   9.742 -0.7526  0.9508 -0.5001
 4038SOL    HW223751   0.699   1.251   9.690  0.1815  0.4279  1.5416
 4039SOL     OW23752   1.481   2.811   1.166  0.3098 -0.0895  0.0110
 4039SOL    HW123753   1.410   2.849   1.219  1.9488  0.5131  1.7722
 4039SOL    HW223754   1.561   2.849   1.202 -0.8843 -1.0968  3.7936
 4040SOL     OW23755   4.384   0.877   0.891  0.2058 -0.3762 -0.0581
 4040SOL    HW123756   4.296   0.901   0.920  1.3728  1.5478  1.9158
 4040SOL    HW223757   4.373   0.850   0.800 -2.2979  1.6197 -0.3237
 4041SOL     OW23758   3.717   0.817   8.242  0.0217 -0.5227 -0.0523
 4041SOL    HW123759   3.725   0.875   8.166  0.9952 -0.7832 -0.1486
 4041SOL    HW223760   3.809   0.795   8.258  0.0080 -1.5451 -1.3062
 4042SOL     OW23761   2.429   0.938   8.789 -0.1761 -0.2910 -0.2341
 4042SOL    HW123762   2.438   0.877   8.716  0.0617  0.7550 -1.0977
 4042SOL    HW223763   2.344   0.914   8.825  0.2498 -1.0191  0.3004
 4043SOL     OW23764   4.391   1.065   5.589 -0.3160 -0.3319 -0.3538
 4043SOL    HW123765   4.391   1.136   5.526  2.9861 -1.3304 -1.4555
 4043SOL    HW223766   4.342   1.106   5.661  0.6732 -1.5316  1.0127
 4044SOL     OW23767   2.449   4.111   2.842 -0.1866 -0.2039  0.2199
 4044SOL    HW123768   2.412   4.146   2.762 -0.3695 -1.2080 -0.1274
 4044SOL    HW223769   2.441   4.017   2.825 -0.3408 -0.1359 -0.0704
 4045SOL     OW23770   2.082   1.596   3.891 -0.4153 -0.0069  0.1235
 4045SOL    HW123771   2.083   1.675   3.945  0.2869  0.7845 -1.0278
 4045SOL    HW223772   2.165   1.598   3.842  0.4218  0.5320  1.5576
 4046SOL     OW23773   0.011   4.583   6.715 -0.2577 -0.0588 -0.2814
 4046SOL    HW123774   0.036   4.665   6.758  1.5420  0.8110 -2.9983
 4046SOL    HW223775   0.017   4.520   6.787  1.9869  1.4387  0.8476
 4047SOL     OW23776   1.132   2.134  16.262  0.0850 -0.3530 -0.1828
 4047SOL    HW123777   1.061   2.199  16.269  1.2645  0.8214  0.9816
 4047SOL    HW223778   1.105   2.073  16.330  1.7069 -1.5852 -0.6575
 4048SOL     OW23779   1.647   1.433   6.132  0.5246 -0.3029 -0.8194
 4048SOL    HW123780   1.581   1.367   6.154 -2.0131  3.2053  2.1069
 4048SOL    HW223781   1.731   1.392   6.156  1.0366  0.0222 -2.0789
 4049SOL     OW23782   3.510   1.898  17.472  0.1379 -0.5002  0.6141
 4049SOL    HW123783   3.518   1.871  17.381  1.0385  0.7775  0.3136
 4049SOL    HW223784   3.468   1.823  17.514  1.1634 -0.1479  2.2824
 4050SOL     OW23785   3.190   0.778   4.079 -0.2464  0.1348 -0.2166
 4050SOL    HW123786   3.128   0.735   4.020 -1.8328  0.0894  1.5056
 4050SOL    HW223787   3.134   0.853   4.099  0.4418  1.0951 -1.8558
 4051SOL     OW23788   0.779   4.432   6.333 -0.1586  0.0203  0.0951
 4051SOL    HW123789   0.860   4.421   6.384 -0.9714 -0.6601  1.2585
 4051SOL    HW223790   0.720   4.365   6.367 -1.4195  0.1277 -1.8936
 4052SOL     OW23791   2.722   3.282   0.907 -0.0658  1.0358  0.3212
 4052SOL    HW123792   2.737   3.275   0.813 -0.2677  1.8542  0.2250
 4052SOL    HW223793   2.634   3.244   0.902 -0.2216  1.3046  1.0705
 4053SOL     OW23794   2.559   2.320   3.027 -0.8125  0.5641 -0.2038
 4053SOL    HW123795   2.466   2.336   3.014 -1.1571 -2.6858 -1.7433
 4053SOL    HW223796   2.558   2.236   3.072 -2.6004  1.5846  1.6634
 4054SOL     OW23797   3.858   1.346   5.258 -0.2511 -0.2589  0.0814
 4054SOL    HW123798   3.792   1.354   5.326  0.7128  1.2913  0.8493
 4054SOL    HW223799   3.936   1.325   5.310 -1.9895 -2.0577  1.9350
 4055SOL     OW23800   1.908   3.306  14.818 -0.4155 -0.1459  0.1926
 4055SOL    HW123801   1.962   3.288  14.894  0.1676  2.0864  0.3131
 4055SOL    HW223802   1.967   3.366  14.771  0.6376 -1.1486  0.2195
 4056SOL     OW23803   4.669   2.882  15.341  0.0641  0.3980 -0.2108
 4056SOL    HW123804   4.683   2.788  15.328  5.5468  1.1266  0.2939
 4056SOL    HW223805   4.668   2.914  15.250  0.9783  1.3774  0.1203
 4057SOL     OW23806   2.749   1.776   6.473  0.3322  0.3366  0.1845
 4057SOL    HW123807   2.707   1.757   6.389  0.4013  1.0826 -0.0179
 4057SOL    HW223808   2.678   1.769   6.537  0.0461 -2.2489 -0.3982
 4058SOL     OW23809   4.566   2.142   3.142 -0.5237  0.0514 -0.3465
 4058SOL    HW123810   4.623   2.219   3.149 -0.7362  0.3562 -2.0784
 4058SOL    HW223811   4.628   2.070   3.137 -0.7314 -0.2466  1.3351
 4059SOL     OW23812   0.241   1.500   5.749 -0.7526  0.9831 -0.1962
 4059SOL    HW123813   0.217   1.588   5.776 -2.6148  0.3046  0.3262
 4059SOL    HW223814   0.332   1.503   5.719 -0.8850 -2.0274 -0.9150
 4060SOL     OW23815   4.304   2.199  11.661  0.0448 -0.4566 -0.0236
 4060SOL    HW123816   4.387   2.245  11.647  0.6798 -1.3629  0.7104
 4060SOL    HW223817   4.330   2.108  11.674 -1.8883 -0.8577  0.9812
 4061SOL     OW23818   1.443   2.999   9.391  0.6257  0.2647  0.0492
 4061SOL    HW123819   1.444   3.056   9.314  1.8109 -1.0076 -0.8802
 4061SOL    HW223820   1.507   2.931   9.369 -0.4629 -1.0888  1.0509
 4062SOL     OW23821   1.992   3.489   1.845 -0.3533  0.4940 -0.1380
 4062SOL    HW123822   1.997   3.448   1.759 -0.9386  0.2214 -0.0380
 4062SOL    HW223823   1.900   3.515   1.845 -0.9558 -1.6273 -2.1078
 4063SOL     OW23824   3.043   3.258   8.331 -0.5711  0.6318  0.1422
 4063SOL    HW123825   3.122   3.209   8.309 -0.5647 -0.5023  2.6518
 4063SOL    HW223826   3.028   3.296   8.245  0.3645 -0.0549 -0.3200
 4064SOL     OW23827   4.329   4.555   0.425 -0.7375 -0.6107  0.2049
 4064SOL    HW123828   4.367   4.571   0.339  0.5840 -2.5588  0.4164
 4064SOL    HW223829   4.237   4.553   0.399 -0.6910  0.9481 -0.1079
 4065SOL     OW23830   2.470   0.674  11.915 -0.1836 -0.0229  0.4975
 4065SOL    HW123831   2.485   0.767  11.928 -0.5726 -0.2635  2.6894
 4065SOL    HW223832   2.538   0.646  11.854 -1.8871 -1.1371 -0.9210
 4066SOL     OW23833   0.261   4.236   1.178 -0.1169 -0.3085  0.1039
 4066SOL    HW123834   0.215   4.219   1.095 -1.2823  0.3831  0.6124
 4066SOL    HW223835   0.318   4.308   1.151  1.3832 -1.2747  0.6889
 4067SOL     OW23836   2.013   1.551   8.090 -0.1815  0.5718 -0.4170
 4067SOL    HW123837   1.973   1.501   8.161 -0.5134  1.8944  0.3288
 4067SOL    HW223838   2.095   1.503   8.083 -0.4364 -0.3139  2.7171
 4068SOL     OW23839   4.439   4.465   9.186 -0.2995 -0.3252  0.3258
 4068SOL    HW123840   4.493   4.388   9.201  1.1533  0.8920  1.3229
 4068SOL    HW223841   4.394   4.440   9.106  1.2295 -0.2957 -0.5410
 4069SOL     OW23842   3.263   2.050   4.664 -0.4331  0.1396 -0.5853
 4069SOL    HW123843   3.355   2.064   4.688 -0.7153 -0.2108  0.7174
 4069SOL    HW223844   3.220   2.132   4.688  0.7714  0.3186  0.9671
 4070SOL     OW23845   3.822   2.212   7.364 -0.1587  0.0421  0.4002
 4070SOL    HW123846   3.839   2.294   7.410  1.4007  0.6713 -1.2888
 4070SOL    HW223847   3.784   2.247   7.283 -3.0917 -0.7657  1.4073
 4071SOL     OW23848   2.019   2.951   9.482  0.1545  0.0795  0.5037
 4071SOL    HW123849   2.049   2.959   9.391  1.0185  2.4524  1.0008
 4071SOL    HW223850   2.093   2.996   9.522  0.6072  0.2331 -0.5114
 4072SOL     OW23851   1.373   0.113   9.492  0.1261 -0.0136 -0.1683
 4072SOL    HW123852   1.315   0.187   9.472 -0.2729 -0.0418  0.8688
 4072SOL    HW223853   1.458   0.147   9.519  0.5792  0.1913 -1.8670
 4073SOL     OW23854   4.337   4.721   9.214  0.1837  0.0605  0.3318
 4073SOL    HW123855   4.315   4.715   9.307  1.0086 -0.3139  0.4993
 4073SOL    HW223856   4.361   4.629   9.211 -2.4239 -0.6423  0.4943
 4074SOL     OW23857   2.372   1.680   5.401  0.7515 -0.4426 -0.3667
 4074SOL    HW123858   2.294   1.636   5.366  0.1172  1.2270 -1.0422
 4074SOL    HW223859   2.436   1.653   5.336 -0.3119 -0.9022 -1.2258
 4075SOL     OW23860   2.769   3.830   5.417  0.1787 -0.4977  0.4145
 4075SOL    HW123861   2.698   3.894   5.409  0.9345  0.3065  0.1215
 4075SOL    HW223862   2.735   3.772   5.349 -1.6006 -0.3883  1.2138
 4076SOL     OW23863   1.172   2.573   8.716  0.4489 -0.5155  0.6578
 4076SOL    HW123864   1.143   2.524   8.639 -1.6584  0.8432  0.5805
 4076SOL    HW223865   1.107   2.643   8.716  1.0793  0.0802  1.1906
 4077SOL     OW23866   0.677   1.133  14.635  0.3017 -0.0330  0.0475
 4077SOL    HW123867   0.654   1.221  14.665 -1.8763 -0.0223 -1.6287
 4077SOL    HW223868   0.601   1.078  14.653  0.2466 -0.7766 -2.5201
 4078SOL     OW23869   1.250   4.079   6.106 -0.6630 -0.1945 -0.1550
 4078SOL    HW123870   1.237   4.174   6.111  0.6334  0.0593 -1.4204
 4078SOL    HW223871   1.196   4.054   6.031 -2.3951 -0.8385  1.3094
 4079SOL     OW23872   3.215   1.969  13.441 -0.5233  0.1324 -0.3520
 4079SOL    HW123873   3.247   1.965  13.351 -0.4859 -0.2712 -0.3226
 4079SOL    HW223874   3.122   1.982  13.422 -0.6885  0.7591  0.8755
 4080SOL     OW23875   1.540   3.081   8.086  0.7732 -0.2248 -0.5989
 4080SOL    HW123876   1.460   3.046   8.047  0.6550  0.1346 -0.6796
 4080SOL    HW223877   1.498   3.151   8.135 -1.5322 -1.5740 -0.6490
 4081SOL     OW23878   3.162   2.012   9.337  0.2689 -0.5556 -0.0087
 4081SOL    HW123879   3.083   1.963   9.359  0.2170 -0.5748 -0.2450
 4081SOL    HW223880   3.196   1.962   9.264  2.0919  2.8186 -1.4818
 4082SOL     OW23881   1.656   2.052   8.553  0.0297  0.3345 -0.0556
 4082SOL    HW123882   1.623   2.026   8.639  0.5816  0.1007  0.0868
 4082SOL    HW223883   1.594   2.009   8.494 -0.5137 -1.5272  1.8880
 4083SOL     OW23884   0.138   1.007   3.857 -0.7232 -0.0675 -0.2417
 4083SOL    HW123885   0.147   1.101   3.873  1.2081 -0.1877 -0.7185
 4083SOL    HW223886   0.044   0.997   3.876 -0.9931  0.5552 -1.2292
 4084SOL     OW23887   4.220   0.257   1.200  0.0351  0.5297  0.4030
 4084SOL    HW123888   4.298   0.222   1.157 -0.1347  1.2257 -0.4638
 4084SOL    HW223889   4.172   0.294   1.127  0.3411 -0.1883 -0.1678
 4085SOL     OW23890   3.702   4.381  15.713 -0.3906  0.0771  0.9662
 4085SOL    HW123891   3.636   4.365  15.781 -1.3036 -0.9022 -0.1596
 4085SOL    HW223892   3.656   4.447  15.662  0.6360 -1.4940 -2.0189
 4086SOL     OW23893   2.594   2.647   7.130 -0.8399  0.8021  0.2399
 4086SOL    HW123894   2.630   2.655   7.218 -0.3712  0.3138  0.0876
 4086SOL    HW223895   2.517   2.704   7.140 -0.3253  2.0693 -3.1901
 4087SOL     OW23896   0.076   1.950   3.064  0.0214 -0.3568  0.0718
 4087SOL    HW123897   0.167   1.920   3.073  0.3679  1.0736  1.5235
 4087SOL    HW223898   0.022   1.881   3.101 -0.4093  0.9551  1.8964
 4088SOL     OW23899   3.029   3.680   3.780 -0.9287  0.3897  0.1917
 4088SOL    HW123900   3.035   3.774   3.762 -0.8400  0.5486  1.0441
 4088SOL    HW223901   3.111   3.644   3.747 -1.0005  0.6260 -0.2413
 4089SOL     OW23902   1.830   2.216   2.739 -0.5569 -0.3057 -0.4741
 4089SOL    HW123903   1.778   2.136   2.726 -3.4597  1.6285 -0.7353
 4089SOL    HW223904   1.907   2.167   2.770  0.7731  2.9652  1.4420
 4090SOL     OW23905   3.306   4.020   7.544 -0.1179 -0.0461 -0.2165
 4090SOL    HW123906   3.278   3.954   7.480  0.8840 -0.7122  0.0216
 4090SOL    HW223907   3.243   4.091   7.545  0.6382  0.6140  0.7160
 4091SOL     OW23908   1.478   2.125   5.372  0.2664 -0.3151 -0.3764
 4091SOL    HW123909   1.397   2.115   5.321 -1.3694  1.3411  1.9263
 4091SOL    HW223910   1.446   2.170   5.450  2.6252  0.9696 -0.1824
 4092SOL     OW23911   2.889   1.536  16.490 -0.8900 -0.2184 -0.1161
 4092SOL    HW123912   2.944   1.485  16.430  0.6016  1.6863 -0.3550
 4092SOL    HW223913   2.818   1.472  16.502 -0.5461 -0.6492 -0.3762
 4093SOL     OW23914   0.159   2.500   1.977 -0.5631 -0.3115  0.1988
 4093SOL    HW123915   0.084   2.460   1.934  0.5278 -0.1316 -1.8617
 4093SOL    HW223916   0.217   2.504   1.901 -1.6732 -2.1408 -0.7218
 4094SOL     OW23917   1.503   3.618   7.218 -0.0912 -0.1397  0.5561
 4094SOL    HW123918   1.541   3.585   7.136 -0.6510 -0.2833  0.3533
 4094SOL    HW223919   1.576   3.646   7.273 -0.5589  0.6738  0.7640
 4095SOL     OW23920   1.995   0.173   1.946  0.0827  0.1922  0.3759
 4095SOL    HW123921   2.055   0.124   1.891 -0.3932  1.2963 -1.1176
 4095SOL    HW223922   1.973   0.119   2.022 -0.0566 -1.3640 -0.7736
 4096SOL     OW23923   3.672   2.627   5.433  0.4335 -0.0688 -0.4236
 4096SOL    HW123924   3.651   2.649   5.524  1.2020  0.9429 -0.4897
 4096SOL    HW223925   3.624   2.697   5.388  0.3277  1.5662  2.1958
 4097SOL     OW23926   4.704   0.627   0.624 -0.0967  0.2009 -0.0914
 4097SOL    HW123927   0.006   0.661   0.706 -0.3234 -0.4513  0.2816
 4097SOL    HW223928   4.620   0.597   0.658 -0.9327  2.6078 -0.0438
 4098SOL     OW23929   0.170   3.397   5.025 -0.1139  1.1371  0.1142
 4098SOL    HW123930   0.133   3.309   5.027  2.8436 -0.0779  1.3976
 4098SOL    HW223931   0.257   3.382   4.990 -1.1552 -2.9719 -0.6726
 4099SOL     OW23932   3.827   2.138  14.591  0.2967  0.8187  0.0627
 4099SOL    HW123933   3.819   2.234  14.589 -0.1009  0.7855  0.1095
 4099SOL    HW223934   3.751   2.126  14.648 -2.1422  1.7777 -2.9886
 4100SOL     OW23935   3.796   3.707   8.254  0.7030  0.4262  0.0987
 4100SOL    HW123936   3.756   3.783   8.212 -1.5268 -1.6161 -1.5036
 4100SOL    HW223937   3.808   3.742   8.342  0.9431  0.1727  0.1682
 4101SOL     OW23938   2.419   4.083  11.411  0.4409  0.9129 -0.1273
 4101SOL    HW123939   2.505   4.081  11.370 -0.3993 -0.7525 -1.8073
 4101SOL    HW223940   2.426   4.039  11.495  0.6034  0.0251 -0.6131
 4102SOL     OW23941   0.867   4.502  10.516 -0.1690  0.5426  0.8481
 4102SOL    HW123942   0.784   4.505  10.470 -0.8991  0.2122  2.1561
 4102SOL    HW223943   0.918   4.565  10.464  0.6929 -1.6059 -0.8893
 4103SOL     OW23944   2.672   3.858  11.329  0.3704  1.2601  0.2943
 4103SOL    HW123945   2.698   3.903  11.410  0.3686  1.4561  0.1864
 4103SOL    HW223946   2.649   3.938  11.281 -0.4310  0.6251 -0.3601
 4104SOL     OW23947   0.947   1.041  14.124 -0.0800 -0.1841  0.0671
 4104SOL    HW123948   0.853   1.056  14.133 -0.4460 -1.0870 -2.3130
 4104SOL    HW223949   0.962   1.113  14.062  2.3479 -0.0401  0.8390
 4105SOL     OW23950   0.012   0.792  16.255 -0.1168 -0.1943  0.0573
 4105SOL    HW123951   0.045   0.852  16.188  1.4787 -1.3258 -0.1823
 4105SOL    HW223952   4.656   0.816  16.266  0.9916  3.4644  1.1098
 4106SOL     OW23953   1.086   1.057  14.371 -0.6069 -0.2247  0.0515
 4106SOL    HW123954   1.005   1.108  14.370 -0.8814 -0.6363  0.7707
 4106SOL    HW223955   1.112   1.081  14.460 -1.8158  2.6247 -0.3671
 4107SOL     OW23956   0.244   1.726   0.505  0.2311 -0.5508 -0.1104
 4107SOL    HW123957   0.149   1.729   0.491  0.1764 -0.9085  0.1777
 4107SOL    HW223958   0.272   1.789   0.439  1.9426  0.9950  2.0657
 4108SOL     OW23959   0.007   3.151   8.097  0.1147  0.7251 -0.4908
 4108SOL    HW123960   4.681   3.149   8.023 -0.2516 -2.1323 -0.1034
 4108SOL    HW223961   4.714   3.065   8.127 -0.5680  1.0907 -0.0893
 4109SOL     OW23962   4.674   1.345  15.129  0.0365 -0.1614  0.5069
 4109SOL    HW123963   4.722   1.422  15.161 -2.6453  0.1857  3.6540
 4109SOL    HW223964   0.003   1.275  15.139 -0.1410 -0.4477 -0.4802
 4110SOL     OW23965   0.863   2.810   6.442 -0.2215 -0.7160 -0.5276
 4110SOL    HW123966   0.889   2.885   6.495 -0.9146 -1.8056  1.3734
 4110SOL    HW223967   0.769   2.823   6.457 -0.0785 -1.7143  1.1843
 4111SOL     OW23968   1.311   3.576   8.641  0.4940 -0.0793  0.1550
 4111SOL    HW123969   1.281   3.521   8.568  1.6165 -0.5427  0.0405
 4111SOL    HW223970   1.386   3.625   8.607  0.5058  1.2109  2.0270
 4112SOL     OW23971   2.121   0.120  14.283  0.1159  0.5104 -0.5078
 4112SOL    HW123972   2.205   0.121  14.327  0.6002 -0.9410 -1.3888
 4112SOL    HW223973   2.069   0.158  14.354  0.5413 -1.3053  0.7780
 4113SOL     OW23974   3.378   0.174   9.245 -0.1107 -0.5341 -0.3120
 4113SOL    HW123975   3.327   0.241   9.200 -0.4348 -1.2648 -1.0286
 4113SOL    HW223976   3.319   0.132   9.306  0.0938  2.0567  1.6744
 4114SOL     OW23977   2.475   4.211   5.822 -0.1846 -0.4493 -0.2516
 4114SOL    HW123978   2.399   4.157   5.843  1.8096 -3.0160  0.2958
 4114SOL    HW223979   2.535   4.153   5.868 -0.7014  0.6223  1.7561
 4115SOL     OW23980   2.196   2.447   2.892 -0.0146  0.1078 -0.7232
 4115SOL    HW123981   2.109   2.468   2.858 -1.3505 -0.5106  2.2951
 4115SOL    HW223982   2.245   2.507   2.835 -0.3830  0.4269 -0.7025
 4116SOL     OW23983   0.731   0.415   5.577 -0.1949 -0.0487 -0.2594
 4116SOL    HW123984   0.798   0.358   5.538 -1.5386 -0.5097 -1.8819
 4116SOL    HW223985   0.666   0.353   5.610  0.2408  0.5358  1.6913
 4117SOL     OW23986   1.686   4.007  10.250  0.2620  0.1525  0.0658
 4117SOL    HW123987   1.698   3.928  10.303  1.6734  1.7665  2.1586
 4117SOL    HW223988   1.609   4.054  10.283  1.3580  0.5276  2.1306
 4118SOL     OW23989   0.270   4.009   8.618  0.2469  0.0948  0.1776
 4118SOL    HW123990   0.186   3.975   8.650  0.3886 -0.3799  0.0386
 4118SOL    HW223991   0.238   4.099   8.628  0.1110  0.1601 -0.8755
 4119SOL     OW23992   0.886   2.877   5.610 -0.1724 -0.7481 -0.8952
 4119SOL    HW123993   0.875   2.918   5.525  0.1335 -0.8341 -0.9751
 4119SOL    HW223994   0.912   2.789   5.583  0.4101 -0.1581 -2.2397
 4120SOL     OW23995   0.484   3.433  10.097 -0.2265  0.0087  0.4696
 4120SOL    HW123996   0.431   3.465  10.023 -1.6564 -1.4210  0.8844
 4120SOL    HW223997   0.488   3.518  10.142 -1.3776 -0.4055  1.3498
 4121SOL     OW23998   1.671   3.333  14.680 -0.1217  0.2776  0.0755
 4121SOL    HW123999   1.757   3.323  14.721 -1.1364 -2.5987  1.5498
 4121SOL    HW224000   1.637   3.414  14.718  0.8050  1.3271 -1.3522
 4122SOL     OW24001   3.654   0.452   2.834  0.2777 -0.1380 -0.3875
 4122SOL    HW124002   3.711   0.403   2.774  2.7767  2.8035 -0.3916
 4122SOL    HW224003   3.640   0.381   2.897 -0.3782 -0.5742 -1.0189
 4123SOL     OW24004   1.166   0.758  13.608  0.1177 -0.7545 -0.1953
 4123SOL    HW124005   1.221   0.688  13.645  0.7064 -0.2221 -0.0659
 4123SOL    HW224006   1.153   0.819  13.680 -3.1338 -0.9033 -0.6570
 4124SOL     OW24007   2.889   0.717   0.182 -0.2755 -0.0336  0.2391
 4124SOL    HW124008   2.942   0.795   0.167  0.2151 -1.0482 -3.3589
 4124SOL    HW224009   2.878   0.695   0.089  1.1456 -0.7819  0.2460
 4125SOL     OW24010   0.214   1.433   9.085 -0.0996 -0.0871 -0.3949
 4125SOL    HW124011   0.264   1.510   9.112  0.4020 -0.9254  1.0386
 4125SOL    HW224012   0.289   1.388   9.045 -1.1522 -3.3163  1.2578
 4126SOL     OW24013   2.952   0.632   2.084 -0.1658 -0.1898 -0.0408
 4126SOL    HW124014   2.919   0.545   2.062 -1.6347  0.1586  0.7997
 4126SOL    HW224015   2.958   0.664   1.994 -3.5459 -1.5221 -0.7307
 4127SOL     OW24016   0.073   1.057   2.596 -0.0033  0.1714  0.3597
 4127SOL    HW124017   0.016   0.984   2.619  1.3812 -0.6848  1.0328
 4127SOL    HW224018   0.131   1.062   2.671 -2.1310  2.0549  1.9210
 4128SOL     OW24019   1.442   4.499   6.985 -0.2606 -0.5703  0.8304
 4128SOL    HW124020   1.400   4.555   7.050 -0.7660 -1.3206  1.1537
 4128SOL    HW224021   1.410   4.528   6.900  1.5824 -0.5192  0.1525
 4129SOL     OW24022   1.071   0.652   8.340 -0.1689  0.1172  0.7999
 4129SOL    HW124023   1.015   0.575   8.354 -1.4061  0.7040 -0.9661
 4129SOL    HW224024   0.999   0.709   8.315  0.7805  1.1268  0.3804
 4130SOL     OW24025   2.102   4.371   7.824  0.7480  0.1729 -0.2234
 4130SOL    HW124026   2.178   4.379   7.882  0.4387 -0.4299  0.2656
 4130SOL    HW224027   2.108   4.278   7.801  1.2797  0.1781 -0.1099
 4131SOL     OW24028   3.444   3.384   1.917  0.3932 -0.0967 -0.3569
 4131SOL    HW124029   3.353   3.413   1.921  0.2830 -0.1364 -2.5091
 4131SOL    HW224030   3.456   3.388   1.822 -0.9554 -1.0776 -0.5692
 4132SOL     OW24031   0.651   1.509   7.162  0.3127  0.1940  0.2982
 4132SOL    HW124032   0.612   1.591   7.193  4.2200  1.4768  1.8631
 4132SOL    HW224033   0.577   1.464   7.122 -1.0145  1.3990  1.4003
 4133SOL     OW24034   2.576   0.410   7.934 -1.0577  0.1542 -0.1739
 4133SOL    HW124035   2.540   0.325   7.912 -1.4983  0.3349 -0.1426
 4133SOL    HW224036   2.516   0.440   8.002 -2.9086 -0.8124 -1.4099
 4134SOL     OW24037   1.782   3.562   2.831 -0.6252 -0.1527 -0.4115
 4134SOL    HW124038   1.842   3.624   2.788 -1.8794  1.0879 -0.3687
 4134SOL    HW224039   1.715   3.630   2.841  0.0828  0.4618  0.2367
 4135SOL     OW24040   2.813   2.489  17.431 -0.1189 -0.3501  0.1374
 4135SOL    HW124041   2.892   2.481  17.485  0.7075  0.8840 -0.9157
 4135SOL    HW224042   2.773   2.569  17.465  0.2292 -0.2760  0.3708
 4136SOL     OW24043   1.028   0.183   4.817 -0.2474  0.1713 -0.2220
 4136SOL    HW124044   1.075   0.266   4.825  0.6406 -0.3874  0.2428
 4136SOL    HW224045   1.096   0.129   4.778  0.7693  0.6718  0.8632
 4137SOL     OW24046   4.516   4.538   4.939  0.1450 -0.2884  0.1022
 4137SOL    HW124047   4.599   4.578   4.912 -0.7251  0.8804 -0.8623
 4137SOL    HW224048   4.457   4.614   4.937  0.7546  0.1443 -1.3881
 4138SOL     OW24049   1.769   3.356   5.695  0.4269  0.1898  0.1960
 4138SOL    HW124050   1.840   3.351   5.759 -0.1980 -0.6835  0.8104
 4138SOL    HW224051   1.731   3.272   5.719  0.8603  0.1192  0.6301
 4139SOL     OW24052   0.331   1.180  13.671  0.0625 -0.3933 -0.0724
 4139SOL    HW124053   0.325   1.097  13.717 -1.1672 -0.0187  0.4310
 4139SOL    HW224054   0.322   1.240  13.745 -0.6041  0.4672 -0.8540
 4140SOL     OW24055   4.396   0.975   1.990 -0.2682  0.3640  0.6700
 4140SOL    HW124056   4.466   0.985   2.055 -0.2731 -2.1337  1.0268
 4140SOL    HW224057   4.393   1.061   1.947  0.0394 -1.3585 -2.7704
 4141SOL     OW24058   2.143   0.255   5.944 -0.2545 -0.1362  0.4386
 4141SOL    HW124059   2.217   0.286   5.892 -1.2309  0.3886 -0.6604
 4141SOL    HW224060   2.132   0.331   6.000  1.0260  1.4930 -1.5451
 4142SOL     OW24061   3.641   3.488   4.306 -0.1583  0.1378  0.6050
 4142SOL    HW124062   3.564   3.545   4.307 -0.4508 -0.2215 -2.2682
 4142SOL    HW224063   3.623   3.435   4.384 -2.7492 -1.4622 -1.1098
 4143SOL     OW24064   0.851   1.020  10.174  0.4640 -0.0723  0.5888
 4143SOL    HW124065   0.930   1.053  10.218  0.1986 -0.8241  1.6496
 4143SOL    HW224066   0.868   0.928  10.152  1.6895 -0.0509  1.4185
 4144SOL     OW24067   2.113   3.168   3.738  0.0512  0.0684  0.8538
 4144SOL    HW124068   2.206   3.170   3.764  0.2200  0.4685  0.2255
 4144SOL    HW224069   2.088   3.245   3.789  1.9704  0.0158  1.9215
 4145SOL     OW24070   0.013   2.966   1.635 -0.1690  0.1680 -0.0607
 4145SOL    HW124071   0.002   3.059   1.616  1.4675  0.7572  1.8443
 4145SOL    HW224072   0.081   2.963   1.703 -0.5967 -0.3680  0.3540
 4146SOL     OW24073   0.616   3.611  10.234 -0.4900 -0.2161  0.2447
 4146SOL    HW124074   0.662   3.571  10.307 -1.6357 -2.0185 -0.0162
 4146SOL    HW224075   0.674   3.605  10.158  0.7687  1.9841  1.0166
 4147SOL     OW24076   3.844   3.339  11.549  0.2784  0.0919  0.2255
 4147SOL    HW124077   3.861   3.424  11.509 -1.0385  0.2313 -0.0255
 4147SOL    HW224078   3.922   3.343  11.604  1.5257  1.5580 -1.6306
 4148SOL     OW24079   0.743   4.092   9.216  0.2020 -0.7630 -0.2439
 4148SOL    HW124080   0.764   4.074   9.124 -0.9253 -2.8654 -0.1023
 4148SOL    HW224081   0.701   4.006   9.224  0.5947 -1.0199 -0.9458
 4149SOL     OW24082   1.976   1.282   1.950 -0.1061 -0.3090 -0.3175
 4149SOL    HW124083   1.893   1.330   1.944 -0.4260 -0.9934 -1.3529
 4149SOL    HW224084   2.031   1.344   1.998  2.6058 -2.4667 -0.5930
 4150SOL     OW24085   1.719   2.871  12.610 -0.4243  0.3355 -0.2299
 4150SOL    HW124086   1.736   2.882  12.704 -1.9573 -0.7826  0.1753
 4150SOL    HW224087   1.731   2.777  12.595 -1.2842  0.1370  0.3211
 4151SOL     OW24088   2.381   2.662   5.573  0.0222  0.0686  0.2032
 4151SOL    HW124089   2.381   2.683   5.666  2.4608 -0.9531  0.4349
 4151SOL    HW224090   2.392   2.753   5.547 -0.1597  0.3026  0.9532
 4152SOL     OW24091   0.837   2.201   0.815 -0.3448  0.2135 -0.4030
 4152SOL    HW124092   0.905   2.205   0.747  0.2671 -0.3786  0.1750
 4152SOL    HW224093   0.901   2.220   0.884  0.5652 -2.9075 -0.4103
 4153SOL     OW24094   4.103   0.207   7.460  0.2082  0.1255 -0.1853
 4153SOL    HW124095   4.175   0.266   7.481  2.0260 -1.7571 -1.1490
 4153SOL    HW224096   4.039   0.259   7.412 -0.6827  0.3617  1.2553
 4154SOL     OW24097   0.400   3.867   6.313  0.4760 -0.6924 -0.2195
 4154SOL    HW124098   0.492   3.844   6.301 -0.1702 -2.5207 -1.7325
 4154SOL    HW224099   0.388   3.941   6.253 -0.0533  1.4707  2.5703
 4155SOL     OW24100   0.614   3.643   2.535 -0.4698 -0.0538  0.0413
 4155SOL    HW124101   0.611   3.548   2.528  2.0695 -0.0145 -1.6062
 4155SOL    HW224102   0.645   3.648   2.625  2.2614  1.7473 -0.9903
 4156SOL     OW24103   3.377   3.170   2.467  0.5919  0.1866  0.0373
 4156SOL    HW124104   3.452   3.111   2.478 -0.4475 -0.7923  1.9196
 4156SOL    HW224105   3.428   3.250   2.452  1.7411  0.0791  3.1576
 4157SOL     OW24106   0.922   2.408   5.172 -0.3298 -0.1301 -0.3514
 4157SOL    HW124107   0.867   2.412   5.093  0.7378 -1.8583 -1.1983
 4157SOL    HW224108   0.974   2.486   5.155 -0.3269  0.4828  2.5045
 4158SOL     OW24109   0.383   4.420   2.454  0.1624  0.0523  0.6241
 4158SOL    HW124110   0.380   4.510   2.420  0.7578 -0.1345  0.0882
 4158SOL    HW224111   0.334   4.374   2.386  1.9537  0.3827 -0.8814
 4159SOL     OW24112   2.037   2.392  12.856 -0.0982 -0.2980 -0.3788
 4159SOL    HW124113   2.017   2.405  12.763  0.1566  0.2748 -0.3496
 4159SOL    HW224114   2.130   2.410  12.845  0.2645 -1.8636  0.2404
 4160SOL     OW24115   1.761   4.641   1.585 -0.5067 -0.1345 -0.7907
 4160SOL    HW124116   1.732   4.687   1.664  1.5754  2.0367 -1.2999
 4160SOL    HW224117   1.794   4.710   1.528  0.1113 -0.3504 -0.6879
 4161SOL     OW24118   3.416   3.517   5.226 -0.3603  0.2524 -0.7532
 4161SOL    HW124119   3.507   3.530   5.254 -0.2653  0.7823 -1.2925
 4161SOL    HW224120   3.389   3.604   5.197 -1.2804 -0.1565 -1.1295
 4162SOL     OW24121   1.572   1.904   3.387 -0.1947 -0.4084 -0.7482
 4162SOL    HW124122   1.534   1.895   3.299 -2.2432 -0.9746  0.1993
 4162SOL    HW224123   1.563   1.819   3.430  2.0223 -1.1370 -1.7140
 4163SOL     OW24124   2.223   1.744  13.013 -0.0304 -0.0632 -0.3794
 4163SOL    HW124125   2.294   1.785  13.063  0.9005 -1.7503 -0.3589
 4163SOL    HW224126   2.253   1.668  12.965 -2.4942 -0.1211 -1.8371
 4164SOL     OW24127   3.023   1.193   1.683 -0.3425 -0.1301 -0.4232
 4164SOL    HW124128   3.021   1.229   1.595 -1.8466  1.4148  0.2675
 4164SOL    HW224129   2.929   1.182   1.698 -0.7533 -0.9048 -3.6382
 4165SOL     OW24130   0.538   3.568   8.316  0.2480 -0.0007  0.1658
 4165SOL    HW124131   0.504   3.563   8.405  0.1694 -1.6969  0.0281
 4165SOL    HW224132   0.590   3.489   8.308 -2.2102 -1.8952  3.0056
 4166SOL     OW24133   0.146   3.122   4.611  0.2145  0.2496  0.1675
 4166SOL    HW124134   0.077   3.079   4.561 -0.0901  1.0142 -0.0764
 4166SOL    HW224135   0.214   3.133   4.545 -1.4796  4.2884 -0.8991
 4167SOL     OW24136   2.556   4.292   2.018 -0.3792  0.1127 -0.0589
 4167SOL    HW124137   2.484   4.228   2.013  1.5686 -2.1153  0.7897
 4167SOL    HW224138   2.601   4.263   1.939 -2.9808 -1.2035 -1.0881
 4168SOL     OW24139   1.666   1.138   6.898  0.2848  0.0616 -0.0361
 4168SOL    HW124140   1.731   1.204   6.874  1.1249 -1.4039 -1.7609
 4168SOL    HW224141   1.663   1.155   6.992  2.1370 -1.1974  0.2539
 4169SOL     OW24142   1.066   3.273   5.702  0.1561  0.0348  0.0467
 4169SOL    HW124143   1.068   3.185   5.740  0.5242  0.3702  0.8161
 4169SOL    HW224144   1.159   3.295   5.712  0.5999 -1.2138 -1.4003
 4170SOL     OW24145   3.922   4.319   2.402  0.0403  0.7460  0.0402
 4170SOL    HW124146   3.977   4.250   2.365  0.5403  1.1104  0.0939
 4170SOL    HW224147   3.986   4.391   2.406  1.5407 -0.7191  2.1679
 4171SOL     OW24148   2.305   0.075   3.927  0.2098  0.9717  0.0370
 4171SOL    HW124149   2.395   0.052   3.904 -0.1149  0.2861 -0.5400
 4171SOL    HW224150   2.266   4.723   3.929 -0.3783  1.2104 -1.9168
 4172SOL     OW24151   2.218   2.651   3.419 -0.3070 -0.4515 -0.4815
 4172SOL    HW124152   2.294   2.674   3.473 -0.7551  0.3625 -0.2120
 4172SOL    HW224153   2.181   2.733   3.388  1.9133  0.2107 -1.3674
 4173SOL     OW24154   0.779   3.531   4.882 -0.2323 -0.1877  0.6420
 4173SOL    HW124155   0.824   3.611   4.853 -0.4672 -0.1208  0.4580
 4173SOL    HW224156   0.742   3.508   4.797 -1.1048  0.8317  0.7439
 4174SOL     OW24157   1.523   0.391   3.291 -0.3400 -0.3235 -0.3128
 4174SOL    HW124158   1.614   0.399   3.320 -0.6673  1.5067  0.2028
 4174SOL    HW224159   1.497   0.476   3.256 -0.4768 -0.5352 -0.7258
 4175SOL     OW24160   3.289   2.266   7.664 -0.0135 -0.5573 -0.6756
 4175SOL    HW124161   3.194   2.269   7.655  0.1343  0.2807 -2.0143
 4175SOL    HW224162   3.298   2.191   7.605 -1.2401 -0.2487 -1.2394
 4176SOL     OW24163   3.812   4.009   6.803  0.0947  0.1500 -0.2060
 4176SOL    HW124164   3.872   3.990   6.731 -0.0468  1.0213 -0.5526
 4176SOL    HW224165   3.732   3.981   6.757  1.5662 -1.0228 -2.0330
 4177SOL     OW24166   3.681   2.472   6.714 -0.4743 -0.3072  0.1725
 4177SOL    HW124167   3.667   2.566   6.726  1.3197 -0.0578  0.4690
 4177SOL    HW224168   3.613   2.450   6.652 -0.3888  0.8538 -0.3340
 4178SOL     OW24169   3.466   3.748   2.908 -0.0214  0.5322 -0.4113
 4178SOL    HW124170   3.450   3.841   2.927  2.1725  0.6922  0.5972
 4178SOL    HW224171   3.375   3.721   2.891  0.9853 -2.1606 -1.5015
 4179SOL     OW24172   0.447   3.737  11.989  0.0223 -0.1052 -0.1543
 4179SOL    HW124173   0.413   3.706  12.073  2.5695 -1.5251  0.3427
 4179SOL    HW224174   0.461   3.654  11.944  1.4885 -0.2388  0.5716
 4180SOL     OW24175   3.316   0.991   2.509  0.0883  0.0395 -0.1412
 4180SOL    HW124176   3.410   0.975   2.509  0.6782  3.5814  0.9937
 4180SOL    HW224177   3.279   0.906   2.533 -4.0293  1.8229 -0.2225
 4181SOL     OW24178   2.245   0.416   5.027  0.0930 -0.2935  0.1537
 4181SOL    HW124179   2.335   0.400   5.056  0.1242  0.0894  0.2679
 4181SOL    HW224180   2.246   0.511   5.036 -2.7200 -0.1032 -1.3748
 4182SOL     OW24181   4.563   2.695   9.952 -0.4829  0.4641  0.0614
 4182SOL    HW124182   4.535   2.656  10.035  0.4177  0.2024  0.2421
 4182SOL    HW224183   4.624   2.757   9.992 -1.5199  1.3012  0.3235
 4183SOL     OW24184   1.756   2.008   2.359  0.8068  0.2750  0.8770
 4183SOL    HW124185   1.797   1.967   2.283 -0.1603  1.5333 -0.3292
 4183SOL    HW224186   1.677   1.954   2.359  0.8358  0.2105 -1.9030
 4184SOL     OW24187   2.710   3.917  11.588  0.2280  0.1671 -0.1730
 4184SOL    HW124188   2.731   3.850  11.654 -2.5692 -1.1440 -0.6505
 4184SOL    HW224189   2.703   3.996  11.640 -0.8650  0.6178 -1.0305
 4185SOL     OW24190   2.515   1.247  11.557  0.7897  0.7857  0.1725
 4185SOL    HW124191   2.420   1.246  11.544  1.1424  2.9290 -2.5776
 4185SOL    HW224192   2.545   1.275  11.471  0.5798  1.7752  0.4184
 4186SOL     OW24193   4.171   1.033   0.284 -0.1866 -0.8660 -0.0910
 4186SOL    HW124194   4.148   0.944   0.257 -0.6432 -1.0150  0.7733
 4186SOL    HW224195   4.118   1.071   0.214  0.9671 -1.8020 -1.4763
 4187SOL     OW24196   0.714   2.268  12.777 -0.0766  0.1370  0.6285
 4187SOL    HW124197   0.777   2.197  12.791  1.1114  0.9399 -0.5935
 4187SOL    HW224198   0.695   2.307  12.862  0.7259  0.4029  0.6828
 4188SOL     OW24199   2.073   1.989   0.231  0.0865 -0.1264  0.5965
 4188SOL    HW124200   2.067   2.079   0.265  1.4589  0.2958 -0.2724
 4188SOL    HW224201   2.036   1.944   0.307  1.0542  0.6040  1.5006
 4189SOL     OW24202   2.738   2.262  17.293  0.4116 -0.0955  0.3547
 4189SOL    HW124203   2.771   2.343  17.332  0.8476  0.5206 -1.3020
 4189SOL    HW224204   2.723   2.290  17.203  1.6223  0.0346  0.1845
 4190SOL     OW24205   1.549   3.865   3.100 -0.5416  0.0790 -0.1950
 4190SOL    HW124206   1.529   3.786   3.051  0.8069 -0.5612  0.2812
 4190SOL    HW224207   1.540   3.920   3.022 -1.7871 -0.4175 -0.3971
 4191SOL     OW24208   1.171   2.408   7.112 -0.2098 -0.0772  0.1445
 4191SOL    HW124209   1.183   2.464   7.034  0.2314  2.8614  2.3162
 4191SOL    HW224210   1.091   2.361   7.089 -1.0784  1.5054 -0.0817
 4192SOL     OW24211   0.535   4.323   3.670  0.0524  0.6258 -0.6519
 4192SOL    HW124212   0.541   4.415   3.647 -0.9291  1.1822  1.3883
 4192SOL    HW224213   0.442   4.306   3.683  0.4490  0.8225  2.4044
 4193SOL     OW24214   1.799   3.648  17.419 -0.1801  0.4357 -0.2803
 4193SOL    HW124215   1.731   3.698  17.464  2.3645  3.1151  0.5791
 4193SOL    HW224216   1.810   3.566  17.467 -0.9501  1.1140  1.0641
 4194SOL     OW24217   3.829   2.703   5.051  0.4537 -0.8973 -0.4263
 4194SOL    HW124218   3.757   2.694   4.989 -1.2372  1.7897  1.1558
 4194SOL    HW224219   3.786   2.740   5.128 -0.7909  0.9071 -2.0065
 4195SOL     OW24220   2.808   0.961   2.286 -0.1473  0.0101 -0.0009
 4195SOL    HW124221   2.861   1.025   2.334  1.2213 -2.2485  1.5478
 4195SOL    HW224222   2.744   0.936   2.353  1.1519 -1.3312  0.7600
 4196SOL     OW24223   3.061   0.355   4.903  0.3392 -0.0331 -0.9981
 4196SOL    HW124224   2.998   0.284   4.887 -0.1772  0.2182 -0.0752
 4196SOL    HW224225   3.136   0.313   4.862  1.4653  4.5201 -3.6220
 4197SOL     OW24226   4.644   1.018   4.516  0.3921 -0.4137  0.1024
 4197SOL    HW124227   4.730   1.032   4.555 -0.3332  0.2948  1.4287
 4197SOL    HW224228   4.605   0.952   4.574  1.0930 -0.7250  0.2121
 4198SOL     OW24229   0.544   1.927   9.816  0.0054 -0.3093  0.1290
 4198SOL    HW124230   0.506   1.960   9.735 -1.8489  0.8758  1.4779
 4198SOL    HW224231   0.604   2.001   9.833 -2.1230  1.2516  0.8057
 4199SOL     OW24232   1.681   3.430   0.955  0.2141 -0.3351  0.1551
 4199SOL    HW124233   1.627   3.503   0.984 -2.0572 -1.5873 -0.8822
 4199SOL    HW224234   1.626   3.377   0.897  0.0260 -0.1557  0.1713
 4200SOL     OW24235   3.322   3.934  14.641 -0.0539 -0.7149 -0.1238
 4200SOL    HW124236   3.318   3.881  14.721  1.1612 -0.8360 -0.1426
 4200SOL    HW224237   3.413   3.962  14.640 -0.1836 -0.3620 -1.2618
 4201SOL     OW24238   4.722   0.542  13.917  0.2404  0.7710 -0.1103
 4201SOL    HW124239   4.727   0.493  13.834  0.2857  0.3270  0.1517
 4201SOL    HW224240   4.686   0.484  13.984 -0.3610  1.2183 -0.0539
 4202SOL     OW24241   0.833   4.200  14.413  0.6116  0.7619  0.3851
 4202SOL    HW124242   0.748   4.160  14.400  0.9949 -0.4548  1.6691
 4202SOL    HW224243   0.857   4.193  14.320 -0.9278 -1.0149  0.1258
 4203SOL     OW24244   4.442   3.552   7.492  0.2578 -0.1594  0.0126
 4203SOL    HW124245   4.436   3.575   7.585  0.3288  1.4443 -0.3937
 4203SOL    HW224246   4.529   3.512   7.480  0.4697  0.6718 -1.1272
 4204SOL     OW24247   4.434   0.264   1.050  0.1102 -0.0275 -0.8606
 4204SOL    HW124248   4.482   0.226   0.977  1.6154  3.2338 -1.5883
 4204SOL    HW224249   4.503   0.273   1.116 -1.0714 -2.5689  0.7061
 4205SOL     OW24250   1.985   0.548   6.999 -0.6253  0.3364  0.3728
 4205SOL    HW124251   1.928   0.624   6.984  0.0459  1.0322  1.3104
 4205SOL    HW224252   1.927   0.475   6.979  1.8967 -1.7746  0.8913
 4206SOL     OW24253   3.718   4.587   2.221  0.2694 -0.4596  0.4293
 4206SOL    HW124254   3.688   4.622   2.137 -0.8155 -1.3821  0.4360
 4206SOL    HW224255   3.781   4.517   2.202 -0.9740 -1.4530 -0.0431
 4207SOL     OW24256   2.054   3.225   7.891  0.7202 -0.4381 -0.5528
 4207SOL    HW124257   1.960   3.227   7.912  1.7085 -1.1591  3.9371
 4207SOL    HW224258   2.073   3.201   7.800 -1.8155  1.2316 -1.5156
 4208SOL     OW24259   1.978   1.214   3.852 -0.1199 -0.4374 -0.1441
 4208SOL    HW124260   1.928   1.294   3.835 -0.1270 -0.7033 -1.3740
 4208SOL    HW224261   1.927   1.177   3.924 -2.3761  2.3988 -0.2855
 4209SOL     OW24262   2.846   2.421   4.382  0.3557  0.3896 -0.3700
 4209SOL    HW124263   2.779   2.488   4.367 -1.3546 -0.9452  1.2261
 4209SOL    HW224264   2.792   2.342   4.372  0.0353  0.7344 -1.3890
 4210SOL     OW24265   2.147   2.233   4.488 -0.3004 -0.0890  0.4769
 4210SOL    HW124266   2.092   2.274   4.555  1.9949  1.4459  1.4062
 4210SOL    HW224267   2.122   2.140   4.493  1.8376 -0.7265 -0.7650
 4211SOL     OW24268   3.744   0.497   0.829  0.6846 -0.3374 -0.1819
 4211SOL    HW124269   3.654   0.468   0.822 -0.3427  2.4203  1.5448
 4211SOL    HW224270   3.744   0.565   0.762  0.2458 -0.2636 -0.1037
 4212SOL     OW24271   3.022   0.913   6.883  0.0064  0.4427 -0.3119
 4212SOL    HW124272   3.117   0.909   6.895 -0.0712 -1.1886 -0.2180
 4212SOL    HW224273   3.005   0.819   6.891 -0.8503  0.5235 -1.1792
 4213SOL     OW24274   2.101   1.322   4.528 -0.2778 -0.3037  0.1144
 4213SOL    HW124275   2.156   1.400   4.516 -0.4747 -0.2766 -0.6013
 4213SOL    HW224276   2.107   1.307   4.622 -2.2641 -0.5575  0.2145
 4214SOL     OW24277   3.787   1.317   0.595 -0.0887  0.0547  0.4250
 4214SOL    HW124278   3.813   1.256   0.526  2.2079  1.5203  0.0060
 4214SOL    HW224279   3.716   1.280   0.648 -0.7485  0.7871  0.0364
 4215SOL     OW24280   0.581   4.456   9.642 -0.2376  0.2399 -0.4157
 4215SOL    HW124281   0.644   4.439   9.712  1.2574  0.7749 -1.6668
 4215SOL    HW224282   0.636   4.490   9.572 -0.8755  0.0688 -0.9935
 4216SOL     OW24283   1.315   0.770   8.386 -0.3986  0.1176 -0.4874
 4216SOL    HW124284   1.231   0.726   8.377 -0.6167  0.6629 -1.1386
 4216SOL    HW224285   1.363   0.706   8.438 -1.1348  0.3027  0.4182
 4217SOL     OW24286   0.175   0.645   6.376  0.3008 -0.2881 -0.2543
 4217SOL    HW124287   0.097   0.680   6.335  0.2872 -0.6266 -0.5201
 4217SOL    HW224288   0.210   0.722   6.421 -2.2344 -0.1153  1.4125
 4218SOL     OW24289   1.146   4.526   7.048 -0.0983 -0.2874  0.8579
 4218SOL    HW124290   1.148   4.450   6.990 -1.3767 -1.2909  2.1114
 4218SOL    HW224291   1.070   4.571   7.013  0.7848  0.3518 -0.2362
 4219SOL     OW24292   0.708   4.058  11.787  0.3051 -0.1196 -0.0539
 4219SOL    HW124293   0.662   4.040  11.869  3.4669 -0.5464  1.6204
 4219SOL    HW224294   0.733   3.966  11.774 -0.0199 -0.2668  0.3413
 4220SOL     OW24295   2.274   0.982   2.572  0.3111  0.0925 -0.1971
 4220SOL    HW124296   2.335   0.923   2.528  1.0602  0.5596  0.1958
 4220SOL    HW224297   2.268   1.052   2.507 -2.5181  0.2832  0.2940
 4221SOL     OW24298   2.663   3.722   3.104 -0.4079 -0.3424 -0.3071
 4221SOL    HW124299   2.667   3.725   3.199 -0.3575 -0.4066 -0.3069
 4221SOL    HW224300   2.748   3.682   3.085 -0.8366 -1.3111 -0.1828
 4222SOL     OW24301   2.456   2.073   2.040  0.3405  0.3505  0.2791
 4222SOL    HW124302   2.468   2.008   2.110 -2.6327 -1.5344 -0.9642
 4222SOL    HW224303   2.530   2.128   2.064  2.0176 -0.7812 -2.2985
 4223SOL     OW24304   1.464   2.423  12.733  0.2168  0.1452  0.2628
 4223SOL    HW124305   1.466   2.361  12.661 -0.2071  1.0914 -0.5713
 4223SOL    HW224306   1.556   2.444  12.750  0.6202 -0.4049 -1.2507
 4224SOL     OW24307   3.895   2.096   8.148  0.7142 -0.2777 -0.1611
 4224SOL    HW124308   3.910   2.185   8.116 -1.2580 -0.2295 -0.9889
 4224SOL    HW224309   3.914   2.053   8.065  1.5083 -1.5453  0.6828
 4225SOL     OW24310   2.983   4.696  15.165  0.1443 -0.4549  0.0064
 4225SOL    HW124311   3.038   0.014  15.108  1.6950 -0.4414  1.5187
 4225SOL    HW224312   2.984   4.608  15.127  0.2998  0.3580 -1.8778
 4226SOL     OW24313   3.059   4.352  15.201  0.9182  0.0978 -0.0447
 4226SOL    HW124314   3.087   4.263  15.181  0.8619  0.5710 -2.2404
 4226SOL    HW224315   3.121   4.361  15.273  0.5252  2.2312  0.0399
 4227SOL     OW24316   0.376   0.834   2.525 -0.2049  0.0773 -0.4377
 4227SOL    HW124317   0.298   0.778   2.520 -0.6097  0.7183 -1.2839
 4227SOL    HW224318   0.421   0.828   2.441 -0.4379  0.4107 -0.5859
 4228SOL     OW24319   4.199   4.523  11.246  0.2503  0.1665  0.0802
 4228SOL    HW124320   4.120   4.574  11.260  0.4546 -0.0844  2.2325
 4228SOL    HW224321   4.272   4.582  11.267  0.1792  0.7008 -1.2207
 4229SOL     OW24322   4.143   3.823   7.800  0.0372  0.5997  0.3304
 4229SOL    HW124323   4.095   3.904   7.784 -0.2029  0.0733 -1.5468
 4229SOL    HW224324   4.221   3.860   7.761  1.1023 -0.3754  1.5162
 4230SOL     OW24325   4.060   0.457   0.304  0.7441  0.3494  1.1284
 4230SOL    HW124326   4.144   0.492   0.274  0.3688  2.4751  2.5501
 4230SOL    HW224327   3.996   0.493   0.243  1.0583 -0.4622  0.3140
 4231SOL     OW24328   0.314   0.328   3.843 -0.2480  0.1491 -0.1017
 4231SOL    HW124329   0.294   0.382   3.766 -1.8311 -0.4682 -0.1253
 4231SOL    HW224330   0.365   0.262   3.797  1.3640 -0.8336  3.1123
 4232SOL     OW24331   2.769   4.255   3.682  0.2420 -0.0494 -0.1617
 4232SOL    HW124332   2.838   4.265   3.748  2.1344 -0.0160 -2.1211
 4232SOL    HW224333   2.709   4.204   3.737 -0.8061  0.4157 -0.8770
 4233SOL     OW24334   1.861   3.731   1.261  0.3233 -0.2047 -0.3511
 4233SOL    HW124335   1.890   3.642   1.245  3.3855  0.9257 -1.0878
 4233SOL    HW224336   1.883   3.773   1.178  1.6013 -0.6630 -0.2470
 4234SOL     OW24337   3.545   4.072   0.581 -0.2938 -0.0585  0.5511
 4234SOL    HW124338   3.608   4.137   0.613  2.4038 -1.2490 -2.3838
 4234SOL    HW224339   3.463   4.116   0.604  0.7592  1.0685  2.1217
 4235SOL     OW24340   0.682   1.751   1.592 -0.1202 -0.2782  0.1789
 4235SOL    HW124341   0.700   1.831   1.542 -1.2418  1.0535  1.9031
 4235SOL    HW224342   0.587   1.741   1.583 -0.4904  2.6217  0.8568
 4236SOL     OW24343   0.795   0.892  16.613 -0.9935 -0.6055 -0.2881
 4236SOL    HW124344   0.701   0.905  16.627 -0.8712  0.6928 -0.6532
 4236SOL    HW224345   0.807   0.915  16.521  0.0442  1.9232  0.4689
 4237SOL     OW24346   3.542   4.544   5.848 -0.5008 -0.0570  0.6233
 4237SOL    HW124347   3.547   4.604   5.922  0.4748 -0.9337  1.2636
 4237SOL    HW224348   3.539   4.601   5.771  0.7290 -1.0709 -0.1878
 4238SOL     OW24349   1.445   2.596   8.702  0.2411  0.3735  0.1103
 4238SOL    HW124350   1.364   2.545   8.704 -0.8986  2.2509  1.7702
 4238SOL    HW224351   1.504   2.530   8.667 -1.1894 -0.1567 -1.3310
 4239SOL     OW24352   2.643   1.802   8.840  0.0581  0.5616  0.1639
 4239SOL    HW124353   2.565   1.747   8.847 -0.3141  1.2312  1.3393
 4239SOL    HW224354   2.607   1.891   8.841 -1.6819 -0.1371 -0.0472
 4240SOL     OW24355   2.752   2.848   0.838 -0.0431  0.2001  0.2585
 4240SOL    HW124356   2.742   2.838   0.744 -0.4769 -1.5169  0.4910
 4240SOL    HW224357   2.826   2.909   0.831  2.3326 -2.5804  1.1667
 4241SOL     OW24358   2.297   3.643   3.566  0.0376 -0.6706 -0.7550
 4241SOL    HW124359   2.327   3.566   3.517  1.5305 -0.3458 -0.3506
 4241SOL    HW224360   2.325   3.706   3.500 -1.7616  1.3975  0.4771
 4242SOL     OW24361   1.016   0.724  10.458  0.4303  0.0848 -0.0273
 4242SOL    HW124362   0.977   0.676  10.385 -0.8868 -0.2576  0.9064
 4242SOL    HW224363   0.941   0.775  10.487  1.0115  1.7890 -1.5316
 4243SOL     OW24364   2.978   3.148   6.192 -0.5600  0.5482  0.0250
 4243SOL    HW124365   2.980   3.091   6.116 -0.7693 -2.7640  2.5291
 4243SOL    HW224366   3.042   3.106   6.249 -0.6411 -1.7866 -1.6450
 4244SOL     OW24367   3.006   3.142   1.175 -0.1675 -0.0427 -0.3059
 4244SOL    HW124368   3.008   3.237   1.187 -1.5344  0.0117 -0.4927
 4244SOL    HW224369   3.100   3.130   1.188  0.3698  0.7521 -3.3968
 4245SOL     OW24370   3.288   3.767   4.849 -0.2277  0.5956 -0.0234
 4245SOL    HW124371   3.278   3.821   4.771 -0.4512  0.6378  0.0364
 4245SOL    HW224372   3.321   3.683   4.818 -0.3254  1.0382 -1.3082
 4246SOL     OW24373   3.076   3.016   2.013 -0.3895  0.1398  0.1043
 4246SOL    HW124374   3.055   3.086   2.076 -2.0704 -1.7943  1.6716
 4246SOL    HW224375   3.171   3.019   2.025 -0.3756 -2.0800  0.5508
 4247SOL     OW24376   3.014   1.715   5.586 -0.3053 -0.2830 -0.4669
 4247SOL    HW124377   2.961   1.638   5.605  2.4140 -2.6934 -2.5433
 4247SOL    HW224378   3.009   1.771   5.664 -1.5175  0.5638 -1.1557
 4248SOL     OW24379   2.428   0.851   5.577 -0.0108 -0.1519 -0.5671
 4248SOL    HW124380   2.458   0.849   5.668  1.3597 -0.8794 -1.0336
 4248SOL    HW224381   2.489   0.788   5.539 -2.4828 -1.2138 -2.8050
 4249SOL     OW24382   0.171   2.291   3.512 -0.0984 -0.2553 -0.3285
 4249SOL    HW124383   0.129   2.228   3.453 -1.7034  0.4272  0.0888
 4249SOL    HW224384   0.179   2.245   3.595  0.5648  0.8200  0.1981
 4250SOL     OW24385   1.973   0.555   3.693 -0.2171  0.2239 -0.1033
 4250SOL    HW124386   1.938   0.608   3.622 -0.3945 -1.3160 -1.1569
 4250SOL    HW224387   2.007   0.481   3.643 -1.8561 -0.4589 -0.2202
 4251SOL     OW24388   4.728   0.505  12.324 -0.1474  0.1764 -0.2074
 4251SOL    HW124389   0.056   0.577  12.332 -0.0724 -0.1851  2.4918
 4251SOL    HW224390   0.021   0.471  12.239 -1.3918  0.3838 -0.7069
 4252SOL     OW24391   2.182   2.991   0.371  0.0143  0.7318  0.1048
 4252SOL    HW124392   2.271   3.020   0.389  0.5110 -1.0329  0.4837
 4252SOL    HW224393   2.143   2.998   0.458 -1.2314 -0.7725 -0.3366
 4253SOL     OW24394   0.411   1.122   6.544 -0.3969 -0.4244 -0.3433
 4253SOL    HW124395   0.383   1.162   6.627 -0.4769  1.4709 -1.2844
 4253SOL    HW224396   0.387   1.181   6.472  2.9233  0.1037 -0.9938
 4254SOL     OW24397   3.500   3.196   2.934  0.9219 -0.2301  0.1841
 4254SOL    HW124398   3.516   3.234   2.847 -1.9633 -1.6075 -0.9577
 4254SOL    HW224399   3.463   3.276   2.971  0.0399 -1.4391  1.9117
 4255SOL     OW24400   2.957   4.139   2.448  0.3226  0.4224 -0.1854
 4255SOL    HW124401   2.981   4.230   2.466 -0.9121  0.2273  2.4280
 4255SOL    HW224402   2.929   4.119   2.537  3.7040 -1.6833  0.4001
 4256SOL     OW24403   2.913   1.938  11.397  0.0499 -0.2315  0.2458
 4256SOL    HW124404   2.953   2.023  11.383 -2.6035  0.9385 -0.1506
 4256SOL    HW224405   2.849   1.963  11.464 -0.4590 -1.7291  0.3378
 4257SOL     OW24406   1.644   1.259  17.424  0.0861  0.2006 -0.0860
 4257SOL    HW124407   1.559   1.254  17.381 -0.4553  0.3669  0.9733
 4257SOL    HW224408   1.685   1.179  17.392  2.0359  0.9312  0.5517
 4258SOL     OW24409   2.655   1.811   1.408 -0.0281  0.4537 -0.0875
 4258SOL    HW124410   2.708   1.817   1.487  2.7370  1.2818 -2.0054
 4258SOL    HW224411   2.702   1.743   1.359  1.1126  2.2143 -1.4229
 4259SOL     OW24412   2.082   1.044  15.721 -0.5555  0.4958  0.4123
 4259SOL    HW124413   2.001   1.041  15.671  1.0921  0.1819 -2.2396
 4259SOL    HW224414   2.120   1.125  15.687  2.3636 -1.0496 -0.0280
 4260SOL     OW24415   2.791   3.104   3.551  0.3321  0.2419 -0.1987
 4260SOL    HW124416   2.871   3.125   3.599  0.2720  1.2389 -0.5440
 4260SOL    HW224417   2.827   3.069   3.469 -0.5420 -0.3131 -0.3434
 4261SOL     OW24418   2.280   0.432   6.795 -0.1589  0.3710 -0.2961
 4261SOL    HW124419   2.211   0.439   6.729  2.2746  0.4865 -2.8482
 4261SOL    HW224420   2.269   0.514   6.843  0.4304 -0.0763  0.5988
 4262SOL     OW24421   2.779   0.470  12.414  0.2209  0.1596  0.7179
 4262SOL    HW124422   2.692   0.507  12.426  0.6537  1.9636 -1.7325
 4262SOL    HW224423   2.766   0.393  12.469  0.3408 -1.6052 -1.7120
 4263SOL     OW24424   1.360   0.503   2.917 -0.2119 -0.1733 -0.1084
 4263SOL    HW124425   1.388   0.417   2.946  2.1035  0.0663 -1.6394
 4263SOL    HW224426   1.439   0.530   2.869 -1.8262  0.5826 -2.3552
 4264SOL     OW24427   0.600   1.506   8.782 -0.5900  0.2658  0.2954
 4264SOL    HW124428   0.631   1.584   8.828 -0.2596  0.2526  0.0982
 4264SOL    HW224429   0.678   1.450   8.781  0.8921  2.3553 -0.6608
 4265SOL     OW24430   4.639   2.274   4.837  0.2979  0.5614 -0.2714
 4265SOL    HW124431   4.634   2.206   4.904 -1.9841  0.6499 -0.3371
 4265SOL    HW224432   4.551   2.311   4.825 -0.1667 -0.4875 -0.0377
 4266SOL     OW24433   0.794   1.834   4.726  0.4763 -0.2190 -0.1805
 4266SOL    HW124434   0.744   1.899   4.775  1.7883  0.1192  0.7005
 4266SOL    HW224435   0.815   1.771   4.795  0.0503  0.2602  0.3816
 4267SOL     OW24436   4.615   1.492   4.367  0.5009  0.7145 -0.5459
 4267SOL    HW124437   4.535   1.508   4.317  0.0125  1.1831  0.3580
 4267SOL    HW224438   4.627   1.398   4.361  2.7245  0.9852 -0.2912
 4268SOL     OW24439   3.229   4.428  15.906  0.3751 -0.2762 -0.2976
 4268SOL    HW124440   3.158   4.488  15.882 -0.7166 -1.4817 -0.1046
 4268SOL    HW224441   3.183   4.349  15.878  1.1660 -0.4932 -0.9649
 4269SOL     OW24442   2.862   0.445   6.985 -0.1807 -0.6556  0.2692
 4269SOL    HW124443   2.942   0.456   7.036 -0.4414  1.5452  0.1817
 4269SOL    HW224444   2.794   0.438   7.051  0.5148  2.2336  1.2747
 4270SOL     OW24445   4.183   1.175   2.134  0.1058 -0.0966  0.1572
 4270SOL    HW124446   4.256   1.237   2.128  1.1077 -1.0791  2.2611
 4270SOL    HW224447   4.101   1.224   2.126  0.4702  0.1122 -2.2765
 4271SOL     OW24448   0.115   4.554  15.261  0.3824 -0.0788  0.2463
 4271SOL    HW124449   0.178   4.503  15.312  2.3091 -0.1381 -2.2031
 4271SOL    HW224450   0.081   4.494  15.195 -0.9415  1.3086 -0.3263
 4272SOL     OW24451   4.559   0.854  15.497 -0.0525 -0.3757  0.0322
 4272SOL    HW124452   4.523   0.929  15.449  0.8969 -0.1555 -0.3406
 4272SOL    HW224453   4.627   0.828  15.434 -2.5296 -1.7066 -2.1216
 4273SOL     OW24454   3.355   0.117   6.510  0.5484  0.3175  0.9167
 4273SOL    HW124455   3.261   0.115   6.526  0.7177  1.3187  2.0416
 4273SOL    HW224456   3.356   0.195   6.453  0.3003  0.2903  0.8767
 4274SOL     OW24457   3.174   4.370   2.621  0.1205  0.0391 -0.0798
 4274SOL    HW124458   3.113   4.395   2.552 -1.2636 -0.1190  1.0929
 4274SOL    HW224459   3.123   4.357   2.701 -0.0481  0.3149 -0.1434
 4275SOL     OW24460   3.277   0.002   2.477 -0.1597 -0.1491  0.6719
 4275SOL    HW124461   3.275   0.097   2.476  0.8628 -0.1637 -1.4564
 4275SOL    HW224462   3.235   4.727   2.392 -1.3243 -0.3524  1.2776
 4276SOL     OW24463   2.152   1.528  13.273  0.2452 -0.3316  0.3898
 4276SOL    HW124464   2.137   1.611  13.228  0.3004 -1.1631 -1.1862
 4276SOL    HW224465   2.182   1.560  13.358  2.0281  1.6620 -0.9721
 4277SOL     OW24466   0.461   2.579   3.511  0.2639  0.2838 -0.1176
 4277SOL    HW124467   0.513   2.659   3.499  2.2177 -1.0308 -0.4363
 4277SOL    HW224468   0.437   2.578   3.603 -1.6370 -2.3812 -0.6119
 4278SOL     OW24469   1.088   1.080   9.183 -0.0504 -0.0421 -0.6294
 4278SOL    HW124470   1.017   1.071   9.247 -0.0492 -1.7201 -0.8778
 4278SOL    HW224471   1.122   1.159   9.225 -2.3758  0.5523  0.1355
 4279SOL     OW24472   3.653   1.146   3.902 -0.1130  0.0361 -0.3829
 4279SOL    HW124473   3.680   1.231   3.935  1.1430 -0.0704 -1.1136
 4279SOL    HW224474   3.659   1.164   3.808 -1.6575 -1.1521 -0.7084
 4280SOL     OW24475   1.917   1.856   6.589  0.6079 -1.0005 -0.1412
 4280SOL    HW124476   1.917   1.820   6.500 -0.3006  0.0878 -0.5877
 4280SOL    HW224477   2.002   1.825   6.620  0.4467 -2.1215 -0.8380
 4281SOL     OW24478   1.746   2.444   6.590  0.1526 -0.1866 -0.1229
 4281SOL    HW124479   1.664   2.424   6.636  2.0459  0.2268  3.4543
 4281SOL    HW224480   1.718   2.420   6.502 -0.7879  0.3394  0.0313
 4282SOL     OW24481   1.255   1.088  17.007  0.3934  0.3180  0.4182
 4282SOL    HW124482   1.165   1.060  17.024 -0.2740  1.0679 -1.7951
 4282SOL    HW224483   1.256   1.181  17.027  1.4756 -0.3517  3.5448
 4283SOL     OW24484   0.533   4.244   5.044  0.0076 -0.2015 -0.1393
 4283SOL    HW124485   0.618   4.272   5.011  0.4642 -0.7495  0.5735
 4283SOL    HW224486   0.482   4.226   4.965  0.1895  1.8851 -0.7315
 4284SOL     OW24487   2.485   2.034   8.878  0.9540  0.7475 -0.2867
 4284SOL    HW124488   2.527   2.093   8.814  2.4824  0.3812  0.3655
 4284SOL    HW224489   2.395   2.049   8.851  0.2521 -1.0767  1.1025
 4285SOL     OW24490   2.942   3.207  11.736  0.0262  0.4873  0.2760
 4285SOL    HW124491   2.851   3.181  11.747  0.1769 -0.0999  0.0893
 4285SOL    HW224492   2.970   3.238  11.823 -0.0628 -0.4599  0.6347
 4286SOL     OW24493   2.776   1.691   4.174  0.1032  0.3946 -0.2524
 4286SOL    HW124494   2.866   1.677   4.205  0.0317 -0.8008 -0.5866
 4286SOL    HW224495   2.756   1.598   4.160  0.1142  0.3781 -0.1546
 4287SOL     OW24496   1.398   1.787   2.032  0.3778 -0.1287  0.2831
 4287SOL    HW124497   1.373   1.816   1.944 -2.6375 -2.0124  0.5299
 4287SOL    HW224498   1.480   1.740   2.013  1.3286  1.5089  0.3040
 4288SOL     OW24499   2.701   4.471   3.041 -0.1163  0.1455  0.0721
 4288SOL    HW124500   2.629   4.425   3.083 -1.1722  1.3805 -0.4161
 4288SOL    HW224501   2.694   4.434   2.953 -0.3641  1.2030 -0.3521
 4289SOL     OW24502   0.907   0.525   4.398  0.1157  0.3871  0.1753
 4289SOL    HW124503   0.957   0.523   4.480 -1.1486  0.5978  0.9534
 4289SOL    HW224504   0.977   0.509   4.335  0.5168 -0.5702  0.8616
 4290SOL     OW24505   0.188   2.590  13.595 -0.2998  0.2150  0.4334
 4290SOL    HW124506   0.190   2.673  13.547  0.4360 -0.8942 -1.4754
 4290SOL    HW224507   0.279   2.581  13.622 -0.4545 -3.1537 -0.1226
 4291SOL     OW24508   3.644   4.135   9.210 -0.2211 -0.3614  0.2333
 4291SOL    HW124509   3.652   4.040   9.215  1.6499 -0.1174  1.8734
 4291SOL    HW224510   3.736   4.159   9.214 -1.0493  2.5620  2.1263
 4292SOL     OW24511   1.992   0.663   6.158  0.4012 -0.2752 -0.3634
 4292SOL    HW124512   1.927   0.731   6.177 -1.1010 -1.4834 -1.1471
 4292SOL    HW224513   2.003   0.627   6.246 -1.7821 -2.0054 -0.8068
 4293SOL     OW24514   1.769   3.896   8.496 -0.1438 -0.0720  0.0204
 4293SOL    HW124515   1.826   3.952   8.444 -0.7584 -0.9785 -1.5964
 4293SOL    HW224516   1.697   3.900   8.433 -2.0462 -0.6734  2.1589
 4294SOL     OW24517   0.461   1.473   6.222  0.2644 -0.6467  0.5155
 4294SOL    HW124518   0.549   1.487   6.187  0.1512  0.3178  0.5940
 4294SOL    HW224519   0.438   1.404   6.160 -0.5047  0.7618 -0.7916
 4295SOL     OW24520   0.908   4.128  16.826  0.0820  0.1866 -0.1907
 4295SOL    HW124521   0.878   4.066  16.893  0.4363  1.0983  0.8076
 4295SOL    HW224522   0.830   4.142  16.771  0.2339  1.1807 -0.1537
 4296SOL     OW24523   3.538   4.233   8.595  0.3776 -0.1161  0.3462
 4296SOL    HW124524   3.570   4.323   8.598  1.6736 -0.5044 -1.7211
 4296SOL    HW224525   3.569   4.200   8.680  0.9594  0.4735  0.3680
 4297SOL     OW24526   2.537   0.070   1.077 -1.3843 -0.0047 -0.5086
 4297SOL    HW124527   2.444   0.086   1.092 -0.8882  1.4933  1.0837
 4297SOL    HW224528   2.558   0.080   1.170  0.5530  2.1905 -1.1719
 4298SOL     OW24529   0.792   1.116   6.891 -0.2059 -0.1190  0.6006
 4298SOL    HW124530   0.844   1.045   6.927 -1.0793 -1.3599 -0.6113
 4298SOL    HW224531   0.851   1.178   6.846 -0.7376 -0.4836 -0.6100
 4299SOL     OW24532   4.543   4.575  16.728 -0.4217  0.2544  0.5626
 4299SOL    HW124533   4.464   4.605  16.683 -0.2361  0.0558  0.1008
 4299SOL    HW224534   4.517   4.505  16.788  0.8757  0.2396  1.1073
 4300SOL     OW24535   0.759   0.724   2.342 -0.3167 -0.4081 -0.5721
 4300SOL    HW124536   0.803   0.761   2.266  1.8725  0.4296  1.0809
 4300SOL    HW224537   0.765   0.800   2.401  2.6300 -0.6731 -0.5243
 4301SOL     OW24538   1.615   4.374   4.054 -0.1947 -0.2104 -0.0389
 4301SOL    HW124539   1.527   4.369   4.017 -0.1044 -0.0128 -0.2814
 4301SOL    HW224540   1.602   4.460   4.093 -1.0971 -0.2645 -0.2257
 4302SOL     OW24541   4.013   2.761   4.452 -0.4118 -0.0835 -0.3660
 4302SOL    HW124542   3.921   2.740   4.434 -0.4681  1.1214 -1.4803
 4302SOL    HW224543   4.046   2.786   4.366  2.5512 -0.6562  0.6035
 4303SOL     OW24544   0.427   1.522  16.155  0.3885 -0.1029 -0.4106
 4303SOL    HW124545   0.452   1.600  16.106 -0.1263  0.0613 -0.4119
 4303SOL    HW224546   0.390   1.562  16.234 -0.1097 -0.5805 -0.3999
 4304SOL     OW24547   0.873   1.327  12.298 -0.3305 -0.0466  0.5854
 4304SOL    HW124548   0.817   1.309  12.222  0.7933 -0.2067 -0.1980
 4304SOL    HW224549   0.840   1.415  12.317 -0.3612 -0.2413  1.4419
 4305SOL     OW24550   4.717   2.490  12.905  0.1203  0.6618 -0.6103
 4305SOL    HW124551   0.033   2.560  12.866  1.0256  0.8492  0.9396
 4305SOL    HW224552   4.658   2.467  12.833 -1.5542  2.5639  0.1465
 4306SOL     OW24553   0.365   2.478   1.783 -0.1686  0.1227 -0.4072
 4306SOL    HW124554   0.316   2.492   1.702 -0.3207  1.9692  0.0070
 4306SOL    HW224555   0.421   2.555   1.793  0.5756 -0.1906 -2.0652
 4307SOL     OW24556   0.450   2.961   2.584  0.2157  0.1515  0.7219
 4307SOL    HW124557   0.505   3.024   2.631  0.0298  0.9560 -0.1536
 4307SOL    HW224558   0.449   2.996   2.495  1.8892 -1.3403  0.1123
 4308SOL     OW24559   3.858   1.908   3.741  0.3360  0.5019 -0.5425
 4308SOL    HW124560   3.863   1.918   3.836 -1.2315 -2.7629 -0.1031
 4308SOL    HW224561   3.943   1.928   3.703  1.0082 -3.0323 -0.9096
 4309SOL     OW24562   1.141   3.906   6.279 -0.0064  0.8333 -0.1100
 4309SOL    HW124563   1.187   3.976   6.232  0.7002 -0.0601 -0.7497
 4309SOL    HW224564   1.207   3.838   6.287 -0.3088  0.2772 -2.4974
 4310SOL     OW24565   4.582   0.731  11.482  0.6561 -0.1977  0.3254
 4310SOL    HW124566   4.495   0.700  11.505  0.2986  0.7144  0.2201
 4310SOL    HW224567   4.600   0.799  11.546  0.4524  1.2061 -1.1024
 4311SOL     OW24568   3.726   1.132   8.166  0.1390 -0.2982  0.3078
 4311SOL    HW124569   3.675   1.202   8.206 -0.4344  0.0046 -0.9331
 4311SOL    HW224570   3.796   1.112   8.228  0.4577 -0.5914 -0.1456
 4312SOL     OW24571   2.760   2.841   8.525 -0.4355 -0.0207  0.1171
 4312SOL    HW124572   2.691   2.902   8.550 -0.3190 -0.2735  1.0819
 4312SOL    HW224573   2.813   2.889   8.462 -0.7019  0.4973  0.2909
 4313SOL     OW24574   1.028   1.019  15.912 -0.5743 -0.2468  0.3316
 4313SOL    HW124575   1.003   1.010  15.820 -2.8729 -0.8721  1.0156
 4313SOL    HW224576   1.079   0.940  15.931 -1.6311 -0.6512  1.4861
 4314SOL     OW24577   3.723   4.627   3.380 -0.0946  0.0536  0.1617
 4314SOL    HW124578   3.732   4.595   3.290  0.3351 -1.5397  0.7773
 4314SOL    HW224579   3.708   4.720   3.361 -0.7145 -0.6326 -2.6588
 4315SOL     OW24580   0.080   4.658   7.394 -0.2222  0.2332  0.5682
 4315SOL    HW124581   0.097   4.685   7.484 -3.2828 -0.9313  1.4644
 4315SOL    HW224582   4.721   4.645   7.392  0.0389 -1.7656  1.0902
 4316SOL     OW24583   3.779   0.686   6.674 -0.4597  0.4709 -0.2003
 4316SOL    HW124584   3.782   0.700   6.768 -3.4043  2.7986 -0.4506
 4316SOL    HW224585   3.836   0.745   6.625 -0.1808 -0.1954 -0.6771
 4317SOL     OW24586   4.145   4.726   7.676 -0.6308 -0.0832  0.0682
 4317SOL    HW124587   4.113   0.023   7.592  0.6299  1.6290  0.2403
 4317SOL    HW224588   4.206   0.059   7.705 -0.0609 -1.8543  3.0485
 4318SOL     OW24589   1.349   3.644   5.565  0.1912  0.6353  0.1669
 4318SOL    HW124590   1.258   3.663   5.588  0.4012  2.2454 -0.2877
 4318SOL    HW224591   1.329   3.603   5.480 -0.5728 -0.5798  0.9437
 4319SOL     OW24592   0.646   0.206   8.014  0.0211  0.1146  0.1529
 4319SOL    HW124593   0.591   0.147   8.064 -0.2704  0.1569 -0.1217
 4319SOL    HW224594   0.581   0.257   7.965  0.7956 -0.2409 -1.2718
 4320SOL     OW24595   2.160   0.854   7.036  0.3503  0.2029 -0.0483
 4320SOL    HW124596   2.243   0.899   7.052  0.7594 -0.6760  0.2631
 4320SOL    HW224597   2.120   0.923   6.982  0.1119 -0.1322 -0.2979
 4321SOL     OW24598   2.940   2.841   4.161 -0.8586  0.2188  0.0722
 4321SOL    HW124599   2.922   2.764   4.107 -1.9136  0.3201  0.2831
 4321SOL    HW224600   2.985   2.903   4.104  0.0437 -1.4929 -1.0714
 4322SOL     OW24601   1.726   2.890   8.153  0.2072 -0.0922  0.2184
 4322SOL    HW124602   1.791   2.960   8.164 -1.9583  1.5043  2.7238
 4322SOL    HW224603   1.651   2.942   8.127  1.4307  1.5317 -0.0956
 4323SOL     OW24604   2.319   2.518   3.993 -0.3151 -0.0544  0.2041
 4323SOL    HW124605   2.321   2.490   4.085  1.7692  1.1082  0.5117
 4323SOL    HW224606   2.380   2.457   3.952 -1.9874 -0.8692 -1.1200
 4324SOL     OW24607   2.566   1.179   4.386 -0.0022  0.3576 -0.2916
 4324SOL    HW124608   2.534   1.238   4.454 -1.1909  0.1149 -0.6380
 4324SOL    HW224609   2.590   1.105   4.442  0.6686  1.1082  0.4205
 4325SOL     OW24610   3.086   3.700   7.932 -0.3540 -0.8565  0.6066
 4325SOL    HW124611   3.152   3.636   7.959  2.1742  0.7656 -1.6054
 4325SOL    HW224612   3.041   3.704   8.016 -1.8807 -0.3209 -0.2464
 4326SOL     OW24613   0.939   1.181   4.559 -0.4020  0.6205  0.2941
 4326SOL    HW124614   1.005   1.113   4.545 -1.4942  0.2186 -2.8621
 4326SOL    HW224615   0.928   1.206   4.467 -2.9482 -0.8874  0.1780
 4327SOL     OW24616   1.939   3.822   1.002  0.7076  0.0374  0.3854
 4327SOL    HW124617   1.921   3.871   0.922 -1.0265 -1.6806 -0.2536
 4327SOL    HW224618   1.975   3.743   0.964 -2.5625 -1.5426  0.5687
 4328SOL     OW24619   2.268   3.010   5.886 -0.3325  0.6677 -0.1682
 4328SOL    HW124620   2.355   2.988   5.919 -1.1757 -1.6403  0.4494
 4328SOL    HW224621   2.270   3.106   5.892  2.0316  0.6384 -0.3819
 4329SOL     OW24622   1.993   3.905  17.653 -0.7077  0.3419 -0.8675
 4329SOL    HW124623   2.005   3.811  17.641  1.2111  0.4687  0.1192
 4329SOL    HW224624   1.971   3.929  17.563 -1.2813 -0.1064 -0.8501
 4330SOL     OW24625   3.014   2.801   6.726  0.1419 -0.0498 -0.2599
 4330SOL    HW124626   2.954   2.845   6.665  0.5249 -0.9384 -1.2861
 4330SOL    HW224627   3.051   2.869   6.782 -0.8434 -0.0699  0.4062
 4331SOL     OW24628   3.880   0.366  17.476 -0.0848 -0.0048  0.0557
 4331SOL    HW124629   3.953   0.410  17.433  0.7554  0.0622  1.5851
 4331SOL    HW224630   3.815   0.436  17.485 -2.8022 -2.8347  2.1427
 4332SOL     OW24631   1.493   0.571  13.836  0.1241  1.0906  0.6021
 4332SOL    HW124632   1.440   0.550  13.912 -2.8095 -0.9872 -2.0214
 4332SOL    HW224633   1.537   0.654  13.855  3.6688 -0.6899  0.0624
 4333SOL     OW24634   1.970   0.930   7.688 -0.0030 -0.3056  0.1537
 4333SOL    HW124635   1.987   1.022   7.670 -0.2835  0.2351  2.6816
 4333SOL    HW224636   1.894   0.916   7.632 -0.9391  2.4367  0.7558
 4334SOL     OW24637   0.526   4.121  10.034 -0.2253 -0.1561  0.1851
 4334SOL    HW124638   0.569   4.096   9.952  1.0966  1.8546  0.2618
 4334SOL    HW224639   0.501   4.040  10.079  2.3856 -0.5851  0.8957
 4335SOL     OW24640   1.002   2.916  15.379  0.1602  0.3352 -0.1005
 4335SOL    HW124641   0.960   2.998  15.405  1.1321  0.7674  0.0727
 4335SOL    HW224642   1.074   2.915  15.443 -0.1621 -1.4554  0.2599
 4336SOL     OW24643   0.559   4.492   0.407 -0.0513 -0.0005  0.0606
 4336SOL    HW124644   0.515   4.572   0.379 -0.9124  0.0446  1.5514
 4336SOL    HW224645   0.485   4.435   0.431  0.7617 -1.5555 -1.0862
 4337SOL     OW24646   3.906   1.236   5.595 -1.1099  0.0147  0.3128
 4337SOL    HW124647   3.866   1.279   5.670  0.4292  1.0374  0.5638
 4337SOL    HW224648   3.948   1.306   5.546  0.7636 -0.3775  1.3417
 4338SOL     OW24649   0.343   2.358   2.107  0.4778  0.0748  0.0822
 4338SOL    HW124650   0.269   2.416   2.090 -0.5595 -1.0609  0.7439
 4338SOL    HW224651   0.352   2.307   2.026  0.9886  0.6147 -0.2035
 4339SOL     OW24652   3.510   3.823  11.030 -0.4098 -0.2355  0.0163
 4339SOL    HW124653   3.583   3.813  10.970 -0.1399  0.6638  0.2023
 4339SOL    HW224654   3.448   3.764  10.987 -1.1727  0.6136 -0.0575
 4340SOL     OW24655   0.832   2.609   4.899  0.2115 -0.3382 -0.2918
 4340SOL    HW124656   0.808   2.668   4.827 -0.9475  0.0669  0.4394
 4340SOL    HW224657   0.828   2.669   4.973  2.4375  1.4211 -1.5788
 4341SOL     OW24658   2.138   1.771   2.410 -0.4713  0.0388 -0.0517
 4341SOL    HW124659   2.169   1.839   2.349  2.0225 -1.0811 -0.0321
 4341SOL    HW224660   2.047   1.793   2.428 -0.3464  3.0925 -3.0426
 4342SOL     OW24661   1.390   1.177  17.375  0.5076 -0.6126  0.1464
 4342SOL    HW124662   1.313   1.124  17.394  0.1980  0.0975  0.9246
 4342SOL    HW224663   1.354   1.225  17.301  1.2227 -0.6632 -0.2354
 4343SOL     OW24664   3.134   2.915   8.478  0.0627 -0.0896  0.3703
 4343SOL    HW124665   3.142   2.824   8.450  1.6185 -0.0540  0.6957
 4343SOL    HW224666   3.083   2.904   8.559  0.2134  0.7974  0.5943
 4344SOL     OW24667   4.435   1.307   3.764  0.0585 -0.2967  0.8801
 4344SOL    HW124668   4.367   1.284   3.701  0.6350 -1.0044  0.5046
 4344SOL    HW224669   4.465   1.218   3.785 -1.1440 -1.0647 -0.6584
 4345SOL     OW24670   0.221   3.352   8.001  0.1659 -0.3253  0.4155
 4345SOL    HW124671   0.160   3.281   8.020  1.1792 -1.5494 -0.9088
 4345SOL    HW224672   0.219   3.390   8.089 -0.5374 -0.7691  0.5971
 4346SOL     OW24673   0.603   4.181  11.444 -0.3683 -0.1256  0.3356
 4346SOL    HW124674   0.527   4.195  11.387  0.0881  1.1195  0.0268
 4346SOL    HW224675   0.667   4.211  11.379  2.3636 -0.7989  2.7148
 4347SOL     OW24676   4.050   3.268   2.294 -0.0572 -0.1835 -0.7630
 4347SOL    HW124677   4.000   3.333   2.246  1.8568  0.8604 -1.3627
 4347SOL    HW224678   4.025   3.278   2.386  2.3066  0.0538 -0.1292
 4348SOL     OW24679   0.194   0.626   8.770  0.4866 -0.3176 -0.2847
 4348SOL    HW124680   0.167   0.716   8.789  0.9928 -0.3381  0.5523
 4348SOL    HW224681   0.254   0.639   8.696  0.1486 -3.7392 -1.1814
 4349SOL     OW24682   4.396   2.420   7.945 -0.2384 -0.3406  0.5331
 4349SOL    HW124683   4.489   2.416   7.922 -0.6069  1.4492 -1.3723
 4349SOL    HW224684   4.408   2.496   8.002  1.5005 -0.1185 -0.1232
 4350SOL     OW24685   1.888   0.745   5.302 -0.4918  0.5322 -0.4043
 4350SOL    HW124686   1.841   0.682   5.247  0.8598  1.1024 -2.2184
 4350SOL    HW224687   1.955   0.780   5.243  0.0216  1.2381  0.5950
 4351SOL     OW24688   3.522   1.256  17.047 -0.1263 -0.1014 -0.4293
 4351SOL    HW124689   3.607   1.283  17.012 -0.6270  0.9643 -0.8224
 4351SOL    HW224690   3.475   1.233  16.967  1.1606  2.7077 -2.0007
 4352SOL     OW24691   3.355   3.463  14.370 -0.5339  0.3445 -0.3682
 4352SOL    HW124692   3.318   3.420  14.448 -0.7759 -0.9513 -1.1924
 4352SOL    HW224693   3.285   3.454  14.305  1.0223  0.9880 -2.1315
 4353SOL     OW24694   4.695   3.898   7.177  0.0638  0.2413 -0.3516
 4353SOL    HW124695   0.000   3.984   7.161  1.0328 -0.2842 -0.6800
 4353SOL    HW224696   4.698   3.848   7.095 -0.4665  0.8222 -0.7269
 4354SOL     OW24697   0.889   4.361  16.039 -0.8960  0.3984  0.4614
 4354SOL    HW124698   0.907   4.289  16.100  0.8740 -0.6830 -1.3408
 4354SOL    HW224699   0.825   4.412  16.089 -1.6181 -1.1004  1.0855
 4355SOL     OW24700   0.326   2.484   8.174 -0.2801  0.1224  0.2364
 4355SOL    HW124701   0.399   2.424   8.164 -0.5035  0.5557 -3.9805
 4355SOL    HW224702   0.370   2.568   8.164  1.1053 -0.9257 -2.1763
 4356SOL     OW24703   2.943   1.891   3.386  0.3069 -0.1663 -0.1462
 4356SOL    HW124704   2.909   1.826   3.449  0.9651 -1.1104 -0.7536
 4356SOL    HW224705   2.887   1.965   3.408  0.8460 -0.4160  2.0952
 4357SOL     OW24706   2.804   1.348   2.832 -0.0934  0.0413 -0.3130
 4357SOL    HW124707   2.762   1.386   2.755  0.5639 -1.3231 -1.3517
 4357SOL    HW224708   2.883   1.316   2.787 -1.2240 -1.4100 -1.2632
 4358SOL     OW24709   0.752   1.987   3.349  0.7989  0.2920 -0.1823
 4358SOL    HW124710   0.791   2.069   3.378 -0.0072  0.0597  1.5760
 4358SOL    HW224711   0.746   2.002   3.254 -3.5888  0.7977  0.1775
 4359SOL     OW24712   2.254   3.765   5.180  0.2535 -0.0895 -0.2847
 4359SOL    HW124713   2.193   3.824   5.136 -0.3354 -1.0813 -0.7833
 4359SOL    HW224714   2.327   3.826   5.186  0.6443 -0.5241 -0.6170
 4360SOL     OW24715   4.556   0.444   2.456 -0.2059  0.3967 -0.6307
 4360SOL    HW124716   4.604   0.461   2.375  0.3160 -0.6074 -0.5325
 4360SOL    HW224717   4.471   0.485   2.444 -0.6946 -0.5413 -0.3678
 4361SOL     OW24718   4.489   4.101   4.520 -0.3959 -0.0281 -0.6381
 4361SOL    HW124719   4.473   4.049   4.440 -0.7058 -1.5613  0.4227
 4361SOL    HW224720   4.582   4.091   4.536  0.0325  0.4358 -2.8082
 4362SOL     OW24721   1.564   0.518  15.563 -0.3778  0.5153 -0.2979
 4362SOL    HW124722   1.610   0.441  15.529 -1.6520 -1.3740  2.2996
 4362SOL    HW224723   1.522   0.474  15.637  0.3123  1.2073  0.4978
 4363SOL     OW24724   3.056   3.028   7.729  0.4342  0.1270  0.1784
 4363SOL    HW124725   3.029   2.941   7.701  1.3097  0.7958 -2.7087
 4363SOL    HW224726   3.042   3.084   7.653  0.2630  0.3532  0.3756
 4364SOL     OW24727   4.452   3.346   8.642 -0.1611 -0.1975 -0.4603
 4364SOL    HW124728   4.473   3.438   8.658 -0.3666  0.1110 -2.0023
 4364SOL    HW224729   4.477   3.330   8.551  0.9002  1.3340 -0.4371
 4365SOL     OW24730   2.247   0.246  11.586 -0.1599 -0.1885  0.1918
 4365SOL    HW124731   2.259   0.296  11.667  2.2836  1.7514 -1.3418
 4365SOL    HW224732   2.207   0.165  11.616  1.9553 -0.8095  1.3624
 4366SOL     OW24733   4.319   3.370   1.588 -0.0584 -0.8313 -0.2144
 4366SOL    HW124734   4.274   3.298   1.632  0.5310 -0.2867  1.2625
 4366SOL    HW224735   4.282   3.361   1.500 -0.7357 -1.7985  0.1680
 4367SOL     OW24736   3.447   4.310   4.125 -0.2557 -0.0392  0.3997
 4367SOL    HW124737   3.484   4.237   4.075  1.5244  2.0700 -1.3206
 4367SOL    HW224738   3.397   4.346   4.052 -1.4499 -3.0119 -0.2846
 4368SOL     OW24739   2.192   2.174   2.672 -0.4606 -0.5310 -0.1003
 4368SOL    HW124740   2.264   2.181   2.736 -0.2667  0.2079 -0.4006
 4368SOL    HW224741   2.176   2.263   2.641  0.1419  0.1335  1.4488
 4369SOL     OW24742   3.664   0.488   2.178 -0.1057  0.2817 -0.0420
 4369SOL    HW124743   3.653   0.399   2.212  0.3806  0.4545  0.5745
 4369SOL    HW224744   3.648   0.475   2.085  0.1695 -3.1177  0.3726
 4370SOL     OW24745   1.363   1.209   2.095  0.1104  0.1341  0.0358
 4370SOL    HW124746   1.329   1.299   2.093 -1.9477 -0.6220  0.4543
 4370SOL    HW224747   1.450   1.249   2.101 -0.3818  1.1794  0.3134
 4371SOL     OW24748   2.591   0.002  16.859 -0.3716  0.1326  0.0219
 4371SOL    HW124749   2.507   0.048  16.867 -1.3023 -1.7785  1.3109
 4371SOL    HW224750   2.615   0.019  16.768  1.2061  0.4314  0.4916
 4372SOL     OW24751   2.068   4.669  15.050 -0.6535  0.2918  0.1748
 4372SOL    HW124752   1.996   4.643  14.992 -0.5678  1.3137 -0.3868
 4372SOL    HW224753   2.114   4.588  15.074  2.0307  1.3891 -1.3389
 4373SOL     OW24754   3.790   1.052   8.433  0.5848  0.1745  0.9705
 4373SOL    HW124755   3.754   0.965   8.413 -0.5430  0.9929 -0.5322
 4373SOL    HW224756   3.736   1.077   8.507 -0.7163 -2.1586  0.8195
 4374SOL     OW24757   4.684   0.380  13.692  0.1023  0.3627  0.0497
 4374SOL    HW124758   4.588   0.376  13.700  0.1547 -0.3469  0.2775
 4374SOL    HW224759   4.695   0.380  13.597 -2.2597 -0.2837 -0.2258
 4375SOL     OW24760   2.109   3.802  14.219  0.2349 -0.5899  0.5954
 4375SOL    HW124761   2.049   3.858  14.268  1.1069 -0.4164  1.4682
 4375SOL    HW224762   2.138   3.873  14.162 -2.0337  0.9792  1.4269
 4376SOL     OW24763   0.546   4.601   3.218 -0.5718 -0.0707 -0.0160
 4376SOL    HW124764   0.521   4.681   3.266 -0.8667  1.3507 -2.5247
 4376SOL    HW224765   0.545   4.639   3.130  0.0237 -1.2376 -0.5285
 4377SOL     OW24766   3.050   1.870   6.846 -0.3347  0.1518 -0.5847
 4377SOL    HW124767   2.958   1.857   6.871  0.0762  1.9818  1.7714
 4377SOL    HW224768   3.061   1.965   6.843 -2.1170  0.4095  1.3631
 4378SOL     OW24769   3.538   4.093   5.933 -0.8411 -0.2246  0.4958
 4378SOL    HW124770   3.613   4.034   5.943 -1.1625 -0.6324  0.5042
 4378SOL    HW224771   3.555   4.142   5.853 -0.8416  1.5135  1.5434
 4379SOL     OW24772   1.600   0.927   7.833  0.1065 -0.6289  0.3400
 4379SOL    HW124773   1.690   0.911   7.805  0.3380  0.5244  0.4341
 4379SOL    HW224774   1.567   0.988   7.768  0.4167 -0.4377  0.3619
 4380SOL     OW24775   2.812   4.459   9.434 -0.1018 -0.0289 -0.6215
 4380SOL    HW124776   2.724   4.424   9.420  1.0134 -3.0110 -0.0499
 4380SOL    HW224777   2.875   4.387   9.433 -0.1613 -0.0877  0.2561
 4381SOL     OW24778   3.056   1.591   4.170  0.1862 -0.0732 -0.2429
 4381SOL    HW124779   3.056   1.618   4.079 -1.2211  0.8298  0.0227
 4381SOL    HW224780   3.093   1.503   4.162  1.1541  0.1461  1.5575
 4382SOL     OW24781   1.782   0.432   5.977  0.1464  0.3968  0.2166
 4382SOL    HW124782   1.803   0.479   6.058  0.7942 -0.4219  0.5199
 4382SOL    HW224783   1.687   0.443   5.977  0.1355  0.3533  0.9036
 4383SOL     OW24784   1.890   4.188   7.687  0.1193  0.1796 -0.0546
 4383SOL    HW124785   1.850   4.275   7.679  1.0086  0.5900 -0.0093
 4383SOL    HW224786   1.960   4.194   7.622 -0.0734  2.0230 -0.0914
 4384SOL     OW24787   0.268   0.865   6.515 -0.2970  0.2650 -0.2017
 4384SOL    HW124788   0.181   0.893   6.541 -0.5663  0.2928 -1.1710
 4384SOL    HW224789   0.323   0.942   6.531 -0.0492  0.0274  0.1110
 4385SOL     OW24790   2.516   4.194   6.199  0.2178  0.0613  0.2702
 4385SOL    HW124791   2.482   4.187   6.289 -0.7411  0.4952 -0.0569
 4385SOL    HW224792   2.559   4.112   6.179 -0.8065 -0.9670  2.2165
 4386SOL     OW24793   3.952   1.592   4.224 -0.7262  0.2895 -0.0576
 4386SOL    HW124794   4.033   1.634   4.252 -0.4153  1.3620 -2.5382
 4386SOL    HW224795   3.938   1.526   4.291  0.2406 -0.0879 -0.2219
 4387SOL     OW24796   0.824   0.522   7.174 -0.1323 -0.9288 -0.7530
 4387SOL    HW124797   0.799   0.582   7.104 -2.5493 -0.8191  0.2103
 4387SOL    HW224798   0.791   0.576   7.246  1.2097 -0.8205 -0.1987
 4388SOL     OW24799   3.071   2.443   2.093 -0.3546 -0.6142  0.1821
 4388SOL    HW124800   3.148   2.441   2.148 -0.4985  1.5239  0.4351
 4388SOL    HW224801   3.021   2.513   2.135 -2.2281 -1.9793  0.2251
 4389SOL     OW24802   2.227   2.552  12.762 -0.3595 -0.3117  0.3935
 4389SOL    HW124803   2.210   2.572  12.670  1.0484  2.6847  0.7875
 4389SOL    HW224804   2.311   2.506  12.760  0.4204  1.0516  1.3953
 4390SOL     OW24805   4.026   4.632   7.348 -0.0084  0.7303 -0.3589
 4390SOL    HW124806   3.957   4.696   7.362  0.2117  0.6192  1.2414
 4390SOL    HW224807   4.014   4.600   7.259  0.3471  0.9576 -0.4857
 4391SOL     OW24808   3.925   0.107  14.782  0.6497 -0.1235  0.5585
 4391SOL    HW124809   3.975   0.052  14.843  0.1931 -0.6700  0.4437
 4391SOL    HW224810   3.998   0.149  14.736 -0.1172  0.1970 -0.3665
 4392SOL     OW24811   1.654   3.073  10.007  0.3595  0.0086 -0.1134
 4392SOL    HW124812   1.586   3.007   9.997  0.6130 -0.7220  2.9888
 4392SOL    HW224813   1.598   3.150  10.011  1.4795  0.7876  0.5585
 4393SOL     OW24814   2.092   0.625   2.806 -0.1558  0.3246  0.9623
 4393SOL    HW124815   2.003   0.622   2.841 -0.2909  1.9940  0.7735
 4393SOL    HW224816   2.142   0.653   2.882 -0.8226 -1.8462  2.2115
 4394SOL     OW24817   3.886   1.076   7.129  0.0821 -0.0093  0.2885
 4394SOL    HW124818   3.930   1.070   7.214  1.5166  0.4554 -0.4127
 4394SOL    HW224819   3.829   1.153   7.134  0.2946  0.2201 -0.9444
 4395SOL     OW24820   4.718   4.396   3.631  0.0669 -0.0377  0.4399
 4395SOL    HW124821   0.034   4.439   3.563 -1.3077 -1.5956 -1.6077
 4395SOL    HW224822   4.634   4.436   3.610 -0.3219 -0.8478  0.4403
 4396SOL     OW24823   3.481   2.382   3.832 -0.5839  0.4765 -0.7803
 4396SOL    HW124824   3.468   2.428   3.914 -1.5369  0.4361 -0.8997
 4396SOL    HW224825   3.576   2.375   3.825 -0.5006  0.0101  0.8890
 4397SOL     OW24826   4.101   1.472   6.705  0.2507 -0.0042 -0.2483
 4397SOL    HW124827   4.047   1.543   6.670 -1.0943 -0.0076  1.7813
 4397SOL    HW224828   4.039   1.433   6.767 -1.0410 -0.2937 -1.7111
 4398SOL     OW24829   4.617   4.682   9.220 -0.1786  0.4161  0.4911
 4398SOL    HW124830   4.601   4.597   9.178 -0.9170  2.5928 -3.5943
 4398SOL    HW224831   4.539   4.734   9.205 -1.0357 -1.8971 -3.1473
 4399SOL     OW24832   0.032   1.676   3.751 -0.6022 -0.2720 -0.3492
 4399SOL    HW124833   0.001   1.707   3.666  1.9207 -1.0260 -1.5360
 4399SOL    HW224834   0.012   1.582   3.749 -1.0075 -0.1887 -0.3238
 4400SOL     OW24835   3.681   2.515   1.053  0.3271  0.6573 -0.4895
 4400SOL    HW124836   3.625   2.564   0.993 -0.9532 -0.0595  0.1136
 4400SOL    HW224837   3.628   2.530   1.131  0.3481 -1.8635  0.0060
 4401SOL     OW24838   1.076   3.649   2.077 -0.3471  0.4507 -0.2414
 4401SOL    HW124839   1.017   3.724   2.081 -2.3922 -1.0694 -2.9407
 4401SOL    HW224840   1.063   3.626   1.986  1.7904  0.2329 -0.5075
 4402SOL     OW24841   0.995   2.505  10.467 -0.7054  0.6038  0.0873
 4402SOL    HW124842   0.999   2.495  10.372  1.4218 -2.1300  0.4715
 4402SOL    HW224843   0.910   2.463  10.484 -1.6505  2.1901 -0.6985
 4403SOL     OW24844   3.436   1.749  14.840  0.2733 -0.1289  0.2959
 4403SOL    HW124845   3.445   1.843  14.857 -0.5122 -0.2313  1.2595
 4403SOL    HW224846   3.346   1.726  14.861 -0.3223 -0.3408 -2.4707
 4404SOL     OW24847   2.533   1.828   9.194  0.3565 -0.1213  0.5251
 4404SOL    HW124848   2.538   1.920   9.170 -0.0087 -0.2200  0.0577
 4404SOL    HW224849   2.619   1.804   9.227  0.8470 -1.0579 -1.3973
 4405SOL     OW24850   3.794   2.309   6.909  0.0759 -0.0247 -0.4275
 4405SOL    HW124851   3.749   2.365   6.846  1.7501  0.3126 -1.3375
 4405SOL    HW224852   3.769   2.225   6.870  0.5116  0.3134 -1.4285
 4406SOL     OW24853   3.823   1.758   6.298 -0.1905  0.5442 -0.2304
 4406SOL    HW124854   3.737   1.739   6.336 -0.4515  3.2169  0.5498
 4406SOL    HW224855   3.834   1.851   6.319 -1.0169  1.4481 -3.7085
 4407SOL     OW24856   2.227   1.272   9.256 -0.1675  0.4944 -0.4853
 4407SOL    HW124857   2.165   1.210   9.217  1.2887 -1.4099  0.2151
 4407SOL    HW224858   2.158   1.321   9.302 -0.4513 -0.3376 -0.0055
 4408SOL     OW24859   1.357   0.725   2.497  0.5920 -0.0271 -0.1460
 4408SOL    HW124860   1.399   0.782   2.560 -0.1485 -0.7363  0.9828
 4408SOL    HW224861   1.282   0.777   2.466  0.9436 -0.0047 -0.9757
 4409SOL     OW24862   2.848   4.572   8.366  0.2564  0.0934  0.5177
 4409SOL    HW124863   2.819   4.617   8.286  1.8874  1.2116  0.5661
 4409SOL    HW224864   2.771   4.530   8.404 -1.4685  2.1471 -0.6448
 4410SOL     OW24865   3.809   2.604   2.356 -0.1288 -0.0319 -0.2099
 4410SOL    HW124866   3.823   2.610   2.261  1.3298  0.9497  0.0606
 4410SOL    HW224867   3.864   2.673   2.393  2.5593 -1.9292 -0.6742
 4411SOL     OW24868   2.822   1.608   3.371  0.1478  0.4873  0.0254
 4411SOL    HW124869   2.871   1.602   3.289  0.6528  0.1529  0.3524
 4411SOL    HW224870   2.831   1.519   3.405  2.1661  1.1002  1.1114
 4412SOL     OW24871   2.484   2.751   7.430 -0.1347 -0.5810 -0.2569
 4412SOL    HW124872   2.575   2.737   7.406  0.6543  4.7237 -0.2763
 4412SOL    HW224873   2.498   2.720   7.520 -2.2144 -1.2850 -0.1642
 4413SOL     OW24874   2.815   3.361   6.934 -0.1247 -0.4904  0.2627
 4413SOL    HW124875   2.802   3.447   6.974 -1.1776 -1.4300  1.9573
 4413SOL    HW224876   2.800   3.309   7.013 -1.9143  0.1894  0.3658
 4414SOL     OW24877   4.149   0.657   1.401  0.1045  0.0408 -0.5524
 4414SOL    HW124878   4.072   0.647   1.456 -0.8337 -0.7409 -2.0048
 4414SOL    HW224879   4.122   0.600   1.329 -0.1780 -2.0361  1.1851
 4415SOL     OW24880   2.181   2.443   6.524  0.0462 -0.4049  0.0978
 4415SOL    HW124881   2.188   2.358   6.481  1.2330 -2.1687  3.7936
 4415SOL    HW224882   2.268   2.473   6.551 -1.6897  2.0485  3.0684
 4416SOL     OW24883   1.102   0.466  11.679  0.0378 -0.4625 -0.4531
 4416SOL    HW124884   1.129   0.428  11.595 -0.6923 -2.1657  0.0748
 4416SOL    HW224885   1.189   0.469  11.717 -0.3431 -1.1036  0.4654
 4417SOL     OW24886   1.139   3.024   8.816  0.1652 -0.0829  0.4659
 4417SOL    HW124887   1.169   3.108   8.782 -0.8094  0.2241  0.3767
 4417SOL    HW224888   1.222   2.988   8.847  0.5778  0.2915 -0.2112
 4418SOL     OW24889   2.642   0.589   5.708 -0.5572  0.2016 -0.2145
 4418SOL    HW124890   2.549   0.603   5.727 -0.6109  0.3225 -0.5560
 4418SOL    HW224891   2.684   0.643   5.774 -0.7540  0.5469 -0.3655
 4419SOL     OW24892   2.417   3.609   5.333 -0.1928  1.1846 -0.3246
 4419SOL    HW124893   2.415   3.698   5.369 -2.9145  1.0436 -0.1349
 4419SOL    HW224894   2.328   3.601   5.298 -0.5555  1.5159  0.5227
 4420SOL     OW24895   0.366   1.970   5.736 -0.3261 -0.4590  0.2466
 4420SOL    HW124896   0.385   1.927   5.653  3.0972  1.8954 -0.1919
 4420SOL    HW224897   0.451   1.955   5.778 -0.4029 -1.3220  0.0936
 4421SOL     OW24898   0.933   2.154  15.873  0.4485 -0.2805  1.0289
 4421SOL    HW124899   0.928   2.241  15.911 -0.9593  0.7609 -1.5372
 4421SOL    HW224900   0.897   2.183  15.789 -0.8482 -0.5904  1.4751
 4422SOL     OW24901   4.633   4.504   3.151  0.0151 -0.3355  0.1379
 4422SOL    HW124902   4.686   4.575   3.115 -0.8340  0.2850  0.1381
 4422SOL    HW224903   4.545   4.518   3.117  0.5874 -0.5619 -1.4205
 4423SOL     OW24904   3.696   2.001   4.495  0.0952 -0.3569  0.0849
 4423SOL    HW124905   3.676   1.907   4.495 -0.2301 -0.2796 -0.9749
 4423SOL    HW224906   3.727   2.010   4.405  0.7922  0.2186  0.3821
 4424SOL     OW24907   4.399   0.659   2.720  0.7858  0.0441  0.1125
 4424SOL    HW124908   4.313   0.618   2.722  0.2046  1.2304 -0.7127
 4424SOL    HW224909   4.440   0.615   2.795  0.9681  1.5087  0.8785
 4425SOL     OW24910   2.235   0.597   7.019 -0.0746 -0.2281 -0.7198
 4425SOL    HW124911   2.145   0.563   7.016  0.6730 -2.4358  2.5817
 4425SOL    HW224912   2.198   0.684   7.003  1.5944  1.0382  2.4406
 4426SOL     OW24913   0.659   2.375  10.712  0.8549 -0.3718 -0.0003
 4426SOL    HW124914   0.642   2.359  10.620  1.5635 -0.7209 -0.0640
 4426SOL    HW224915   0.728   2.312  10.729  0.8015 -0.5219 -0.3497
 4427SOL     OW24916   0.542   0.460  11.585  0.0338 -1.1261  0.2557
 4427SOL    HW124917   0.480   0.431  11.652  0.7235  0.0917  1.4314
 4427SOL    HW224918   0.614   0.396  11.592 -0.1484 -1.2603  0.9786
 4428SOL     OW24919   0.248   4.683   5.577 -0.0418  0.0544 -0.3946
 4428SOL    HW124920   0.252   0.003   5.499 -0.0799 -0.9927 -1.1290
 4428SOL    HW224921   0.335   4.644   5.567  0.3131  0.4721  1.0727
 4429SOL     OW24922   4.496   4.626  17.095  0.6355 -0.2165 -0.3626
 4429SOL    HW124923   4.570   4.597  17.042  1.0050  0.1320 -0.0441
 4429SOL    HW224924   4.461   4.545  17.132 -0.7240 -0.2656 -1.7483
 4430SOL     OW24925   4.098   0.550   3.969 -0.5093 -0.5702  0.0142
 4430SOL    HW124926   4.150   0.546   3.889  0.5977  2.0817  0.6032
 4430SOL    HW224927   4.154   0.599   4.028 -0.0698  1.0964 -1.7897
 4431SOL     OW24928   0.687   4.245  10.619  0.1312  0.3189 -0.2550
 4431SOL    HW124929   0.742   4.182  10.571  3.2600  1.8180  1.3719
 4431SOL    HW224930   0.656   4.302  10.549 -0.5059  1.6953  1.1658
 4432SOL     OW24931   1.067   2.148   2.953 -0.0118  0.6647 -0.6234
 4432SOL    HW124932   0.974   2.129   2.946  0.1810  0.7175 -3.2506
 4432SOL    HW224933   1.063   2.243   2.961  1.7997  0.7011 -0.1216
 4433SOL     OW24934   2.077   0.097   4.932 -0.3608 -0.3500 -0.3355
 4433SOL    HW124935   2.089   0.099   4.837 -0.1447  0.1683 -0.2978
 4433SOL    HW224936   2.125   0.017   4.951 -0.1220 -0.4341 -1.2855
 4434SOL     OW24937   0.086   1.049   3.351  0.1530 -0.3083 -0.2614
 4434SOL    HW124938   0.140   1.127   3.340 -1.8339  1.2366  1.0994
 4434SOL    HW224939   0.116   1.010   3.433 -0.2007 -0.2116 -0.0872
 4435SOL     OW24940   3.980   2.076   4.531  0.7905 -0.2874  0.4857
 4435SOL    HW124941   3.924   2.007   4.564 -2.5504  1.5492 -1.3256
 4435SOL    HW224942   3.916   2.141   4.501 -3.3258 -4.2228  0.9375
 4436SOL     OW24943   1.344   2.137  12.972  0.2960 -0.5128  0.2959
 4436SOL    HW124944   1.418   2.078  12.978  1.8636  1.4646  0.4337
 4436SOL    HW224945   1.376   2.192  13.043 -1.6187  0.4339  0.4450
 4437SOL     OW24946   1.491   1.773   9.264  0.1204  0.5629 -0.3872
 4437SOL    HW124947   1.504   1.860   9.301  0.3338 -0.3906  1.7740
 4437SOL    HW224948   1.573   1.736   9.295  0.4773 -0.5965 -2.7950
 4438SOL     OW24949   1.054   4.252  12.680 -0.5848  0.0587 -0.0054
 4438SOL    HW124950   1.056   4.161  12.650  0.3655  0.0577  0.0733
 4438SOL    HW224951   1.138   4.250  12.725 -0.6184 -2.1468 -0.0401
 4439SOL     OW24952   2.746   0.747   8.726  0.1284  0.1412  0.4722
 4439SOL    HW124953   2.781   0.705   8.647 -1.1125  0.1671 -0.0799
 4439SOL    HW224954   2.798   0.823   8.753  0.9771 -0.1235 -0.3803
 4440SOL     OW24955   4.363   2.367   6.442 -0.2034  0.6557 -0.1230
 4440SOL    HW124956   4.435   2.428   6.454 -0.2183  0.3421  1.5603
 4440SOL    HW224957   4.342   2.363   6.349  0.7806 -3.1238 -0.2027
 4441SOL     OW24958   0.607   0.037   0.145  0.0945  0.3075  0.0115
 4441SOL    HW124959   0.542   0.106   0.132  1.2738  0.8238 -2.9941
 4441SOL    HW224960   0.624   0.049   0.239  0.3957 -0.5054  0.0632
 4442SOL     OW24961   1.051   1.368   9.271  0.5905  0.6508 -0.1734
 4442SOL    HW124962   1.014   1.419   9.199 -2.0441 -0.0148  0.6971
 4442SOL    HW224963   1.008   1.412   9.344 -4.0147 -1.1168 -1.7979
 4443SOL     OW24964   1.692   1.241   2.908  0.2247  0.3257  0.3718
 4443SOL    HW124965   1.690   1.335   2.889 -3.7383  0.3719  0.9468
 4443SOL    HW224966   1.703   1.217   2.816  1.0391  2.2869 -0.0362
 4444SOL     OW24967   3.554   0.159   2.647 -0.0071 -0.4324  0.1011
 4444SOL    HW124968   3.559   0.089   2.581 -0.7039 -1.3764  1.0388
 4444SOL    HW224969   3.477   0.204   2.612 -1.4791 -2.0215  1.2815
 4445SOL     OW24970   4.717   1.561   0.737  0.4157 -0.3687 -0.0374
 4445SOL    HW124971   0.007   1.470   0.719 -0.5194 -0.4505 -0.9252
 4445SOL    HW224972   4.662   1.581   0.661 -1.0834 -1.1876  0.8321
 4446SOL     OW24973   4.373   1.995   3.268  0.0900  0.4701  0.3077
 4446SOL    HW124974   4.442   2.051   3.232 -0.8112  0.4776 -1.3917
 4446SOL    HW224975   4.334   2.064   3.322 -1.3621 -0.4174  0.3761
 4447SOL     OW24976   2.117   0.848   0.912  0.0228 -0.4658 -0.5453
 4447SOL    HW124977   2.110   0.767   0.963  0.9690 -2.6230 -3.8564
 4447SOL    HW224978   2.153   0.805   0.835  0.1480  0.0187 -0.7536
 4448SOL     OW24979   2.000   2.355   5.938 -0.0045 -0.3108  0.4283
 4448SOL    HW124980   1.997   2.407   5.858 -2.6645 -0.8461  0.1747
 4448SOL    HW224981   2.091   2.327   5.929 -0.0962 -0.9317  1.4516
 4449SOL     OW24982   1.654   1.799  17.420  0.6433 -0.0315  0.5278
 4449SOL    HW124983   1.703   1.751  17.354 -2.5063  0.6926 -2.3284
 4449SOL    HW224984   1.677   1.753  17.501 -0.6772 -2.4336 -0.4675
 4450SOL     OW24985   1.095   4.209   4.049 -0.1345  0.8618  0.0338
 4450SOL    HW124986   1.114   4.115   4.044 -0.3672  0.8606 -0.8309
 4450SOL    HW224987   1.043   4.207   4.129  0.1146  0.8940  0.1975
 4451SOL     OW24988   3.584   1.378  17.323  0.4865 -0.2510  1.0732
 4451SOL    HW124989   3.555   1.424  17.244  2.4333  0.6167  0.8680
 4451SOL    HW224990   3.562   1.287  17.305  0.3769 -0.1780  0.8237
 4452SOL     OW24991   3.556   0.167   5.211 -0.3032 -0.2461  0.0669
 4452SOL    HW124992   3.490   0.098   5.216 -0.6431  0.0640 -0.1135
 4452SOL    HW224993   3.599   0.141   5.130  1.2192 -2.1133  1.4856
 4453SOL     OW24994   4.154   0.363   4.651 -0.0614  0.1268 -0.1197
 4453SOL    HW124995   4.084   0.362   4.585 -1.1119  0.3974  1.0062
 4453SOL    HW224996   4.204   0.283   4.631  1.5240  1.3051 -0.8525
 4454SOL     OW24997   3.979   2.939   1.433 -1.3558  0.7948  0.2624
 4454SOL    HW124998   3.951   3.014   1.485 -0.0419 -1.2828  3.9459
 4454SOL    HW224999   3.940   2.868   1.484  1.3434 -0.7612  0.1536
 4455SOL     OW25000   4.511   0.023   4.592  0.1219 -0.2418 -0.5061
 4455SOL    HW125001   4.447   4.687   4.591  0.9242 -0.9672  0.0212
 4455SOL    HW225002   4.470   0.076   4.660  1.0523  0.9516 -0.8758
 4456SOL     OW25003   2.620   0.596   3.096 -0.9068  0.1276 -0.1600
 4456SOL    HW125004   2.689   0.632   3.153  0.4851  0.0017 -1.7664
 4456SOL    HW225005   2.565   0.674   3.097  1.4210  1.7782 -2.8006
 4457SOL     OW25006   2.595   4.521   7.380 -0.4169 -0.8341  0.5739
 4457SOL    HW125007   2.596   4.426   7.373 -0.0490 -0.7920  0.0451
 4457SOL    HW225008   2.650   4.539   7.456 -0.1251  0.3910  0.0828
 4458SOL     OW25009   1.309   4.028   8.174  0.0217 -0.0666  0.1472
 4458SOL    HW125010   1.313   4.110   8.124 -0.5616 -1.2197 -1.7751
 4458SOL    HW225011   1.314   4.062   8.263 -1.1070 -0.3307  0.3032
 4459SOL     OW25012   0.172   3.662   6.967 -0.2389  0.0088 -0.2993
 4459SOL    HW125013   0.261   3.685   6.937 -0.2315 -1.6113 -1.4950
 4459SOL    HW225014   0.118   3.719   6.913 -0.1136  0.2498 -0.1722
 4460SOL     OW25015   0.924   1.125   4.859  0.3317  0.3151  0.1028
 4460SOL    HW125016   0.927   1.137   4.764 -0.2002 -2.0751 -0.2127
 4460SOL    HW225017   0.856   1.060   4.878  1.1064 -0.3856  0.4523
 4461SOL     OW25018   1.771   3.050   2.610 -0.1623  0.0841 -0.2821
 4461SOL    HW125019   1.836   3.102   2.656 -1.8039 -0.3198  2.4911
 4461SOL    HW225020   1.782   3.103   2.531  0.6022  1.3247  0.6757
 4462SOL     OW25021   2.932   4.646   8.643  0.2891  0.0858  0.6742
 4462SOL    HW125022   2.878   4.640   8.565 -0.6933 -0.0741  1.3739
 4462SOL    HW225023   3.008   4.595   8.616  0.6171  1.6841 -1.3878
 4463SOL     OW25024   0.990   2.572   2.138  0.4739  0.1065  0.6444
 4463SOL    HW125025   0.929   2.504   2.166  1.3425  0.0928  2.4705
 4463SOL    HW225026   1.067   2.517   2.122  0.1326 -0.2407  0.1815
 4464SOL     OW25027   4.572   3.988   2.765  0.1389  0.6117  0.0080
 4464SOL    HW125028   4.494   3.941   2.736  2.3371 -2.4281 -0.9542
 4464SOL    HW225029   4.540   4.078   2.764 -1.1878  0.1328 -0.0924
 4465SOL     OW25030   2.186   2.247  13.962  0.3973  0.1324 -0.2359
 4465SOL    HW125031   2.102   2.227  13.922 -0.1006 -1.0669  1.3917
 4465SOL    HW225032   2.148   2.259  14.049 -0.1299 -3.4268  0.0538
 4466SOL     OW25033   4.668   1.340  14.622 -0.3310 -0.0517  0.1165
 4466SOL    HW125034   4.711   1.418  14.656 -1.0268  1.4968 -2.5538
 4466SOL    HW225035   4.647   1.382  14.538 -0.7700  1.1145  0.8152
 4467SOL     OW25036   0.908   2.963  12.499  1.1844 -0.4039  0.5528
 4467SOL    HW125037   0.926   3.003  12.415  0.5670 -0.6777  0.2880
 4467SOL    HW225038   0.840   2.896  12.485  1.3704 -0.3840 -0.4118
 4468SOL     OW25039   0.917   0.481   2.334 -0.1277  0.0404  0.6738
 4468SOL    HW125040   0.991   0.497   2.392  1.0513 -2.0820 -0.2417
 4468SOL    HW225041   0.861   0.557   2.344  1.3821  1.1318  0.7743
 4469SOL     OW25042   0.261   4.571   9.917  0.0931 -0.5511  0.1100
 4469SOL    HW125043   0.213   4.502   9.964  0.7275  0.8491  2.8555
 4469SOL    HW225044   0.225   4.562   9.829 -0.7983 -3.6847  0.7758
 4470SOL     OW25045   4.297   1.410   8.099 -0.0250  0.1683 -0.5628
 4470SOL    HW125046   4.297   1.485   8.039 -0.9727  0.9167  0.3799
 4470SOL    HW225047   4.205   1.403   8.124  0.5259 -1.0088  1.0662
 4471SOL     OW25048   2.037   1.270   3.533 -0.1084  0.3896 -0.7350
 4471SOL    HW125049   2.124   1.308   3.531 -0.3203  0.7356 -2.9809
 4471SOL    HW225050   2.037   1.243   3.625  0.4343 -0.1987 -0.9098
 4472SOL     OW25051   3.674   3.478   3.443  1.0469 -0.0800 -0.1020
 4472SOL    HW125052   3.638   3.564   3.422 -3.3241 -2.3829 -2.0102
 4472SOL    HW225053   3.754   3.472   3.392  0.0109  1.1825 -1.8501
 4473SOL     OW25054   2.808   2.965  16.180  0.3680  0.2462 -0.1856
 4473SOL    HW125055   2.892   2.986  16.139 -0.4611  4.0992  0.0801
 4473SOL    HW225056   2.753   3.043  16.175  0.8817  0.8698  3.7781
 4474SOL     OW25057   1.761   3.908   7.074 -0.0489  0.6592  0.0661
 4474SOL    HW125058   1.761   4.001   7.051 -1.9344 -0.1397 -3.1790
 4474SOL    HW225059   1.712   3.918   7.155 -2.2058 -3.3864 -0.7246
 4475SOL     OW25060   2.933   4.609  16.075  0.6839  0.6964  0.1995
 4475SOL    HW125061   2.984   4.619  15.994 -0.5617  0.3328 -0.6290
 4475SOL    HW225062   2.950   4.516  16.088  1.8431  0.9972  0.8185
 4476SOL     OW25063   4.308   4.449  10.756  0.2462  0.3705 -0.0017
 4476SOL    HW125064   4.242   4.444  10.825  0.1039 -2.7649 -0.3770
 4476SOL    HW225065   4.298   4.361  10.719 -1.8804  1.6221 -2.4104
 4477SOL     OW25066   1.031   0.085  13.346  0.3913 -0.2851 -0.1735
 4477SOL    HW125067   1.109   0.140  13.347  0.4480 -0.3228 -1.7261
 4477SOL    HW225068   0.961   0.148  13.363 -0.5150 -1.0975 -0.8413
 4478SOL     OW25069   2.693   2.702   6.325  0.1751 -0.1443  1.0961
 4478SOL    HW125070   2.630   2.701   6.253  0.0777  0.8506  1.1614
 4478SOL    HW225071   2.698   2.609   6.347 -1.8118 -0.3621  0.6688
 4479SOL     OW25072   3.613   0.750   8.485 -0.2651  0.2550 -0.1629
 4479SOL    HW125073   3.525   0.735   8.450 -0.2082  0.2030 -0.2844
 4479SOL    HW225074   3.655   0.776   8.402  2.2731 -1.9509  0.4357
 4480SOL     OW25075   4.699   3.724   2.511 -0.0054  0.1031 -0.4446
 4480SOL    HW125076   4.654   3.740   2.594  3.2532  3.8475  0.6269
 4480SOL    HW225077   4.646   3.654   2.473 -0.7183 -0.1356  0.9890
 4481SOL     OW25078   3.197   4.512   4.405 -0.0088  0.7074  0.4011
 4481SOL    HW125079   3.228   4.593   4.444 -0.8334  0.7760  0.8959
 4481SOL    HW225080   3.209   4.529   4.311 -1.2514 -1.8026 -0.2202
 4482SOL     OW25081   3.811   3.008   4.397  0.1369  0.4060  0.3095
 4482SOL    HW125082   3.751   2.948   4.442 -0.8045  2.7176  2.1541
 4482SOL    HW225083   3.875   3.037   4.462  1.1580 -0.6036 -0.2506
 4483SOL     OW25084   2.430   2.991   0.660  0.0902 -0.5136  0.4654
 4483SOL    HW125085   2.354   2.951   0.701 -1.2143  1.9104  0.3944
 4483SOL    HW225086   2.478   2.910   0.641 -0.2056 -0.4386 -0.6304
 4484SOL     OW25087   3.978   4.288   6.717  0.8729  0.4591 -0.6167
 4484SOL    HW125088   4.005   4.208   6.763 -0.5550 -0.6936 -1.7923
 4484SOL    HW225089   3.997   4.354   6.784  3.4568 -0.2869 -0.6133
 4485SOL     OW25090   4.144   2.026   2.732 -0.5951  0.2510 -0.9530
 4485SOL    HW125091   4.225   2.069   2.706 -0.5670  0.2630 -0.8478
 4485SOL    HW225092   4.112   2.090   2.797 -1.2712 -2.1907  1.1215
 4486SOL     OW25093   4.169   0.980   1.832  0.4807  0.0604  0.0293
 4486SOL    HW125094   4.239   0.963   1.895 -0.3255  0.7562  1.0943
 4486SOL    HW225095   4.228   0.977   1.756 -2.2817  0.4022 -2.1188
 4487SOL     OW25096   4.562   3.266   3.229  0.0963 -0.3403 -0.4698
 4487SOL    HW125097   4.522   3.306   3.306  2.4547  0.2671  0.4401
 4487SOL    HW225098   4.548   3.173   3.244 -1.9656  0.1793  0.7761
 4488SOL     OW25099   2.460   1.322   4.608  0.3642 -0.5514  0.4607
 4488SOL    HW125100   2.404   1.390   4.570 -0.8954 -1.1280  1.2913
 4488SOL    HW225101   2.516   1.374   4.666  1.1791 -0.4276 -0.4391
 4489SOL     OW25102   3.200   0.560   7.533  0.5749 -0.4051 -0.7316
 4489SOL    HW125103   3.158   0.477   7.510  0.1080 -0.7542  1.3532
 4489SOL    HW225104   3.246   0.533   7.613  1.5105  1.0320 -0.7733
 4490SOL     OW25105   0.068   2.983   1.341 -0.5130 -0.1755  0.4616
 4490SOL    HW125106   4.713   2.958   1.358  0.6466 -2.4920  3.2547
 4490SOL    HW225107   0.112   2.955   1.422 -2.8362  0.2113  1.8520
 4491SOL     OW25108   0.070   4.716   3.177  0.1281  0.1669 -0.4355
 4491SOL    HW125109   0.131   0.055   3.174 -2.0732  1.9159 -1.4523
 4491SOL    HW225110   0.021   0.004   3.256 -1.0345 -1.0168 -0.8105
 4492SOL     OW25111   2.375   3.378  13.054  0.3837 -0.0124  0.5942
 4492SOL    HW125112   2.410   3.321  12.986  1.4940  1.4096 -0.0411
 4492SOL    HW225113   2.299   3.324  13.074  0.1730 -0.7520 -2.2383
 4493SOL     OW25114   2.600   0.485   8.646 -0.0894  0.0363 -0.6360
 4493SOL    HW125115   2.652   0.481   8.726 -0.7854  1.6020 -0.1034
 4493SOL    HW225116   2.585   0.578   8.631  1.5134  0.4651  0.5247
 4494SOL     OW25117   1.308   0.628   7.091  0.4106 -0.3330  0.4261
 4494SOL    HW125118   1.270   0.687   7.027 -1.5673 -1.5278  0.4754
 4494SOL    HW225119   1.262   0.547   7.066 -1.8938  0.7290  1.2257
 4495SOL     OW25120   1.092   0.274  11.173  0.0892  0.1350  0.0941
 4495SOL    HW125121   1.152   0.348  11.167  0.1958  0.1633  1.6583
 4495SOL    HW225122   1.075   0.257  11.265  0.0128  1.1040  0.2642
 4496SOL     OW25123   1.958   3.678   2.241  0.1842  0.6461 -0.6550
 4496SOL    HW125124   1.876   3.633   2.261 -0.4664  3.0074  2.1125
 4496SOL    HW225125   2.001   3.629   2.171 -1.1117  0.8690 -1.6265
 4497SOL     OW25126   3.283   3.237   5.964 -0.3059 -0.4794 -0.1861
 4497SOL    HW125127   3.199   3.279   5.948 -1.1800 -1.2147  2.4007
 4497SOL    HW225128   3.315   3.222   5.876  0.6009 -1.0255  0.2330
 4498SOL     OW25129   2.316   0.046   5.911  0.5932 -0.5752  0.3600
 4498SOL    HW125130   2.238   0.101   5.916  0.7134 -0.6260  2.7437
 4498SOL    HW225131   2.364   0.072   5.989  2.4950 -1.6026 -0.4547
 4499SOL     OW25132   0.954   0.268   6.473  0.1479  0.1165  0.2358
 4499SOL    HW125133   0.944   0.356   6.510 -1.8713 -0.1693  0.3891
 4499SOL    HW225134   0.893   0.224   6.531 -2.3508  1.3005 -1.4794
 4500SOL     OW25135   4.543   3.149   7.914  0.2799  0.2476 -0.2065
 4500SOL    HW125136   4.452   3.123   7.898  0.7756 -1.0077 -0.9403
 4500SOL    HW225137   4.558   3.197   7.832  3.7053 -1.5465 -0.6007
 4501SOL     OW25138   4.224   3.062   2.899 -0.7314  0.1180  0.1674
 4501SOL    HW125139   4.307   3.100   2.870 -0.0845 -2.2223 -1.0826
 4501SOL    HW225140   4.252   2.999   2.966  0.2165 -0.0313 -0.3671
 4502SOL     OW25141   4.061   0.544   4.317  0.1438  0.0560  0.7153
 4502SOL    HW125142   4.039   0.455   4.344 -1.3902  0.1722 -0.1836
 4502SOL    HW225143   4.005   0.558   4.241 -0.4957  2.1008  1.5410
 4503SOL     OW25144   4.329   3.791  16.925 -0.3829 -0.2981  0.2945
 4503SOL    HW125145   4.335   3.831  17.012 -1.2501 -0.4256  0.4106
 4503SOL    HW225146   4.386   3.717  16.945  1.9555  1.5841  0.6358
 4504SOL     OW25147   2.832   1.767   1.636 -0.0238 -0.4100  0.7424
 4504SOL    HW125148   2.852   1.823   1.711  0.2229  1.1321 -0.4773
 4504SOL    HW225149   2.885   1.693   1.667  0.6303 -0.7115 -1.1146
 4505SOL     OW25150   4.323   1.950   4.721 -1.2809 -0.7375  0.3760
 4505SOL    HW125151   4.343   1.906   4.803  2.8861  0.5802  0.0839
 4505SOL    HW225152   4.242   1.904   4.702  1.4042 -4.3923 -2.1705
 4506SOL     OW25153   2.876   4.686  16.474 -0.6226 -0.0975 -0.0234
 4506SOL    HW125154   2.858   4.608  16.526  0.5931  0.8719  1.8771
 4506SOL    HW225155   2.938   4.733  16.530 -0.5678 -0.4886  0.2485
 4507SOL     OW25156   1.160   0.945  16.232 -0.2610 -0.5168 -0.0661
 4507SOL    HW125157   1.124   0.911  16.314  0.1140  0.1432  0.3725
 4507SOL    HW225158   1.106   0.896  16.170 -2.2132 -0.2170  1.3771
 4508SOL     OW25159   3.502   3.687  17.191 -0.3266 -0.4873 -0.2677
 4508SOL    HW125160   3.585   3.642  17.174 -0.2561 -0.7069  0.6810
 4508SOL    HW225161   3.491   3.740  17.112 -0.7295 -1.1701 -0.6697
 4509SOL     OW25162   1.956   3.763   8.307 -0.2806  0.1853  0.0235
 4509SOL    HW125163   2.044   3.725   8.297  0.1705  0.8216  1.5048
 4509SOL    HW225164   1.918   3.699   8.368  0.3363  1.2134  1.4762
 4510SOL     OW25165   1.225   0.088   3.624 -0.0744  0.0098 -0.0804
 4510SOL    HW125166   1.231   0.016   3.687 -0.8015  0.0484  0.0328
 4510SOL    HW225167   1.227   0.158   3.690 -0.9708  0.1782 -0.2313
 4511SOL     OW25168   2.742   3.766  14.920  0.0408  0.3646  0.1253
 4511SOL    HW125169   2.764   3.815  14.841 -0.1931  0.2215 -0.0284
 4511SOL    HW225170   2.680   3.697  14.894 -2.2559  1.7875  1.8537
 4512SOL     OW25171   3.303   2.728   3.450  0.5908 -0.7313 -0.4028
 4512SOL    HW125172   3.250   2.808   3.455  1.5139 -0.1150 -0.5397
 4512SOL    HW225173   3.367   2.751   3.517  0.6216 -1.7575 -0.0797
 4513SOL     OW25174   0.161   0.194   8.642  0.2783  0.1009 -0.1398
 4513SOL    HW125175   0.243   0.168   8.600 -0.2389  0.2100 -1.2112
 4513SOL    HW225176   0.090   0.142   8.603 -0.8249  1.5765 -0.0831
 4514SOL     OW25177   4.680   4.215   1.360 -0.0119  0.2964 -0.0096
 4514SOL    HW125178   4.672   4.162   1.280 -1.3018 -1.6087  1.3616
 4514SOL    HW225179   4.593   4.197   1.396 -0.0958 -0.5924 -0.6522
 4515SOL     OW25180   2.717   4.109   4.526  0.8247 -0.1945 -0.1219
 4515SOL    HW125181   2.670   4.167   4.466  0.0311 -1.6012 -0.8547
 4515SOL    HW225182   2.765   4.165   4.587  1.5940 -0.5485 -0.4011
 4516SOL     OW25183   1.476   0.740   7.287  0.5635 -0.0657  0.1615
 4516SOL    HW125184   1.392   0.725   7.243  0.2584 -0.7262  0.9617
 4516SOL    HW225185   1.486   0.645   7.292 -1.1930 -0.2734 -0.1127
 4517SOL     OW25186   1.707   3.294   7.307 -0.2279  0.7008  0.1879
 4517SOL    HW125187   1.724   3.379   7.266  0.5168  0.1853 -0.5597
 4517SOL    HW225188   1.621   3.307   7.348  1.3275  4.6282  2.2728
 4518SOL     OW25189   0.365   1.956   9.346  0.5093  0.2374  0.2151
 4518SOL    HW125190   0.343   2.048   9.332  2.9208  0.5683 -1.2400
 4518SOL    HW225191   0.284   1.916   9.314  0.3636 -1.2357  2.4256
 4519SOL     OW25192   3.856   0.765   5.583 -0.4924 -0.4226  0.0194
 4519SOL    HW125193   3.788   0.783   5.647 -0.2072 -0.6154  0.3730
 4519SOL    HW225194   3.876   0.850   5.544 -1.6283  0.3099  1.0517
 4520SOL     OW25195   1.136   2.878   6.954  0.3873 -0.1130  0.1527
 4520SOL    HW125196   1.089   2.879   7.037  2.1220  2.9352  1.1094
 4520SOL    HW225197   1.199   2.809   6.971  1.7189  1.0003 -0.2556
 4521SOL     OW25198   2.553   1.590   6.936 -0.0592 -0.2363 -0.4670
 4521SOL    HW125199   2.479   1.577   6.995 -0.3669 -2.1308 -1.2775
 4521SOL    HW225200   2.567   1.499   6.912  2.1501  0.3257 -1.2981
 4522SOL     OW25201   4.034   2.242   2.861 -0.0452 -0.0629  0.6572
 4522SOL    HW125202   4.040   2.317   2.802  0.8851  0.4486  1.4042
 4522SOL    HW225203   3.942   2.214   2.861  0.1511 -0.7373 -1.7209
 4523SOL     OW25204   2.505   1.212   2.779 -0.1117 -0.5949  0.7796
 4523SOL    HW125205   2.469   1.296   2.808 -2.3162 -1.2485 -0.0586
 4523SOL    HW225206   2.542   1.232   2.693  0.2901  0.8473  1.2822
 4524SOL     OW25207   1.409   4.624   3.562  0.3849 -0.2662  0.3330
 4524SOL    HW125208   1.367   4.707   3.586 -0.7618 -0.5128 -0.8047
 4524SOL    HW225209   1.481   4.666   3.514  2.1291 -2.4726  1.0569
 4525SOL     OW25210   0.587   2.756   6.769 -0.0638 -0.0768 -0.5328
 4525SOL    HW125211   0.565   2.827   6.829  0.0962  0.3125 -0.9406
 4525SOL    HW225212   0.506   2.754   6.718  0.3097 -0.0375 -1.1287
 4526SOL     OW25213   3.211   1.303   3.363 -0.3216 -0.0186  0.1134
 4526SOL    HW125214   3.278   1.339   3.421 -0.6795 -1.8255  1.6588
 4526SOL    HW225215   3.257   1.287   3.280  0.0968 -1.5400  0.6259
 4527SOL     OW25216   1.335   1.557   4.201 -0.2451 -0.2211 -0.1631
 4527SOL    HW125217   1.337   1.604   4.118 -1.4092 -0.9073 -0.5783
 4527SOL    HW225218   1.271   1.487   4.187  0.2126 -0.7380  0.3471
 4528SOL     OW25219   0.856   4.732   6.337  0.0101  0.1315 -0.1745
 4528SOL    HW125220   0.859   4.637   6.346  1.0145  0.0458 -1.4228
 4528SOL    HW225221   0.864   0.031   6.426  1.4895 -1.1000  0.1611
 4529SOL     OW25222   0.617   4.249  14.691  0.2065  0.4679 -0.0704
 4529SOL    HW125223   0.609   4.287  14.603  1.0765  0.9816  0.0722
 4529SOL    HW225224   0.560   4.172  14.691 -0.8473  1.2602 -1.1375
 4530SOL     OW25225   3.034   1.251   8.397 -0.0375 -0.5794 -0.0363
 4530SOL    HW125226   3.065   1.161   8.386 -2.6691 -1.5084 -0.0590
 4530SOL    HW225227   3.096   1.294   8.456 -1.1511 -0.8775  1.3627
 4531SOL     OW25228   3.220   4.634  12.371 -0.5838 -0.0376  0.1431
 4531SOL    HW125229   3.251   4.643  12.461  0.5758  0.9470 -0.3481
 4531SOL    HW225230   3.266   4.707  12.330 -1.6865  0.2985 -0.5040
 4532SOL     OW25231   0.716   0.317  14.813  0.1116  0.3142  0.1073
 4532SOL    HW125232   0.792   0.355  14.768  0.4249  1.2685  1.4551
 4532SOL    HW225233   0.728   0.351  14.901  1.9718  0.6539 -0.2643
 4533SOL     OW25234   1.161   1.243   8.392 -0.3094  0.0389  0.3655
 4533SOL    HW125235   1.141   1.155   8.424 -3.4407  0.2203 -1.1261
 4533SOL    HW225236   1.101   1.291   8.450 -0.3830  0.6432 -0.2216
 4534SOL     OW25237   0.944   4.494   3.758 -0.2244  0.3239  0.3228
 4534SOL    HW125238   0.970   4.414   3.712 -3.5533 -1.3549  1.3820
 4534SOL    HW225239   0.935   4.546   3.678  0.8010  0.2093  0.1289
 4535SOL     OW25240   2.856   4.388   5.964  0.9675  0.1248 -0.5947
 4535SOL    HW125241   2.762   4.390   5.980  0.9051  0.4583 -0.9985
 4535SOL    HW225242   2.870   4.294   5.950 -0.8547 -0.3869  1.0659
 4536SOL     OW25243   3.075   0.459   8.277  0.1062 -0.0729 -0.2243
 4536SOL    HW125244   3.095   0.443   8.369 -2.4662 -0.7749  0.2047
 4536SOL    HW225245   2.980   0.443   8.277 -0.1014  1.3204  3.7310
 4537SOL     OW25246   4.586   2.156   6.372  0.0129 -0.2097  0.1704
 4537SOL    HW125247   4.520   2.209   6.418  0.3425  1.1330 -0.9070
 4537SOL    HW225248   4.530   2.086   6.338 -1.5441  0.9547  0.3326
 4538SOL     OW25249   4.287   3.621   6.246  0.5997  0.3143 -0.3276
 4538SOL    HW125250   4.230   3.630   6.170  0.6713 -0.6704 -0.4990
 4538SOL    HW225251   4.329   3.538   6.222  0.6107 -0.0720  1.0454
 4539SOL     OW25252   0.357   1.676   9.145 -0.0157 -0.3770 -0.0940
 4539SOL    HW125253   0.420   1.746   9.128 -0.8123  0.5661  0.8320
 4539SOL    HW225254   0.282   1.733   9.160 -0.5647 -1.2590  0.4805
 4540SOL     OW25255   0.702   4.640   5.028  0.0961  0.3266 -0.3213
 4540SOL    HW125256   0.655   4.597   4.957 -0.3188  1.7696 -0.9313
 4540SOL    HW225257   0.714   4.725   4.985  0.7047  0.6878  0.5644
 4541SOL     OW25258   4.018   4.547   7.090 -0.2752  0.2555  0.0129
 4541SOL    HW125259   4.049   4.554   6.999 -1.6303 -2.1541 -0.6450
 4541SOL    HW225260   3.935   4.501   7.077 -0.1442  0.6208 -2.1086
 4542SOL     OW25261   1.726   1.525  16.574  0.1315 -0.0651 -0.2000
 4542SOL    HW125262   1.667   1.580  16.625 -2.0934 -1.0833 -1.6714
 4542SOL    HW225263   1.696   1.536  16.483  0.5695 -0.6494 -0.4127
 4543SOL     OW25264   0.106   1.592   4.836 -0.1016  0.0781  0.5265
 4543SOL    HW125265   0.087   1.672   4.885  1.6455  0.6159  0.3210
 4543SOL    HW225266   0.165   1.553   4.901 -1.6417  0.8771  2.3865
 4544SOL     OW25267   3.381   1.173   9.005 -0.0233  0.8372 -0.1555
 4544SOL    HW125268   3.393   1.268   9.006  1.0353  0.7121 -2.8104
 4544SOL    HW225269   3.458   1.158   9.060 -0.2446 -0.5863 -0.2335
 4545SOL     OW25270   1.679   0.311  15.437  0.3365 -0.3284  0.1633
 4545SOL    HW125271   1.767   0.280  15.415  1.6079  2.4769  1.1880
 4545SOL    HW225272   1.639   0.292  15.352 -0.3012  2.0058 -0.0601
 4546SOL     OW25273   0.871   0.517  10.262 -0.4501 -0.0162  0.0795
 4546SOL    HW125274   0.807   0.577  10.224  3.2524  3.4367 -0.7199
 4546SOL    HW225275   0.896   0.456  10.193 -0.6482  0.1682 -0.1557
 4547SOL     OW25276   0.669   3.995   3.191 -0.2582 -0.1880 -0.7566
 4547SOL    HW125277   0.688   4.083   3.225 -1.0455 -0.7956  1.2260
 4547SOL    HW225278   0.758   3.976   3.162 -0.2628 -1.7915  0.2780
 4548SOL     OW25279   4.654   0.417  13.416 -0.1841  0.8645 -0.2588
 4548SOL    HW125280   4.611   0.359  13.353 -1.3734  0.3382  1.0341
 4548SOL    HW225281   0.008   0.408  13.384  0.0474  2.3511 -0.0503
 4549SOL     OW25282   4.484   0.267   3.150 -0.6766 -0.3886 -0.4998
 4549SOL    HW125283   4.494   0.277   3.055 -0.9123 -0.3711 -0.5243
 4549SOL    HW225284   4.513   0.178   3.169  0.7034  1.0209  3.9035
 4550SOL     OW25285   1.487   3.729  17.260  0.1651  0.8169  0.3755
 4550SOL    HW125286   1.517   3.761  17.345  1.8158 -1.6000  0.7075
 4550SOL    HW225287   1.415   3.673  17.286  0.3813  0.7637  0.8494
 4551SOL     OW25288   3.199   2.358  13.678 -0.7914  0.6526  0.2096
 4551SOL    HW125289   3.272   2.362  13.740 -1.3617 -2.2850  1.0302
 4551SOL    HW225290   3.142   2.423  13.719 -1.0767  1.1606 -0.9924
 4552SOL     OW25291   3.395   2.460  16.624  0.3018  0.0332  0.2104
 4552SOL    HW125292   3.464   2.500  16.571 -1.9172  1.2222 -1.7935
 4552SOL    HW225293   3.448   2.464  16.704  0.3753 -1.0940  0.2146
 4553SOL     OW25294   0.894   0.850   0.105  0.3687 -0.2346  0.5780
 4553SOL    HW125295   0.876   0.760   0.077 -0.3584  0.1983 -0.3186
 4553SOL    HW225296   0.975   0.875   0.061 -1.6370  1.6468 -1.9925
 4554SOL     OW25297   1.259   2.415   6.143 -0.1182  0.2908 -0.6396
 4554SOL    HW125298   1.325   2.469   6.100  0.0982 -1.3879 -2.4031
 4554SOL    HW225299   1.271   2.329   6.103  1.8551  1.1889 -1.9670
 4555SOL     OW25300   3.419   2.777   2.597  0.4883 -0.0828 -0.1117
 4555SOL    HW125301   3.462   2.805   2.516 -2.2577 -2.7768 -2.4761
 4555SOL    HW225302   3.507   2.772   2.634  0.8276  3.1896 -0.4155
 4556SOL     OW25303   3.708   1.873  14.062 -0.7105  0.5150  0.3019
 4556SOL    HW125304   3.657   1.899  14.139 -1.5530  0.4987 -0.2421
 4556SOL    HW225305   3.659   1.904  13.985 -1.4841  2.3623  1.5471
 4557SOL     OW25306   0.751   2.930  13.250  0.1491  0.3559 -0.4741
 4557SOL    HW125307   0.666   2.930  13.205 -0.3915  2.4726  0.5648
 4557SOL    HW225308   0.770   2.837  13.267  2.5159  0.6114 -1.8123
 4558SOL     OW25309   2.842   1.640   1.312 -0.3641  0.3796 -0.4158
 4558SOL    HW125310   2.926   1.632   1.358 -1.5197  0.2171  1.6871
 4558SOL    HW225311   2.860   1.611   1.223 -2.3940 -1.0873 -0.3416
 4559SOL     OW25312   2.658   3.953   6.228  0.3216  0.5579 -0.4047
 4559SOL    HW125313   2.607   3.891   6.280 -0.6604  2.9771  1.5827
 4559SOL    HW225314   2.737   3.912   6.193 -0.5987 -0.2763 -1.5020
 4560SOL     OW25315   2.486   0.911  11.646 -0.0257  0.3572 -0.0818
 4560SOL    HW125316   2.491   0.971  11.721  0.1539  1.4287 -0.9476
 4560SOL    HW225317   2.565   0.924  11.593 -1.6082  0.3559 -2.4185
 4561SOL     OW25318   3.433   3.030   6.119 -0.0343  0.1229  0.2496
 4561SOL    HW125319   3.462   3.008   6.030 -1.0348 -0.7861  0.1401
 4561SOL    HW225320   3.439   3.123   6.097  2.4741 -0.3446 -1.0595
 4562SOL     OW25321   2.151   2.777  15.253  0.1574 -0.4540 -0.0295
 4562SOL    HW125322   2.234   2.739  15.223 -0.7178 -3.4027  1.2959
 4562SOL    HW225323   2.166   2.871  15.246  1.2699 -0.7265 -1.2857
 4563SOL     OW25324   2.083   4.293   3.007 -0.3726  0.0349  0.5320
 4563SOL    HW125325   2.064   4.338   2.925  1.9842  2.1019  1.1187
 4563SOL    HW225326   2.027   4.338   3.071 -2.2058  2.0258 -2.4525
 4564SOL     OW25327   3.585   2.122   5.611 -0.5300  0.2184 -0.3014
 4564SOL    HW125328   3.506   2.167   5.639 -0.8416 -1.3451  1.2936
 4564SOL    HW225329   3.649   2.175   5.658  0.4243 -1.0213 -0.1910
 4565SOL     OW25330   3.532   3.338   5.595 -0.4146  0.0522 -0.7714
 4565SOL    HW125331   3.508   3.430   5.583  0.3010  0.2610 -0.6572
 4565SOL    HW225332   3.611   3.338   5.649 -0.1767 -0.7503 -1.1174
 4566SOL     OW25333   3.761   4.567  16.986 -0.1736 -0.0038 -0.1531
 4566SOL    HW125334   3.789   4.557  16.895  1.2234  3.7993 -0.1360
 4566SOL    HW225335   3.785   4.485  17.029 -1.7934  0.0173  0.8082
 4567SOL     OW25336   2.279   0.036   4.257  0.4977  0.1971 -0.1344
 4567SOL    HW125337   2.341   0.007   4.324 -1.1111  0.0852  1.2846
 4567SOL    HW225338   2.321   0.100   4.199 -2.9937  0.5113 -2.3112
 4568SOL     OW25339   2.616   1.763   4.418  0.5250 -0.3814  0.0881
 4568SOL    HW125340   2.675   1.774   4.492  0.1907  0.9882  0.1560
 4568SOL    HW225341   2.679   1.759   4.347  0.1422  1.4274 -0.3481
 4569SOL     OW25342   1.121   3.843   0.943 -0.1887 -0.0957  0.3871
 4569SOL    HW125343   1.034   3.805   0.930  0.5148 -0.6012 -2.6923
 4569SOL    HW225344   1.167   3.759   0.945  0.1442  0.0646 -0.8803
 4570SOL     OW25345   2.445   1.332   6.250  0.3335 -0.1771  0.3443
 4570SOL    HW125346   2.489   1.263   6.301  2.7218 -0.3709 -1.9573
 4570SOL    HW225347   2.522   1.380   6.220 -0.3462  1.0474  0.5656
 4571SOL     OW25348   3.721   0.880   6.329 -0.3074 -0.0754  0.0869
 4571SOL    HW125349   3.652   0.944   6.316  0.6776  0.6985 -1.3221
 4571SOL    HW225350   3.678   0.795   6.318 -0.8431  0.0699  1.1245
 4572SOL     OW25351   0.138   0.635   4.429  0.5499  0.5447  0.9791
 4572SOL    HW125352   0.180   0.562   4.474 -0.6679 -1.1544 -0.6208
 4572SOL    HW225353   0.194   0.641   4.351 -1.3892  0.7516 -0.3737
 4573SOL     OW25354   1.209   1.870   3.478 -0.0867 -0.1997 -0.1912
 4573SOL    HW125355   1.189   1.789   3.430 -0.5875 -0.2683  0.1374
 4573SOL    HW225356   1.303   1.864   3.497 -0.4676 -2.1517  1.0401
 4574SOL     OW25357   3.447   2.050   9.498  0.6006 -0.3267 -0.0551
 4574SOL    HW125358   3.494   2.010   9.571 -0.7979 -1.8664 -0.0314
 4574SOL    HW225359   3.432   1.973   9.444  1.4975  0.1875 -1.0468
 4575SOL     OW25360   0.167   3.830   7.802  0.9959  0.1849  0.4700
 4575SOL    HW125361   0.190   3.922   7.788 -1.8937  0.8819  0.4325
 4575SOL    HW225362   0.155   3.796   7.713 -1.4588  0.4526  0.7026
 4576SOL     OW25363   2.708   0.283   1.490  0.3915  0.1503 -0.7336
 4576SOL    HW125364   2.666   0.336   1.558  0.3607 -0.9998  0.1292
 4576SOL    HW225365   2.800   0.289   1.516  0.2481  0.4755 -0.2913
 4577SOL     OW25366   2.786   0.090   1.775 -0.3818 -0.3414 -0.3761
 4577SOL    HW125367   2.758   0.177   1.749 -0.0036 -0.2378 -0.4387
 4577SOL    HW225368   2.805   0.095   1.868  1.0879 -1.4222 -0.5978
 4578SOL     OW25369   0.457   1.730  15.965 -0.4815  0.4636  0.1108
 4578SOL    HW125370   0.401   1.710  15.890  0.6296 -1.4628 -0.2047
 4578SOL    HW225371   0.534   1.771  15.924 -0.2297 -1.4318 -1.3155
 4579SOL     OW25372   3.910   3.640   2.374  0.1184  0.2008  0.1298
 4579SOL    HW125373   3.888   3.606   2.287 -0.9898  1.4945 -0.0966
 4579SOL    HW225374   3.994   3.682   2.360  0.0308  0.2448 -0.2643
 4580SOL     OW25375   4.437   3.783   4.818 -0.3200  0.2281 -0.3021
 4580SOL    HW125376   4.467   3.871   4.794 -2.2551  0.5498 -1.5374
 4580SOL    HW225377   4.453   3.776   4.912  0.2759 -1.7522 -0.5644
 4581SOL     OW25378   2.121   0.080   6.606  0.0201 -0.4436 -0.0866
 4581SOL    HW125379   2.076   0.020   6.547  3.6327 -2.1110 -1.1563
 4581SOL    HW225380   2.119   0.030   6.688  1.4430  0.6347  0.6234
 4582SOL     OW25381   0.967   1.575  10.242  0.2366 -0.3986 -0.7391
 4582SOL    HW125382   0.913   1.646  10.276  0.7844 -0.5451  0.4141
 4582SOL    HW225383   0.908   1.501  10.256  0.5236 -0.6921 -1.1020
 4583SOL     OW25384   0.400   3.258   7.125  0.3098 -0.6270 -0.4599
 4583SOL    HW125385   0.459   3.288   7.056  1.0943  0.3894  0.6390
 4583SOL    HW225386   0.461   3.242   7.198 -0.6584  0.9793  0.6959
 4584SOL     OW25387   1.978   4.591   7.743  0.1738  0.1907 -0.5002
 4584SOL    HW125388   2.022   4.511   7.771  0.9726  0.4512 -1.0129
 4584SOL    HW225389   1.966   4.625   7.832 -1.9465  0.3059 -0.8184
 4585SOL     OW25390   2.187   1.028   8.468 -0.2641 -0.3357 -0.0535
 4585SOL    HW125391   2.118   0.962   8.476 -0.0133 -0.1331  3.6394
 4585SOL    HW225392   2.203   1.064   8.555  2.0007  2.5723 -1.6647
 4586SOL     OW25393   4.320   4.552  14.264 -0.7460 -0.0207 -0.1278
 4586SOL    HW125394   4.244   4.591  14.309  0.1739  0.8946  0.6380
 4586SOL    HW225395   4.378   4.520  14.333  1.4351  0.3630 -1.7847
 4587SOL     OW25396   0.122   1.491  17.112 -0.0868  0.0455  0.1873
 4587SOL    HW125397   0.057   1.485  17.182  0.5651 -0.3655  0.7617
 4587SOL    HW225398   0.097   1.405  17.077  4.2316 -1.1764  0.0106
 4588SOL     OW25399   4.318   2.417   1.696 -0.2370  0.2057 -0.3376
 4588SOL    HW125400   4.240   2.400   1.643  0.1159 -3.1806  0.2050
 4588SOL    HW225401   4.381   2.349   1.669  0.0449  0.0525  0.7312
 4589SOL     OW25402   1.670   2.726   2.645  0.0393  0.2783  0.0249
 4589SOL    HW125403   1.743   2.691   2.696 -1.8655 -3.8100 -0.0886
 4589SOL    HW225404   1.707   2.732   2.557  1.0033  0.4327  0.4451
 4590SOL     OW25405   4.379   4.723  11.309  0.0072  0.3280 -0.5723
 4590SOL    HW125406   4.382   0.081  11.333 -0.8633  0.6786 -1.8208
 4590SOL    HW225407   4.358   0.014  11.220 -1.5084 -1.6530 -0.7797
 4591SOL     OW25408   1.287   1.444   6.196  0.1237 -0.1372 -0.1414
 4591SOL    HW125409   1.207   1.476   6.237  0.9026 -1.3925  2.3110
 4591SOL    HW225410   1.299   1.361   6.243 -0.4078 -0.4344 -0.5270
 4592SOL     OW25411   3.521   2.393  16.338  0.6309 -0.0873  0.2002
 4592SOL    HW125412   3.591   2.371  16.399  1.7093 -2.2922 -1.8091
 4592SOL    HW225413   3.557   2.365  16.253 -2.0350  0.2654 -1.0695
 4593SOL     OW25414   0.707   0.202   4.881 -0.3868  0.2812 -0.2531
 4593SOL    HW125415   0.616   0.223   4.900  0.1457  0.6572  1.9562
 4593SOL    HW225416   0.747   0.288   4.894 -0.6235  0.3185  0.2219
 4594SOL     OW25417   1.212   4.357   2.795 -0.9229 -0.3485  0.6060
 4594SOL    HW125418   1.289   4.312   2.831  0.4706  1.7629  0.2664
 4594SOL    HW225419   1.180   4.299   2.726 -0.2356  1.0541 -0.9057
 4595SOL     OW25420   4.465   0.574   5.345  0.4093 -0.3461  0.9450
 4595SOL    HW125421   4.542   0.518   5.334  0.0690 -1.3241  3.3587
 4595SOL    HW225422   4.486   0.626   5.423  1.6693  1.2805 -0.4796
 4596SOL     OW25423   0.168   3.046   2.968  0.7004  0.1870  0.3422
 4596SOL    HW125424   0.111   3.071   3.042 -1.2749 -2.2138 -0.3674
 4596SOL    HW225425   0.240   3.094   3.009  1.2964 -1.8543  1.6718
 4597SOL     OW25426   4.116   3.503   7.210 -0.4411 -0.7685  0.4521
 4597SOL    HW125427   4.171   3.434   7.245 -0.1947 -0.3699  0.8501
 4597SOL    HW225428   4.151   3.505   7.121  0.9469 -0.5176  1.0062
 4598SOL     OW25429   0.216   0.057   6.603  0.3152  0.1051 -0.3458
 4598SOL    HW125430   0.172   0.064   6.687 -1.6487  0.5264 -1.4000
 4598SOL    HW225431   0.153   0.019   6.542 -0.1842 -0.5946  0.6171
 4599SOL     OW25432   2.407   1.650   8.858 -0.4546  0.3623  0.1898
 4599SOL    HW125433   2.313   1.639   8.844 -1.0237  2.8682  2.0949
 4599SOL    HW225434   2.446   1.576   8.811 -0.1736 -1.4922  3.3325
 4600SOL     OW25435   4.477   3.350   6.714 -0.3178 -0.2088  0.2607
 4600SOL    HW125436   4.505   3.401   6.790  1.8751 -0.1334 -0.6055
 4600SOL    HW225437   4.546   3.376   6.654  0.1689 -1.3534  0.3135
 4601SOL     OW25438   1.699   2.741   6.604 -0.0658 -0.1512 -0.0748
 4601SOL    HW125439   1.752   2.666   6.630 -0.0384  1.2433  3.9519
 4601SOL    HW225440   1.670   2.766   6.692  1.0999  1.4188 -0.1278
 4602SOL     OW25441   2.992   2.806   9.626  0.0151 -0.1223 -0.2526
 4602SOL    HW125442   2.914   2.756   9.600 -0.0764 -0.7974  1.3174
 4602SOL    HW225443   3.068   2.760   9.590  0.7997  0.5612  0.5470
 4603SOL     OW25444   4.300   0.011  14.689  0.6287 -1.1469  0.5626
 4603SOL    HW125445   4.279   0.057  14.607  0.8082  0.2841  1.3163
 4603SOL    HW225446   4.258   4.663  14.667 -1.3238 -0.5228  1.8791
 4604SOL     OW25447   4.136   0.884   9.406  0.0824 -0.1146 -0.4183
 4604SOL    HW125448   4.129   0.974   9.374  2.6809 -0.0759 -0.8241
 4604SOL    HW225449   4.071   0.834   9.356 -0.6564  0.8017 -0.3889
 4605SOL     OW25450   3.143   4.471   6.131 -0.2715  0.1870  0.4052
 4605SOL    HW125451   3.192   4.443   6.054 -1.1167  1.0698 -0.4423
 4605SOL    HW225452   3.101   4.387   6.150 -0.8816  0.0631 -1.5899
 4606SOL     OW25453   3.217   3.851   4.591 -0.3243 -0.3363 -0.4113
 4606SOL    HW125454   3.274   3.816   4.523 -0.2451 -1.9480  0.4771
 4606SOL    HW225455   3.128   3.843   4.557 -0.8085  0.6938  0.6002
 4607SOL     OW25456   2.177   0.332  16.956 -0.0483 -0.0618  0.0086
 4607SOL    HW125457   2.100   0.275  16.944 -1.0585  1.1217  0.8586
 4607SOL    HW225458   2.183   0.395  16.884 -1.1994 -1.0768 -0.9714
 4608SOL     OW25459   1.841   1.441   3.934  0.0055 -0.5354 -0.3243
 4608SOL    HW125460   1.923   1.490   3.945  0.3370 -0.9305 -1.0556
 4608SOL    HW225461   1.817   1.438   4.026  2.2498  0.4754  0.2833
 4609SOL     OW25462   4.282   4.644  16.666 -0.0706  0.3280 -0.8083
 4609SOL    HW125463   4.195   4.681  16.656  0.4809  1.4910 -1.2763
 4609SOL    HW225464   4.287   4.565  16.612 -0.9906 -0.6096  0.4513
 4610SOL     OW25465   0.901   0.222   0.261 -0.5086 -0.5198  0.1376
 4610SOL    HW125466   0.961   0.158   0.223 -1.2478  0.3686 -2.4842
 4610SOL    HW225467   0.854   0.163   0.320 -1.7465 -0.7462 -1.0873
 4611SOL     OW25468   1.060   1.937   6.978  0.0054 -0.5910  0.2061
 4611SOL    HW125469   1.111   1.927   6.898 -0.1170  3.6304 -0.4010
 4611SOL    HW225470   1.126   1.941   7.048  1.6563 -2.0697 -1.2457
 4612SOL     OW25471   2.511   1.961   7.529  0.1012 -0.0261 -0.5920
 4612SOL    HW125472   2.513   2.029   7.596  1.2033  1.4922 -2.1837
 4612SOL    HW225473   2.537   1.890   7.587  1.3495 -0.6980 -1.9748
 4613SOL     OW25474   0.221   0.747   8.248  0.4751  0.2285  0.1307
 4613SOL    HW125475   0.304   0.712   8.214  1.0535  0.3928  1.3503
 4613SOL    HW225476   0.196   0.817   8.189 -2.8225  0.0184  1.2639
 4614SOL     OW25477   2.184   2.829   1.942  0.0892  0.3128  0.0198
 4614SOL    HW125478   2.172   2.909   1.890  0.3015  1.7981  2.2569
 4614SOL    HW225479   2.263   2.838   1.995 -0.3871  0.8443  0.6382
 4615SOL     OW25480   3.126   3.537   1.656 -0.7344  0.3279  0.4283
 4615SOL    HW125481   3.166   3.485   1.586 -1.5660 -0.0632  0.2491
 4615SOL    HW225482   3.034   3.533   1.630 -1.3109  1.3090  2.3024
 4616SOL     OW25483   2.846   4.049  13.516 -0.4583 -0.1299 -0.2743
 4616SOL    HW125484   2.857   3.969  13.568  1.7315  1.0113  1.0148
 4616SOL    HW225485   2.890   4.111  13.575 -1.7439 -0.8776  1.4888
 4617SOL     OW25486   3.945   3.735   2.676  0.3981 -0.1426 -0.2080
 4617SOL    HW125487   4.034   3.703   2.691  1.6920  3.0801 -0.9070
 4617SOL    HW225488   3.916   3.688   2.599  0.5994 -0.4622 -0.0896
 4618SOL     OW25489   0.436   3.703   6.899 -0.4228 -0.5757 -0.0513
 4618SOL    HW125490   0.476   3.636   6.844  1.6899 -1.4776  2.5443
 4618SOL    HW225491   0.518   3.742   6.928 -1.0682  0.2039  0.7254
 4619SOL     OW25492   1.298   1.944   7.136  0.2218  0.9734 -0.6885
 4619SOL    HW125493   1.298   2.038   7.154 -2.0729  1.1673 -1.6083
 4619SOL    HW225494   1.348   1.915   7.212  0.1742  1.3414 -0.5147
 4620SOL     OW25495   0.554   0.760   8.625  0.2627  0.1848 -0.0267
 4620SOL    HW125496   0.602   0.827   8.577 -0.4759  0.0976 -0.8997
 4620SOL    HW225497   0.467   0.755   8.584  0.4347 -1.6546 -0.1980
 4621SOL     OW25498   4.133   3.807   5.186  0.1459  0.2338 -0.2933
 4621SOL    HW125499   4.175   3.829   5.269  0.6228  0.2471 -0.5401
 4621SOL    HW225500   4.171   3.873   5.129 -0.6734 -0.7573 -2.0001
 4622SOL     OW25501   0.573   0.749   6.569  0.0891 -0.0997  0.7596
 4622SOL    HW125502   0.503   0.690   6.541  0.1489  0.8487 -1.3886
 4622SOL    HW225503   0.530   0.834   6.566 -0.5092 -0.3952  1.0669
 4623SOL     OW25504   1.599   1.397  12.508 -0.3263 -0.2220 -0.6972
 4623SOL    HW125505   1.654   1.474  12.494 -0.5492  0.2212  0.8394
 4623SOL    HW225506   1.641   1.342  12.574 -2.5915  0.7352  1.5775
 4624SOL     OW25507   3.933   3.390   6.574  0.3270 -0.5727 -0.6220
 4624SOL    HW125508   3.914   3.375   6.481 -0.1709  2.1356 -0.9464
 4624SOL    HW225509   4.028   3.405   6.573  0.1110  0.7559 -0.7769
 4625SOL     OW25510   3.384   4.169   6.126 -0.7775  0.1136 -0.0763
 4625SOL    HW125511   3.450   4.139   6.064 -0.4238  2.1037 -0.6788
 4625SOL    HW225512   3.355   4.246   6.076  1.9565  0.6424 -0.8515
 4626SOL     OW25513   3.011   0.656   4.696  0.1064 -0.1275  0.3060
 4626SOL    HW125514   3.057   0.716   4.637 -1.3437 -0.2537 -0.9525
 4626SOL    HW225515   3.079   0.636   4.760  2.3104  2.6380 -1.1472
 4627SOL     OW25516   1.137   1.075   0.866 -0.0971  0.0334 -0.1613
 4627SOL    HW125517   1.184   1.142   0.916 -0.6226 -0.1800  0.6289
 4627SOL    HW225518   1.201   1.004   0.878 -0.0862 -0.0693 -0.8591
 4628SOL     OW25519   3.968   1.583  17.207  1.0082  0.4246  0.1500
 4628SOL    HW125520   3.994   1.638  17.133 -3.5320 -0.2348 -1.9972
 4628SOL    HW225521   3.875   1.604  17.195  0.7996 -0.1118  0.8208
 4629SOL     OW25522   4.503   3.329   8.198 -0.5017  0.6313 -0.0343
 4629SOL    HW125523   4.561   3.300   8.128  0.6981  0.8696  0.8577
 4629SOL    HW225524   4.414   3.327   8.162  0.5841  3.6449 -2.8224
 4630SOL     OW25525   0.027   2.340  15.943  0.1489  0.1274  0.1175
 4630SOL    HW125526   0.080   2.419  15.947 -0.0023  0.1287  2.1231
 4630SOL    HW225527   4.671   2.368  15.952  0.2026  0.2126  0.3747
 4631SOL     OW25528   4.230   4.003   4.536 -0.4387 -0.2274  0.3971
 4631SOL    HW125529   4.247   3.911   4.515  0.2558 -0.5902  2.5055
 4631SOL    HW225530   4.320   4.035   4.541 -1.4275  2.4491  0.9747
 4632SOL     OW25531   0.843   3.259   6.545  0.3747  0.3924 -0.0254
 4632SOL    HW125532   0.893   3.178   6.555  0.1703  0.2800  0.0815
 4632SOL    HW225533   0.851   3.286   6.636  0.8934  0.0830  0.0228
 4633SOL     OW25534   0.364   1.258   4.577 -0.4029 -0.6935 -0.1906
 4633SOL    HW125535   0.401   1.200   4.644  1.8862 -1.0945 -1.8234
 4633SOL    HW225536   0.312   1.322   4.626  0.8196  0.8082 -0.8635
 4634SOL     OW25537   3.763   1.597   7.058 -0.4151 -0.4763 -0.4257
 4634SOL    HW125538   3.695   1.646   7.105  0.2088  0.0129 -0.0375
 4634SOL    HW225539   3.843   1.648   7.054 -0.0258 -1.1226 -0.9119
 4635SOL     OW25540   0.693   1.138  14.106 -0.4429  0.0085  0.7248
 4635SOL    HW125541   0.689   1.233  14.110  2.7700  0.2333 -1.1597
 4635SOL    HW225542   0.602   1.110  14.115 -0.5868  0.7199  1.4484
 4636SOL     OW25543   1.116   1.426   3.981  0.6011  0.5103  0.5437
 4636SOL    HW125544   1.198   1.440   3.933 -0.7497  0.6549 -1.7337
 4636SOL    HW225545   1.108   1.332   3.965  0.2646  0.4286  1.1902
 4637SOL     OW25546   3.540   0.998   4.474 -0.2590  0.1989 -0.1103
 4637SOL    HW125547   3.494   0.981   4.557  1.4549  1.2053  1.0531
 4637SOL    HW225548   3.635   0.998   4.486  0.0323  0.7484 -2.4653
 4638SOL     OW25549   3.095   1.884  14.222 -0.0298 -0.1575 -0.2831
 4638SOL    HW125550   3.011   1.922  14.197  0.1389  0.7571  0.5345
 4638SOL    HW225551   3.130   1.861  14.135  1.6241  0.6717  0.1612
 4639SOL     OW25552   3.937   3.680   6.305 -0.4219 -0.0146 -0.0239
 4639SOL    HW125553   3.959   3.596   6.265  0.9168 -0.4918  1.7034
 4639SOL    HW225554   4.009   3.702   6.364 -0.0368  2.8031 -1.4995
 4640SOL     OW25555   0.691   1.282   3.731  0.2069  0.0870  0.1052
 4640SOL    HW125556   0.610   1.261   3.684  1.1669 -0.2197 -1.4077
 4640SOL    HW225557   0.659   1.326   3.809  1.8618  2.1310 -0.3926
 4641SOL     OW25558   3.676   1.241   8.775 -0.1144 -0.0892  0.4958
 4641SOL    HW125559   3.654   1.149   8.766  1.6694 -0.6846  2.2694
 4641SOL    HW225560   3.763   1.247   8.738 -0.4335  0.5676 -0.1488
 4642SOL     OW25561   0.490   4.432   2.047 -0.5822  0.3396  0.1617
 4642SOL    HW125562   0.483   4.367   1.977  0.8122  1.1992 -0.7798
 4642SOL    HW225563   0.573   4.471   2.020 -0.6551 -0.7386 -1.6179
 4643SOL     OW25564   1.511   1.939   8.846  0.2001  0.4166  0.7606
 4643SOL    HW125565   1.456   1.900   8.915  1.7001 -2.0474  0.5829
 4643SOL    HW225566   1.598   1.904   8.865  1.1264  1.7583 -1.0612
 4644SOL     OW25567   1.253   0.035   5.389  0.4845  0.3367  0.3568
 4644SOL    HW125568   1.178   4.712   5.375  0.5088  0.5709 -0.7455
 4644SOL    HW225569   1.324   4.707   5.392 -0.8786 -1.3090 -2.2010
 4645SOL     OW25570   0.996   0.882   3.803  0.6751  0.5102 -0.1225
 4645SOL    HW125571   0.998   0.854   3.712 -3.0005  1.7696 -0.5846
 4645SOL    HW225572   0.911   0.926   3.803 -0.1899 -1.1507 -1.3426
 4646SOL     OW25573   3.493   0.405   0.805 -0.3978 -0.3332 -0.1030
 4646SOL    HW125574   3.437   0.468   0.759 -0.1522  0.1523  0.2537
 4646SOL    HW225575   3.444   0.324   0.793 -0.7411 -0.1665  0.1814
 4647SOL     OW25576   4.733   3.147   9.102  0.3525 -0.1529 -0.1112
 4647SOL    HW125577   4.651   3.145   9.052  0.3738 -1.1791 -0.1180
 4647SOL    HW225578   4.713   3.118   9.191  4.3619 -1.4332  0.3782
 4648SOL     OW25579   3.639   0.055  17.067  0.4403  0.0894 -0.7852
 4648SOL    HW125580   3.688   4.712  17.046  1.2182  0.6364 -0.9916
 4648SOL    HW225581   3.557   0.018  17.099  0.8214  0.2983  0.4256
 4649SOL     OW25582   2.325   4.245   8.264  0.6385 -0.6647 -0.0046
 4649SOL    HW125583   2.294   4.324   8.308  2.1043 -0.8668  1.4020
 4649SOL    HW225584   2.281   4.178   8.315 -0.4446  1.6563  2.1223
 4650SOL     OW25585   4.118   0.394   4.909  0.2267  0.0844  0.0848
 4650SOL    HW125586   4.120   0.377   4.815  0.1221 -0.5285  0.1926
 4650SOL    HW225587   4.030   0.431   4.910  0.4995  0.7111  1.1648
 4651SOL     OW25588   4.363   0.749   3.062 -0.0197  0.7836  0.3560
 4651SOL    HW125589   4.270   0.771   3.057 -0.4467 -1.6619 -2.3976
 4651SOL    HW225590   4.371   0.703   3.146 -1.5760  0.6226  0.4299
 4652SOL     OW25591   0.140   4.539  12.296  0.1709  0.2763  0.4289
 4652SOL    HW125592   0.124   4.482  12.372  1.0892  0.7249  0.9540
 4652SOL    HW225593   0.216   4.589  12.325  0.0229  1.3326 -1.0054
 4653SOL     OW25594   1.014   0.471   0.417  0.3926 -0.3337 -0.1583
 4653SOL    HW125595   0.974   0.398   0.369 -0.3683  1.2746 -1.9712
 4653SOL    HW225596   0.972   0.454   0.502  2.1821 -0.2983  0.7295
 4654SOL     OW25597   3.795   1.254   1.713 -0.7587 -0.2436 -0.0916
 4654SOL    HW125598   3.780   1.243   1.807 -1.6298  0.4842 -0.1469
 4654SOL    HW225599   3.829   1.166   1.697  1.6501  0.5081  0.8111
 4655SOL     OW25600   3.299   0.413   4.529  0.6861  0.0451 -0.5981
 4655SOL    HW125601   3.352   0.423   4.450 -0.6995  0.1990 -1.5184
 4655SOL    HW225602   3.314   0.504   4.554  0.3984 -0.2361  0.6144
 4656SOL     OW25603   4.259   3.825   3.452  0.0333  0.1414 -0.3909
 4656SOL    HW125604   4.180   3.813   3.505 -0.1217 -1.4438 -0.9840
 4656SOL    HW225605   4.286   3.735   3.432  0.0446  0.0907 -0.1487
 4657SOL     OW25606   1.026   0.921   4.203  0.5095 -1.1077 -0.6283
 4657SOL    HW125607   1.116   0.947   4.223  0.5884 -0.8278 -1.3563
 4657SOL    HW225608   0.996   1.011   4.187  0.9500 -0.9194 -0.3869
 4658SOL     OW25609   4.095   2.310   8.582 -0.4531 -0.3335  0.0526
 4658SOL    HW125610   4.183   2.325   8.547 -0.8302 -1.2820 -1.3017
 4658SOL    HW225611   4.061   2.393   8.615 -0.3476  0.7020 -2.4819
 4659SOL     OW25612   2.909   3.962   2.212  0.2103  0.2154  0.3463
 4659SOL    HW125613   2.893   4.004   2.296  1.0275 -0.1466  0.6791
 4659SOL    HW225614   2.928   3.875   2.248  0.9687 -0.1954 -1.0401
 4660SOL     OW25615   0.361   3.254  14.871 -0.2852  0.4277 -0.3112
 4660SOL    HW125616   0.451   3.285  14.881  0.5280 -1.6409 -1.1715
 4660SOL    HW225617   0.374   3.173  14.821  0.6543 -0.2556  1.0624
 4661SOL     OW25618   4.591   2.262   3.488  0.5826 -0.4660  0.1044
 4661SOL    HW125619   4.499   2.278   3.466  0.2258 -0.3652  1.6800
 4661SOL    HW225620   4.632   2.320   3.424 -0.8155  1.2087  0.6978
 4662SOL     OW25621   1.967   0.427   5.740  0.0333 -0.3410  0.0646
 4662SOL    HW125622   1.942   0.443   5.831  1.3784  1.3629  0.1363
 4662SOL    HW225623   2.052   0.473   5.736  0.4627 -1.1793 -0.3894
 4663SOL     OW25624   4.197   2.045   1.742  0.0271  0.7177 -0.6414
 4663SOL    HW125625   4.148   2.046   1.659  0.7471 -0.4426 -1.0795
 4663SOL    HW225626   4.285   2.071   1.714 -0.1308  1.8775 -0.0664
 4664SOL     OW25627   3.963   1.756   1.657 -0.4820  0.0171  0.1679
 4664SOL    HW125628   3.962   1.819   1.728 -0.4090 -0.7950  0.8958
 4664SOL    HW225629   3.896   1.688   1.664 -0.8810  0.5061  1.0387
 4665SOL     OW25630   1.398   2.993  15.928  0.0046  0.4262  0.2187
 4665SOL    HW125631   1.390   3.079  15.968 -3.3969 -0.0157  0.4537
 4665SOL    HW225632   1.413   2.925  15.993 -1.9394 -0.3502 -0.1486
 4666SOL     OW25633   0.486   1.278  14.796  0.1914 -0.3246  0.4664
 4666SOL    HW125634   0.401   1.234  14.800  1.6592 -3.1890  0.0024
 4666SOL    HW225635   0.461   1.370  14.798  0.1121 -0.2896 -1.6210
 4667SOL     OW25636   1.229   2.012   4.295  0.2908 -0.3342  0.6030
 4667SOL    HW125637   1.281   2.001   4.216  2.3925  1.9077  1.6419
 4667SOL    HW225638   1.207   1.923   4.323 -0.3084 -0.2922  0.2581
 4668SOL     OW25639   0.152   1.455   7.849 -0.8154  0.1265  0.0076
 4668SOL    HW125640   0.144   1.510   7.927 -0.4975 -0.2317  0.2875
 4668SOL    HW225641   0.067   1.412   7.857  0.6773 -3.0066 -1.2871
 4669SOL     OW25642   2.443   1.355  12.483 -0.2316 -0.0062 -0.1544
 4669SOL    HW125643   2.527   1.345  12.436 -0.3203 -2.6922  0.2756
 4669SOL    HW225644   2.380   1.346  12.412 -0.7197  0.3548  0.2438
 4670SOL     OW25645   2.666   2.919   2.804  0.6958 -0.4440  0.0277
 4670SOL    HW125646   2.622   2.834   2.808 -0.8650  0.1792 -3.3987
 4670SOL    HW225647   2.759   2.897   2.806  1.0937  1.4249  2.0166
 4671SOL     OW25648   1.307   1.685   8.238 -0.5957 -0.1649 -0.5936
 4671SOL    HW125649   1.254   1.661   8.314  2.9411 -1.4752  1.4372
 4671SOL    HW225650   1.285   1.627   8.165 -1.8413 -0.6467  0.1626
 4672SOL     OW25651   0.365   3.456   6.471 -0.3961  0.3206 -0.2716
 4672SOL    HW125652   0.344   3.507   6.549  0.6257 -0.2778  0.3887
 4672SOL    HW225653   0.459   3.440   6.475 -0.0015  2.8645  0.5575
 4673SOL     OW25654   0.315   2.952   7.535 -0.6366  0.2574  0.6121
 4673SOL    HW125655   0.345   2.974   7.623  0.3602 -0.1106  0.3670
 4673SOL    HW225656   0.233   3.001   7.526 -0.4731  0.6790  1.4671
 4674SOL     OW25657   0.535   2.239   2.685  0.0122  0.8637 -0.1548
 4674SOL    HW125658   0.606   2.258   2.747 -0.6439 -1.2072  1.2129
 4674SOL    HW225659   0.583   2.225   2.604 -2.6641  0.9150 -1.7309
 4675SOL     OW25660   2.029   4.355   2.727  0.0513  0.6327  0.0952
 4675SOL    HW125661   1.979   4.427   2.765 -1.8147 -0.9978  0.6983
 4675SOL    HW225662   1.960   4.306   2.683  0.1755  2.2724 -1.9242
 4676SOL     OW25663   4.217   4.718   9.457 -0.2589 -0.2379 -0.0127
 4676SOL    HW125664   4.245   4.720   9.548 -0.3844  0.2186  0.0207
 4676SOL    HW225665   4.140   0.041   9.454 -0.7338 -0.8263  1.1074
 4677SOL     OW25666   0.552   4.605   8.027  0.2070  0.2859 -0.4512
 4677SOL    HW125667   0.531   4.586   8.119  1.3213 -0.6054 -0.3865
 4677SOL    HW225668   0.504   4.688   8.018 -3.3991 -1.6440  0.9327
 4678SOL     OW25669   4.303   4.575  10.023  0.2919  0.0575 -0.7117
 4678SOL    HW125670   4.375   4.548   9.967 -0.3316 -0.9052 -1.0462
 4678SOL    HW225671   4.325   4.520  10.098 -0.8158 -0.1516 -0.5449
 4679SOL     OW25672   3.954   3.156   7.822 -0.2534 -0.6881 -0.2127
 4679SOL    HW125673   3.958   3.078   7.878  0.6191 -0.1968  0.3998
 4679SOL    HW225674   3.883   3.211   7.855  1.3915  0.6991  0.9987
 4680SOL     OW25675   1.974   1.673  10.117 -0.2109 -0.0885  0.1303
 4680SOL    HW125676   1.906   1.688  10.183  0.2256  1.2808  0.2877
 4680SOL    HW225677   2.058   1.673  10.164 -1.2987  1.2011  2.0856
 4681SOL     OW25678   1.049   0.093  10.042  0.0144  0.0571 -0.1155
 4681SOL    HW125679   1.102   0.085   9.963 -0.5083  1.7345 -0.6174
 4681SOL    HW225680   1.056   0.002  10.073  2.5958 -0.0517 -0.9717
 4682SOL     OW25681   1.511   0.196   9.038 -0.4629 -0.0818 -0.1138
 4682SOL    HW125682   1.557   0.185   9.121  0.2829  1.0824 -0.3805
 4682SOL    HW225683   1.523   0.289   9.021 -1.3565 -0.2790 -1.9023
 4683SOL     OW25684   2.998   2.698   3.174  0.2375 -0.0763 -0.2145
 4683SOL    HW125685   3.049   2.689   3.094 -0.6510 -1.3898 -0.6466
 4683SOL    HW225686   2.911   2.709   3.134  1.0383 -0.7283 -2.0973
 4684SOL     OW25687   3.509   3.065   1.608 -0.4969  0.2805 -0.1413
 4684SOL    HW125688   3.509   3.081   1.702 -1.5078  1.8239 -0.4118
 4684SOL    HW225689   3.503   2.970   1.622 -0.2670 -0.0181 -1.9938
 4685SOL     OW25690   1.720   0.008   6.427 -0.1021 -1.1423  0.3825
 4685SOL    HW125691   1.729   4.712   6.517  1.0734  0.7972  0.9376
 4685SOL    HW225692   1.627   4.723   6.412  0.2764 -0.6105 -2.5912
 4686SOL     OW25693   0.071   4.197  15.223  0.4378  0.0807 -0.1863
 4686SOL    HW125694   0.147   4.237  15.181  2.2676 -1.8081  1.3136
 4686SOL    HW225695   0.097   4.105  15.227  2.2068  0.6424  1.1926
 4687SOL     OW25696   1.141   3.382   6.802  0.1260  0.3780 -0.6938
 4687SOL    HW125697   1.145   3.475   6.824 -1.9326  0.2956  0.0603
 4687SOL    HW225698   1.231   3.357   6.783 -0.1774  1.4679 -3.5150
 4688SOL     OW25699   1.660   2.481   2.447 -0.2586  0.0862 -0.3070
 4688SOL    HW125700   1.584   2.453   2.498  0.0727  0.5471  0.4479
 4688SOL    HW225701   1.701   2.403   2.413 -1.0055 -0.8819  0.9962
 4689SOL     OW25702   0.716   2.567   2.525 -0.5978 -0.3087  1.1415
 4689SOL    HW125703   0.626   2.596   2.537 -0.2643  1.1373  0.1860
 4689SOL    HW225704   0.702   2.474   2.511  1.9644 -0.3107 -1.3724
 4690SOL     OW25705   2.935   1.716  16.944  0.1011  0.2334 -0.0197
 4690SOL    HW125706   2.887   1.706  17.026 -1.5006  0.0301 -0.9685
 4690SOL    HW225707   2.902   1.644  16.890 -0.3404 -0.7995  1.6631
 4691SOL     OW25708   0.362   0.420   4.384 -0.6635 -0.0699  0.9430
 4691SOL    HW125709   0.377   0.471   4.464  2.4242 -0.6038  0.7197
 4691SOL    HW225710   0.438   0.438   4.329 -1.4777  0.3574 -0.0322
 4692SOL     OW25711   4.153   4.712  14.905  1.1018 -0.1697 -0.1829
 4692SOL    HW125712   4.222   0.007  14.847  0.9830  1.1199  0.3601
 4692SOL    HW225713   4.212   4.712  14.981  1.2912 -2.3050 -0.3075
 4693SOL     OW25714   2.897   3.650   2.200  0.0682  0.3290 -0.2264
 4693SOL    HW125715   2.872   3.595   2.274 -3.1945  1.0926 -0.7697
 4693SOL    HW225716   2.986   3.673   2.226  0.4507 -1.4720  0.0783
 4694SOL     OW25717   1.398   0.461  11.412  0.4348  0.3610  0.0488
 4694SOL    HW125718   1.382   0.456  11.318  0.0995  4.7516 -0.1299
 4694SOL    HW225719   1.377   0.553  11.427 -2.0981  0.2593 -2.9091
 4695SOL     OW25720   2.439   2.966   1.631 -0.1600 -0.0870  0.1113
 4695SOL    HW125721   2.450   2.890   1.688 -4.8514  1.4906  3.1347
 4695SOL    HW225722   2.533   2.977   1.616 -0.0684 -0.1995  0.5966
 4696SOL     OW25723   2.148   1.955   6.783  0.0135 -0.4371  0.7917
 4696SOL    HW125724   2.150   2.048   6.763  0.1164 -0.0726  2.5123
 4696SOL    HW225725   2.066   1.953   6.833  0.7119 -2.0286  1.8940
 4697SOL     OW25726   4.630   1.786   7.540 -0.0884  0.1441 -0.2077
 4697SOL    HW125727   4.626   1.877   7.513 -2.2632  0.1243  0.0247
 4697SOL    HW225728   4.723   1.778   7.561 -0.1529  2.2442  0.7793
 4698SOL     OW25729   0.136   4.525   8.762 -0.4488 -0.5924  0.6489
 4698SOL    HW125730   0.100   4.582   8.694  1.2947 -0.2889 -0.0209
 4698SOL    HW225731   0.228   4.527   8.734 -0.4292 -0.5644  0.7183
 4699SOL     OW25732   0.353   0.398   9.471  0.9570 -0.8803  0.0135
 4699SOL    HW125733   0.282   0.340   9.445  0.1746 -0.4425  1.2034
 4699SOL    HW225734   0.410   0.335   9.516 -0.1642 -1.8542  0.0807
 4700SOL     OW25735   4.261   2.839   5.635 -0.6576 -0.0006 -0.0092
 4700SOL    HW125736   4.245   2.745   5.627  1.2218 -0.4709  1.8477
 4700SOL    HW225737   4.267   2.858   5.729 -0.8933  1.0836 -0.2139
 4701SOL     OW25738   1.078   1.126   3.925  0.6400  0.0201  0.1787
 4701SOL    HW125739   1.011   1.058   3.928  1.0488 -0.3294  1.3071
 4701SOL    HW225740   1.065   1.171   3.842  0.9648 -0.6169 -0.2103
 4702SOL     OW25741   0.136   0.415   5.926  0.7549 -0.2950  0.4201
 4702SOL    HW125742   0.127   0.375   5.839  0.0048 -1.3653  0.9832
 4702SOL    HW225743   0.230   0.431   5.932  0.5420  1.5158 -1.2114
 4703SOL     OW25744   0.140   1.956   2.806  0.3831 -0.0025 -0.5612
 4703SOL    HW125745   0.121   1.942   2.898  1.6056 -1.2296 -0.4990
 4703SOL    HW225746   0.059   1.986   2.764 -1.1784 -2.4374  0.7540
 4704SOL     OW25747   0.136   1.730   6.373  0.2325 -0.2936  0.0538
 4704SOL    HW125748   0.073   1.802   6.374  1.4443  0.7469  1.4780
 4704SOL    HW225749   0.148   1.708   6.281 -1.4940  2.6087 -0.8703
 4705SOL     OW25750   1.814   3.045   4.967  0.3160  0.2314 -0.1655
 4705SOL    HW125751   1.848   3.107   4.903  0.3920 -0.1698 -0.5166
 4705SOL    HW225752   1.722   3.025   4.946  0.1801 -0.0632  0.7084
 4706SOL     OW25753   2.249   0.670  15.722  0.1159 -0.0189 -0.2975
 4706SOL    HW125754   2.193   0.601  15.758 -1.2224  1.5508  0.6010
 4706SOL    HW225755   2.333   0.628  15.706  0.2498  0.0780  0.1584
 4707SOL     OW25756   2.051   3.654   3.308  0.2563  0.2941  0.1460
 4707SOL    HW125757   2.101   3.682   3.231  0.6298 -1.4181 -0.2267
 4707SOL    HW225758   2.073   3.727   3.366 -2.9746  1.8545 -0.5710
 4708SOL     OW25759   2.553   1.141   9.530  0.5098  0.1434 -0.2536
 4708SOL    HW125760   2.553   1.123   9.624 -3.4863 -3.7812 -1.0341
 4708SOL    HW225761   2.500   1.072   9.492  0.9713  0.2055 -1.0004
 4709SOL     OW25762   0.120   1.169   7.800 -0.3367 -0.2167 -0.1397
 4709SOL    HW125763   0.169   1.204   7.874  2.2573 -0.1214 -1.9053
 4709SOL    HW225764   0.133   1.074   7.802 -1.0462 -0.3082  0.1968
 4710SOL     OW25765   4.592   0.467  15.044  0.3036  0.3128 -0.2135
 4710SOL    HW125766   4.679   0.437  15.071  0.1172 -0.5942 -0.6290
 4710SOL    HW225767   4.607   0.560  15.027 -1.6790  0.7948  0.6405
 4711SOL     OW25768   3.778   2.655   7.976 -0.0369 -0.1138  0.5424
 4711SOL    HW125769   3.759   2.561   7.969  2.9377 -0.5195 -1.9439
 4711SOL    HW225770   3.815   2.672   7.889 -1.3911 -2.8858 -0.5735
 4712SOL     OW25771   2.437   2.769   3.570 -0.3619  0.1538 -1.0282
 4712SOL    HW125772   2.524   2.730   3.565 -0.3001 -0.2200  2.7103
 4712SOL    HW225773   2.405   2.760   3.660  1.0132  1.8358 -0.3567
 4713SOL     OW25774   2.804   3.602   1.958  0.0842 -0.4294  0.4801
 4713SOL    HW125775   2.711   3.619   1.975 -0.7575 -2.7901 -1.8119
 4713SOL    HW225776   2.833   3.615   2.048  0.2610 -0.3084  0.4054
 4714SOL     OW25777   2.171   0.957   9.214  0.3363  0.0936 -0.5195
 4714SOL    HW125778   2.224   0.882   9.186  0.6673  0.4602 -0.8887
 4714SOL    HW225779   2.222   0.987   9.289 -2.2202  0.4726  1.0571
 4715SOL     OW25780   1.524   4.560   5.141  0.8583  0.0719  0.6042
 4715SOL    HW125781   1.567   4.591   5.220  0.7989  0.2103  0.5810
 4715SOL    HW225782   1.464   4.490   5.168 -0.3094  1.1116  0.6752
 4716SOL     OW25783   1.711   3.435   2.348 -0.5700 -0.1514 -0.3677
 4716SOL    HW125784   1.658   3.357   2.329 -1.2690 -0.4934  2.9000
 4716SOL    HW225785   1.796   3.392   2.351 -0.5261 -0.2145 -2.8522
 4717SOL     OW25786   0.217   0.013   8.930  0.1449 -0.2909  0.0020
 4717SOL    HW125787   0.294   0.001   8.874  0.7605 -2.1842  1.2612
 4717SOL    HW225788   0.193   4.658   8.949  0.8252 -0.2820  0.8757
 4718SOL     OW25789   2.492   1.983   4.137 -0.5341 -0.1884 -0.2197
 4718SOL    HW125790   2.573   1.943   4.105 -0.1502  2.9290 -3.1674
 4718SOL    HW225791   2.470   1.917   4.202 -1.1943 -0.9683 -1.2318
 4719SOL     OW25792   2.087   3.312   6.670  0.2775 -0.1205 -0.2381
 4719SOL    HW125793   2.062   3.303   6.578 -1.3786 -0.4881  0.2470
 4719SOL    HW225794   2.178   3.324   6.645  0.9436 -2.5178  1.0194
 4720SOL     OW25795   1.746   0.396   9.111 -0.3369  0.4746 -0.3192
 4720SOL    HW125796   1.760   0.491   9.110 -1.5887  0.6890  1.5404
 4720SOL    HW225797   1.760   0.383   9.018  1.6276  3.0913 -0.3861
 4721SOL     OW25798   3.707   3.076   5.066 -0.5383 -0.0129  0.4910
 4721SOL    HW125799   3.798   3.052   5.047 -1.2792 -1.8111 -0.7726
 4721SOL    HW225800   3.708   3.171   5.079  2.2783 -0.1503  1.2679
 4722SOL     OW25801   2.277   2.373   4.235 -0.1670  0.3680  0.3429
 4722SOL    HW125802   2.228   2.315   4.293 -0.7269  0.9947  0.5001
 4722SOL    HW225803   2.363   2.344   4.264 -0.4234  0.6922  1.4095
 4723SOL     OW25804   1.219   1.293   7.221 -0.4465  0.1276 -0.6904
 4723SOL    HW125805   1.155   1.284   7.291  1.0155  0.4382  0.6687
 4723SOL    HW225806   1.233   1.199   7.209 -2.2446 -0.4377  1.6533
 4724SOL     OW25807   1.407   1.959   7.771 -0.2773  0.2288  0.1635
 4724SOL    HW125808   1.502   1.968   7.781 -0.2080 -0.2745 -0.0945
 4724SOL    HW225809   1.395   1.867   7.748 -1.2299  0.3548  0.1734
 4725SOL     OW25810   2.374   3.852  11.616 -0.3133  0.2056 -0.0373
 4725SOL    HW125811   2.403   3.843  11.707  0.5351 -1.4571 -0.4731
 4725SOL    HW225812   2.426   3.783  11.574 -2.7845 -1.2097 -0.7740
 4726SOL     OW25813   1.391   1.479   9.248 -0.1508 -0.4585  0.7801
 4726SOL    HW125814   1.305   1.457   9.214  1.2292 -0.5755 -2.6581
 4726SOL    HW225815   1.403   1.573   9.234 -0.3894 -0.5166  0.2140
 4727SOL     OW25816   0.815   1.223   8.197 -0.0455  0.4997 -0.3839
 4727SOL    HW125817   0.729   1.184   8.212  0.0157  0.6763  0.4179
 4727SOL    HW225818   0.827   1.199   8.105 -0.5775 -1.2473  0.0010
 4728SOL     OW25819   4.059   1.282   8.925  0.1525 -0.0131  0.4197
 4728SOL    HW125820   4.051   1.187   8.935  1.3249  0.0688  2.0491
 4728SOL    HW225821   4.034   1.289   8.832  0.1726 -0.5090  0.3763
 4729SOL     OW25822   4.279   4.215   1.280 -0.5391  0.0606  0.0815
 4729SOL    HW125823   4.357   4.268   1.297 -1.5077  0.1108  4.3161
 4729SOL    HW225824   4.213   4.283   1.267  0.0482  0.1495 -2.5205
 4730SOL     OW25825   4.283   3.348   7.411 -0.5909 -0.1165  0.0455
 4730SOL    HW125826   4.328   3.419   7.455 -0.0668 -1.0145  0.9467
 4730SOL    HW225827   4.238   3.300   7.481 -1.7450  1.4997  0.4107
 4731SOL     OW25828   0.215   1.269   3.807 -0.2677 -0.2967 -0.0192
 4731SOL    HW125829   0.134   1.316   3.787  0.0511 -0.0516 -0.7281
 4731SOL    HW225830   0.247   1.321   3.881 -1.1246 -0.4101  0.4331
 4732SOL     OW25831   2.650   2.623   4.365  0.2311  0.1482 -0.0868
 4732SOL    HW125832   2.572   2.598   4.415 -0.2486  0.7115 -0.5506
 4732SOL    HW225833   2.634   2.714   4.340  0.2534  0.2210  0.1633
 4733SOL     OW25834   4.015   4.029   6.327 -0.3585  0.3220  0.1640
 4733SOL    HW125835   3.974   4.003   6.409  2.2249 -2.4357  0.5888
 4733SOL    HW225836   4.103   4.045   6.360  1.0880 -1.5746 -2.7239
 4734SOL     OW25837   1.778   1.739   8.107  0.5146 -0.7118 -0.0053
 4734SOL    HW125838   1.755   1.742   8.200  0.7783 -1.0233  0.0727
 4734SOL    HW225839   1.867   1.703   8.110  0.5833 -0.4787  0.8195
 4735SOL     OW25840   4.176   2.699   2.223 -0.0667 -0.8111  1.1022
 4735SOL    HW125841   4.270   2.717   2.227 -0.1084 -0.7131  1.6768
 4735SOL    HW225842   4.190   2.606   2.238  0.8871 -0.6896  0.9948
 4736SOL     OW25843   3.102   4.099   8.841  0.0722 -0.3467  0.5467
 4736SOL    HW125844   3.121   4.087   8.934  0.8871  0.4522  0.4885
 4736SOL    HW225845   3.190   4.129   8.816 -0.0744 -0.4160 -0.0586
 4737SOL     OW25846   0.554   3.124   3.913 -0.2074  0.2343 -0.4573
 4737SOL    HW125847   0.485   3.155   3.854 -0.5944 -1.4630 -0.8831
 4737SOL    HW225848   0.527   3.174   3.990  0.3870  0.9037 -0.6882
 4738SOL     OW25849   4.086   4.311   1.475  0.5178  0.1439 -0.6662
 4738SOL    HW125850   4.086   4.332   1.381 -2.8006  0.6012 -0.5353
 4738SOL    HW225851   3.993   4.297   1.492  0.5200 -0.2270 -0.9512
 4739SOL     OW25852   2.423   0.585   3.524  0.0435 -0.7095  0.5153
 4739SOL    HW125853   2.513   0.585   3.490 -0.7169 -0.1266 -1.5112
 4739SOL    HW225854   2.429   0.532   3.604 -0.8378  0.6807  1.4893
 4740SOL     OW25855   0.677   3.812   5.960 -0.1967 -0.1414  0.4480
 4740SOL    HW125856   0.650   3.721   5.966 -0.2129 -0.0068  2.4170
 4740SOL    HW225857   0.748   3.828   6.023  0.4176 -1.2029  0.0233
 4741SOL     OW25858   2.476   0.571  11.567 -0.2834 -0.1940  0.1434
 4741SOL    HW125859   2.510   0.530  11.488  1.3575 -2.3878  1.9892
 4741SOL    HW225860   2.414   0.637  11.537 -0.0681  1.1490  2.6863
 4742SOL     OW25861   0.736   0.508   2.761  0.4829  0.6284  0.0946
 4742SOL    HW125862   0.641   0.499   2.774  0.5152 -0.6714 -0.5511
 4742SOL    HW225863   0.739   0.444   2.689  2.2085  0.3303  0.4377
 4743SOL     OW25864   1.764   3.934   2.560 -0.0252  0.0197  0.0333
 4743SOL    HW125865   1.714   3.892   2.630 -1.3706 -0.7633 -1.3943
 4743SOL    HW225866   1.852   3.898   2.575  0.8841  2.2912  0.1419
 4744SOL     OW25867   1.618   2.763   3.230  0.1018  0.4991  0.4994
 4744SOL    HW125868   1.648   2.676   3.201 -3.9786 -0.5693 -0.5434
 4744SOL    HW225869   1.700   2.811   3.232  0.0379  0.6020  0.6144
 4745SOL     OW25870   0.960   3.553   2.472 -0.0526 -0.4387 -0.0244
 4745SOL    HW125871   0.989   3.464   2.491  0.8768 -0.3875 -1.2562
 4745SOL    HW225872   0.893   3.530   2.407 -2.0938 -2.0271  2.6372
 4746SOL     OW25873   0.828   3.248   7.810  0.0372 -0.0089 -0.2406
 4746SOL    HW125874   0.782   3.174   7.850  2.5081 -2.1181 -1.2800
 4746SOL    HW225875   0.757   3.312   7.810 -1.0701 -1.2374  1.5465
 4747SOL     OW25876   2.371   1.891  13.181 -0.0271  0.3557  0.0240
 4747SOL    HW125877   2.447   1.947  13.166 -0.3052  0.3243 -1.4535
 4747SOL    HW225878   2.354   1.909  13.273 -1.6880  0.0755 -0.2342
 4748SOL     OW25879   4.423   2.593   8.141 -0.3788  0.3874  0.4339
 4748SOL    HW125880   4.464   2.617   8.224  1.3904 -1.4700  0.0891
 4748SOL    HW225881   4.377   2.514   8.172  0.1822 -0.5203 -1.0609
 4749SOL     OW25882   0.869   3.469  11.278  0.1284 -0.2388 -0.6713
 4749SOL    HW125883   0.875   3.520  11.359 -2.3234 -0.4488 -0.3675
 4749SOL    HW225884   0.935   3.402  11.296  0.0217  0.3875  2.1484
 4750SOL     OW25885   3.574   0.358   5.638  0.3379 -0.3782  0.3739
 4750SOL    HW125886   3.549   0.368   5.546 -2.2023  0.8519  1.1974
 4750SOL    HW225887   3.669   0.367   5.637  0.2502  0.5684  0.6756
 4751SOL     OW25888   3.490   0.530   6.843  0.4051 -0.9336 -0.2073
 4751SOL    HW125889   3.516   0.470   6.773  2.1996 -0.1153 -0.2480
 4751SOL    HW225890   3.572   0.575   6.866  0.9156 -1.2218 -1.4792
 4752SOL     OW25891   2.798   4.362   4.191  0.3000  0.2237  0.1297
 4752SOL    HW125892   2.831   4.412   4.116  1.6826  1.0164  1.2510
 4752SOL    HW225893   2.716   4.406   4.212 -0.7599 -2.1217  0.8191
 4753SOL     OW25894   1.616   2.523  16.502 -0.1517 -0.4469  0.8279
 4753SOL    HW125895   1.536   2.544  16.551 -0.6025  1.7869 -0.8361
 4753SOL    HW225896   1.592   2.459  16.435 -1.7347  0.0064  0.9484
 4754SOL     OW25897   3.396   1.808  10.362 -0.0012 -0.4838 -0.1805
 4754SOL    HW125898   3.487   1.834  10.380 -0.6042  0.7378  1.0788
 4754SOL    HW225899   3.345   1.885  10.386  0.8016  0.8081 -2.5899
 4755SOL     OW25900   3.533   0.305   9.728 -0.0183 -0.0042  0.9091
 4755SOL    HW125901   3.542   0.209   9.725 -0.5433 -0.0837  1.7848
 4755SOL    HW225902   3.454   0.318   9.781 -0.2707  1.6382  0.0944
 4756SOL     OW25903   2.162   2.247   3.796  0.0789 -0.0313 -0.3681
 4756SOL    HW125904   2.205   2.225   3.879 -2.0620 -0.1880  0.7232
 4756SOL    HW225905   2.087   2.295   3.832  1.0739  0.8349  0.5723
 4757SOL     OW25906   4.323   1.792   0.141 -0.3990 -0.0109  0.5458
 4757SOL    HW125907   4.229   1.777   0.136 -0.4403  0.7385 -0.8695
 4757SOL    HW225908   4.333   1.881   0.108  0.4017  0.4283  1.9635
 4758SOL     OW25909   1.221   3.491   3.674 -0.3865 -0.6190 -0.0832
 4758SOL    HW125910   1.235   3.585   3.675  3.2140 -1.1758 -0.1195
 4758SOL    HW225911   1.140   3.474   3.625  1.0004 -1.3680 -2.1434
 4759SOL     OW25912   0.381   3.012   7.787 -0.2978  0.3515 -0.5888
 4759SOL    HW125913   0.403   2.935   7.840  0.3622  0.1167 -1.2065
 4759SOL    HW225914   0.424   3.088   7.824 -0.5171 -0.7661  1.9399
 4760SOL     OW25915   4.624   2.998   6.553 -0.1571  0.3384 -0.0924
 4760SOL    HW125916   4.537   2.995   6.592 -0.3191 -0.0424 -0.4825
 4760SOL    HW225917   4.671   2.993   6.636 -1.6786  2.0322  0.8671
 4761SOL     OW25918   3.429   4.707   7.150  0.1907  0.2466 -0.2204
 4761SOL    HW125919   3.479   4.685   7.071  0.0203 -0.9768 -0.0014
 4761SOL    HW225920   3.489   0.004   7.217  1.2715  2.0804 -2.0782
 4762SOL     OW25921   1.570   3.819   3.875  0.0606  0.7353  0.2278
 4762SOL    HW125922   1.556   3.816   3.780  0.6695  2.5438  0.0877
 4762SOL    HW225923   1.574   3.914   3.890  0.4029  0.6783  0.4895
 4763SOL     OW25924   1.943   2.562   4.292 -0.0692  0.1294 -0.5041
 4763SOL    HW125925   1.934   2.572   4.197 -0.0304 -1.2592 -0.6547
 4763SOL    HW225926   1.897   2.640   4.320 -0.6428 -0.2656 -0.3479
 4764SOL     OW25927   1.345   3.729   7.428 -0.0610 -0.7080 -0.1852
 4764SOL    HW125928   1.386   3.813   7.450 -1.2841 -0.7772  2.3699
 4764SOL    HW225929   1.393   3.699   7.351 -2.4078  0.2280 -2.0135
 4765SOL     OW25930   3.523   0.550   3.583 -0.2059 -0.3259  0.6193
 4765SOL    HW125931   3.459   0.538   3.513  0.5434 -2.0649  0.2400
 4765SOL    HW225932   3.483   0.630   3.618  0.2461  1.3139 -2.5873
 4766SOL     OW25933   2.297   4.207   7.144  0.2244  0.9522 -0.2190
 4766SOL    HW125934   2.224   4.152   7.172  1.3045  0.0180  0.8069
 4766SOL    HW225935   2.285   4.202   7.049 -0.6720 -2.0119  0.0334
 4767SOL     OW25936   1.822   2.167   8.874  0.7278  0.5867  0.7619
 4767SOL    HW125937   1.827   2.193   8.966  1.9389  2.7002  0.1160
 4767SOL    HW225938   1.732   2.194   8.857  0.3559 -2.0879 -1.4621
 4768SOL     OW25939   4.536   3.998   7.415 -0.4447 -0.6256  0.1209
 4768SOL    HW125940   4.550   3.938   7.489 -2.0131 -0.4855  0.5441
 4768SOL    HW225941   4.530   3.932   7.346 -0.8415 -2.7006  2.1098
 4769SOL     OW25942   0.599   2.264   7.348  0.1996 -0.0307  0.1516
 4769SOL    HW125943   0.693   2.275   7.363  0.2218  0.5714 -0.4184
 4769SOL    HW225944   0.598   2.312   7.265  0.4410  3.5302  2.2153
 4770SOL     OW25945   3.182   0.345   9.441 -0.0729 -0.3500 -0.6539
 4770SOL    HW125946   3.213   0.309   9.524 -1.8223  0.5136  0.3659
 4770SOL    HW225947   3.094   0.373   9.462 -0.0366 -0.0314 -0.9223
 4771SOL     OW25948   0.761   4.568   7.783  0.8822 -0.1983  0.1425
 4771SOL    HW125949   0.853   4.553   7.801  0.3444 -2.6968  0.8099
 4771SOL    HW225950   0.720   4.566   7.869  0.2663  0.4186 -0.1332
 4772SOL     OW25951   2.499   3.676  13.076 -0.4431 -0.0614 -0.5181
 4772SOL    HW125952   2.467   3.668  12.986 -1.2943  0.6352 -0.2790
 4772SOL    HW225953   2.537   3.763  13.089  0.3531 -0.6586  1.2105
 4773SOL     OW25954   0.580   1.329   5.516  0.1349  0.1459 -0.5596
 4773SOL    HW125955   0.667   1.322   5.475  0.2171 -0.7762 -0.2306
 4773SOL    HW225956   0.578   1.265   5.586  2.2959 -0.9396 -1.4609
 4774SOL     OW25957   1.550   3.086   1.742 -0.2166 -0.5302  0.6170
 4774SOL    HW125958   1.599   3.163   1.773  0.3754 -1.0220  0.8953
 4774SOL    HW225959   1.493   3.135   1.682  0.1639 -0.2824  0.4578
 4775SOL     OW25960   2.237   0.412   6.164  0.2681  0.2387 -0.4304
 4775SOL    HW125961   2.248   0.378   6.253 -0.9548 -0.9089 -0.7216
 4775SOL    HW225962   2.328   0.419   6.136  1.0099 -0.2148  1.8518
 4776SOL     OW25963   3.930   2.349   8.036  0.0250 -0.4222  0.8220
 4776SOL    HW125964   3.865   2.351   7.965  0.4260 -1.0753  0.4311
 4776SOL    HW225965   4.004   2.378   7.983  0.5587 -2.5241  0.3899
 4777SOL     OW25966   0.200   1.122   9.968 -0.5846 -0.3279  0.6144
 4777SOL    HW125967   0.236   1.057   9.908  0.5590  1.1592 -0.3315
 4777SOL    HW225968   0.271   1.149  10.026 -0.5946 -0.4131  0.6648
 4778SOL     OW25969   4.294   2.598   5.105  0.7092  0.5703  0.4377
 4778SOL    HW125970   4.263   2.679   5.145  0.3452 -1.1816  3.7523
 4778SOL    HW225971   4.211   2.569   5.068  0.1123 -0.5441  2.6410
 4779SOL     OW25972   1.431   0.182   4.151 -0.2527 -0.9142 -0.0204
 4779SOL    HW125973   1.403   0.272   4.171 -0.3402 -0.7686 -0.7992
 4779SOL    HW225974   1.342   0.148   4.154 -0.3216 -0.5868  2.3539
 4780SOL     OW25975   4.460   2.907   1.980  0.6591  0.2682  0.7145
 4780SOL    HW125976   4.486   2.827   1.935  0.9455  0.8516 -0.1549
 4780SOL    HW225977   4.492   2.971   1.916 -2.2368  1.2444  0.2333
 4781SOL     OW25978   1.241   3.385  14.868  0.4125  0.7156 -0.2809
 4781SOL    HW125979   1.303   3.398  14.940 -0.1066 -3.8688  1.0136
 4781SOL    HW225980   1.265   3.293  14.850  0.6166  0.8583 -0.7468
 4782SOL     OW25981   3.913   1.725  11.848 -0.0330 -0.1819  0.2844
 4782SOL    HW125982   3.846   1.740  11.781  2.2677  0.7032 -1.8068
 4782SOL    HW225983   3.975   1.678  11.792  0.8727  1.3279  0.0103
 4783SOL     OW25984   4.565   1.230   8.880  0.7608 -0.0262  0.8119
 4783SOL    HW125985   4.477   1.256   8.853  1.1575  1.5284  1.0082
 4783SOL    HW225986   4.575   1.258   8.971  0.8527  2.4054  0.0501
 4784SOL     OW25987   1.243   1.089   4.283  0.1920  0.0809  0.2912
 4784SOL    HW125988   1.320   1.143   4.271  0.3064  0.0832  1.0019
 4784SOL    HW225989   1.178   1.154   4.310 -0.0683 -0.9333  2.1216
 4785SOL     OW25990   1.965   2.637   0.763  0.5529 -0.6615 -0.1443
 4785SOL    HW125991   2.050   2.611   0.796  1.4021 -0.0444 -1.8551
 4785SOL    HW225992   1.898   2.576   0.794 -0.9543 -0.0450 -2.1844
 4786SOL     OW25993   4.121   4.309   7.946  0.2100 -0.5328 -0.2611
 4786SOL    HW125994   4.188   4.345   7.887 -0.9258  1.3458 -0.4025
 4786SOL    HW225995   4.044   4.347   7.904 -0.9864 -0.4280  2.0465
 4787SOL     OW25996   2.156   3.502   3.978 -0.3997 -0.9204  0.0551
 4787SOL    HW125997   2.102   3.484   3.901 -1.7281  1.9763  0.3023
 4787SOL    HW225998   2.241   3.526   3.942 -1.5472  0.4972 -1.7623
 4788SOL     OW25999   2.646   0.159   7.474  0.5778 -0.0160  0.0538
 4788SOL    HW126000   2.561   0.174   7.432  1.3030  1.4353 -0.9275
 4788SOL    HW226001   2.649   0.231   7.538  1.3490  0.1817 -0.2011
 4789SOL     OW26002   3.229   0.279   5.182 -0.6338  0.6864  0.1248
 4789SOL    HW126003   3.240   0.202   5.126 -1.2129  0.2059  0.6721
 4789SOL    HW226004   3.238   0.353   5.121  2.2311  0.0970 -0.1438
 4790SOL     OW26005   3.402   0.186   1.936 -0.6585  0.2355  0.3776
 4790SOL    HW126006   3.329   0.124   1.934 -1.1903  0.8683  0.4239
 4790SOL    HW226007   3.424   0.196   2.029  1.3712  2.6407 -0.3602
 4791SOL     OW26008   0.590   0.915   4.349 -0.1507 -0.1525  0.0052
 4791SOL    HW126009   0.601   1.010   4.339 -1.7205 -0.0618 -0.8598
 4791SOL    HW226010   0.682   0.890   4.350 -0.2000 -0.3784 -1.2946
 4792SOL     OW26011   0.374   4.018   5.072  0.4570  0.1927 -0.2157
 4792SOL    HW126012   0.433   4.093   5.084  1.2038 -0.4488  0.1334
 4792SOL    HW226013   0.296   4.066   5.043 -0.1563 -0.3446  0.5476
 4793SOL     OW26014   0.372   1.074   6.222 -0.5749 -0.1032  0.0782
 4793SOL    HW126015   0.446   1.088   6.281 -0.7644  0.5911  0.1594
 4793SOL    HW226016   0.399   0.992   6.182 -0.6081 -0.7701  1.3989
 4794SOL     OW26017   4.091   0.963   3.930 -0.1457  0.4558 -0.2023
 4794SOL    HW126018   4.111   1.045   3.884 -0.6471 -0.7531 -2.5837
 4794SOL    HW226019   4.026   0.920   3.874 -0.7059  0.5223  0.3957
 4795SOL     OW26020   2.837   4.018   1.267  0.3465 -0.1759 -0.0080
 4795SOL    HW126021   2.752   4.036   1.306  0.2171 -1.9837  0.5355
 4795SOL    HW226022   2.881   4.099   1.293  1.0553 -0.0426 -1.5972
 4796SOL     OW26023   0.424   3.751   5.386  0.5641  1.0415 -0.8832
 4796SOL    HW126024   0.514   3.719   5.394 -0.3907 -1.8761 -1.7993
 4796SOL    HW226025   0.435   3.829   5.441 -2.8409  1.7272 -1.1977
 4797SOL     OW26026   2.707   0.315   7.683  0.0954 -0.2383  0.0803
 4797SOL    HW126027   2.793   0.276   7.703  0.7404  1.2745  0.2466
 4797SOL    HW226028   2.680   0.338   7.772  0.7366 -2.1771  0.7831
 4798SOL     OW26029   0.706   1.949   5.234  0.2394  0.2746  0.3470
 4798SOL    HW126030   0.662   2.034   5.225 -1.1403 -0.2307  2.2843
 4798SOL    HW226031   0.789   1.966   5.190  1.0717 -1.6519  1.2018
 4799SOL     OW26032   3.089   2.656  12.581  0.3768  0.0751  0.0369
 4799SOL    HW126033   3.057   2.741  12.613 -1.2131 -0.7258  0.5290
 4799SOL    HW226034   3.066   2.653  12.488 -1.2703  0.4124  0.4428
 4800SOL     OW26035   1.441   3.875   0.315 -0.0389  0.4838  0.2043
 4800SOL    HW126036   1.427   3.942   0.382 -2.4104 -0.2911  0.4963
 4800SOL    HW226037   1.358   3.828   0.308 -0.8088  1.5114  2.5337
 4801SOL     OW26038   4.611   2.487   6.817 -0.1163 -0.0571 -0.3605
 4801SOL    HW126039   4.518   2.467   6.829 -0.5219  0.6407 -2.3578
 4801SOL    HW226040   4.621   2.501   6.723  1.0471  0.8460 -0.0998
 4802SOL     OW26041   4.481   4.367   9.448 -0.0534  0.1160 -0.3656
 4802SOL    HW126042   4.411   4.387   9.386  1.7173  1.3348 -1.9735
 4802SOL    HW226043   4.446   4.382   9.536 -1.5721  1.1639 -1.1444
 4803SOL     OW26044   1.156   2.356   4.970 -0.1072  0.0527 -0.2790
 4803SOL    HW126045   1.198   2.428   5.016 -0.3182 -0.1728  0.2647
 4803SOL    HW226046   1.220   2.285   4.977  2.2938  2.2522  0.3643
 4804SOL     OW26047   0.345   3.941   4.690  0.6190 -0.2136  0.7286
 4804SOL    HW126048   0.322   3.938   4.783 -1.8830  0.2611  0.1320
 4804SOL    HW226049   0.256   3.962   4.660  0.2162 -4.0914 -0.6833
 4805SOL     OW26050   0.229   2.744   1.780  0.1400 -0.3854  0.6752
 4805SOL    HW126051   0.224   2.836   1.806  0.9032 -0.3480  0.7054
 4805SOL    HW226052   0.324   2.733   1.789  0.3571 -0.4763 -1.6142
 4806SOL     OW26053   2.690   1.678   7.854  0.0005 -0.2285 -0.2959
 4806SOL    HW126054   2.634   1.669   7.931  2.6271  0.3401  1.6905
 4806SOL    HW226055   2.701   1.773   7.848 -2.8204  0.3331  3.1332
 4807SOL     OW26056   1.022   3.376   4.598 -0.1316 -0.3534 -0.1139
 4807SOL    HW126057   0.987   3.462   4.621  0.8163  0.1393 -0.5017
 4807SOL    HW226058   1.107   3.394   4.556  1.3079 -0.8284  2.6398
 4808SOL     OW26059   0.772   3.674   6.555 -0.2957  0.3438  0.4702
 4808SOL    HW126060   0.691   3.675   6.607 -0.0329  1.2245  0.8632
 4808SOL    HW226061   0.837   3.683   6.625 -0.0759 -0.5741  0.3720
 4809SOL     OW26062   4.435   4.226   3.544  0.4629 -0.3012 -0.1969
 4809SOL    HW126063   4.455   4.224   3.450  2.1301 -0.1348  0.1597
 4809SOL    HW226064   4.399   4.138   3.554 -3.3965  1.2030 -0.6179
 4810SOL     OW26065   2.334   4.645  15.569  0.0834 -0.4524  0.7621
 4810SOL    HW126066   2.396   4.616  15.501  0.1628  0.4590  0.4418
 4810SOL    HW226067   2.392   4.713  15.604  0.1645  0.3816 -0.9865
 4811SOL     OW26068   1.348   3.375   2.226 -0.7331  0.2841 -0.1286
 4811SOL    HW126069   1.417   3.314   2.251  1.4245  3.1548  1.0072
 4811SOL    HW226070   1.322   3.395   2.316 -1.8991 -0.1990 -0.3556
 4812SOL     OW26071   2.128   4.517   4.996  0.6957 -0.0420 -0.1945
 4812SOL    HW126072   2.213   4.518   5.040  1.5978 -2.2680 -1.9175
 4812SOL    HW226073   2.066   4.466   5.050  1.7380  1.4483  2.4312
 4813SOL     OW26074   4.110   2.409  16.062  0.1497  0.3280  0.4886
 4813SOL    HW126075   4.030   2.393  16.013  0.2966 -1.2099  0.7319
 4813SOL    HW226076   4.091   2.502  16.077  0.2988  0.3826  0.3359
 4814SOL     OW26077   4.300   0.131   9.956  0.0793 -0.4505  0.1293
 4814SOL    HW126078   4.271   0.064  10.017 -0.3425  1.5817  2.1331
 4814SOL    HW226079   4.217   0.165   9.922  0.1788 -0.6546 -0.3197
 4815SOL     OW26080   4.664   2.439  10.420  0.0923  0.0699  0.0822
 4815SOL    HW126081   4.587   2.427  10.476 -0.9504  0.8716 -1.1714
 4815SOL    HW226082   4.672   2.532  10.398  0.0926 -0.3828 -1.8554
 4816SOL     OW26083   4.134   2.163  16.194  0.6457  0.6623 -0.2564
 4816SOL    HW126084   4.120   2.245  16.147 -0.6286 -0.3285 -1.5930
 4816SOL    HW226085   4.108   2.194  16.281 -1.3320  1.8993 -1.3048
 4817SOL     OW26086   0.116   1.438   1.585  0.2518 -0.0274  0.1110
 4817SOL    HW126087   0.171   1.454   1.507  0.3751  1.0095  0.4173
 4817SOL    HW226088   0.038   1.482   1.551  0.8159  2.5058  2.0942
 4818SOL     OW26089   4.704   1.475   8.385 -0.3300 -0.2015  0.2580
 4818SOL    HW126090   4.625   1.495   8.336 -0.3238  0.7454  0.6277
 4818SOL    HW226091   4.668   1.480   8.473 -1.3306  1.1617 -0.2271
 4819SOL     OW26092   2.559   1.799   3.833 -0.1056 -0.1459  0.3895
 4819SOL    HW126093   2.652   1.781   3.849 -0.1472  0.4511  1.2842
 4819SOL    HW226094   2.565   1.829   3.742  1.2264 -1.2774  0.1006
 4820SOL     OW26095   4.363   0.977  11.321  0.5817  0.5190 -0.2883
 4820SOL    HW126096   4.290   0.946  11.268  1.1435 -0.0931 -0.7110
 4820SOL    HW226097   4.371   0.924  11.400  0.3005  1.7003  0.5318
 4821SOL     OW26098   1.509   4.071   6.157 -0.1815  0.0770  0.0276
 4821SOL    HW126099   1.540   4.102   6.072  1.5119 -0.3109  0.4978
 4821SOL    HW226100   1.419   4.050   6.133  0.1431 -1.2602  0.0275
 4822SOL     OW26101   4.588   1.798  12.519 -0.1063 -0.0665 -0.1886
 4822SOL    HW126102   4.576   1.721  12.463 -2.4416  0.1686 -0.0355
 4822SOL    HW226103   4.571   1.760  12.605  1.1594 -0.0495  0.0598
 4823SOL     OW26104   2.076   3.775   4.058  0.4519 -0.3124  0.2008
 4823SOL    HW126105   2.054   3.686   4.084 -0.4558 -0.4753 -1.0862
 4823SOL    HW226106   2.117   3.753   3.974 -2.5612  0.8457 -1.5859
 4824SOL     OW26107   4.634   4.558   5.403  0.0101 -0.5291  0.0099
 4824SOL    HW126108   4.587   4.641   5.404 -0.1838 -0.6774  2.2342
 4824SOL    HW226109   4.668   4.554   5.492  0.5524  1.8499 -0.1013
 4825SOL     OW26110   3.514   4.210   7.473  0.0039  0.3187 -0.4274
 4825SOL    HW126111   3.459   4.132   7.488  1.7262 -1.1096 -1.5894
 4825SOL    HW226112   3.580   4.203   7.542 -0.3178  2.1957  0.0708
 4826SOL     OW26113   2.461   1.074   5.389 -0.4204 -0.0303 -0.5342
 4826SOL    HW126114   2.464   1.012   5.463 -1.1676 -0.0577 -0.5268
 4826SOL    HW226115   2.518   1.145   5.418  0.7653 -0.8971 -0.7589
 4827SOL     OW26116   1.204   0.493  13.197 -0.1941  0.2036  0.0454
 4827SOL    HW126117   1.114   0.492  13.228  0.1925  1.9687  1.2462
 4827SOL    HW226118   1.228   0.408  13.236 -0.1342  1.8655  3.6507
 4828SOL     OW26119   3.523   2.029  13.032 -0.2878 -0.4936  0.7247
 4828SOL    HW126120   3.542   2.003  12.942 -0.2212  0.7280  0.3877
 4828SOL    HW226121   3.515   2.122  13.010 -2.0668 -0.7611  0.2767
 4829SOL     OW26122   0.202   3.818   2.862  0.0546 -0.1561  0.0821
 4829SOL    HW126123   0.249   3.747   2.819  1.7047 -0.1378  1.8372
 4829SOL    HW226124   0.238   3.816   2.951 -0.5597  1.0312  0.3581
 4830SOL     OW26125   2.457   3.086  13.227 -0.3742  0.0349  0.3480
 4830SOL    HW126126   2.366   3.084  13.196 -0.7292  1.5142  1.3241
 4830SOL    HW226127   2.498   3.160  13.183 -0.9392  0.1274 -0.0287
 4831SOL     OW26128   0.173   3.022  14.107 -0.3914 -0.0106  0.3494
 4831SOL    HW126129   0.127   2.970  14.041 -0.8062 -1.7891  2.0324
 4831SOL    HW226130   0.104   3.084  14.130  0.4044  0.9134  0.2274
 4832SOL     OW26131   4.721   2.988   4.151  0.2576 -0.3830  0.1671
 4832SOL    HW126132   4.676   2.950   4.227 -0.4683 -1.2641 -0.7005
 4832SOL    HW226133   4.733   3.077   4.184 -1.7037 -0.2442  0.5259
 4833SOL     OW26134   2.634   4.604   5.348  1.0031 -0.2203 -0.5193
 4833SOL    HW126135   2.671   4.656   5.420  2.8977 -0.4222 -1.3364
 4833SOL    HW226136   2.549   4.594   5.391  0.3943 -2.0393 -2.1252
 4834SOL     OW26137   1.674   3.764   6.444  0.0415 -0.0492  0.3628
 4834SOL    HW126138   1.638   3.741   6.530  0.5903 -2.6196 -0.0805
 4834SOL    HW226139   1.748   3.704   6.453 -0.6916 -0.5075  3.5748
 4835SOL     OW26140   2.392   4.211   2.564 -0.1558 -0.2845  0.3106
 4835SOL    HW126141   2.358   4.242   2.480  0.4682  2.4848  1.1146
 4835SOL    HW226142   2.446   4.144   2.521 -3.1731 -2.8686  0.4966
 4836SOL     OW26143   2.923   0.442   3.242 -0.0069  0.3631 -0.2513
 4836SOL    HW126144   3.009   0.430   3.203 -0.7719  2.1523 -2.4997
 4836SOL    HW226145   2.940   0.525   3.285 -1.7785  0.6347 -0.0722
 4837SOL     OW26146   3.482   4.271   2.591 -0.3428  0.0714 -0.5688
 4837SOL    HW126147   3.436   4.335   2.645 -0.0346 -1.1198  1.1011
 4837SOL    HW226148   3.566   4.316   2.598  0.3196 -1.2172 -0.2685
 4838SOL     OW26149   1.344   0.067  11.622 -0.3889 -0.2247 -0.1451
 4838SOL    HW126150   1.330   0.040  11.532 -3.7704 -1.5493  0.7935
 4838SOL    HW226151   1.317   4.728  11.676  0.4061  0.2693  0.9419
 4839SOL     OW26152   2.599   1.048   4.122  0.0746  0.0516 -0.0468
 4839SOL    HW126153   2.644   1.021   4.202  0.4934 -0.5381 -0.4836
 4839SOL    HW226154   2.563   1.134   4.141 -0.8228 -0.4609  0.5792
 4840SOL     OW26155   1.584   2.709  17.036  0.4551  0.1814 -0.3814
 4840SOL    HW126156   1.598   2.668  17.122 -0.5434  1.0058  0.1751
 4840SOL    HW226157   1.622   2.634  16.991 -0.3313 -0.7925  0.5865
 4841SOL     OW26158   2.708   2.207  17.623  0.0309 -0.3711 -0.1469
 4841SOL    HW126159   2.763   2.219  17.545 -0.3879  0.1728 -0.3619
 4841SOL    HW226160   2.682   2.115  17.613  2.0478 -1.0001  0.4071
 4842SOL     OW26161   1.191   0.228   9.098  0.3467  0.5428 -0.2961
 4842SOL    HW126162   1.121   0.251   9.037  0.2612  1.1915  0.0384
 4842SOL    HW226163   1.213   0.145   9.057 -3.4264  0.8440 -2.8381
 4843SOL     OW26164   2.334   1.005   2.029  0.3897 -0.3409 -0.0691
 4843SOL    HW126165   2.326   1.093   2.066  2.2823  0.3354 -1.2797
 4843SOL    HW226166   2.264   1.023   1.965 -1.4461 -0.7001  1.8260
 4844SOL     OW26167   0.937   3.732   3.712  0.6989 -0.4975  0.0807
 4844SOL    HW126168   0.982   3.769   3.637 -0.1055 -1.2976 -0.7951
 4844SOL    HW226169   0.936   3.812   3.765  0.5113 -1.5690  1.6940
 4845SOL     OW26170   3.530   1.031   1.981 -0.3255 -0.1768  0.1927
 4845SOL    HW126171   3.556   0.939   1.982  4.0007  1.0471  1.3044
 4845SOL    HW226172   3.613   1.079   1.987 -0.5837  0.3358 -0.2753
 4846SOL     OW26173   2.302   2.689   9.093 -0.2457  0.1342 -0.1628
 4846SOL    HW126174   2.224   2.678   9.039  1.4532 -1.0175 -2.4277
 4846SOL    HW226175   2.376   2.651   9.045  0.9415  0.7809  1.1519
 4847SOL     OW26176   4.684   3.415  17.207 -0.7607 -0.7208 -0.4099
 4847SOL    HW126177   4.730   3.492  17.174  0.1849 -0.2385  2.0610
 4847SOL    HW226178   4.719   3.349  17.147 -0.0413  0.3556 -1.1829
 4848SOL     OW26179   2.599   1.225   1.538  0.3144 -0.3499  0.2771
 4848SOL    HW126180   2.657   1.152   1.516 -0.5432  0.4641 -4.7197
 4848SOL    HW226181   2.654   1.300   1.514  1.1171 -1.8172 -2.5290
 4849SOL     OW26182   1.859   0.082   3.274 -0.2405  0.0823  0.2421
 4849SOL    HW126183   1.924   0.132   3.225 -0.0517 -0.8445 -0.4475
 4849SOL    HW226184   1.905   0.050   3.351 -1.0889  1.2441  1.2212
 4850SOL     OW26185   1.261   2.038   8.487  0.3656  0.5130  0.0900
 4850SOL    HW126186   1.348   2.000   8.475 -1.2069 -2.6084 -1.4366
 4850SOL    HW226187   1.199   1.985   8.437  1.3852  0.9524 -1.6446
 4851SOL     OW26188   3.250   1.878   6.143 -0.2890 -0.2654  0.1627
 4851SOL    HW126189   3.344   1.897   6.147 -0.3114  0.0196 -0.5009
 4851SOL    HW226190   3.244   1.791   6.104  1.2800  0.0976 -0.8944
 4852SOL     OW26191   4.023   4.183  12.321  0.1247  0.2734 -0.2043
 4852SOL    HW126192   4.036   4.117  12.252  1.8965 -0.5757  0.9398
 4852SOL    HW226193   4.011   4.123  12.394 -1.9736 -0.1461 -0.8771
 4853SOL     OW26194   2.358   2.140   4.783  0.1466 -0.6001 -0.2985
 4853SOL    HW126195   2.377   2.206   4.716 -0.7111  1.1815  1.2244
 4853SOL    HW226196   2.295   2.085   4.735 -2.0503  1.4101  0.2678
 4854SOL     OW26197   3.010   2.785   1.880  0.1919 -0.5220  0.2394
 4854SOL    HW126198   3.046   2.871   1.903 -1.0756 -0.2133  1.0348
 4854SOL    HW226199   3.083   2.724   1.872  1.9598  1.6517 -0.3049
 4855SOL     OW26200   3.357   4.143   6.908  0.1012  0.9656  0.1981
 4855SOL    HW126201   3.283   4.171   6.962  0.7435  0.4334  1.3591
 4855SOL    HW226202   3.315   4.112   6.827  0.4792  0.7168  0.0956
 4856SOL     OW26203   1.098   4.293   5.153 -0.4688  0.2162  0.9520
 4856SOL    HW126204   1.036   4.239   5.105  0.1058  1.5269 -1.2509
 4856SOL    HW226205   1.053   4.376   5.137  1.8705  1.1491 -0.9928
 4857SOL     OW26206   3.842   2.924   2.450  0.3515  0.2080  0.4955
 4857SOL    HW126207   3.878   2.935   2.362  0.1256  0.5902  0.4507
 4857SOL    HW226208   3.929   2.906   2.486  1.0818  0.1477 -1.3140
 4858SOL     OW26209   3.493   0.902   7.563 -0.7395 -0.0567  0.2285
 4858SOL    HW126210   3.530   0.840   7.626  2.2167  0.1742 -1.2935
 4858SOL    HW226211   3.542   0.981   7.586  1.2348 -0.9879 -0.8685
 4859SOL     OW26212   4.455   2.340   4.158  0.0316 -0.1625 -0.5600
 4859SOL    HW126213   4.429   2.276   4.224  0.8539 -1.0997 -1.1466
 4859SOL    HW226214   4.422   2.309   4.074  1.8228 -0.7596 -1.0511
 4860SOL     OW26215   4.363   4.473   9.664  0.2272 -0.3192 -0.1304
 4860SOL    HW126216   4.306   4.550   9.664  1.6924  0.7640 -1.7274
 4860SOL    HW226217   4.422   4.488   9.738  0.7334 -0.8051 -0.4365
 4861SOL     OW26218   2.169   3.838   7.624  0.1675 -0.5359  0.5026
 4861SOL    HW126219   2.174   3.744   7.639  1.5742 -0.7792 -1.3962
 4861SOL    HW226220   2.156   3.872   7.713 -1.4400 -1.9458  0.7950
 4862SOL     OW26221   2.504   2.861  13.382 -0.0002 -0.3198 -0.1534
 4862SOL    HW126222   2.506   2.946  13.338 -3.0423  0.1789  0.6640
 4862SOL    HW226223   2.415   2.867  13.416  0.3318  3.7316 -0.0057
 4863SOL     OW26224   4.508   3.884  15.114 -0.3206  0.0759  0.0141
 4863SOL    HW126225   4.422   3.845  15.110 -0.1101 -0.3329 -0.4490
 4863SOL    HW226226   4.501   3.941  15.191 -0.2063  0.6681 -0.4110
 4864SOL     OW26227   3.494   3.774   2.221  0.1579 -0.1377 -0.2279
 4864SOL    HW126228   3.510   3.840   2.289 -1.4615  0.2075 -0.1797
 4864SOL    HW226229   3.439   3.710   2.266  2.1292 -1.4426  0.3301
 4865SOL     OW26230   1.379   3.418   4.667  0.1636 -0.1048  0.0795
 4865SOL    HW126231   1.322   3.451   4.598  0.5853  0.0198 -0.2102
 4865SOL    HW226232   1.424   3.498   4.693  0.2850  0.2847 -1.2948
 4866SOL     OW26233   4.550   1.191  11.337  0.4687  0.1091  0.5505
 4866SOL    HW126234   4.614   1.142  11.389 -0.7002 -0.6933  1.2424
 4866SOL    HW226235   4.483   1.124  11.326  1.0833 -0.0731 -2.0635
 4867SOL     OW26236   1.281   2.788   2.689 -0.5826  0.6954 -0.5199
 4867SOL    HW126237   1.250   2.701   2.662 -1.8228  0.5466  1.3866
 4867SOL    HW226238   1.322   2.784   2.775 -0.5512  1.3631 -0.5019
 4868SOL     OW26239   1.189   4.062   3.409  1.0779 -0.3678  0.7119
 4868SOL    HW126240   1.186   4.134   3.346  1.0942  1.1475  2.4623
 4868SOL    HW226241   1.263   4.009   3.378  0.6373 -0.6343  0.1033
 4869SOL     OW26242   2.309   1.839   0.693 -0.1282 -0.3581  0.0278
 4869SOL    HW126243   2.395   1.821   0.655 -0.0450  0.2092 -0.0473
 4869SOL    HW226244   2.336   1.909   0.753 -0.3558 -0.1312 -0.1375
 4870SOL     OW26245   0.366   1.622   7.649  0.8440 -1.1498 -0.1370
 4870SOL    HW126246   0.340   1.574   7.727  1.8526 -1.2888  0.1130
 4870SOL    HW226247   0.455   1.649   7.670  1.1778 -3.0081  0.7780
 4871SOL     OW26248   3.347   4.294   1.928 -0.1356  0.3172 -0.7391
 4871SOL    HW126249   3.318   4.272   2.017  0.9856  1.7041 -0.0259
 4871SOL    HW226250   3.273   4.299   1.868 -0.8668  0.9550  0.2139
 4872SOL     OW26251   1.265   4.377   6.127  0.0928 -0.4135  0.2684
 4872SOL    HW126252   1.355   4.360   6.155  0.0803 -3.9068 -1.9132
 4872SOL    HW226253   1.239   4.426   6.205  1.8499  2.4392 -0.9280
 4873SOL     OW26254   1.011   2.198   8.361 -0.0032 -0.2879  0.1880
 4873SOL    HW126255   1.063   2.170   8.287 -0.9737 -1.1636 -0.1638
 4873SOL    HW226256   1.016   2.126   8.424  1.0324 -0.1906  0.2116
 4874SOL     OW26257   2.143   1.874   8.231  0.2893 -0.1754 -0.7928
 4874SOL    HW126258   2.173   1.964   8.219 -0.2030  0.2338  1.1374
 4874SOL    HW226259   2.229   1.832   8.236  0.8714  0.9825 -1.2236
 4875SOL     OW26260   2.283   2.432   2.157  0.2302 -0.7591 -0.3736
 4875SOL    HW126261   2.223   2.478   2.215  0.5995 -2.1697  1.1480
 4875SOL    HW226262   2.340   2.400   2.227  1.5742  2.8742  0.2200
 4876SOL     OW26263   2.875   2.258  15.319  0.1108  0.1521 -0.3045
 4876SOL    HW126264   2.866   2.200  15.243 -0.8199  1.4556 -1.1872
 4876SOL    HW226265   2.787   2.295  15.319  0.2639  0.5032  1.9901
 4877SOL     OW26266   1.607   0.391   5.221 -0.3108  0.1258  0.2925
 4877SOL    HW126267   1.602   0.303   5.260 -1.1821 -0.6931 -1.6720
 4877SOL    HW226268   1.519   0.425   5.234 -0.2083 -0.8190  3.5548
 4878SOL     OW26269   2.930   4.319  16.121 -0.0545 -0.0544  0.2545
 4878SOL    HW126270   2.949   4.311  16.028  0.9463 -0.0386  0.4496
 4878SOL    HW226271   2.849   4.270  16.130  0.6678 -1.3531 -0.4335
 4879SOL     OW26272   0.834   1.968   2.458 -0.0610 -0.3713 -0.5245
 4879SOL    HW126273   0.841   1.935   2.548  1.3983 -1.0407 -0.8823
 4879SOL    HW226274   0.822   1.885   2.412 -1.5763 -0.7868  0.6194
 4880SOL     OW26275   4.639   2.744  13.125 -0.0160 -0.3743  0.0476
 4880SOL    HW126276   4.709   2.728  13.187 -0.0627 -0.9836 -0.0650
 4880SOL    HW226277   4.657   2.833  13.094 -2.2609  0.0104 -0.1817
 4881SOL     OW26278   4.539   4.500   9.877  0.2528 -0.2925  0.8898
 4881SOL    HW126279   4.577   4.586   9.893  0.7087 -0.6886  1.9288
 4881SOL    HW226280   4.604   4.431   9.888 -1.3015 -1.4663  2.7108
 4882SOL     OW26281   1.808   0.812   3.648  0.0192  0.4153  0.1715
 4882SOL    HW126282   1.775   0.790   3.561 -0.9687  3.0098 -0.1068
 4882SOL    HW226283   1.746   0.760   3.699 -0.2885 -2.1388 -2.7815
 4883SOL     OW26284   1.532   1.174   6.114 -0.3699 -0.1682 -0.5099
 4883SOL    HW126285   1.518   1.085   6.082  2.7333 -0.4815 -0.9810
 4883SOL    HW226286   1.478   1.178   6.193  0.5622  0.5031  0.1058
 4884SOL     OW26287   4.003   1.487   9.088  0.0466  0.0069 -0.6176
 4884SOL    HW126288   3.994   1.409   9.033 -2.5648  0.1241 -0.3520
 4884SOL    HW226289   4.087   1.529   9.067  0.5348  0.2140  1.7890
 4885SOL     OW26290   1.737   4.196   4.221 -0.1791  0.4531  0.0565
 4885SOL    HW126291   1.684   4.264   4.179 -1.4620 -0.9184 -0.5549
 4885SOL    HW226292   1.825   4.209   4.186  0.6254  0.3845  2.0450
 4886SOL     OW26293   4.218   4.105   8.829 -0.0438 -0.0119 -0.2407
 4886SOL    HW126294   4.185   4.016   8.846  1.9623 -0.9949 -1.3978
 4886SOL    HW226295   4.171   4.128   8.749 -0.2935 -0.5020 -0.2370
 4887SOL     OW26296   4.498   0.074  17.739 -0.2049  0.1721  0.2091
 4887SOL    HW126297   4.429   0.015  17.709  1.0871 -0.7354 -0.9554
 4887SOL    HW226298   4.560   0.079  17.666  1.3623 -1.9886  1.4131
 4888SOL     OW26299   1.036   3.268   7.992  0.0361 -0.0936  0.2528
 4888SOL    HW126300   0.973   3.241   7.925  0.7093  0.4905 -0.6202
 4888SOL    HW226301   1.085   3.189   8.015 -1.6772 -0.7211  1.7309
 4889SOL     OW26302   2.453   2.654   7.751 -0.3065  0.3116  0.0168
 4889SOL    HW126303   2.540   2.620   7.771 -0.3019  0.7254  0.7230
 4889SOL    HW226304   2.470   2.748   7.755 -0.5850  0.4661 -2.3492
 4890SOL     OW26305   2.684   4.295   2.815 -0.0302  0.6225  0.0081
 4890SOL    HW126306   2.672   4.371   2.758 -0.8886  0.5950  0.1484
 4890SOL    HW226307   2.599   4.253   2.807  0.4811 -0.0450 -1.7802
 4891SOL     OW26308   4.388   0.250  11.425  0.1542 -0.0873 -0.1790
 4891SOL    HW126309   4.458   0.294  11.376  0.7110 -0.1914  0.5191
 4891SOL    HW226310   4.350   0.322  11.476  1.5817  0.6829 -0.1830
 4892SOL     OW26311   0.787   1.620  12.415 -0.0932 -0.2802 -0.1780
 4892SOL    HW126312   0.849   1.589  12.481  0.4505 -1.6387 -1.3326
 4892SOL    HW226313   0.849   1.654  12.351  1.3340 -1.8761  0.3572
 4893SOL     OW26314   0.285   0.072   7.244  0.2341  0.3285  0.3260
 4893SOL    HW126315   0.197   0.055   7.278  0.9247 -0.9083  1.4870
 4893SOL    HW226316   0.342   0.004   7.278 -1.0418 -0.0758  1.6680
 4894SOL     OW26317   1.692   1.099   9.503 -0.2200  0.0026 -0.4330
 4894SOL    HW126318   1.638   1.170   9.467 -0.8119 -0.9250 -1.3831
 4894SOL    HW226319   1.711   1.045   9.426  1.9374 -0.7645  0.6639
 4895SOL     OW26320   1.376   1.260  13.171 -0.5867  0.1642  0.8691
 4895SOL    HW126321   1.419   1.310  13.240 -2.0359  0.3766  1.6222
 4895SOL    HW226322   1.400   1.173  13.205  1.5697  0.0085 -1.0828
 4896SOL     OW26323   2.518   1.882   4.766  0.2534  0.2611  0.2863
 4896SOL    HW126324   2.507   1.973   4.792  0.3068  0.4197 -0.2603
 4896SOL    HW226325   2.602   1.874   4.721 -0.4239 -0.1171 -0.8874
 4897SOL     OW26326   2.270   4.590   9.684 -0.6897 -0.2020  0.8520
 4897SOL    HW126327   2.283   4.527   9.755  3.2751  0.2768  0.5616
 4897SOL    HW226328   2.358   4.628   9.678 -0.4557 -0.8952 -0.1545
 4898SOL     OW26329   4.589   2.796   5.685  0.1292 -0.1593 -0.1170
 4898SOL    HW126330   4.532   2.752   5.748  0.7140 -0.6915  0.0340
 4898SOL    HW226331   4.559   2.758   5.602 -1.6602  2.3495 -0.6074
 4899SOL     OW26332   4.013   4.303  12.848 -0.4224 -0.4501 -0.1295
 4899SOL    HW126333   4.005   4.279  12.941 -3.5107 -1.4971 -0.6913
 4899SOL    HW226334   4.093   4.356  12.845 -1.6733  1.3654 -0.6021
 4900SOL     OW26335   1.931   4.326  16.491 -0.3572  0.0767 -1.0014
 4900SOL    HW126336   1.891   4.316  16.405 -0.1792 -3.4333 -0.6586
 4900SOL    HW226337   1.909   4.419  16.502 -0.9386 -0.3140  1.1528
 4901SOL     OW26338   0.687   1.447   6.095  0.3297  0.1041 -0.2811
 4901SOL    HW126339   0.760   1.386   6.112  0.2152  0.7257  2.4000
 4901SOL    HW226340   0.659   1.436   6.005  1.1454 -1.6663 -0.3158
 4902SOL     OW26341   0.883   3.922  17.694 -0.2299  0.1763  0.0927
 4902SOL    HW126342   0.944   3.985  17.734 -1.8728  1.4269  0.6261
 4902SOL    HW226343   0.800   3.962  17.719  0.0247  0.2812  0.7552
 4903SOL     OW26344   3.077   2.363  14.404 -0.3408 -0.2238  0.1815
 4903SOL    HW126345   3.006   2.423  14.429  0.0142  0.5284 -0.6280
 4903SOL    HW226346   3.059   2.288  14.460  2.6397 -0.6242  0.6187
 4904SOL     OW26347   1.978   2.385  12.570 -0.6324 -0.1664 -0.1571
 4904SOL    HW126348   1.915   2.314  12.560  0.8997 -1.5126 -0.2314
 4904SOL    HW226349   2.055   2.337  12.542 -1.6567 -1.2983 -0.9910
 4905SOL     OW26350   0.067   1.277   4.866  0.3100 -0.2022  0.1665
 4905SOL    HW126351   0.002   1.207   4.878  0.1969  0.0136  0.8451
 4905SOL    HW226352   0.014   1.345   4.824 -1.0077 -1.4780 -0.2430
 4906SOL     OW26353   1.307   4.264   4.807 -0.3579  0.3036 -0.0513
 4906SOL    HW126354   1.393   4.230   4.833 -0.6035 -1.7715 -1.9487
 4906SOL    HW226355   1.256   4.187   4.832 -1.5595  0.9076 -0.6600
 4907SOL     OW26356   1.358   0.427   6.357  0.2699  0.9725  0.6044
 4907SOL    HW126357   1.274   0.458   6.324 -0.3275 -2.0590 -0.7993
 4907SOL    HW226358   1.327   0.385   6.437  1.2177 -0.4110  0.2424
 4908SOL     OW26359   4.193   3.413   3.550 -0.2835 -0.0687  0.5107
 4908SOL    HW126360   4.114   3.445   3.593 -0.0341  0.7984  0.3446
 4908SOL    HW226361   4.226   3.356   3.620 -1.6204 -2.0061 -0.4522
 4909SOL     OW26362   2.299   2.984   3.989 -0.7133  0.1194  0.4497
 4909SOL    HW126363   2.284   3.048   3.920 -0.2808 -0.6849 -0.3950
 4909SOL    HW226364   2.224   3.006   4.044 -0.1914  4.4757 -0.6454
 4910SOL     OW26365   2.063   1.958  12.522  0.0080 -0.4806 -0.0434
 4910SOL    HW126366   2.124   1.912  12.578  0.2515 -0.5526 -0.3653
 4910SOL    HW226367   1.986   1.902  12.512  0.5880 -1.2045 -0.4543
 4911SOL     OW26368   1.004   1.941  11.966  0.4604 -1.0440  0.0791
 4911SOL    HW126369   1.030   1.993  12.042 -0.2399  0.5079 -0.7335
 4911SOL    HW226370   0.916   1.912  11.990 -0.3784 -1.4075 -3.3773
 4912SOL     OW26371   1.668   4.323   8.492 -0.2446  0.7379 -0.9078
 4912SOL    HW126372   1.602   4.379   8.450 -1.0451 -1.1578 -2.2002
 4912SOL    HW226373   1.739   4.385   8.508 -0.9823  1.2738  0.2744
 4913SOL     OW26374   2.933   1.407  17.072 -0.1056 -0.2026  0.5733
 4913SOL    HW126375   2.896   1.492  17.097 -1.2610 -0.3232 -0.7299
 4913SOL    HW226376   2.894   1.390  16.986  0.1238 -1.3296  0.6868
 4914SOL     OW26377   4.329   2.070  13.914  1.2456 -0.1257 -0.5222
 4914SOL    HW126378   4.320   2.127  13.838  1.7300 -0.2970 -0.7088
 4914SOL    HW226379   4.424   2.069  13.928  1.4114  0.2113 -1.6658
 4915SOL     OW26380   3.980   4.536  17.287  0.0304 -0.8099 -0.1588
 4915SOL    HW126381   4.070   4.565  17.272 -0.1974 -0.2794 -0.5145
 4915SOL    HW226382   3.940   4.510  17.204  0.5081 -1.3049 -0.2346
 4916SOL     OW26383   0.439   2.441   5.511 -0.7331  0.2960  0.2028
 4916SOL    HW126384   0.446   2.535   5.530 -0.1216 -0.2026  2.3444
 4916SOL    HW226385   0.385   2.414   5.585 -0.5912 -3.0620 -0.9500
 4917SOL     OW26386   2.432   1.297   5.617  0.8148  0.6079 -0.1030
 4917SOL    HW126387   2.378   1.219   5.610 -0.1375  1.0553  2.2970
 4917SOL    HW226388   2.375   1.369   5.644  0.5599  0.0302  0.8773
 4918SOL     OW26389   1.712   0.136   8.098 -0.5030  0.3973  0.0776
 4918SOL    HW126390   1.773   0.137   8.025  0.9441 -0.7754  1.2663
 4918SOL    HW226391   1.759   0.194   8.158 -0.2119  0.9835 -0.7152
 4919SOL     OW26392   4.469   0.296   1.601 -0.3986  0.1627  0.0904
 4919SOL    HW126393   4.414   0.233   1.554 -0.2471 -0.2962  0.5243
 4919SOL    HW226394   4.415   0.375   1.597 -2.1726 -1.0580 -0.1101
 4920SOL     OW26395   3.886   2.756   4.740 -0.1653 -0.0887  0.6886
 4920SOL    HW126396   3.935   2.681   4.773  1.5444  1.4073  1.6392
 4920SOL    HW226397   3.952   2.805   4.691 -1.2691 -0.2481 -0.9487
 4921SOL     OW26398   3.363   0.192  10.907 -0.0184 -0.5582  0.2934
 4921SOL    HW126399   3.398   0.197  10.818  0.3937  1.9031  0.6041
 4921SOL    HW226400   3.290   0.253  10.895 -1.8843 -2.7494  0.4253
 4922SOL     OW26401   4.425   2.921   1.376 -0.4474 -0.2733 -0.1787
 4922SOL    HW126402   4.432   2.834   1.335 -2.6461 -0.0653 -0.9741
 4922SOL    HW226403   4.391   2.903   1.463 -2.0929  1.7963 -0.4054
 4923SOL     OW26404   2.196   1.686  12.359  0.4615 -0.3477 -0.3128
 4923SOL    HW126405   2.129   1.619  12.368 -1.2164  1.6483  1.7911
 4923SOL    HW226406   2.282   1.647  12.374  0.0145 -1.3891 -0.4798
 4924SOL     OW26407   4.213   0.106   6.332  0.0882 -0.1041 -0.0536
 4924SOL    HW126408   4.236   0.039   6.397  2.1247 -0.5237 -1.1919
 4924SOL    HW226409   4.172   0.044   6.271 -1.7298 -1.2601  2.3468
 4925SOL     OW26410   1.607   2.667   5.710  0.4331 -0.3468 -0.3391
 4925SOL    HW126411   1.651   2.715   5.781 -0.3242 -0.6190  0.3180
 4925SOL    HW226412   1.628   2.576   5.732 -3.1549 -1.0036  0.3735
 4926SOL     OW26413   3.791   3.263   2.731  0.1061 -0.4511 -0.0983
 4926SOL    HW126414   3.783   3.349   2.772  2.4780 -0.9766  1.4265
 4926SOL    HW226415   3.831   3.218   2.805  1.6988 -0.2435 -0.8286
 4927SOL     OW26416   2.977   1.516   7.012 -0.0249 -0.2704 -0.1033
 4927SOL    HW126417   2.971   1.541   7.105 -2.8483 -0.1346 -0.3351
 4927SOL    HW226418   3.002   1.593   6.961 -1.3035  0.1995 -0.0002
 4928SOL     OW26419   1.246   1.116   8.847  0.3656  0.1030 -0.2061
 4928SOL    HW126420   1.220   1.084   8.761 -0.9433  0.0069  0.2276
 4928SOL    HW226421   1.279   1.042   8.899  0.0952  0.3992  0.3811
 4929SOL     OW26422   4.453   1.076   3.442 -0.0201  0.0810 -0.1453
 4929SOL    HW126423   4.433   0.997   3.491 -0.1446 -0.1570 -0.5835
 4929SOL    HW226424   4.369   1.122   3.441  0.5848  1.1651 -0.8959
 4930SOL     OW26425   1.403   2.851   5.936 -0.4658 -0.6139 -0.4889
 4930SOL    HW126426   1.399   2.863   5.841  0.9462 -1.0388 -0.5995
 4930SOL    HW226427   1.421   2.940   5.966 -0.4767 -0.1860 -1.7299
 4931SOL     OW26428   0.807   1.545   0.205  0.0520  0.0020  0.0512
 4931SOL    HW126429   0.748   1.543   0.280 -0.6685  1.6793 -0.4602
 4931SOL    HW226430   0.800   1.455   0.174 -2.1119 -0.5913  2.3077
 4932SOL     OW26431   2.566   3.372  13.298 -1.4228 -0.8078  0.4284
 4932SOL    HW126432   2.549   3.289  13.343 -0.4333 -1.4581 -0.3949
 4932SOL    HW226433   2.636   3.407  13.353  0.3070 -1.9388 -1.0360
 4933SOL     OW26434   1.141   1.649   3.137  0.5365  0.1905  0.3230
 4933SOL    HW126435   1.224   1.603   3.124  0.9102  1.7127 -2.4338
 4933SOL    HW226436   1.135   1.635   3.232 -4.9396 -1.4549 -0.2422
 4934SOL     OW26437   1.073   0.940  12.885 -0.0191  0.3907  0.2114
 4934SOL    HW126438   1.045   1.029  12.905  1.4199  0.4222  2.0970
 4934SOL    HW226439   1.025   0.892  12.953 -2.1532  1.3886 -0.6199
 4935SOL     OW26440   4.624   0.332  10.230  0.1330  0.4059 -0.6700
 4935SOL    HW126441   4.649   0.240  10.237  0.7015  0.6689  0.8152
 4935SOL    HW226442   4.711   0.358  10.259 -0.5243  0.0962  1.6362
 4936SOL     OW26443   0.909   1.738   1.048 -0.1810  0.0670 -0.0856
 4936SOL    HW126444   0.872   1.673   0.987 -1.3377  0.1131  0.5632
 4936SOL    HW226445   0.957   1.793   0.986  0.4086  0.6248  0.8708
 4937SOL     OW26446   3.311   0.895   8.590  0.4375 -0.0549 -0.0534
 4937SOL    HW126447   3.255   0.834   8.638  1.3636  1.5879  3.0433
 4937SOL    HW226448   3.345   0.834   8.524  3.7728  0.5170  1.1491
 4938SOL     OW26449   0.101   3.147  12.189 -0.0858  0.2926 -0.0212
 4938SOL    HW126450   0.063   3.149  12.276  1.5962  1.0044  0.6873
 4938SOL    HW226451   0.034   3.096  12.143 -1.3818  2.0102 -0.0241
 4939SOL     OW26452   3.902   2.667   4.134  0.1733 -0.6702 -0.0429
 4939SOL    HW126453   3.908   2.687   4.040 -0.3177 -1.3040 -0.2104
 4939SOL    HW226454   3.985   2.623   4.156 -0.2337 -1.1976  0.4333
 4940SOL     OW26455   0.825   3.379   4.361 -0.4237  0.3185 -0.2627
 4940SOL    HW126456   0.895   3.393   4.297 -1.5440  2.3550 -1.0171
 4940SOL    HW226457   0.882   3.333   4.423 -0.4773  0.6126  0.0030
 4941SOL     OW26458   2.632   2.840  14.969  0.2152 -0.1241 -0.6071
 4941SOL    HW126459   2.679   2.773  14.918 -1.6062 -1.1406 -0.9494
 4941SOL    HW226460   2.555   2.859  14.915 -1.2093  1.6785  2.1041
 4942SOL     OW26461   0.861   2.516  13.563  0.1978 -0.3672 -0.4722
 4942SOL    HW126462   0.811   2.459  13.621  0.9445 -0.3419  0.2035
 4942SOL    HW226463   0.904   2.451  13.507  0.0717 -2.3696  1.7579
 4943SOL     OW26464   0.326   3.067   4.418 -0.1057 -0.0431  0.1802
 4943SOL    HW126465   0.299   3.015   4.343 -0.9970  0.5624  0.0866
 4943SOL    HW226466   0.421   3.078   4.410 -0.1081 -0.3220 -0.1909
 4944SOL     OW26467   1.777   1.514   9.187  0.0393 -0.2756 -0.0026
 4944SOL    HW126468   1.797   1.579   9.120 -4.0442  2.9667  1.9301
 4944SOL    HW226469   1.765   1.575   9.260  0.6942 -2.2204  1.7344
 4945SOL     OW26470   4.576   3.701  16.987 -0.1231 -0.3026 -0.7237
 4945SOL    HW126471   4.648   3.730  16.931  0.4359  1.0743  0.7421
 4945SOL    HW226472   4.583   3.605  16.979 -0.0922 -0.2508 -1.3312
 4946SOL     OW26473   0.916   3.490   2.884 -0.4422 -0.3877 -0.4530
 4946SOL    HW126474   0.980   3.436   2.930  0.3842  0.6910 -0.3288
 4946SOL    HW226475   0.871   3.428   2.827  0.4461 -0.3351 -1.2129
 4947SOL     OW26476   1.626   3.298  11.507  0.6860  0.6351 -0.1926
 4947SOL    HW126477   1.672   3.219  11.534 -1.5351 -1.5933 -3.0546
 4947SOL    HW226478   1.590   3.339  11.586  0.6682  0.2523 -0.0055
 4948SOL     OW26479   1.746   0.919   2.522 -0.1487  0.3412 -0.1589
 4948SOL    HW126480   1.819   0.899   2.581  0.0266 -2.2960 -1.2937
 4948SOL    HW226481   1.716   0.834   2.491  1.6581  0.5825 -2.6146
 4949SOL     OW26482   1.162   3.486   5.422 -0.6050 -0.6194 -0.2705
 4949SOL    HW126483   1.095   3.444   5.476 -2.9593  3.1346 -0.2859
 4949SOL    HW226484   1.119   3.480   5.337 -0.6977 -1.6004 -0.1459
 4950SOL     OW26485   3.608   2.601   8.693 -0.0834  0.1560 -0.6260
 4950SOL    HW126486   3.530   2.644   8.728  0.9867  1.6855 -0.0920
 4950SOL    HW226487   3.581   2.596   8.601  0.3461 -0.7693 -0.7017
 4951SOL     OW26488   4.587   4.235   9.129  0.3582 -0.2420  0.6056
 4951SOL    HW126489   4.636   4.264   9.053 -1.1484 -1.0701 -0.6742
 4951SOL    HW226490   4.661   4.228   9.189  0.5950  3.4269  0.7260
 4952SOL     OW26491   0.002   3.360   8.821  0.4790  0.1029 -0.3022
 4952SOL    HW126492   4.723   3.265   8.823  0.2155  0.1715  1.2134
 4952SOL    HW226493   4.709   3.382   8.733  0.6040 -3.2875 -1.2010
 4953SOL     OW26494   2.288   1.345   1.347 -0.5288  0.2212 -0.1384
 4953SOL    HW126495   2.373   1.325   1.387 -0.2104  0.2705 -0.7787
 4953SOL    HW226496   2.301   1.318   1.256  0.4036  0.3741 -0.0554
 4954SOL     OW26497   2.262   3.663   2.248 -0.5264  0.3878  0.8133
 4954SOL    HW126498   2.204   3.674   2.172  0.7328  3.5530  0.2881
 4954SOL    HW226499   2.285   3.754   2.267  1.7786 -0.6567  2.9721
 4955SOL     OW26500   1.834   3.882   3.722 -0.3948 -0.0888  0.3136
 4955SOL    HW126501   1.756   3.841   3.684 -1.1348  1.1093  0.5371
 4955SOL    HW226502   1.902   3.836   3.673 -0.9311  0.4877 -0.9930
 4956SOL     OW26503   3.522   2.421   7.638  0.1922  0.2045 -0.6820
 4956SOL    HW126504   3.436   2.386   7.661  0.0800  1.5068  0.8450
 4956SOL    HW226505   3.529   2.420   7.542 -1.5368  0.2325 -0.8138
 4957SOL     OW26506   1.668   1.304   2.105  0.0141  0.1272  0.4360
 4957SOL    HW126507   1.752   1.304   2.150  1.1864 -0.3805 -1.7771
 4957SOL    HW226508   1.688   1.353   2.025  1.2256 -1.6872 -0.3764
 4958SOL     OW26509   2.627   1.636   7.431  0.2184  0.0853 -0.7115
 4958SOL    HW126510   2.579   1.641   7.514  2.0508 -0.4991  0.3743
 4958SOL    HW226511   2.612   1.543   7.410 -0.0763 -0.3790  1.5553
 4959SOL     OW26512   0.581   1.586   3.511  0.1688  0.6668 -0.2564
 4959SOL    HW126513   0.491   1.557   3.527 -0.2465  1.8257 -0.5150
 4959SOL    HW226514   0.615   1.505   3.473 -0.1423  0.1220  0.6323
 4960SOL     OW26515   0.039   2.378  13.135 -0.1097  0.1068 -0.1902
 4960SOL    HW126516   0.026   2.401  13.043  2.2956  1.6228 -0.1392
 4960SOL    HW226517   0.082   2.452  13.176 -0.5898  1.5214 -2.2721
 4961SOL     OW26518   4.082   1.816   4.697 -0.7918  0.1204 -0.0968
 4961SOL    HW126519   4.025   1.871   4.751  0.8938  1.2243  0.5380
 4961SOL    HW226520   4.089   1.741   4.756  0.1247 -0.3418 -0.7884
 4962SOL     OW26521   3.176   1.667   5.960  0.1525 -0.1063 -0.2514
 4962SOL    HW126522   3.197   1.585   6.004  2.3056  0.1770 -0.7511
 4962SOL    HW226523   3.247   1.674   5.896  0.6968 -1.0458  0.2517
 4963SOL     OW26524   2.484   1.290   0.614 -0.0543  0.0351 -0.0273
 4963SOL    HW126525   2.408   1.247   0.653 -0.5703  0.4575 -0.5665
 4963SOL    HW226526   2.523   1.220   0.561  0.9827  0.0237  0.7459
 4964SOL     OW26527   3.909   4.255   8.406 -0.9102 -0.2291 -0.0560
 4964SOL    HW126528   3.932   4.193   8.337 -0.8053  0.9478 -1.0790
 4964SOL    HW226529   3.891   4.337   8.359 -1.2565  0.6488  1.6056
 4965SOL     OW26530   3.602   2.635   7.115 -0.1929  0.3801 -0.1122
 4965SOL    HW126531   3.538   2.684   7.166  1.9963  3.2848 -0.1796
 4965SOL    HW226532   3.650   2.694   7.057 -1.2228  1.3048 -0.0109
 4966SOL     OW26533   3.169   4.026   6.123 -0.3885  0.1896 -0.1614
 4966SOL    HW126534   3.222   3.946   6.122  2.4413  2.0913  1.5494
 4966SOL    HW226535   3.249   4.077   6.133 -0.6168  0.4313  0.4569
 4967SOL     OW26536   0.725   1.069   4.011  0.1143  0.1202 -0.1934
 4967SOL    HW126537   0.757   1.065   3.921 -1.2555 -0.2205 -0.6711
 4967SOL    HW226538   0.635   1.097   3.993  0.4776  0.7342 -1.0707
 4968SOL     OW26539   2.634   0.588   5.006  0.7954 -0.1710  0.6084
 4968SOL    HW126540   2.714   0.640   5.002  1.1226 -0.6259  1.3077
 4968SOL    HW226541   2.575   0.636   5.064  0.1395 -1.2396  0.8327
 4969SOL     OW26542   3.200   0.165   8.258  0.6477 -0.6686  0.1620
 4969SOL    HW126543   3.128   0.162   8.321 -0.6065  2.3273 -1.1348
 4969SOL    HW226544   3.238   0.248   8.287  1.7666 -0.7303 -1.1042
 4970SOL     OW26545   3.321   4.331   6.345  0.3855  0.2604 -0.1242
 4970SOL    HW126546   3.377   4.270   6.297 -0.4301 -0.1066 -0.6119
 4970SOL    HW226547   3.233   4.303   6.321 -0.2998  2.1570  0.1890
 4971SOL     OW26548   1.744   3.794   5.113  0.5937 -0.0678  0.1333
 4971SOL    HW126549   1.673   3.822   5.171  1.0404  0.9175  0.2092
 4971SOL    HW226550   1.759   3.702   5.134  2.1058  0.0419 -0.5039
 4972SOL     OW26551   2.540   1.076  10.941 -0.9975  0.3619  0.0923
 4972SOL    HW126552   2.528   0.982  10.925 -0.5004  0.6260 -1.7987
 4972SOL    HW226553   2.520   1.104  10.852 -1.1815  0.0553  0.0367
 4973SOL     OW26554   1.073   1.681   7.868 -0.2192  0.7571  0.1142
 4973SOL    HW126555   1.107   1.609   7.921 -0.9937  0.4154  0.1361
 4973SOL    HW226556   1.014   1.637   7.807 -3.2911  1.4449  2.6288
 4974SOL     OW26557   0.846   4.106   8.082  0.0842 -0.0573 -0.4999
 4974SOL    HW126558   0.806   4.034   8.034 -0.5302 -0.6899  0.9613
 4974SOL    HW226559   0.867   4.070   8.168  0.4163  1.0111 -0.1323
 4975SOL     OW26560   0.709   0.044   9.394 -0.2887 -0.2586  0.1875
 4975SOL    HW126561   0.670   4.697   9.363 -1.5382  0.1010  0.8000
 4975SOL    HW226562   0.764   0.008   9.463  0.2535 -0.9018 -0.5694
 4976SOL     OW26563   4.619   0.677   3.364 -0.0122  0.2873 -0.0370
 4976SOL    HW126564   4.634   0.697   3.457 -0.9220  2.7971 -0.4154
 4976SOL    HW226565   4.528   0.707   3.354  0.0770  1.1528  1.6100
 4977SOL     OW26566   2.992   4.429   3.981  0.2569 -0.2865  0.3395
 4977SOL    HW126567   2.979   4.501   4.043  0.5352  0.0657 -0.0098
 4977SOL    HW226568   3.058   4.466   3.922  0.4481  0.1675  0.8367
 4978SOL     OW26569   0.269   3.510   7.214 -0.3359  0.3273 -0.0933
 4978SOL    HW126570   0.240   3.526   7.124  0.7897 -0.2324 -0.5617
 4978SOL    HW226571   0.347   3.458   7.194 -0.0854  1.2892 -1.6140
 4979SOL     OW26572   1.862   0.976  10.393 -0.3041  0.5005  0.1586
 4979SOL    HW126573   1.853   0.884  10.417 -0.4801 -0.0480 -1.9866
 4979SOL    HW226574   1.919   1.004  10.464 -2.5109 -1.0000  2.5185
 4980SOL     OW26575   1.061   3.013   5.764 -0.6878 -0.4843  0.4679
 4980SOL    HW126576   0.989   2.968   5.720 -1.7701  1.6423  0.0653
 4980SOL    HW226577   1.059   2.982   5.854 -1.9174 -1.0158  0.2469
 4981SOL     OW26578   1.547   0.841   2.201 -0.2411 -0.3952 -0.2367
 4981SOL    HW126579   1.634   0.802   2.204 -1.0709 -2.1419  1.1029
 4981SOL    HW226580   1.499   0.760   2.188 -2.5229  1.3787 -2.9683
 4982SOL     OW26581   3.082   2.126   5.837  0.0809 -0.4789 -0.5926
 4982SOL    HW126582   3.161   2.103   5.788  1.2008  0.0171  0.9672
 4982SOL    HW226583   3.040   2.043   5.813 -1.3018 -0.2804  1.1384
 4983SOL     OW26584   2.199   3.884   4.531  0.0921  0.0524 -0.4564
 4983SOL    HW126585   2.247   3.965   4.512  0.2536  0.4183  1.5047
 4983SOL    HW226586   2.163   3.906   4.617 -0.6320  2.5180 -1.3842
 4984SOL     OW26587   0.499   2.882   4.025  0.1910  0.0781 -0.0829
 4984SOL    HW126588   0.418   2.871   4.076  0.2473  1.1559  0.2451
 4984SOL    HW226589   0.510   2.977   4.017  0.1182  0.3507  2.8976
 4985SOL     OW26590   3.955   2.847   2.218  0.4956 -0.0172  0.0484
 4985SOL    HW126591   4.045   2.814   2.216  0.3880 -0.2556 -1.0314
 4985SOL    HW226592   3.912   2.773   2.174  0.8769 -1.4782  2.1157
 4986SOL     OW26593   0.313   1.191   6.811  0.7098 -0.3506 -0.2777
 4986SOL    HW126594   0.292   1.117   6.868  1.1863 -0.9682 -0.9153
 4986SOL    HW226595   0.399   1.214   6.847  0.6280 -1.1875  0.4617
 4987SOL     OW26596   3.923   4.198   1.935 -0.2235  1.1810  0.5158
 4987SOL    HW126597   3.871   4.278   1.943  0.8016  1.6851  1.9745
 4987SOL    HW226598   4.002   4.222   1.887  0.8183 -1.3116  0.9596
 4988SOL     OW26599   3.676   3.843   1.278 -0.0744 -0.0464 -0.1567
 4988SOL    HW126600   3.592   3.798   1.264 -1.5373  2.9774 -1.0849
 4988SOL    HW226601   3.679   3.863   1.371 -2.6053 -1.5347  0.2619
 4989SOL     OW26602   2.419   0.912   8.346  0.3722  0.5522 -0.1150
 4989SOL    HW126603   2.347   0.954   8.394 -0.3062  1.8832 -2.3050
 4989SOL    HW226604   2.382   0.888   8.262  0.4809  0.9446 -0.2764
 4990SOL     OW26605   3.865   1.607   6.723  1.0659 -0.1603 -0.1059
 4990SOL    HW126606   3.794   1.624   6.660  1.0177 -0.5272 -0.1478
 4990SOL    HW226607   3.815   1.580   6.801  0.0194  0.6849 -0.4872
 4991SOL     OW26608   4.357   2.313  15.910  0.4689  0.6670 -0.1627
 4991SOL    HW126609   4.281   2.351  15.956  1.8404 -1.2029  3.6416
 4991SOL    HW226610   4.406   2.265  15.976 -3.1968 -0.2703  1.8958
 4992SOL     OW26611   3.912   0.954   6.883 -0.2293 -0.1735  0.7353
 4992SOL    HW126612   3.827   0.968   6.841 -0.4926 -1.2128  0.9046
 4992SOL    HW226613   3.900   1.009   6.961  0.6441  0.8439  0.1579
 4993SOL     OW26614   0.968   2.105   8.929 -0.1552 -0.2835  0.5052
 4993SOL    HW126615   0.934   2.186   8.892  0.1927 -1.0349 -1.4351
 4993SOL    HW226616   1.060   2.127   8.943 -0.7152  2.1403  0.3301
 4994SOL     OW26617   3.565   2.856  12.782 -0.5400 -1.0014  0.4698
 4994SOL    HW126618   3.484   2.817  12.748 -0.3190 -0.4647 -0.6794
 4994SOL    HW226619   3.569   2.828  12.873 -0.0974 -0.0229  0.7513
 4995SOL     OW26620   3.918   3.682  15.511 -0.8148  0.4016 -0.2351
 4995SOL    HW126621   3.842   3.639  15.551  0.8138 -0.2287  2.1990
 4995SOL    HW226622   3.977   3.693  15.586  0.6517 -2.5562 -1.0029
 4996SOL     OW26623   3.413   2.477   9.968  0.4594  0.2330 -0.0436
 4996SOL    HW126624   3.397   2.572   9.969  0.1934  0.1587  3.8150
 4996SOL    HW226625   3.323   2.450   9.951  0.7072  0.1755 -1.3154
 4997SOL     OW26626   0.931   0.780   2.096  0.0754 -0.0228  0.1981
 4997SOL    HW126627   1.016   0.763   2.137 -0.8170 -3.1071  0.7062
 4997SOL    HW226628   0.949   0.865   2.056 -1.0324 -0.6784 -1.6810
 4998SOL     OW26629   1.819   0.986  16.441 -0.0635 -0.0529  0.0745
 4998SOL    HW126630   1.871   0.959  16.365 -0.5210 -1.3148  0.2044
 4998SOL    HW226631   1.750   0.919  16.445  0.0833 -0.2648 -0.9001
 4999SOL     OW26632   3.921   0.738   9.388 -0.1197  0.2803 -0.0772
 4999SOL    HW126633   3.855   0.757   9.455 -2.0992  0.0285 -1.9576
 4999SOL    HW226634   3.978   0.671   9.425 -1.5908 -0.7577  0.3320
 5000SOL     OW26635   4.094   0.660   5.656  0.1816  0.1050  0.1395
 5000SOL    HW126636   4.018   0.715   5.636 -0.7362 -0.4764  1.9889
 5000SOL    HW226637   4.127   0.638   5.569 -1.8807  1.1928 -0.9338
 5001SOL     OW26638   4.368   3.332   9.024 -0.1338 -0.2021 -0.1259
 5001SOL    HW126639   4.395   3.244   9.048  0.8025  0.4939  1.3304
 5001SOL    HW226640   4.451   3.379   9.034 -0.3444 -0.3918  2.6059
 5002SOL     OW26641   1.322   3.745   8.204  0.0096  0.2166  0.1633
 5002SOL    HW126642   1.288   3.768   8.117  0.2601  1.6746  0.4473
 5002SOL    HW226643   1.359   3.830   8.227  0.4758 -0.0979  0.5641
 5003SOL     OW26644   1.384   0.788  14.454 -0.0233  0.2501  0.2813
 5003SOL    HW126645   1.343   0.833  14.381  0.2654  0.9019  0.5212
 5003SOL    HW226646   1.398   0.872  14.498  3.7330 -1.3063  2.0646
 5004SOL     OW26647   0.589   0.025  11.538  0.6884 -0.1711  0.4951
 5004SOL    HW126648   0.582   4.672  11.575 -0.9813 -0.6651 -0.9897
 5004SOL    HW226649   0.596   0.086  11.612 -0.1288 -0.3878  0.7531
 5005SOL     OW26650   4.190   1.679  15.415  0.0860 -0.4583  0.3695
 5005SOL    HW126651   4.280   1.648  15.401 -0.3555 -2.2190  1.4674
 5005SOL    HW226652   4.154   1.675  15.327 -2.5013 -0.2052  1.4372
 5006SOL     OW26653   2.698   3.870   9.062 -0.0974  0.4746  0.1199
 5006SOL    HW126654   2.700   3.912   8.976 -0.5630  1.8719  0.7818
 5006SOL    HW226655   2.638   3.796   9.051  1.1805  0.1155 -4.4554
 5007SOL     OW26656   3.593   0.236   1.026  1.1072 -0.5495  0.4116
 5007SOL    HW126657   3.550   0.293   0.961  1.3306 -1.1306 -0.2466
 5007SOL    HW226658   3.529   0.166   1.041  2.5567 -2.3508 -1.7682
 5008SOL     OW26659   3.576   0.727  16.417 -0.0665  0.0837  0.0319
 5008SOL    HW126660   3.537   0.752  16.334 -0.8592 -1.3934 -0.0367
 5008SOL    HW226661   3.631   0.656  16.384  1.1708  1.2305 -0.3924
 5009SOL     OW26662   0.293   3.158   3.299 -0.1504 -0.3318 -0.3145
 5009SOL    HW126663   0.214   3.181   3.347 -0.7833 -0.0581 -1.4968
 5009SOL    HW226664   0.348   3.236   3.308  0.0879 -0.3977 -1.1749
 5010SOL     OW26665   1.172   3.734   4.817  0.0088  0.0661  0.6923
 5010SOL    HW126666   1.113   3.660   4.806  0.5174 -0.3421  0.6768
 5010SOL    HW226667   1.222   3.739   4.736  1.9185 -0.2652  1.8269
 5011SOL     OW26668   3.490   2.515  11.117 -0.1083 -0.0402 -0.3618
 5011SOL    HW126669   3.515   2.424  11.130 -1.0111  0.0785  2.2529
 5011SOL    HW226670   3.550   2.543  11.187  0.1253  0.4254 -0.7476
 5012SOL     OW26671   1.763   3.921   4.256  0.1211 -0.2616 -0.1364
 5012SOL    HW126672   1.750   4.015   4.245  0.1422 -0.4107 -1.5008
 5012SOL    HW226673   1.852   3.907   4.289  0.0920  0.2006  0.1354
 5013SOL     OW26674   0.046   3.219   1.227  0.3805  0.0385 -0.1553
 5013SOL    HW126675   0.126   3.218   1.176 -0.5073  1.3967 -1.5546
 5013SOL    HW226676   0.055   3.140   1.280  0.2213  0.5051  0.5787
 5014SOL     OW26677   2.513   1.332  17.526 -0.5924 -0.7609 -0.1689
 5014SOL    HW126678   2.451   1.284  17.581 -1.2031 -0.5646 -0.6850
 5014SOL    HW226679   2.563   1.260  17.488  0.7887 -0.7838  1.6763
 5015SOL     OW26680   3.619   4.657   4.357 -0.2383  0.3557 -0.1406
 5015SOL    HW126681   3.536   4.663   4.309  0.1361 -2.9544 -1.1280
 5015SOL    HW226682   3.598   4.584   4.416  0.8094  0.8656  0.8752
 5016SOL     OW26683   4.347   1.381   6.786 -0.0608 -0.1916 -0.1461
 5016SOL    HW126684   4.269   1.400   6.733  0.5877  1.3877 -0.5543
 5016SOL    HW226685   4.320   1.337   6.866 -0.2391 -2.0739 -1.2504
 5017SOL     OW26686   0.114   0.594   7.763 -0.5011  0.1522  0.2682
 5017SOL    HW126687   0.093   0.581   7.671 -0.1303  2.6509 -0.1566
 5017SOL    HW226688   0.207   0.575   7.758 -0.8983 -2.2001  1.6882
 5018SOL     OW26689   2.458   3.823  11.876 -0.2800  0.1324  0.1359
 5018SOL    HW126690   2.462   3.756  11.944 -1.0276 -0.0413  0.0039
 5018SOL    HW226691   2.547   3.824  11.841 -1.1292 -0.4121 -2.0032
 5019SOL     OW26692   3.507   4.161  10.833  0.5142 -0.2446 -0.9500
 5019SOL    HW126693   3.443   4.227  10.808  1.8168  1.0438 -0.8359
 5019SOL    HW226694   3.450   4.085  10.821 -2.1447  1.2725  2.0724
 5020SOL     OW26695   3.610   2.061   7.102 -0.1765  0.1294 -0.1232
 5020SOL    HW126696   3.656   2.145   7.111  1.9647 -0.9660 -0.7670
 5020SOL    HW226697   3.656   2.019   7.030 -0.5168 -1.7681  0.7851
 5021SOL     OW26698   1.379   2.667   5.529  0.2116 -0.3008 -0.0142
 5021SOL    HW126699   1.331   2.740   5.568  0.6819  0.9201 -1.7326
 5021SOL    HW226700   1.446   2.653   5.596 -1.0106 -3.5498  0.5330
 5022SOL     OW26701   4.389   3.640   8.712 -0.1484  0.6471 -0.0507
 5022SOL    HW126702   4.479   3.673   8.702  0.3290 -0.5482  0.3197
 5022SOL    HW226703   4.364   3.665   8.623  1.1785  1.2951 -0.2450
 5023SOL     OW26704   2.794   1.254   7.438 -0.2600  0.0886 -0.5199
 5023SOL    HW126705   2.795   1.260   7.533 -1.2933  0.4300 -0.5358
 5023SOL    HW226706   2.872   1.307   7.423  0.3471 -0.6804 -0.0379
 5024SOL     OW26707   0.012   2.713   6.464 -0.9800 -0.5961 -0.0661
 5024SOL    HW126708   4.734   2.769   6.388  1.0630  1.8048  1.3560
 5024SOL    HW226709   0.009   2.787   6.525  1.7156 -0.6859  0.1682
 5025SOL     OW26710   1.171   4.396   9.468 -0.0936 -0.0105  0.0878
 5025SOL    HW126711   1.204   4.453   9.538  0.1098 -1.4387  1.1692
 5025SOL    HW226712   1.114   4.450   9.413  0.0757  1.4316  1.3160
 5026SOL     OW26713   2.778   3.453   1.106 -0.7791  0.2287 -0.2283
 5026SOL    HW126714   2.753   3.394   1.034 -0.7189  0.8473 -0.7544
 5026SOL    HW226715   2.762   3.397   1.181  2.8517 -0.0049  0.3643
 5027SOL     OW26716   0.010   1.511   3.357  0.2870  0.3532  0.3465
 5027SOL    HW126717   4.674   1.464   3.401  1.7110 -2.1243  0.0220
 5027SOL    HW226718   0.037   1.452   3.287  0.8011  1.4616 -0.3836
 5028SOL     OW26719   3.514   2.260  13.908  0.4174 -0.5550  0.2502
 5028SOL    HW126720   3.510   2.169  13.879  2.7673 -0.9654  1.1758
 5028SOL    HW226721   3.607   2.265  13.932  0.0224  1.0130  1.4296
 5029SOL     OW26722   2.445   0.510   4.727  0.3605 -0.4347 -0.2715
 5029SOL    HW126723   2.352   0.492   4.724  0.3725 -0.5289 -0.0284
 5029SOL    HW226724   2.452   0.601   4.756 -0.3432 -0.1221 -1.0951
 5030SOL     OW26725   4.622   0.954   2.157 -0.3055  0.0391  0.1252
 5030SOL    HW126726   4.687   0.942   2.226 -1.2289 -1.8863  0.6447
 5030SOL    HW226727   4.626   0.874   2.106 -2.5345 -0.2388  0.4019
 5031SOL     OW26728   4.063   0.296  15.085 -0.7342  0.6723  0.2889
 5031SOL    HW126729   4.132   0.296  15.019 -0.0828 -2.2211  0.9708
 5031SOL    HW226730   4.006   0.223  15.060 -0.2508  0.2054  0.5555
 5032SOL     OW26731   0.340   4.497   4.997 -0.4723 -0.6762  0.2863
 5032SOL    HW126732   0.420   4.527   4.953 -0.9828  2.3841  1.4224
 5032SOL    HW226733   0.374   4.429   5.056  0.6832 -2.0900 -2.0120
 5033SOL     OW26734   2.340   3.837   5.494 -0.2046 -0.1096 -0.3497
 5033SOL    HW126735   2.417   3.890   5.514 -2.1951  2.8409 -0.5076
 5033SOL    HW226736   2.352   3.772   5.564 -2.0879 -0.2651 -0.1775
 5034SOL     OW26737   1.961   2.013   5.572 -0.0579  0.2933  0.2364
 5034SOL    HW126738   1.871   2.045   5.559 -0.0584  0.1997  0.0013
 5034SOL    HW226739   1.965   1.937   5.514 -0.4871  0.6128 -0.2231
 5035SOL     OW26740   0.666   1.123   8.843  0.1543 -0.1151 -0.5748
 5035SOL    HW126741   0.705   1.172   8.771  1.0981 -0.5583 -0.3604
 5035SOL    HW226742   0.721   1.157   8.913 -0.8428 -0.0157  0.1549
 5036SOL     OW26743   3.024   3.962   3.479 -0.1410 -0.2868  0.3238
 5036SOL    HW126744   3.037   3.976   3.573 -2.6661 -2.9590  1.0527
 5036SOL    HW226745   3.021   4.054   3.454  0.6616 -0.0565  1.0779
 5037SOL     OW26746   0.947   1.988   8.705 -0.1565  0.1611  0.4528
 5037SOL    HW126747   0.953   2.029   8.791  0.2177  1.1886 -0.0633
 5037SOL    HW226748   0.859   2.016   8.680  0.7822  2.4999 -0.2452
 5038SOL     OW26749   2.309   1.183  17.670  0.0683  0.5198 -0.1222
 5038SOL    HW126750   2.274   1.218   0.012 -0.9516  0.1432 -0.3974
 5038SOL    HW226751   2.289   1.089  17.674 -2.0496  1.0363  1.5557
 5039SOL     OW26752   2.765   3.255  12.360 -0.2373  0.8653 -0.2482
 5039SOL    HW126753   2.721   3.284  12.281 -2.5881 -0.7705  0.4781
 5039SOL    HW226754   2.687   3.231  12.410  1.2336 -2.1988  0.6079
 5040SOL     OW26755   0.205   1.700   3.967 -0.0495  0.0112 -0.2853
 5040SOL    HW126756   0.145   1.677   3.895  0.6920 -0.2652 -0.8191
 5040SOL    HW226757   0.137   1.702   4.034 -0.3388 -0.3178 -0.5669
 5041SOL     OW26758   4.420   0.146  14.330  0.0494  0.4721 -0.0529
 5041SOL    HW126759   4.460   0.212  14.387 -0.0828 -0.7142  1.4254
 5041SOL    HW226760   4.340   0.123  14.377  0.4243 -2.6381 -0.9383
 5042SOL     OW26761   3.757   4.058   2.529 -0.6671  0.3449  0.5180
 5042SOL    HW126762   3.835   4.073   2.476 -0.0160 -0.1522  1.3297
 5042SOL    HW226763   3.748   4.147   2.563  0.1353  0.8518 -0.5924
 5043SOL     OW26764   2.174   4.037   3.463 -0.2915  0.3656  0.5128
 5043SOL    HW126765   2.171   4.091   3.542 -0.6157 -0.5978  1.1625
 5043SOL    HW226766   2.103   4.071   3.408 -2.0310 -1.3258  1.7305
 5044SOL     OW26767   2.649   2.772   1.365  0.1257 -0.4040 -0.1355
 5044SOL    HW126768   2.702   2.797   1.289 -1.9633  0.5929 -1.2541
 5044SOL    HW226769   2.569   2.821   1.346  0.8731  0.7202 -0.3795
 5045SOL     OW26770   0.695   4.038   8.942 -0.0463 -0.0419 -0.5299
 5045SOL    HW126771   0.750   4.018   8.866 -1.0348 -0.3110 -1.1767
 5045SOL    HW226772   0.613   4.053   8.895  1.4776  1.4729 -2.7096
 5046SOL     OW26773   1.270   1.928   6.729 -0.1462  0.1376  0.1989
 5046SOL    HW126774   1.278   1.954   6.637 -1.4505 -1.5787 -0.4084
 5046SOL    HW226775   1.222   1.846   6.716  0.2395 -0.1633  0.6953
 5047SOL     OW26776   4.417   0.104   6.007  0.7073 -0.1723 -0.5707
 5047SOL    HW126777   4.408   0.093   5.912  1.0547 -2.6287 -0.3085
 5047SOL    HW226778   4.328   0.130   6.029  0.2768 -1.7976 -0.4068
 5048SOL     OW26779   0.301   3.717   1.342  0.1638 -0.1423 -0.1547
 5048SOL    HW126780   0.344   3.734   1.426  1.0406 -0.0190 -0.6367
 5048SOL    HW226781   0.335   3.793   1.296 -0.5060 -1.2813 -2.5644
 5049SOL     OW26782   1.929   1.964   6.976 -0.1234 -0.1070  0.2200
 5049SOL    HW126783   1.943   1.904   7.049  2.3960 -0.3709 -0.4583
 5049SOL    HW226784   1.836   1.957   6.955  0.1286 -0.2443 -0.8388
 5050SOL     OW26785   4.503   2.127   2.395  0.3795  0.1011 -0.4375
 5050SOL    HW126786   4.541   2.195   2.339  0.7880 -0.5990 -1.0150
 5050SOL    HW226787   4.473   2.070   2.324  0.5119  0.3242 -0.6757
 5051SOL     OW26788   2.827   0.076   6.025 -0.3431 -0.1457 -0.0337
 5051SOL    HW126789   2.808   0.165   5.997 -1.0121 -0.2572  0.0709
 5051SOL    HW226790   2.841   0.029   5.943  1.7368 -1.5315  1.1139
 5052SOL     OW26791   3.153   4.678   4.654 -0.1694 -0.5336 -0.0887
 5052SOL    HW126792   3.141   0.010   4.722  1.6183  0.5951 -0.8761
 5052SOL    HW226793   3.069   4.683   4.608  0.0396  1.5676 -0.2785
 5053SOL     OW26794   3.337   0.109  10.617  0.4610  0.7605  0.4721
 5053SOL    HW126795   3.271   0.178  10.619  0.4858  0.8148 -0.5301
 5053SOL    HW226796   3.311   0.056  10.692  0.5396  0.1219  0.0474
 5054SOL     OW26797   1.372   1.077   5.598 -0.0412  0.4648 -0.0059
 5054SOL    HW126798   1.446   1.094   5.656  0.3097  1.1935 -0.6765
 5054SOL    HW226799   1.326   1.014   5.654  1.9290 -1.1097 -0.1550
 5055SOL     OW26800   1.076   4.118   8.548 -0.2897 -0.2167 -0.3171
 5055SOL    HW126801   1.153   4.136   8.602  0.1189  2.2943 -1.7291
 5055SOL    HW226802   1.093   4.168   8.468  1.9723 -0.0907  0.2369
 5056SOL     OW26803   0.030   1.022  14.608  0.0327  0.1441  0.1147
 5056SOL    HW126804   4.696   1.044  14.670 -2.2849 -0.3883 -2.2823
 5056SOL    HW226805   0.005   1.077  14.534 -1.4196  0.4385  0.8147
 5057SOL     OW26806   4.668   1.723   3.118 -0.1227 -0.2232  0.1963
 5057SOL    HW126807   4.696   1.680   3.037 -1.9715 -0.0306 -0.5469
 5057SOL    HW226808   4.662   1.658   3.188  0.7030  1.8272  2.2098
 5058SOL     OW26809   0.102   0.419  15.126 -0.4783 -0.1541 -0.6649
 5058SOL    HW126810   0.173   0.415  15.062  0.1335  0.7826 -0.0433
 5058SOL    HW226811   0.144   0.405  15.210 -0.4479 -0.9054 -0.8013
 5059SOL     OW26812   4.371   0.436   6.891  0.1626 -0.0202 -0.4879
 5059SOL    HW126813   4.428   0.508   6.864 -1.4928  1.5769  0.3039
 5059SOL    HW226814   4.360   0.397   6.804 -0.0934 -0.0764 -0.4310
 5060SOL     OW26815   0.531   3.405   3.649 -0.3422 -0.1897  0.1207
 5060SOL    HW126816   0.466   3.472   3.669 -1.3565 -1.1292  0.0212
 5060SOL    HW226817   0.607   3.449   3.686 -1.4391  2.6199 -1.0258
 5061SOL     OW26818   2.173   0.019   4.694 -0.3641  0.0213 -0.2449
 5061SOL    HW126819   2.110   0.044   4.626  0.1033  1.1289 -0.2843
 5061SOL    HW226820   2.249   0.072   4.669 -1.1560  0.5648 -1.5359
 5062SOL     OW26821   3.373   1.659   3.484  0.1654  0.6670  0.1581
 5062SOL    HW126822   3.387   1.730   3.545 -1.5998  0.7722  0.4623
 5062SOL    HW226823   3.426   1.593   3.529 -1.3791 -0.9280 -0.3117
 5063SOL     OW26824   1.865   1.489   2.535 -0.4304 -0.3641  0.5580
 5063SOL    HW126825   1.872   1.456   2.625  3.3525  0.4389  0.5532
 5063SOL    HW226826   1.870   1.584   2.540 -1.0007 -0.4425  2.7298
 5064SOL     OW26827   3.262   0.273   9.950  0.5116  0.4573 -0.9112
 5064SOL    HW126828   3.308   0.276  10.034  2.0299 -1.6079 -1.6571
 5064SOL    HW226829   3.265   0.178   9.936 -1.5093  0.1478  0.8122
 5065SOL     OW26830   0.758   1.986   1.486 -0.2578 -0.1335 -0.1480
 5065SOL    HW126831   0.810   2.060   1.457  0.3119 -1.1107 -1.6479
 5065SOL    HW226832   0.751   1.945   1.399 -1.1648  0.1030 -0.1877
 5066SOL     OW26833   0.621   2.046   3.083 -0.4261 -0.0449 -0.2472
 5066SOL    HW126834   0.538   2.058   3.037 -0.3736  0.3192 -0.2492
 5066SOL    HW226835   0.681   2.014   3.015  0.0371 -2.3507  1.2412
 5067SOL     OW26836   1.497   1.369   6.606  0.2205 -0.0858 -0.6598
 5067SOL    HW126837   1.428   1.306   6.628 -0.0384 -0.0752 -1.4684
 5067SOL    HW226838   1.487   1.444   6.665 -1.4912  0.1812 -1.2968
 5068SOL     OW26839   0.044   3.069   8.780 -0.1396 -0.8518  0.0003
 5068SOL    HW126840   0.109   3.007   8.746 -0.6830 -0.9018 -0.9572
 5068SOL    HW226841   0.022   3.029   8.865  0.2670 -0.9882  0.0407
 5069SOL     OW26842   2.534   0.120   2.806  0.2817 -0.1021  0.1277
 5069SOL    HW126843   2.505   0.208   2.782 -2.3436 -1.2789 -0.9600
 5069SOL    HW226844   2.506   0.122   2.898 -0.4130  2.7483 -0.1332
 5070SOL     OW26845   2.528   0.148   4.614 -0.0912 -0.2779 -0.2887
 5070SOL    HW126846   2.547   0.170   4.706 -1.7932 -0.3768  0.0860
 5070SOL    HW226847   2.464   0.216   4.590  1.0266  0.8382 -0.1310
 5071SOL     OW26848   2.580   2.302   6.206  0.3072  0.4686 -0.6054
 5071SOL    HW126849   2.624   2.246   6.142  0.3559  0.8823 -0.9310
 5071SOL    HW226850   2.491   2.267   6.196  0.2277  0.2323  0.8219
 5072SOL     OW26851   3.498   3.542   7.552  0.2902  0.1585  0.3878
 5072SOL    HW126852   3.590   3.565   7.542 -0.2547  1.1765 -2.2232
 5072SOL    HW226853   3.490   3.539   7.647  0.3849  0.2776  0.4000
 5073SOL     OW26854   3.163   1.132   0.319 -0.7439  0.0335  0.0910
 5073SOL    HW126855   3.218   1.120   0.396 -0.4165  2.0562  0.1804
 5073SOL    HW226856   3.201   1.206   0.272  0.1078 -0.6485 -0.2735
 5074SOL     OW26857   3.278   4.668   7.627 -0.1628  0.1069  0.2861
 5074SOL    HW126858   3.344   4.641   7.562 -0.3808 -0.9075  0.4912
 5074SOL    HW226859   3.239   4.584   7.650 -0.1627  0.6100  2.1545
 5075SOL     OW26860   2.275   3.865  13.054 -0.5395 -0.1097  0.6534
 5075SOL    HW126861   2.284   3.890  13.146  0.1851  0.5047  0.4142
 5075SOL    HW226862   2.332   3.789  13.061  0.9386  0.6676 -2.9384
 5076SOL     OW26863   2.750   2.269  13.507  0.9062  0.6263 -0.1965
 5076SOL    HW126864   2.772   2.319  13.429  2.6552  0.3807  0.1363
 5076SOL    HW226865   2.752   2.338  13.574 -1.6452  1.8978 -1.4640
 5077SOL     OW26866   3.752   0.304   0.489 -0.0803  0.0488  0.1131
 5077SOL    HW126867   3.706   0.359   0.426 -1.3897 -1.2459 -0.0651
 5077SOL    HW226868   3.724   0.218   0.458  2.0921 -1.0838  1.2989
 5078SOL     OW26869   0.676   0.496   4.114 -0.0319  0.0386  0.1113
 5078SOL    HW126870   0.587   0.469   4.135 -0.2829  0.5382 -0.3071
 5078SOL    HW226871   0.668   0.544   4.031  0.1730 -0.7612 -0.3742
 5079SOL     OW26872   3.826   2.728   6.905 -0.5056  0.7547  0.4115
 5079SOL    HW126873   3.757   2.756   6.845 -1.2492  1.0532  1.4305
 5079SOL    HW226874   3.897   2.788   6.882  1.0395 -0.8878  0.8378
 5080SOL     OW26875   0.598   0.432   7.377 -0.4631  0.1485 -0.0431
 5080SOL    HW126876   0.633   0.518   7.400  0.2386 -0.4007  0.9400
 5080SOL    HW226877   0.624   0.420   7.285 -0.8006  0.4621 -0.1780
 5081SOL     OW26878   2.993   4.220   9.447 -0.1426  0.2810  0.1155
 5081SOL    HW126879   3.076   4.175   9.462 -1.0440 -1.7204 -0.8652
 5081SOL    HW226880   2.932   4.174   9.504  2.7997 -1.0248  2.2318
 5082SOL     OW26881   2.176   3.318   5.613 -0.1947  0.1896 -0.2531
 5082SOL    HW126882   2.211   3.325   5.702  0.2192 -1.8179 -0.2608
 5082SOL    HW226883   2.198   3.408   5.589 -1.2944  0.6835  0.5743
 5083SOL     OW26884   2.259   0.594   4.416 -0.7363 -0.1497 -0.1391
 5083SOL    HW126885   2.235   0.603   4.324  0.2798  0.0350 -0.3897
 5083SOL    HW226886   2.264   0.679   4.460 -1.5366 -0.4101  0.4543
 5084SOL     OW26887   3.971   3.983   2.335  0.0071  0.5627  0.4885
 5084SOL    HW126888   4.023   4.053   2.294  0.2452  0.5427  0.7549
 5084SOL    HW226889   3.911   3.968   2.262 -0.4577  3.8682  0.1659
 5085SOL     OW26890   2.682   0.245   9.027 -0.0237 -0.2953 -0.0480
 5085SOL    HW126891   2.656   0.233   9.119  0.0274 -3.2519 -0.4033
 5085SOL    HW226892   2.707   0.155   9.004  0.0778 -0.0724 -0.7950
 5086SOL     OW26893   3.641   1.910  13.252  0.0699 -0.3333  0.3694
 5086SOL    HW126894   3.608   1.953  13.173  0.6069 -1.2168 -0.3367
 5086SOL    HW226895   3.725   1.952  13.266  2.1126 -3.4768 -2.3670
 5087SOL     OW26896   2.217   0.780   4.663 -0.5802  0.5873 -0.4524
 5087SOL    HW126897   2.173   0.762   4.747  2.2746  4.0770  1.7566
 5087SOL    HW226898   2.240   0.872   4.671 -2.0727  1.0207 -1.2314
 5088SOL     OW26899   0.286   2.841   4.647  0.1542  0.4311  0.0544
 5088SOL    HW126900   0.339   2.763   4.660  0.1710  0.3292 -0.5901
 5088SOL    HW226901   0.332   2.889   4.578  0.1430 -0.0173 -0.2653
 5089SOL     OW26902   4.046   2.188  15.004 -0.1196  0.1190  0.1439
 5089SOL    HW126903   3.966   2.172  14.954 -0.6882  2.2585  0.3865
 5089SOL    HW226904   4.108   2.135  14.953  0.3609  2.4976 -1.7241
 5090SOL     OW26905   3.220   1.301   8.574 -0.0095  0.2773 -0.1627
 5090SOL    HW126906   3.305   1.315   8.617 -0.9306  1.3886  1.2691
 5090SOL    HW226907   3.259   1.225   8.530 -3.2366 -2.2192  1.2660
 5091SOL     OW26908   2.422   3.088   6.503 -0.4131 -0.0165 -0.4126
 5091SOL    HW126909   2.483   3.082   6.577 -2.3919 -1.6568  1.0741
 5091SOL    HW226910   2.378   3.173   6.505  2.4264  1.4151  1.6675
 5092SOL     OW26911   3.582   4.500   4.970  0.4700  0.3755 -0.1280
 5092SOL    HW126912   3.502   4.520   4.922  2.1752 -0.6142 -3.3782
 5092SOL    HW226913   3.581   4.405   4.973 -0.8487  0.4592  1.5256
 5093SOL     OW26914   3.066   0.164   2.005 -0.5310 -0.6268  0.1429
 5093SOL    HW126915   2.985   0.115   2.024  1.0347 -3.1701  0.2768
 5093SOL    HW226916   3.030   0.210   1.929 -2.9470  0.3610  1.8851
 5094SOL     OW26917   0.968   0.574   1.910  0.4742  0.2130 -0.0774
 5094SOL    HW126918   0.998   0.504   1.968  2.0563  1.9087  1.1389
 5094SOL    HW226919   0.940   0.639   1.974  0.4338  0.0620  0.0575
 5095SOL     OW26920   1.554   0.273  16.626 -0.3092  0.5489 -0.5134
 5095SOL    HW126921   1.487   0.314  16.682 -0.9492  3.0681 -3.1258
 5095SOL    HW226922   1.504   0.270  16.544 -2.8433 -0.9839  1.0765
 5096SOL     OW26923   3.544   0.729   7.778 -0.7641  0.3010 -0.0691
 5096SOL    HW126924   3.587   0.643   7.783 -0.3729  0.3807 -1.9478
 5096SOL    HW226925   3.504   0.733   7.865 -2.4390  1.6912 -0.9240
 5097SOL     OW26926   4.207   1.708   2.165 -0.1156 -0.7865  0.3778
 5097SOL    HW126927   4.161   1.792   2.160 -1.7017 -1.8150 -2.2244
 5097SOL    HW226928   4.238   1.714   2.255  0.7385 -0.8309  0.0862
 5098SOL     OW26929   0.745   3.183   1.815 -0.0295 -0.2918 -0.0428
 5098SOL    HW126930   0.766   3.276   1.827 -0.3711  0.2483 -3.3653
 5098SOL    HW226931   0.776   3.151   1.899  2.8256  2.3526 -0.0672
 5099SOL     OW26932   0.852   0.785   6.159 -0.2818 -0.4538  0.1929
 5099SOL    HW126933   0.865   0.694   6.185 -0.2096 -0.9360 -1.5290
 5099SOL    HW226934   0.874   0.827   6.242 -0.6276  2.4115 -1.1598
 5100SOL     OW26935   3.771   0.321   4.827 -0.4072 -0.3836 -0.6204
 5100SOL    HW126936   3.856   0.325   4.872 -0.4007  1.5882 -0.8243
 5100SOL    HW226937   3.767   0.227   4.809  0.6506 -0.9408  2.0280
 5101SOL     OW26938   3.024   4.056   8.339 -0.0478  0.6056  0.3068
 5101SOL    HW126939   3.105   4.089   8.300  1.6419 -2.2868  1.3450
 5101SOL    HW226940   2.992   4.134   8.385  0.8195  1.4955 -0.6024
 5102SOL     OW26941   1.498   0.613   4.196 -0.7657 -0.7907 -0.7960
 5102SOL    HW126942   1.448   0.695   4.193  1.3206  0.4652 -1.0051
 5102SOL    HW226943   1.564   0.637   4.132 -0.7350 -0.2902 -0.5762
 5103SOL     OW26944   4.715   0.960   0.436  0.3357  0.2219  0.0058
 5103SOL    HW126945   0.066   0.934   0.405  0.8068  0.1452  1.3986
 5103SOL    HW226946   4.721   0.966   0.531 -0.5783  1.0469  0.0212
 5104SOL     OW26947   0.900   3.876   5.749 -0.1803 -0.2810  0.0098
 5104SOL    HW126948   0.821   3.833   5.780  0.8030 -1.6210  0.6433
 5104SOL    HW226949   0.859   3.927   5.679  0.6355 -0.9296 -0.9314
 5105SOL     OW26950   3.842   3.808  10.434  0.3448 -0.0125  0.0199
 5105SOL    HW126951   3.777   3.869  10.398 -0.7108 -0.0984  1.7717
 5105SOL    HW226952   3.925   3.848  10.411 -0.8837  2.9059  0.7076
 5106SOL     OW26953   0.217   3.702   5.574 -0.0192  0.6968 -0.1591
 5106SOL    HW126954   0.291   3.729   5.519  1.6051 -0.7245  1.3419
 5106SOL    HW226955   0.152   3.761   5.536 -1.1448 -0.8117 -0.6030
 5107SOL     OW26956   0.180   0.533  11.709  0.0811  0.2353  0.3131
 5107SOL    HW126957   0.229   0.615  11.703  3.2025 -1.5219  2.1331
 5107SOL    HW226958   0.241   0.465  11.739  1.0339 -0.1139 -2.4245
 5108SOL     OW26959   3.344   1.462   9.126  0.1896 -0.1785 -0.3585
 5108SOL    HW126960   3.350   1.557   9.117  2.1815 -0.2177  0.5229
 5108SOL    HW226961   3.390   1.453   9.210 -1.9785 -0.7856  0.7684
 5109SOL     OW26962   2.101   1.942  12.868 -0.0166  0.6921  0.2506
 5109SOL    HW126963   2.162   1.916  12.798 -0.4855  0.6373 -0.1366
 5109SOL    HW226964   2.140   1.888  12.937 -0.2417  1.3711  0.9072
 5110SOL     OW26965   2.848   3.722  16.418 -0.0883 -0.3365  0.2163
 5110SOL    HW126966   2.846   3.709  16.513 -2.4039  1.0208  0.3616
 5110SOL    HW226967   2.934   3.762  16.409 -1.1024  1.4724 -1.5464
 5111SOL     OW26968   4.439   0.259   8.312  0.2698  0.6499 -0.0994
 5111SOL    HW126969   4.447   0.309   8.393  0.9907 -0.5143  0.5544
 5111SOL    HW226970   4.531   0.233   8.308 -0.0738 -0.9061  1.9405
 5112SOL     OW26971   0.546   3.704   4.367  0.9788 -0.0891  0.1019
 5112SOL    HW126972   0.565   3.778   4.310 -0.6484 -0.0241 -0.3582
 5112SOL    HW226973   0.565   3.743   4.453 -0.0278  0.0819  0.2497
 5113SOL     OW26974   3.344   4.000   3.042 -0.2569  1.4369 -0.2259
 5113SOL    HW126975   3.378   4.082   3.007 -0.6635  2.4571  1.7213
 5113SOL    HW226976   3.249   4.017   3.037 -0.3484  1.2068  0.6345
 5114SOL     OW26977   2.405   2.252   8.480 -0.2035  0.0339 -0.0394
 5114SOL    HW126978   2.406   2.159   8.503  4.2370  0.5159  1.5540
 5114SOL    HW226979   2.313   2.274   8.491  0.0143  1.0053 -0.2096
 5115SOL     OW26980   3.070   0.770   9.850 -0.1102  0.0523 -0.2674
 5115SOL    HW126981   3.150   0.734   9.887  0.6353  0.5101 -1.4389
 5115SOL    HW226982   3.050   0.695   9.794 -0.4997  0.5296 -0.7778
 5116SOL     OW26983   2.814   0.320   3.882 -0.0384 -0.1979 -0.1689
 5116SOL    HW126984   2.753   0.257   3.844  0.1009  0.2345 -1.1177
 5116SOL    HW226985   2.890   0.291   3.831 -0.4103 -1.9924  0.3135
 5117SOL     OW26986   2.413   3.810   2.789  0.2689  0.4395 -0.1566
 5117SOL    HW126987   2.368   3.794   2.706  0.7496  0.8811 -0.5060
 5117SOL    HW226988   2.478   3.740   2.793 -1.1510 -0.8356  0.5123
 5118SOL     OW26989   4.427   0.502   1.807  0.1861 -0.3007  0.4254
 5118SOL    HW126990   4.506   0.550   1.833 -0.0728 -1.0473  2.5502
 5118SOL    HW226991   4.412   0.533   1.717  0.7576 -2.2627 -0.3473
 5119SOL     OW26992   2.923   0.655   5.907 -0.1687  0.0526 -0.0562
 5119SOL    HW126993   2.997   0.653   5.847 -0.8627 -3.7944 -0.8158
 5119SOL    HW226994   2.896   0.746   5.900 -1.1240 -0.1614  0.9031
 5120SOL     OW26995   0.866   3.130   3.966  0.4619  0.3892 -0.0783
 5120SOL    HW126996   0.922   3.067   4.011  1.4493  0.9912 -0.4697
 5120SOL    HW226997   0.787   3.075   3.966  1.6075 -1.2789 -0.2914
 5121SOL     OW26998   0.751   2.633  13.328 -0.0096 -0.1621 -0.2790
 5121SOL    HW126999   0.704   2.644  13.411  1.2206  0.2272  0.3715
 5121SOL    HW227000   0.845   2.636  13.346 -0.2122 -0.4915  0.8221
 5122SOL     OW27001   1.688   0.369   8.364 -0.0246  0.4129 -0.7402
 5122SOL    HW127002   1.734   0.290   8.393 -1.6649  1.1337  3.8215
 5122SOL    HW227003   1.600   0.340   8.340  0.5917 -0.7526 -1.6157
 5123SOL     OW27004   0.855   3.381   6.816 -0.4365 -0.7292  0.2089
 5123SOL    HW127005   0.949   3.365   6.826 -0.3473  0.3949  1.2422
 5123SOL    HW227006   0.825   3.397   6.905 -0.7829 -0.4900  0.0503
 5124SOL     OW27007   1.912   2.007   4.880  0.1785  0.3807 -0.2232
 5124SOL    HW127008   1.825   2.013   4.920 -0.2515 -1.1725 -0.9044
 5124SOL    HW227009   1.945   1.928   4.924  0.5284 -0.1032 -1.3505
 5125SOL     OW27010   0.557   2.995  12.503  0.6419 -0.0236 -0.1277
 5125SOL    HW127011   0.603   2.994  12.419  0.0647  3.0189 -0.4753
 5125SOL    HW227012   0.501   3.072  12.503  1.6839  0.7356 -0.8315
 5126SOL     OW27013   2.996   3.147   1.513 -0.5560  0.5185  0.1481
 5126SOL    HW127014   3.046   3.067   1.499 -0.1496  0.7693  0.1875
 5126SOL    HW227015   3.045   3.210   1.460 -0.1524 -0.6602 -0.8781
 5127SOL     OW27016   4.451   3.086   8.723  0.4706  0.3154 -0.9614
 5127SOL    HW127017   4.535   3.084   8.769  0.0612 -0.2877 -0.2566
 5127SOL    HW227018   4.449   3.179   8.701 -0.3021 -0.2819 -3.4751
 5128SOL     OW27019   2.869   4.685   5.792  0.3514 -0.3444  0.2929
 5128SOL    HW127020   2.880   4.597   5.826 -2.4121 -1.1873 -1.0227
 5128SOL    HW227021   2.960   4.714   5.785  0.2598 -0.1950 -0.3445
 5129SOL     OW27022   1.966   1.968   6.112  0.4717 -0.0096  0.6497
 5129SOL    HW127023   1.883   1.946   6.071  0.8438  1.5474 -0.9698
 5129SOL    HW227024   1.960   2.063   6.118 -0.3229  0.1998 -3.4227
 5130SOL     OW27025   4.369   1.916   6.565  0.2722 -0.0133 -0.5573
 5130SOL    HW127026   4.432   1.844   6.558  0.9619  0.4617  0.7266
 5130SOL    HW227027   4.424   1.973   6.619  0.9529 -0.3419 -0.8947
 5131SOL     OW27028   1.986   1.095   2.854  0.3348  0.3420  0.6949
 5131SOL    HW127029   2.066   1.091   2.907  0.5134  1.1038  0.4880
 5131SOL    HW227030   1.987   1.011   2.808  0.7500  0.8275 -0.1738
 5132SOL     OW27031   4.171   2.015   1.135 -0.2132 -0.2527 -0.3751
 5132SOL    HW127032   4.211   1.975   1.213 -1.9257  1.6314  1.4830
 5132SOL    HW227033   4.087   2.039   1.175  0.5116  0.8967  0.4741
 5133SOL     OW27034   1.345   4.095  13.158 -0.7909  0.4020 -0.1288
 5133SOL    HW127035   1.304   4.072  13.074 -0.1901 -0.3912 -0.2041
 5133SOL    HW227036   1.358   4.007  13.192  0.5119  1.0987  1.1872
 5134SOL     OW27037   2.193   1.523  14.894 -0.2339 -0.0198 -0.5325
 5134SOL    HW127038   2.183   1.616  14.915  1.0105  0.6885 -3.1201
 5134SOL    HW227039   2.287   1.529  14.876 -0.6179 -0.6785 -2.7321
 5135SOL     OW27040   3.405   3.466   4.128  0.8422  0.3529 -0.1202
 5135SOL    HW127041   3.383   3.400   4.193 -2.7873  0.8278 -0.8659
 5135SOL    HW227042   3.432   3.409   4.056  1.4433  0.1380  0.2799
 5136SOL     OW27043   2.873   1.448   2.321  0.3276 -0.1934 -0.3071
 5136SOL    HW127044   2.780   1.466   2.335  0.0555 -1.9829  0.1875
 5136SOL    HW227045   2.904   1.521   2.375  0.0876  0.5020 -1.1093
 5137SOL     OW27046   1.654   1.265   5.404  0.1051  0.2313 -0.2546
 5137SOL    HW127047   1.705   1.337   5.439 -1.4829  1.2360  0.0062
 5137SOL    HW227048   1.704   1.189   5.434 -0.7868 -1.0755 -2.0391
 5138SOL     OW27049   1.659   1.589  12.079 -0.1256 -0.2358 -0.4128
 5138SOL    HW127050   1.622   1.661  12.027  1.6150  0.1803 -1.0856
 5138SOL    HW227051   1.595   1.571  12.148 -1.1604  2.2369 -0.7060
 5139SOL     OW27052   0.980   1.311   2.174  0.1797  0.8540 -0.2847
 5139SOL    HW127053   0.901   1.357   2.147 -1.6827 -1.8061  0.6245
 5139SOL    HW227054   1.034   1.321   2.096  1.3504  0.4243  0.4525
 5140SOL     OW27055   3.167   0.344   5.433  0.2384  0.4027 -0.2694
 5140SOL    HW127056   3.165   0.432   5.397  1.5604  0.3659 -0.4166
 5140SOL    HW227057   3.156   0.295   5.352  1.0811 -0.7780  0.3275
 5141SOL     OW27058   2.864   0.735  14.273  0.1611  0.1572 -0.2079
 5141SOL    HW127059   2.894   0.687  14.196  1.7206 -0.0883  0.5595
 5141SOL    HW227060   2.867   0.668  14.341  1.3082 -2.3694 -2.7919
 5142SOL     OW27061   1.856   3.918   7.703 -0.3425 -0.1976  0.1145
 5142SOL    HW127062   1.868   4.009   7.675 -0.5972  0.1231  1.0407
 5142SOL    HW227063   1.845   3.939   7.796  2.6761  0.5024  0.2900
 5143SOL     OW27064   0.952   0.216   8.917  0.2054 -1.0551 -0.1042
 5143SOL    HW127065   0.947   0.147   8.852 -2.7885 -0.7172 -0.2304
 5143SOL    HW227066   0.866   0.252   8.891 -0.1689 -0.9233  1.3077
 5144SOL     OW27067   2.567   4.666   3.320 -0.3768  0.5925  0.0738
 5144SOL    HW127068   2.602   4.579   3.340 -2.0436  0.3200  1.7299
 5144SOL    HW227069   2.637   4.706   3.267  0.1183  0.4023  0.5829
 5145SOL     OW27070   3.266   2.250  14.033 -0.5003  0.3673 -0.7680
 5145SOL    HW127071   3.256   2.159  14.061  0.5307  0.8055  1.0522
 5145SOL    HW227072   3.350   2.241  13.989 -0.8385  0.8032 -1.4953
 5146SOL     OW27073   3.812   0.748   9.150 -0.2579  0.3757 -0.9541
 5146SOL    HW127074   3.846   0.755   9.239 -2.4288 -0.4701 -0.0589
 5146SOL    HW227075   3.737   0.807   9.156 -2.0401 -1.6614 -3.0492
 5147SOL     OW27076   1.367   2.237   9.941 -0.2546 -0.6058 -0.0949
 5147SOL    HW127077   1.382   2.326   9.910  0.5017 -0.2675  1.2560
 5147SOL    HW227078   1.439   2.186   9.904  1.3514  1.2623  0.4473
 5148SOL     OW27079   1.029   2.134   4.052  0.8229  0.0873 -0.0442
 5148SOL    HW127080   0.957   2.100   4.105  1.2184 -0.2936  0.2442
 5148SOL    HW227081   0.976   2.170   3.981  1.1327  0.6134 -0.0122
 5149SOL     OW27082   2.097   0.729   4.991 -0.2491  0.1839  0.3935
 5149SOL    HW127083   2.129   0.648   5.031 -1.5444 -0.5487 -0.0781
 5149SOL    HW227084   2.183   0.767   4.971 -0.8542  1.4426  0.1915
 5150SOL     OW27085   4.660   4.604   0.886  0.0711 -0.3376  0.3414
 5150SOL    HW127086   4.611   4.574   0.964  1.4453 -1.2194  0.8616
 5150SOL    HW227087   4.654   4.528   0.828 -1.2243  0.0441 -0.0348
 5151SOL     OW27088   4.037   1.182   0.103  0.1849  0.3700 -0.3494
 5151SOL    HW127089   3.968   1.230   0.057  1.3848  1.0723 -1.4500
 5151SOL    HW227090   4.078   1.149   0.023  0.0172  0.1926 -0.3589
 5152SOL     OW27091   2.190   1.997   1.940  0.4427 -0.1834  0.1327
 5152SOL    HW127092   2.137   2.053   1.882 -1.5668 -1.3711  0.8073
 5152SOL    HW227093   2.268   2.048   1.960  0.7120 -0.6476  0.2527
 5153SOL     OW27094   1.023   2.255  11.516  0.3337 -0.8591  0.2793
 5153SOL    HW127095   0.967   2.179  11.500  0.1783 -0.4711 -1.0502
 5153SOL    HW227096   1.078   2.226  11.589 -0.3108 -1.1539  0.6451
 5154SOL     OW27097   3.302   3.609   3.710  0.7260 -0.1414  0.3758
 5154SOL    HW127098   3.357   3.639   3.638  0.1033  0.5980  0.2058
 5154SOL    HW227099   3.357   3.544   3.754  1.1732  0.2903  0.4476
 5155SOL     OW27100   2.775   0.041   6.692 -0.1966 -0.6206 -0.4048
 5155SOL    HW127101   2.822   0.007   6.616  0.7092  1.7617 -0.9082
 5155SOL    HW227102   2.846   0.052   6.756 -0.4444 -0.8243 -0.0962
 5156SOL     OW27103   3.013   4.678  15.456 -0.2123  0.2874  0.3483
 5156SOL    HW127104   2.996   4.703  15.365  1.6635 -0.7930 -0.2806
 5156SOL    HW227105   3.025   0.026  15.502 -1.1820 -0.9366  2.8509
 5157SOL     OW27106   1.682   0.947   9.288  0.0759 -0.0617  0.0998
 5157SOL    HW127107   1.627   0.871   9.270 -0.1474  0.3233 -0.8701
 5157SOL    HW227108   1.737   0.950   9.210 -1.5955 -3.5946 -1.2008
 5158SOL     OW27109   0.444   0.893   7.968 -0.5109  0.4051  0.5344
 5158SOL    HW127110   0.384   0.938   8.027 -2.4750 -1.5373 -0.0003
 5158SOL    HW227111   0.418   0.920   7.880 -0.3121  0.4723  0.4943
 5159SOL     OW27112   2.730   0.036   2.615  0.2142  0.1697  0.2161
 5159SOL    HW127113   2.642   0.060   2.587 -0.3206 -2.0775 -0.0486
 5159SOL    HW227114   2.740   0.097   2.688 -0.8581  0.6050  0.0051
 5160SOL     OW27115   2.167   1.392   5.738  0.0993 -0.1826  0.7674
 5160SOL    HW127116   2.183   1.301   5.712 -2.2392  0.3619 -2.5883
 5160SOL    HW227117   2.154   1.391   5.832 -3.6615 -1.0585  0.2558
 5161SOL     OW27118   3.786   3.457   8.107 -0.7419 -0.3777  0.3180
 5161SOL    HW127119   3.803   3.403   8.184 -0.3887 -0.9516 -0.1658
 5161SOL    HW227120   3.825   3.535   8.147 -0.2716 -0.2306 -0.4324
 5162SOL     OW27121   0.195   1.842  11.846 -0.0387 -0.2049 -0.1804
 5162SOL    HW127122   0.201   1.889  11.763 -0.9687  0.1963 -0.0064
 5162SOL    HW227123   0.266   1.881  11.897  0.7979 -1.0365 -0.6926
 5163SOL     OW27124   3.884   1.412   0.069  0.0441  0.1416  0.0688
 5163SOL    HW127125   3.791   1.429   0.081 -0.0409  0.5186 -1.0502
 5163SOL    HW227126   3.914   1.475   0.003 -1.2441  1.7298  0.9923
 5164SOL     OW27127   0.463   1.373   4.236  0.2174  0.1845  0.3297
 5164SOL    HW127128   0.382   1.423   4.250 -0.4752 -1.5864  2.7495
 5164SOL    HW227129   0.520   1.441   4.201  0.6449 -0.6295 -0.5545
 5165SOL     OW27130   4.284   3.630   2.327 -0.1236  0.3140  0.1211
 5165SOL    HW127131   4.255   3.633   2.236 -3.3894 -0.4088  1.1274
 5165SOL    HW227132   4.375   3.602   2.317 -0.0680  1.6535 -3.2206
 5166SOL     OW27133   3.277   1.447   3.123  0.2193  0.5297  0.4829
 5166SOL    HW127134   3.269   1.531   3.169  0.8677  1.2485 -0.7264
 5166SOL    HW227135   3.307   1.477   3.038  0.5512  1.1861  0.8279
 5167SOL     OW27136   0.647   2.224   2.432 -0.2378  0.3135 -0.1942
 5167SOL    HW127137   0.565   2.258   2.398 -0.6638  1.1384  1.6773
 5167SOL    HW227138   0.633   2.130   2.419 -0.9711  0.1487  1.8039
 5168SOL     OW27139   1.211   0.080   1.566  0.1339 -0.2413 -0.1325
 5168SOL    HW127140   1.269   0.138   1.516  0.3518 -0.4128 -0.0751
 5168SOL    HW227141   1.144   0.064   1.500 -1.2183  1.0428  0.9140
 5169SOL     OW27142   1.678   4.601   0.340  0.3182  0.3383  0.1091
 5169SOL    HW127143   1.765   4.563   0.346  0.1659  0.1994  1.4566
 5169SOL    HW227144   1.690   4.674   0.278  1.7112 -1.3737 -1.6256
 5170SOL     OW27145   2.291   1.744   4.696 -0.0200  0.2537  0.3437
 5170SOL    HW127146   2.378   1.771   4.725  0.4559 -0.6187 -0.2897
 5170SOL    HW227147   2.255   1.833   4.695  2.7063  1.3679  1.4183
 5171SOL     OW27148   2.194   0.674   8.745  0.7783  0.5073 -0.6026
 5171SOL    HW127149   2.113   0.646   8.788  0.7810  0.8396 -0.3815
 5171SOL    HW227150   2.183   0.769   8.744  0.8500  0.5314  1.0129
 5172SOL     OW27151   1.984   0.041  12.934 -0.1067 -0.2838 -0.0732
 5172SOL    HW127152   1.995   0.122  12.984 -2.2465  0.5748 -0.9877
 5172SOL    HW227153   1.890   0.027  12.933 -0.6091  3.1109 -2.4703
 5173SOL     OW27154   0.502   2.534   9.704 -0.3713  0.0976 -0.0468
 5173SOL    HW127155   0.566   2.605   9.713  2.1497 -2.1312 -0.5152
 5173SOL    HW227156   0.528   2.487   9.625 -1.3057 -1.5520  0.6355
 5174SOL     OW27157   1.901   1.382   1.544  0.2120  0.0239  0.2832
 5174SOL    HW127158   1.975   1.332   1.579 -0.5001 -1.9094 -1.0015
 5174SOL    HW227159   1.819   1.345   1.579 -0.6646  0.8254 -0.9659
 5175SOL     OW27160   0.477   4.443   5.744 -0.3730 -0.2774  0.4601
 5175SOL    HW127161   0.458   4.486   5.827 -1.0163 -0.2418  0.2905
 5175SOL    HW227162   0.528   4.505   5.691  0.6883  0.9531  2.9431
 5176SOL     OW27163   2.094   0.329   8.721  0.3402 -0.0806  0.1510
 5176SOL    HW127164   2.105   0.265   8.651  1.3255  0.1193  0.1255
 5176SOL    HW227165   2.167   0.386   8.698  1.4281 -1.8244 -0.6893
 5177SOL     OW27166   4.378   3.054  10.748  0.8325  0.2281 -0.6592
 5177SOL    HW127167   4.291   3.046  10.708  0.0818  0.8962  0.8472
 5177SOL    HW227168   4.410   2.964  10.737  1.1179  0.5666 -2.6074
 5178SOL     OW27169   1.529   0.420   4.821 -0.4282  0.1522 -0.3552
 5178SOL    HW127170   1.602   0.389   4.875 -1.2362  0.2078  0.7838
 5178SOL    HW227171   1.528   0.353   4.753 -0.7247 -1.8320  1.6003
 5179SOL     OW27172   1.914   1.613   3.363 -0.4769 -0.1445 -0.1705
 5179SOL    HW127173   1.989   1.554   3.362 -0.0431  0.4034  0.6189
 5179SOL    HW227174   1.840   1.552   3.366 -2.0767  1.8632  0.7184
 5180SOL     OW27175   3.620   2.119  12.166  0.4506 -0.2520  0.7147
 5180SOL    HW127176   3.545   2.061  12.173  0.5906 -0.4200  0.8319
 5180SOL    HW227177   3.687   2.054  12.146  0.7890  0.3398 -0.0529
 5181SOL     OW27178   1.323   0.409  15.874 -0.2891 -0.5153  0.5242
 5181SOL    HW127179   1.369   0.476  15.925 -2.6982  2.1006 -0.7200
 5181SOL    HW227180   1.257   0.460  15.827 -0.2099 -1.1936 -0.3263
 5182SOL     OW27181   3.286   2.978   4.857 -0.3874  0.1174  0.3206
 5182SOL    HW127182   3.350   2.926   4.906 -2.5872 -2.4872  0.4354
 5182SOL    HW227183   3.249   2.913   4.797  1.5631 -0.5439 -0.1759
 5183SOL     OW27184   2.651   3.156  11.998  0.8053 -0.5362 -0.5924
 5183SOL    HW127185   2.652   3.184  11.906  1.2992 -0.6289 -0.6147
 5183SOL    HW227186   2.557   3.143  12.003  0.4938  1.6365 -0.9061
 5184SOL     OW27187   4.025   1.167  11.055  0.2575  0.5200 -0.1065
 5184SOL    HW127188   4.001   1.181  11.147 -1.7128 -1.0449 -0.3652
 5184SOL    HW227189   4.094   1.100  11.058  0.1442  0.4622  1.3781
 5185SOL     OW27190   2.917   1.583   8.227 -0.1430  0.5016 -0.1421
 5185SOL    HW127191   2.976   1.542   8.162 -0.7407  1.1072 -1.0683
 5185SOL    HW227192   2.972   1.652   8.263 -1.3468  1.3312  0.0917
 5186SOL     OW27193   3.938   0.447  11.795  0.3535 -0.0964 -0.0993
 5186SOL    HW127194   3.846   0.471  11.806  0.6167 -0.0749  1.9091
 5186SOL    HW227195   3.932   0.352  11.803  0.6360 -0.3944 -3.1034
 5187SOL     OW27196   0.044   0.239   8.033 -0.2554  0.2846 -0.2647
 5187SOL    HW127197   0.013   0.250   8.123  1.4046  2.2525  0.0870
 5187SOL    HW227198   0.002   0.159   8.003  0.9853 -0.0277 -1.1452
 5188SOL     OW27199   3.029   2.498   3.626  0.0421 -0.3327 -0.2879
 5188SOL    HW127200   3.030   2.514   3.531 -0.7959 -1.0212 -0.4090
 5188SOL    HW227201   2.993   2.583   3.653  3.2817  0.9948 -0.1474
 5189SOL     OW27202   0.794   1.903   6.674 -0.5187 -0.3252  0.0575
 5189SOL    HW127203   0.850   1.976   6.648  1.1166 -1.7254 -0.3556
 5189SOL    HW227204   0.720   1.955   6.705 -0.8041  0.0006 -1.1863
 5190SOL     OW27205   4.659   0.921  11.743  0.1844  0.4677  0.1507
 5190SOL    HW127206   0.010   0.880  11.747  0.1141  0.0851 -2.2721
 5190SOL    HW227207   4.641   0.946  11.834 -2.1255  0.5056 -0.3143
 5191SOL     OW27208   4.484   1.527   8.260  0.4969 -0.3590 -0.1697
 5191SOL    HW127209   4.418   1.477   8.211 -0.0990 -0.4625  0.7268
 5191SOL    HW227210   4.463   1.615   8.229 -0.0642 -1.6717 -3.5083
 5192SOL     OW27211   3.616   1.463   0.136  0.3909 -0.7393  0.2467
 5192SOL    HW127212   3.528   1.501   0.136  0.3150 -0.8972 -1.0587
 5192SOL    HW227213   3.641   1.465   0.228  2.4893  1.9396 -0.3849
 5193SOL     OW27214   3.209   3.913  14.067  0.2007 -0.4034 -0.7165
 5193SOL    HW127215   3.279   3.966  14.028  1.4446 -2.6728 -1.5276
 5193SOL    HW227216   3.260   3.880  14.141 -1.1939 -1.4836 -0.2450
 5194SOL     OW27217   0.682   3.784   6.324  0.4531  0.2686  0.0776
 5194SOL    HW127218   0.730   3.738   6.393  0.0153 -0.0123  0.1975
 5194SOL    HW227219   0.749   3.789   6.256  0.4623  0.3022  0.0891
 5195SOL     OW27220   1.594   2.355   9.174 -0.4175 -1.1535 -0.3278
 5195SOL    HW127221   1.514   2.336   9.126 -0.9192  1.1663 -0.4203
 5195SOL    HW227222   1.595   2.451   9.184  0.9228 -1.1425 -0.5370
 5196SOL     OW27223   2.063   2.698  16.653 -0.1133 -0.1813 -0.3788
 5196SOL    HW127224   2.024   2.610  16.655 -0.3769 -0.0082  3.4200
 5196SOL    HW227225   2.147   2.689  16.609 -0.2469  0.7306 -0.8102
 5197SOL     OW27226   2.722   2.186   4.435  0.2017 -0.0217  0.5012
 5197SOL    HW127227   2.637   2.147   4.455  0.1873 -0.3660 -0.2563
 5197SOL    HW227228   2.767   2.175   4.519  0.2569  0.4908  0.5381
 5198SOL     OW27229   3.775   1.712   7.857  0.2013 -0.4098  0.4553
 5198SOL    HW127230   3.790   1.726   7.764 -1.5902 -1.8029 -0.0513
 5198SOL    HW227231   3.863   1.711   7.895 -0.0892  1.1838  1.1729
 5199SOL     OW27232   1.763   2.566  14.263 -0.3850  0.5302 -0.1127
 5199SOL    HW127233   1.831   2.503  14.239 -0.0923  0.5091  0.7679
 5199SOL    HW227234   1.748   2.588  14.172  1.0007  1.8409 -0.0112
 5200SOL     OW27235   3.320   3.921   3.929 -0.2365  0.0523 -0.2272
 5200SOL    HW127236   3.288   3.839   3.969  1.0598 -0.9312 -1.1953
 5200SOL    HW227237   3.318   3.983   4.002 -1.5662  0.9185 -0.9830
 5201SOL     OW27238   3.152   0.828   7.809  0.0271  0.0870 -0.2161
 5201SOL    HW127239   3.193   0.763   7.866  1.3128  0.0115 -1.2237
 5201SOL    HW227240   3.086   0.783   7.757  1.1445  0.6060 -2.0730
 5202SOL     OW27241   3.381   3.183  10.731  0.3061  0.4957  0.0293
 5202SOL    HW127242   3.326   3.165  10.655 -0.7198 -0.9361  1.0994
 5202SOL    HW227243   3.407   3.091  10.741  0.9149  0.9058  2.2036
 5203SOL     OW27244   3.267   0.751   2.116  0.3986 -0.4680  0.4063
 5203SOL    HW127245   3.319   0.760   2.196  0.5279 -1.8689  0.4768
 5203SOL    HW227246   3.188   0.706   2.145 -1.8555  2.2275 -1.5571
 5204SOL     OW27247   3.284   1.392   5.458  1.0238 -0.1946 -0.4954
 5204SOL    HW127248   3.196   1.403   5.422 -0.3558 -1.5007  2.5320
 5204SOL    HW227249   3.268   1.419   5.548  1.0540 -1.5115 -0.0854
 5205SOL     OW27250   1.457   2.536   6.036  0.4503 -0.0490  0.2985
 5205SOL    HW127251   1.547   2.502   6.036  0.3615 -0.2677  2.4935
 5205SOL    HW227252   1.463   2.623   5.997  0.3020  0.0960  0.6065
 5206SOL     OW27253   2.919   0.562   6.281  0.7357  0.5457 -0.0250
 5206SOL    HW127254   2.983   0.492   6.297 -0.9185 -1.2684 -1.3563
 5206SOL    HW227255   2.962   0.626   6.338  1.6811  0.2450 -0.3983
 5207SOL     OW27256   0.705   4.687   1.174  0.1278  0.3879 -0.3644
 5207SOL    HW127257   0.704   0.044   1.199  1.5930  0.5285 -0.8841
 5207SOL    HW227258   0.615   4.666   1.200  0.5899  1.1133  1.8083
 5208SOL     OW27259   0.979   2.949  11.356  0.4090 -0.3353 -0.4276
 5208SOL    HW127260   0.936   2.864  11.353  1.3550 -0.8760  1.5513
 5208SOL    HW227261   1.052   2.932  11.296 -0.5913  1.0892 -2.0736
 5209SOL     OW27262   3.136   4.398   7.708  0.0090 -0.4973  0.0449
 5209SOL    HW127263   3.137   4.339   7.633 -0.5281  0.0766 -0.4198
 5209SOL    HW227264   3.056   4.365   7.749 -0.2979  0.7883  0.4810
 5210SOL     OW27265   4.224   4.158   8.142  0.3716  0.4313 -0.1385
 5210SOL    HW127266   4.272   4.109   8.076 -0.7480  0.8973 -1.2957
 5210SOL    HW227267   4.171   4.211   8.082  1.4243  1.8340  0.1803
 5211SOL     OW27268   4.305   4.198   1.598 -0.7136  0.0923  0.3232
 5211SOL    HW127269   4.372   4.260   1.570 -2.7293  1.7727 -0.7959
 5211SOL    HW227270   4.229   4.227   1.546 -1.5334 -1.9896  0.3776
 5212SOL     OW27271   3.825   2.201   4.943  0.2894  0.3166  0.0840
 5212SOL    HW127272   3.875   2.258   4.885  1.4882  1.1244  1.9141
 5212SOL    HW227273   3.744   2.252   4.933  0.0604  0.1306  0.9758
 5213SOL     OW27274   1.214   3.228  12.191  0.1227 -0.2597 -0.2063
 5213SOL    HW127275   1.186   3.187  12.273  1.8088  1.6362  1.3018
 5213SOL    HW227276   1.144   3.292  12.177  1.0254  0.5468 -0.9865
 5214SOL     OW27277   4.087   2.523   3.124  0.0385  0.9704 -0.1580
 5214SOL    HW127278   4.139   2.515   3.044  0.0803 -1.7049  0.1229
 5214SOL    HW227279   4.152   2.493   3.187 -2.5036 -0.4007  1.7793
 5215SOL     OW27280   3.576   1.137   5.168  0.1906  0.2297  0.8534
 5215SOL    HW127281   3.664   1.175   5.158  0.3330  0.1065  1.7043
 5215SOL    HW227282   3.531   1.220   5.184  0.1781  0.2668  0.6308
 5216SOL     OW27283   4.498   1.973   3.888 -0.2955  0.5345  0.0040
 5216SOL    HW127284   4.561   2.013   3.829 -0.1058 -1.0401 -0.8538
 5216SOL    HW227285   4.436   2.041   3.913  1.7491  1.3700  2.6547
 5217SOL     OW27286   3.426   3.582   5.555 -0.6551  0.1603 -0.0887
 5217SOL    HW127287   3.331   3.590   5.552 -0.7114 -1.2495 -1.5723
 5217SOL    HW227288   3.452   3.662   5.509 -0.2378  0.5024  0.7308
 5218SOL     OW27289   0.607   2.522   2.081 -0.2591 -0.1666  0.4769
 5218SOL    HW127290   0.523   2.478   2.094 -0.6283  0.6802  0.9980
 5218SOL    HW227291   0.664   2.503   2.156  1.2617  0.5956 -0.4954
 5219SOL     OW27292   1.421   2.188   2.907  0.0433 -0.0477  0.7621
 5219SOL    HW127293   1.494   2.164   2.964  0.4414  1.0983  0.7349
 5219SOL    HW227294   1.375   2.105   2.897  2.5429 -1.2804 -0.4057
 5220SOL     OW27295   1.036   2.401   3.754 -0.0379 -0.0321  0.4747
 5220SOL    HW127296   0.942   2.402   3.771  0.2009  0.9633  1.7149
 5220SOL    HW227297   1.046   2.327   3.693 -0.5776 -0.3718  0.8025
 5221SOL     OW27298   2.703   0.023   4.291 -0.1599  0.0483 -0.0304
 5221SOL    HW127299   2.731   0.093   4.350 -0.1061 -0.3696  0.4408
 5221SOL    HW227300   2.720   4.679   4.342 -2.1716  0.7072  1.6858
 5222SOL     OW27301   2.426   3.454   0.879  0.7989  0.6888 -0.0953
 5222SOL    HW127302   2.462   3.449   0.791  0.6708  1.0893 -0.1700
 5222SOL    HW227303   2.384   3.368   0.882  0.6195  0.7790 -0.0282
 5223SOL     OW27304   0.947   0.047  12.927 -0.5482  0.0406  0.5526
 5223SOL    HW127305   0.859   0.075  12.902 -0.4516 -0.3824 -0.2558
 5223SOL    HW227306   0.962   4.694  12.893  0.0769  1.7067 -3.5357
 5224SOL     OW27307   1.941   4.093   5.392  0.5517 -0.1691  0.3408
 5224SOL    HW127308   2.034   4.094   5.417  1.1664  1.5835 -2.0559
 5224SOL    HW227309   1.905   4.172   5.431  0.5925  0.4168 -0.8021
 5225SOL     OW27310   0.736   2.701   3.826 -0.3470 -0.2973  0.2512
 5225SOL    HW127311   0.764   2.785   3.789  0.1354 -0.7923 -0.5116
 5225SOL    HW227312   0.760   2.706   3.918  4.1890 -0.7621 -0.8924
 5226SOL     OW27313   2.614   2.375  17.063  0.4026 -0.0451 -0.6034
 5226SOL    HW127314   2.622   2.317  16.987  0.3726 -0.7213 -0.0877
 5226SOL    HW227315   2.581   2.459  17.030 -0.1871  1.3067  3.4514
 5227SOL     OW27316   2.377   0.750  13.175 -0.0328  0.0751 -0.1501
 5227SOL    HW127317   2.423   0.791  13.248 -0.0601  0.1642 -0.1837
 5227SOL    HW227318   2.294   0.735  13.221  0.6453 -2.1556  0.3631
 5228SOL     OW27319   3.614   1.565  17.551  0.5503  0.2554 -0.6314
 5228SOL    HW127320   3.600   1.484  17.503 -0.4562 -0.2362  0.4986
 5228SOL    HW227321   3.538   1.606  17.512 -0.8354 -1.8097 -0.0775
 5229SOL     OW27322   1.400   0.014   6.495 -0.2555 -0.1643  0.2966
 5229SOL    HW127323   1.399   0.039   6.402  1.3623  0.2663  0.4056
 5229SOL    HW227324   1.309   0.035   6.513  0.1741  1.0983  0.9748
 5230SOL     OW27325   4.477   4.525   1.085  0.7445  0.3400 -0.0025
 5230SOL    HW127326   4.408   4.469   1.050  2.7650 -2.8665  1.0895
 5230SOL    HW227327   4.463   4.531   1.180  2.8374 -0.0896  0.3329
 5231SOL     OW27328   0.030   0.780  15.325 -0.7581  0.3871 -0.0097
 5231SOL    HW127329   0.093   0.743  15.388 -1.3829 -0.9679 -0.1849
 5231SOL    HW227330   0.084   0.814  15.253  0.7463  0.3471  1.0819
 5232SOL     OW27331   0.665   3.369   9.466 -0.0588  0.3922 -0.3343
 5232SOL    HW127332   0.613   3.296   9.432  0.6856 -1.1674  1.8334
 5232SOL    HW227333   0.601   3.439   9.457  0.0786  0.8429  2.0656
 5233SOL     OW27334   3.821   3.422   7.272 -0.1465 -0.8642  0.1031
 5233SOL    HW127335   3.744   3.462   7.232  0.8966  1.8893  0.8597
 5233SOL    HW227336   3.892   3.444   7.211 -1.6517  0.3781 -1.2117
 5234SOL     OW27337   0.922   1.842   4.039 -0.2587 -0.1667 -0.1595
 5234SOL    HW127338   0.923   1.895   3.959 -0.9209  0.5715  0.3135
 5234SOL    HW227339   0.977   1.768   4.014  0.8737  0.8270 -0.5928
 5235SOL     OW27340   1.408   2.806   4.294 -0.9146  0.0626 -0.5498
 5235SOL    HW127341   1.440   2.767   4.376  0.6737 -0.1855 -1.2726
 5235SOL    HW227342   1.443   2.751   4.224  2.4733 -0.4092  1.4910
 5236SOL     OW27343   4.288   4.658  12.469  0.2407  0.4071  0.2021
 5236SOL    HW127344   4.296   0.018  12.469 -0.5697  0.4788 -1.7176
 5236SOL    HW227345   4.372   4.632  12.504  0.1941 -1.6021 -1.1892
 5237SOL     OW27346   1.325   4.220  12.806  0.0668  0.0892  0.0152
 5237SOL    HW127347   1.316   4.304  12.761  1.3717 -0.3140 -0.9814
 5237SOL    HW227348   1.399   4.240  12.864 -0.4190  1.9761  0.0012
 5238SOL     OW27349   1.026   3.558  17.332 -0.7391 -0.2326 -0.3337
 5238SOL    HW127350   0.986   3.622  17.391 -0.7436  0.1982 -0.8031
 5238SOL    HW227351   1.036   3.494  17.403 -0.7242  0.2623  0.1144
 5239SOL     OW27352   3.667   4.273   3.101  0.2705  0.0129  0.3574
 5239SOL    HW127353   3.699   4.225   3.025 -0.0446 -1.3318  1.0729
 5239SOL    HW227354   3.693   4.363   3.082  2.0570 -0.5731  0.0780
 5240SOL     OW27355   2.130   3.209   1.327 -0.6628  0.0452  0.6269
 5240SOL    HW127356   2.098   3.154   1.255 -1.0678  2.0400 -0.7019
 5240SOL    HW227357   2.109   3.147   1.398  1.9576 -0.2339  1.1472
 5241SOL     OW27358   3.250   4.236  14.329  0.6134  0.3194 -0.1356
 5241SOL    HW127359   3.186   4.294  14.372 -0.5073 -1.2083  0.2620
 5241SOL    HW227360   3.304   4.304  14.289 -0.9164  1.7264  0.1444
 5242SOL     OW27361   0.406   3.209  14.502 -0.1338  0.7342 -0.6202
 5242SOL    HW127362   0.359   3.159  14.435 -2.2340 -1.5454  2.5853
 5242SOL    HW227363   0.499   3.214  14.482 -0.0952  0.2300 -0.5460
 5243SOL     OW27364   0.568   1.676   5.441 -0.0534 -0.3185 -0.4661
 5243SOL    HW127365   0.661   1.689   5.463 -0.0972 -0.4037 -0.2355
 5243SOL    HW227366   0.528   1.723   5.515  3.2724 -0.8917  1.7008
 5244SOL     OW27367   2.725   2.420   5.290  0.4890 -0.3260 -1.0446
 5244SOL    HW127368   2.731   2.505   5.245  1.4130 -0.5572 -1.3497
 5244SOL    HW227369   2.639   2.418   5.332  1.3396  0.7164  0.7165
 5245SOL     OW27370   4.679   1.864  14.558 -0.4115  0.1767  0.2585
 5245SOL    HW127371   4.678   1.867  14.654  0.1950 -1.0784  0.3132
 5245SOL    HW227372   4.607   1.921  14.532 -0.4482  0.0242  0.0286
 5246SOL     OW27373   3.185   3.134   7.131 -0.0575  0.1780  0.5845
 5246SOL    HW127374   3.141   3.219   7.132  0.6538  0.5111  3.5223
 5246SOL    HW227375   3.145   3.101   7.051 -0.2401 -0.9403  1.1309
 5247SOL     OW27376   0.305   1.815   4.905 -0.3008 -0.1693 -0.0062
 5247SOL    HW127377   0.382   1.805   4.961 -0.7513 -2.2319  0.2562
 5247SOL    HW227378   0.325   1.767   4.825 -0.4440 -0.5348  0.1772
 5248SOL     OW27379   1.727   3.542   3.698  0.4134 -0.0669  0.5208
 5248SOL    HW127380   1.668   3.611   3.667 -0.1397 -1.6022 -1.8360
 5248SOL    HW227381   1.808   3.562   3.652  0.1956  0.9832  0.5865
 5249SOL     OW27382   0.140   0.710   3.195 -0.2919 -0.4756  0.4431
 5249SOL    HW127383   0.062   0.729   3.247 -0.2914 -0.0404  0.2847
 5249SOL    HW227384   0.145   0.800   3.163 -0.4977 -1.4659 -2.3077
 5250SOL     OW27385   0.951   1.101   3.531 -0.9329  0.4086  0.6720
 5250SOL    HW127386   1.029   1.054   3.561  0.6145  1.6058 -1.4336
 5250SOL    HW227387   0.984   1.172   3.476 -0.2359 -1.4120 -1.2381
 5251SOL     OW27388   0.208   3.805   2.424  0.3589  0.2774  0.8333
 5251SOL    HW127389   0.118   3.792   2.455  0.5619  1.5825  1.9955
 5251SOL    HW227390   0.232   3.713   2.433  1.0148  0.3771 -0.0314
 5252SOL     OW27391   4.627   0.965   4.033  0.3626 -0.0082  0.3043
 5252SOL    HW127392   4.699   0.935   4.089 -0.5710 -3.9332 -0.5965
 5252SOL    HW227393   4.567   0.990   4.103  1.0011 -1.0407  1.2360
 5253SOL     OW27394   2.360   0.679  16.737 -0.6713 -0.0708 -0.3521
 5253SOL    HW127395   2.413   0.665  16.658 -0.6113 -1.6080 -0.0353
 5253SOL    HW227396   2.303   0.754  16.720 -0.4410  0.2231  0.1810
 5254SOL     OW27397   0.790   1.036   3.717 -0.3098  0.1418 -0.1466
 5254SOL    HW127398   0.843   1.068   3.644  2.2947 -3.6325  0.1356
 5254SOL    HW227399   0.732   1.111   3.732 -0.9853 -0.0862 -1.6012
 5255SOL     OW27400   1.752   1.896   3.625 -0.2702  0.1848  0.0315
 5255SOL    HW127401   1.686   1.843   3.670  0.5434  1.1927  2.4353
 5255SOL    HW227402   1.694   1.924   3.555 -0.0810 -0.1099 -0.2413
 5256SOL     OW27403   1.171   3.048   2.633 -0.6789  0.6544 -0.5202
 5256SOL    HW127404   1.248   3.097   2.660 -0.2964  1.0136 -2.2908
 5256SOL    HW227405   1.190   2.954   2.633 -0.4667  0.6903  1.2914
 5257SOL     OW27406   1.240   1.686  16.625  0.3344 -0.8774  0.1296
 5257SOL    HW127407   1.262   1.607  16.674 -0.0853 -3.1136 -3.2497
 5257SOL    HW227408   1.150   1.661  16.601 -0.2868  2.6888 -1.1574
 5258SOL     OW27409   3.108   0.170  12.547 -0.0129 -0.2290  0.1575
 5258SOL    HW127410   3.065   0.161  12.632  1.3802  2.0356  1.1097
 5258SOL    HW227411   3.035   0.123  12.507 -0.2058  0.2389 -0.0443
 5259SOL     OW27412   1.364   3.280   1.137 -0.1427 -0.8564  0.6141
 5259SOL    HW127413   1.355   3.201   1.084  0.1592  0.5356 -1.4954
 5259SOL    HW227414   1.276   3.317   1.129  0.1774 -0.1886  0.2526
 5260SOL     OW27415   3.419   1.134  17.262 -0.3008  0.1198 -0.6854
 5260SOL    HW127416   3.445   1.190  17.189 -0.8226 -0.3802 -1.2558
 5260SOL    HW227417   3.475   1.064  17.228  0.4636  0.0870  0.6264
 5261SOL     OW27418   2.481   4.436  10.922  0.3281 -0.3701 -0.0799
 5261SOL    HW127419   2.419   4.418  10.993  0.7659 -1.8516 -0.0742
 5261SOL    HW227420   2.435   4.390  10.852 -0.1948  0.7897 -0.4988
 5262SOL     OW27421   3.715   1.585   8.785 -0.2792  0.7333  0.0488
 5262SOL    HW127422   3.623   1.612   8.780 -0.5503 -0.2513 -0.2799
 5262SOL    HW227423   3.715   1.540   8.869 -1.7047 -1.3448 -1.0682
 5263SOL     OW27424   4.002   0.631   0.645 -0.5595  0.0271 -0.4597
 5263SOL    HW127425   4.083   0.676   0.622 -0.0067  0.2385  1.9106
 5263SOL    HW227426   3.998   0.557   0.584 -1.9457 -1.3198  1.2763
 5264SOL     OW27427   2.303   0.735   7.378 -0.2120 -0.2722 -0.3383
 5264SOL    HW127428   2.363   0.668   7.346 -2.4647 -2.0339 -0.8800
 5264SOL    HW227429   2.347   0.818   7.360  1.1627 -0.4123  2.3873
 5265SOL     OW27430   4.602   1.786  16.280 -0.1899  0.5877  0.1641
 5265SOL    HW127431   4.602   1.811  16.373  1.0009  0.8455  0.0968
 5265SOL    HW227432   4.680   1.835  16.255  1.0868 -2.0874 -1.1320
 5266SOL     OW27433   0.616   3.895   2.913 -0.4181 -0.4484  0.3423
 5266SOL    HW127434   0.576   3.973   2.875  1.4387 -1.1196 -3.0114
 5266SOL    HW227435   0.620   3.922   3.005 -2.9775  1.8053 -0.2228
 5267SOL     OW27436   0.921   0.040  16.078  0.1912 -0.4314  0.3336
 5267SOL    HW127437   0.927   0.132  16.056  1.5776 -0.7458 -0.6032
 5267SOL    HW227438   1.010   0.006  16.081  0.2644 -0.3463 -1.0391
 5268SOL     OW27439   3.210   3.697   2.873 -0.5504 -0.8384  0.0552
 5268SOL    HW127440   3.163   3.743   2.804  0.7204 -0.2330 -0.4060
 5268SOL    HW227441   3.188   3.607   2.850 -2.2609 -0.1686 -0.9246
 5269SOL     OW27442   0.561   2.391   8.138 -0.0415 -0.1976  0.3149
 5269SOL    HW127443   0.582   2.370   8.046  1.2864 -2.8295  1.2157
 5269SOL    HW227444   0.639   2.354   8.180  0.0712  1.1782  1.2990
 5270SOL     OW27445   2.417   0.254   2.271  0.4045  0.0456  0.8026
 5270SOL    HW127446   2.426   0.301   2.354  0.4944  0.6152  0.4695
 5270SOL    HW227447   2.327   0.280   2.255  0.8363 -0.2356 -2.0649
 5271SOL     OW27448   3.460   3.322   0.188 -0.1683  0.3129  0.0512
 5271SOL    HW127449   3.432   3.267   0.114 -2.1970  2.3934 -0.7062
 5271SOL    HW227450   3.556   3.323   0.183 -0.1552 -0.9513  0.0019
 5272SOL     OW27451   1.383   3.009   8.524  0.6656  0.3661 -0.6300
 5272SOL    HW127452   1.410   3.040   8.610  0.0278 -0.2047 -0.2283
 5272SOL    HW227453   1.418   2.921   8.520  0.0673  0.1916 -2.1131
 5273SOL     OW27454   3.120   3.157   7.495 -0.1166  0.6978 -0.6157
 5273SOL    HW127455   3.213   3.174   7.480  0.4322  1.6023  3.7222
 5273SOL    HW227456   3.094   3.127   7.408  0.5141  1.1804 -0.9711
 5274SOL     OW27457   4.224   3.754   4.245 -0.3910  0.6956  0.1617
 5274SOL    HW127458   4.306   3.804   4.249 -0.3415  0.6220  0.0675
 5274SOL    HW227459   4.196   3.775   4.156  0.4800 -1.4462 -0.6036
 5275SOL     OW27460   1.608   0.156   7.725 -0.2793  0.6357 -0.6045
 5275SOL    HW127461   1.559   0.198   7.796  0.4114  2.5430 -1.2616
 5275SOL    HW227462   1.686   0.128   7.772 -2.0635 -2.9011  0.2687
 5276SOL     OW27463   1.465   0.787   4.574  0.4489 -0.2408 -0.2141
 5276SOL    HW127464   1.553   0.766   4.606 -0.4253  0.3152  2.4771
 5276SOL    HW227465   1.427   0.702   4.553 -1.8608  0.9001 -0.6645
 5277SOL     OW27466   2.797   2.377   4.980  0.3580  0.1593  0.3870
 5277SOL    HW127467   2.820   2.288   5.006  0.7391 -0.5077 -2.1760
 5277SOL    HW227468   2.883   2.418   4.993  0.3882  0.4453 -0.7153
 5278SOL     OW27469   2.791   1.006  14.162  0.8370  0.0366 -0.2491
 5278SOL    HW127470   2.803   0.922  14.206  1.2461  0.4254  0.3764
 5278SOL    HW227471   2.697   1.013  14.179  0.9855 -1.0540  0.9685
 5279SOL     OW27472   0.085   0.743   1.835  0.3113  0.0656  0.0248
 5279SOL    HW127473   0.120   0.688   1.765  0.4085  1.5057 -1.0402
 5279SOL    HW227474   0.048   0.816   1.786  1.9430  0.6596 -0.2981
 5280SOL     OW27475   4.329   1.948  16.181 -0.6491 -0.3042 -0.2126
 5280SOL    HW127476   4.408   1.988  16.146  0.0818  1.9187  3.9922
 5280SOL    HW227477   4.262   2.016  16.191  0.8717  0.9732  1.2507
 5281SOL     OW27478   0.957   1.568   1.770  0.5737  0.0167 -0.3168
 5281SOL    HW127479   0.928   1.659   1.773 -0.3722 -0.3248  0.9501
 5281SOL    HW227480   1.022   1.568   1.699  2.1600  1.6357  1.1531
 5282SOL     OW27481   4.412   0.258   0.347 -0.1714 -0.0993  0.2316
 5282SOL    HW127482   4.448   0.346   0.360  2.0295 -1.0907  0.7832
 5282SOL    HW227483   4.383   0.263   0.256 -0.4368 -1.1686  0.2559
 5283SOL     OW27484   0.795   1.745   2.328  0.1858 -0.4496 -0.0430
 5283SOL    HW127485   0.882   1.706   2.313  0.5521  0.0061  0.8765
 5283SOL    HW227486   0.755   1.736   2.242 -1.4448  2.9137  0.3904
 5284SOL     OW27487   4.731   3.295  11.526  0.3630  0.3716  0.2593
 5284SOL    HW127488   4.699   3.381  11.553 -2.2053 -0.3295 -0.6029
 5284SOL    HW227489   4.672   3.240  11.576 -1.4142  2.1534  0.1328
 5285SOL     OW27490   2.534   1.984   5.070  0.1311  0.0177 -0.7248
 5285SOL    HW127491   2.442   1.960   5.083  0.6432 -1.3494  0.4285
 5285SOL    HW227492   2.526   2.071   5.032 -0.4525  0.4110  0.3123
 5286SOL     OW27493   2.914   3.506   5.766 -0.0709 -0.2641  0.1891
 5286SOL    HW127494   2.950   3.588   5.733  1.0183 -0.9767 -0.3747
 5286SOL    HW227495   2.819   3.517   5.756  0.0503  0.4806 -0.1206
 5287SOL     OW27496   2.385   2.284  17.261  0.1238  0.4944  0.3728
 5287SOL    HW127497   2.448   2.296  17.191 -0.4078 -1.3992 -0.4158
 5287SOL    HW227498   2.416   2.210  17.312  0.9625 -1.4055 -2.8706
 5288SOL     OW27499   2.982   2.268   5.325 -0.3575 -0.7470  0.1926
 5288SOL    HW127500   2.910   2.331   5.329  0.5522  0.4729 -2.3682
 5288SOL    HW227501   2.925   2.192   5.334 -2.1834  0.7477  1.2487
 5289SOL     OW27502   3.686   1.750   6.537 -0.3627  0.3589 -0.6323
 5289SOL    HW127503   3.600   1.718   6.562 -1.3885  2.0155 -2.0226
 5289SOL    HW227504   3.676   1.837   6.577  0.1206  0.5379 -0.8997
 5290SOL     OW27505   2.791   4.436  17.689 -0.1000  0.0622 -0.5639
 5290SOL    HW127506   2.738   4.440   0.029 -1.2916  0.2999 -1.3809
 5290SOL    HW227507   2.721   4.399  17.635  0.8515 -1.9255 -0.4402
 5291SOL     OW27508   2.080   1.642   6.151 -0.1545 -0.1882 -0.5329
 5291SOL    HW127509   2.087   1.663   6.058  0.1574 -1.2587 -0.7445
 5291SOL    HW227510   2.114   1.554   6.139 -0.7573 -0.2927 -1.4351
 5292SOL     OW27511   2.667   2.417   7.011  0.2762 -0.8401  0.2189
 5292SOL    HW127512   2.600   2.399   6.945  2.8399 -0.3653 -2.5516
 5292SOL    HW227513   2.622   2.487   7.059  0.6750 -0.3012 -0.1843
 5293SOL     OW27514   3.764   1.261   6.638  0.0354 -0.4176  0.4744
 5293SOL    HW127515   3.728   1.342   6.603  0.0531 -0.7949 -0.4099
 5293SOL    HW227516   3.825   1.224   6.575 -2.6560 -0.8423 -1.8625
 5294SOL     OW27517   0.634   0.821   7.633  0.0085 -0.0916  0.0602
 5294SOL    HW127518   0.556   0.847   7.682 -0.0155  0.0842 -0.0722
 5294SOL    HW227519   0.688   0.777   7.699  0.0905  0.6194  0.4650
 5295SOL     OW27520   2.651   0.731   0.543  0.6694 -0.3960  0.0136
 5295SOL    HW127521   2.615   0.650   0.508 -1.4351  0.7527 -0.4487
 5295SOL    HW227522   2.744   0.738   0.521  0.8320  2.1850  1.5766
 5296SOL     OW27523   2.587   2.240   8.736 -0.2828 -0.2399  0.1074
 5296SOL    HW127524   2.648   2.308   8.764 -1.7316  1.1291 -0.0569
 5296SOL    HW227525   2.609   2.225   8.644  3.1327 -1.4851  1.1255
 5297SOL     OW27526   1.217   1.768   5.178  0.4797 -0.6049  0.7752
 5297SOL    HW127527   1.218   1.742   5.270  1.9809  0.0269  0.9341
 5297SOL    HW227528   1.210   1.864   5.171 -2.1861 -0.6703  2.3005
 5298SOL     OW27529   1.650   1.567   6.788  0.1785 -0.1685 -0.3145
 5298SOL    HW127530   1.712   1.507   6.829  1.8742 -0.0683 -2.6778
 5298SOL    HW227531   1.710   1.635   6.757  0.4738 -0.1940  0.2027
 5299SOL     OW27532   4.271   0.731   7.241 -0.0599  0.3360  0.3182
 5299SOL    HW127533   4.252   0.812   7.194  0.1565  2.2588  3.5297
 5299SOL    HW227534   4.216   0.663   7.201  0.3758  0.4867 -0.5327
 5300SOL     OW27535   3.829   1.558   1.974  0.6052 -0.1618  0.3589
 5300SOL    HW127536   3.771   1.537   2.048 -1.7735 -1.7984 -1.9905
 5300SOL    HW227537   3.793   1.647   1.970 -1.4190 -0.9220  1.4820
 5301SOL     OW27538   3.441   3.196   4.723 -0.0237  0.3246  0.8757
 5301SOL    HW127539   3.369   3.163   4.776 -0.6928  2.8106  1.5484
 5301SOL    HW227540   3.508   3.128   4.726  1.6556  1.9585  1.1574
 5302SOL     OW27541   3.766   2.549   5.901 -0.3346  0.3578 -0.3005
 5302SOL    HW127542   3.743   2.555   5.994  1.0630  1.4064 -0.0195
 5302SOL    HW227543   3.743   2.640   5.885  0.0973  0.7220  1.1935
 5303SOL     OW27544   2.854   1.979   8.530  0.0862 -0.4051 -0.2672
 5303SOL    HW127545   2.806   2.054   8.497 -0.8188  0.0720  2.1360
 5303SOL    HW227546   2.925   1.967   8.467  2.2994 -0.2871  2.1789
 5304SOL     OW27547   2.030   0.738   7.865  0.2702  0.2642  0.4603
 5304SOL    HW127548   1.988   0.788   7.795 -0.0314  0.9402  1.1225
 5304SOL    HW227549   1.981   0.785   7.933 -0.1904 -1.0684  1.0475
 5305SOL     OW27550   0.406   4.476   5.444  0.7077 -0.1827  0.0263
 5305SOL    HW127551   0.487   4.427   5.455  0.2681 -0.6500  1.2683
 5305SOL    HW227552   0.381   4.434   5.362  0.1336  1.0159 -0.4210
 5306SOL     OW27553   4.325   0.779  13.408 -0.1854 -0.8439  0.6309
 5306SOL    HW127554   4.358   0.691  13.420 -0.3623 -0.6329  2.7003
 5306SOL    HW227555   4.340   0.829  13.488 -1.9091  2.3603 -1.0179
 5307SOL     OW27556   1.469   4.254  13.761 -0.2147 -0.6127  0.2219
 5307SOL    HW127557   1.482   4.321  13.828 -0.5666  0.6417 -0.9664
 5307SOL    HW227558   1.553   4.252  13.716 -0.9097  1.1281 -1.1419
 5308SOL     OW27559   4.336   4.515   4.234 -0.3458  0.5638  0.6654
 5308SOL    HW127560   4.272   4.505   4.305 -0.5996 -0.0731  0.3472
 5308SOL    HW227561   4.278   4.566   4.178  0.4190  1.6523  0.8688
 5309SOL     OW27562   2.874   1.492   5.677 -0.2920 -0.0131 -0.6523
 5309SOL    HW127563   2.833   1.462   5.759  0.6158 -1.3231 -0.6775
 5309SOL    HW227564   2.791   1.522   5.639 -0.4227  0.4643  0.0147
 5310SOL     OW27565   1.261   2.836   1.941  0.6353  0.1168  0.1291
 5310SOL    HW127566   1.182   2.813   1.990  0.4436 -0.5721 -0.5042
 5310SOL    HW227567   1.239   2.914   1.891 -1.9734 -1.6420 -1.4086
 5311SOL     OW27568   2.429   0.242   3.453  0.4663  0.7718 -0.0046
 5311SOL    HW127569   2.516   0.218   3.420 -0.2527 -0.7963 -0.7871
 5311SOL    HW227570   2.450   0.290   3.533  0.2813 -0.2727  0.6735
 5312SOL     OW27571   0.649   4.280   0.170  0.3419  0.1562  0.7634
 5312SOL    HW127572   0.665   4.372   0.148 -0.3779  0.2170  0.5002
 5312SOL    HW227573   0.595   4.298   0.247  0.8493  0.5190  1.0313
 5313SOL     OW27574   4.734   4.618   5.654 -0.0124  0.1189 -0.6351
 5313SOL    HW127575   4.703   4.708   5.655 -0.4874 -0.0877  2.7652
 5313SOL    HW227576   0.091   4.635   5.631  0.0877 -0.2674 -0.5161
 5314SOL     OW27577   2.783   0.208  15.808  0.3115 -0.2822 -0.2171
 5314SOL    HW127578   2.784   0.238  15.718 -0.8533  2.1861  0.5847
 5314SOL    HW227579   2.726   0.277  15.843  0.7026 -0.2032  0.2625
 5315SOL     OW27580   2.194   4.390  17.550 -0.3269  0.2028 -0.4818
 5315SOL    HW127581   2.245   4.366  17.473 -3.7318 -1.3295 -2.2822
 5315SOL    HW227582   2.166   4.307  17.589 -1.0187 -0.2206 -1.8606
 5316SOL     OW27583   0.905   3.826   4.857  0.3219 -0.0750  0.1100
 5316SOL    HW127584   0.918   3.863   4.770 -0.0704  0.0381  0.0983
 5316SOL    HW227585   0.812   3.842   4.869  0.5803  1.5004 -0.0594
 5317SOL     OW27586   3.912   1.421  12.805  0.0220  0.4050  0.8886
 5317SOL    HW127587   3.915   1.395  12.897 -0.5672 -0.2422  0.7260
 5317SOL    HW227588   3.975   1.360  12.769 -0.8772  0.0728 -0.0926
 5318SOL     OW27589   1.603   4.437   6.588  0.3469  0.2606  0.0717
 5318SOL    HW127590   1.648   4.374   6.644 -0.5754  0.0364  0.5649
 5318SOL    HW227591   1.581   4.384   6.511 -0.9586  1.5570 -0.4414
 5319SOL     OW27592   0.576   1.754   6.902  0.0160 -0.1837 -0.2264
 5319SOL    HW127593   0.587   1.776   6.994  3.5256  3.4368 -1.5156
 5319SOL    HW227594   0.644   1.810   6.865 -1.2834  2.7203  1.8137
 5320SOL     OW27595   4.313   0.119   1.413 -0.5817 -0.5170 -0.0287
 5320SOL    HW127596   4.260   0.043   1.388  1.6519 -2.0292 -0.1212
 5320SOL    HW227597   4.267   0.186   1.363  0.3094 -1.0176 -1.4937
 5321SOL     OW27598   3.630   2.116   8.212 -0.2672 -0.7030  0.3822
 5321SOL    HW127599   3.720   2.124   8.243 -0.4431  1.1796  0.4390
 5321SOL    HW227600   3.627   2.065   8.132  4.1084  0.4897 -0.4943
 5322SOL     OW27601   0.186   2.649   7.641 -0.0294  0.5126  0.0646
 5322SOL    HW127602   0.110   2.602   7.606  1.2419 -0.8941 -0.7936
 5322SOL    HW227603   0.188   2.615   7.731 -0.9537  3.1073  1.0621
 5323SOL     OW27604   0.800   0.404   2.995 -0.4640 -0.8625 -0.1815
 5323SOL    HW127605   0.704   0.406   2.990 -0.4917 -2.6694 -0.6176
 5323SOL    HW227606   0.813   0.440   2.908  2.1950 -2.2550 -0.3665
 5324SOL     OW27607   3.128   4.042  16.705  0.4421 -0.3850  0.2450
 5324SOL    HW127608   3.118   4.127  16.662 -0.7048 -0.4621  0.3654
 5324SOL    HW227609   3.064   4.053  16.775  1.3743  3.0296  0.5752
 5325SOL     OW27610   0.542   1.784   2.477  0.0760 -0.1842  0.1421
 5325SOL    HW127611   0.563   1.813   2.566  0.3431 -4.5127  1.4760
 5325SOL    HW227612   0.619   1.816   2.429  0.0226 -2.6660 -1.6081
 5326SOL     OW27613   4.246   0.685   4.184 -0.9447 -0.3461  0.2691
 5326SOL    HW127614   4.321   0.645   4.229  1.6177  2.5645 -1.3841
 5326SOL    HW227615   4.175   0.645   4.234 -1.3904 -0.3523 -0.3760
 5327SOL     OW27616   1.319   0.037   1.807 -0.1990  0.1229 -0.0029
 5327SOL    HW127617   1.297   0.077   1.724 -0.4349 -2.4623 -1.1920
 5327SOL    HW227618   1.248   4.708   1.814  1.5230 -1.6173  1.7879
 5328SOL     OW27619   1.384   1.517   3.106  0.1391  0.8357  0.0967
 5328SOL    HW127620   1.423   1.448   3.160 -0.1953  1.2847  0.9181
 5328SOL    HW227621   1.381   1.471   3.023 -0.2610  0.0584  0.5392
 5329SOL     OW27622   2.139   3.698   1.996 -0.3658 -0.0645 -0.1880
 5329SOL    HW127623   2.068   3.734   1.942  0.2206 -0.5029 -1.2579
 5329SOL    HW227624   2.138   3.614   1.950 -0.2586  0.0765 -0.4467
 5330SOL     OW27625   0.223   1.368   5.253  0.4111 -0.0355 -0.1864
 5330SOL    HW127626   0.275   1.397   5.178  0.6578  0.0244  0.0080
 5330SOL    HW227627   0.273   1.408   5.324 -0.9320  1.8621 -0.2942
 5331SOL     OW27628   4.128   4.078   6.840 -0.4628  0.2293  0.3807
 5331SOL    HW127629   4.218   4.107   6.828 -0.3613 -0.4169 -0.4382
 5331SOL    HW227630   4.117   4.082   6.935 -0.6840 -0.0619  0.3691
 5332SOL     OW27631   2.755   4.088   6.697 -0.2110  0.3251 -0.4707
 5332SOL    HW127632   2.724   4.048   6.616  0.1552 -0.0241 -0.4393
 5332SOL    HW227633   2.845   4.108   6.672  0.1334 -0.6719 -0.0195
 5333SOL     OW27634   0.332   3.852   7.336  0.2278  0.3851 -0.6458
 5333SOL    HW127635   0.420   3.817   7.353  0.2836  1.1681  0.6713
 5333SOL    HW227636   0.348   3.890   7.250  2.7850  0.2549 -0.2473
 5334SOL     OW27637   1.907   0.896   9.097  0.0250 -0.2825  0.2271
 5334SOL    HW127638   1.991   0.921   9.135  0.5735  1.3808 -2.0657
 5334SOL    HW227639   1.905   0.801   9.103  1.3240 -0.2007  2.1015
 5335SOL     OW27640   2.537   2.496   4.988  0.6921  0.4268 -0.0033
 5335SOL    HW127641   2.547   2.588   5.010  0.9830  0.3383  0.2481
 5335SOL    HW227642   2.629   2.469   4.987  0.9422  1.2662  0.6230
 5336SOL     OW27643   0.172   0.100  10.060 -0.2198  0.6074 -0.2917
 5336SOL    HW127644   0.211   0.028  10.011 -0.0924  0.8136 -0.4956
 5336SOL    HW227645   0.174   0.169   9.993  2.2530  1.4298  0.6354
 5337SOL     OW27646   2.696   3.413  16.478 -0.1534 -0.0064  0.6568
 5337SOL    HW127647   2.621   3.390  16.532  1.4358 -1.1484  2.4038
 5337SOL    HW227648   2.660   3.432  16.392  0.7393  0.7272  0.4413
 5338SOL     OW27649   4.487   1.551  15.051 -0.2115  0.3339  0.2522
 5338SOL    HW127650   4.492   1.551  14.955 -1.0702  0.5932  0.2018
 5338SOL    HW227651   4.545   1.476  15.061 -2.5932 -1.6099 -0.6432
 5339SOL     OW27652   0.757   2.271   8.266 -0.0503  0.4752 -0.9834
 5339SOL    HW127653   0.824   2.318   8.216  1.7299 -0.8028  0.1801
 5339SOL    HW227654   0.809   2.194   8.290 -1.8545  0.3230  2.4285
 5340SOL     OW27655   3.667   1.246   6.219  0.2345  0.4569  0.1719
 5340SOL    HW127656   3.675   1.332   6.260  3.4304  0.4165 -0.3650
 5340SOL    HW227657   3.615   1.207   6.289  2.5272 -0.0878  1.5956
 5341SOL     OW27658   2.591   2.971   6.701 -0.2667  0.3711 -0.2132
 5341SOL    HW127659   2.619   2.972   6.792 -0.1168 -1.3545 -0.2551
 5341SOL    HW227660   2.658   2.920   6.657 -1.7035 -1.1615 -0.6121
 5342SOL     OW27661   4.489   0.418   6.369  0.4137 -0.0234 -0.1790
 5342SOL    HW127662   4.516   0.510   6.366 -0.6690  0.4188  2.8722
 5342SOL    HW227663   4.503   0.382   6.282  0.0327  0.5470 -0.4762
 5343SOL     OW27664   2.260   4.721  12.646  0.1805  0.3646  0.0679
 5343SOL    HW127665   2.276   0.078  12.625 -0.6490  0.2724 -0.9672
 5343SOL    HW227666   2.257   4.694  12.554 -2.1924 -1.5629  0.7164
 5344SOL     OW27667   3.703   3.429   6.755 -0.1163  0.5090  0.6715
 5344SOL    HW127668   3.784   3.459   6.714  0.3119  0.2031  1.2911
 5344SOL    HW227669   3.639   3.487   6.714  0.2505  1.1324  0.9740
 5345SOL     OW27670   4.674   1.928  10.215  0.0552  0.1196  0.2023
 5345SOL    HW127671   0.029   1.961  10.207  0.4809 -0.8660  0.9753
 5345SOL    HW227672   4.632   1.977  10.144 -0.2944 -0.1039  0.2553
 5346SOL     OW27673   1.962   0.061   2.450  0.7008  0.1660 -0.9515
 5346SOL    HW127674   1.991   0.122   2.517  1.1231 -1.7391  0.6153
 5346SOL    HW227675   1.901   0.019   2.510  1.4223  1.2321  0.5242
 5347SOL     OW27676   4.145   4.221   4.656 -0.3250 -0.2131 -0.2647
 5347SOL    HW127677   4.097   4.167   4.719  0.3917 -1.2626 -0.6070
 5347SOL    HW227678   4.184   4.150   4.605  0.7114  1.9072 -2.4390
 5348SOL     OW27679   0.383   0.457  10.143 -0.0439 -0.1721  0.4434
 5348SOL    HW127680   0.426   0.542  10.135  0.5778 -0.4531  0.7849
 5348SOL    HW227681   0.368   0.438  10.051  1.0387  1.5503 -0.0905
 5349SOL     OW27682   2.157   3.244  13.156  0.2187 -0.0967  0.0886
 5349SOL    HW127683   2.157   3.317  13.218 -1.0689 -0.5728  0.6481
 5349SOL    HW227684   2.068   3.213  13.167 -0.7932  1.9330 -2.5382
 5350SOL     OW27685   1.602   4.373   6.097  0.2675  0.4251  0.4888
 5350SOL    HW127686   1.626   4.463   6.077  0.7743 -0.6528 -3.6556
 5350SOL    HW227687   1.589   4.324   6.016 -2.2135 -0.3910  1.3773
 5351SOL     OW27688   2.681   3.989   8.789 -0.0048  0.5127  0.8343
 5351SOL    HW127689   2.737   4.046   8.737  2.0739 -1.4772  0.8689
 5351SOL    HW227690   2.624   4.056   8.828 -0.0159  0.3019  1.1858
 5352SOL     OW27691   2.458   3.223   6.896  0.1599 -0.0258  0.0569
 5352SOL    HW127692   2.390   3.268   6.947 -0.1422 -1.3610  0.8399
 5352SOL    HW227693   2.420   3.140   6.867  0.0084 -0.6783  2.0803
 5353SOL     OW27694   2.297   1.770  14.346 -0.2753 -0.1358 -0.3088
 5353SOL    HW127695   2.339   1.852  14.317 -0.8711 -0.1432 -1.2089
 5353SOL    HW227696   2.219   1.804  14.391  0.1447  0.1675  0.1772
 5354SOL     OW27697   0.565   1.124   8.241  0.2834 -0.6532  0.2666
 5354SOL    HW127698   0.508   1.076   8.300 -0.8542 -0.8258 -0.9780
 5354SOL    HW227699   0.563   1.206   8.290  0.2698 -0.4969  0.0073
 5355SOL     OW27700   1.095   3.377  16.008  0.4488  0.5254 -0.4615
 5355SOL    HW127701   1.052   3.325  15.940  0.1406  0.5361 -0.2748
 5355SOL    HW227702   1.042   3.454  15.987  1.0593  1.3860  1.1960
 5356SOL     OW27703   1.550   2.958   3.824  0.4155 -0.0033 -0.0965
 5356SOL    HW127704   1.481   3.014   3.861  1.3998  0.8772  0.4000
 5356SOL    HW227705   1.544   2.881   3.881 -0.1196  1.2725  1.5662
 5357SOL     OW27706   3.474   3.621   6.765  0.5775  0.7424  0.4828
 5357SOL    HW127707   3.461   3.709   6.800 -0.7217  0.4913  0.6104
 5357SOL    HW227708   3.432   3.563   6.830 -1.8463 -0.1098 -1.8639
 5358SOL     OW27709   2.664   3.623   4.920 -0.1266 -0.3307  0.2904
 5358SOL    HW127710   2.605   3.659   4.854  1.0797  1.8624  0.4013
 5358SOL    HW227711   2.604   3.556   4.952 -0.8390  0.0722 -0.1930
 5359SOL     OW27712   2.238   0.667   9.776  0.2241 -0.1271 -0.0739
 5359SOL    HW127713   2.227   0.742   9.717 -1.8969 -0.1535  0.2894
 5359SOL    HW227714   2.325   0.693   9.806  0.8713 -1.0410 -1.1605
 5360SOL     OW27715   0.596   3.967  12.056 -0.0884  0.0694  0.0658
 5360SOL    HW127716   0.603   3.951  12.150 -3.5560 -0.1147  0.2953
 5360SOL    HW227717   0.532   3.897  12.042 -0.8161  0.7994 -0.2261
 5361SOL     OW27718   3.413   2.760   3.824 -0.0383 -0.0006 -0.1583
 5361SOL    HW127719   3.475   2.715   3.767  0.1941  0.3978 -0.2176
 5361SOL    HW227720   3.449   2.843   3.793  0.9851 -0.2914  0.2791
 5362SOL     OW27721   3.123   0.674  12.410 -0.3722 -0.2856  0.2617
 5362SOL    HW127722   3.098   0.742  12.348  2.1986 -0.9475 -1.5100
 5362SOL    HW227723   3.176   0.612  12.360  0.2532 -0.9776  1.7809
 5363SOL     OW27724   3.035   4.102   4.543 -0.6306  0.4276 -0.3517
 5363SOL    HW127725   3.044   4.094   4.448 -0.7019  1.3305 -0.4336
 5363SOL    HW227726   3.032   4.197   4.545  1.8998  0.4929  0.1274
 5364SOL     OW27727   1.952   3.612   7.364 -0.2110  0.0455 -0.1053
 5364SOL    HW127728   1.919   3.531   7.402  0.0563 -0.1968 -0.3838
 5364SOL    HW227729   1.889   3.619   7.293  0.8118 -1.5264 -1.1744
 5365SOL     OW27730   3.788   1.135   1.961  0.0343  0.2964  0.0768
 5365SOL    HW127731   3.852   1.063   1.957  0.4078  0.6864 -1.0998
 5365SOL    HW227732   3.832   1.204   2.010 -0.0372 -0.2680  0.9296
 5366SOL     OW27733   0.721   3.284   3.445  0.3999  0.3240 -0.2080
 5366SOL    HW127734   0.679   3.333   3.516  0.7335  1.3176 -0.6988
 5366SOL    HW227735   0.809   3.269   3.481  0.3914  0.9676  0.0700
 5367SOL     OW27736   3.504   1.857   0.667 -0.2363  0.2316 -0.0760
 5367SOL    HW127737   3.462   1.908   0.736  0.7613 -2.6149  2.6037
 5367SOL    HW227738   3.569   1.808   0.717  0.5945  1.6584  0.2511
 5368SOL     OW27739   3.306   0.913  15.081  0.1677  0.0557 -0.1743
 5368SOL    HW127740   3.224   0.961  15.076 -1.0893 -2.6061 -5.4261
 5368SOL    HW227741   3.303   0.831  15.032 -1.4926  0.2060 -0.3264
 5369SOL     OW27742   3.674   0.944   3.161 -0.7972  0.1219  0.0214
 5369SOL    HW127743   3.728   0.990   3.225 -1.3273 -0.7288  1.0960
 5369SOL    HW227744   3.610   0.890   3.209 -0.0989 -0.0253  0.7714
 5370SOL     OW27745   0.952   4.501   5.049 -0.3422  0.4628 -0.3812
 5370SOL    HW127746   1.016   4.562   5.013  0.6312  0.8987  2.0716
 5370SOL    HW227747   0.882   4.565   5.060  2.0019  2.8961  0.3700
 5371SOL     OW27748   2.213   1.381  15.850 -0.7642  0.6880  0.5419
 5371SOL    HW127749   2.172   1.302  15.885 -0.9420 -0.2964 -1.8678
 5371SOL    HW227750   2.158   1.390  15.772  0.6334  1.4260 -0.3718
 5372SOL     OW27751   4.698   3.165   5.957  0.4396  0.2322 -0.0631
 5372SOL    HW127752   0.033   3.104   5.935  0.3093  0.4764 -1.1298
 5372SOL    HW227753   4.712   3.243   5.904 -0.5918  0.6118  0.2321
 5373SOL     OW27754   2.034   4.083   4.730 -0.1682 -0.4159 -0.6018
 5373SOL    HW127755   2.008   4.031   4.805 -0.9139  1.0528  0.1500
 5373SOL    HW227756   2.121   4.109   4.759 -0.3433 -0.7368  0.1940
 5374SOL     OW27757   4.169   4.667  12.226 -0.2497  0.0436  0.3805
 5374SOL    HW127758   4.226   4.683  12.302  0.5628 -0.7562 -0.0607
 5374SOL    HW227759   4.130   4.583  12.250 -1.2926  0.8418  1.4709
 5375SOL     OW27760   1.334   3.632   4.054 -0.3426 -0.1251  0.2181
 5375SOL    HW127761   1.363   3.679   3.976  0.8072 -0.8571  0.1997
 5375SOL    HW227762   1.394   3.664   4.121 -1.2215  1.4116  0.2661
 5376SOL     OW27763   2.354   2.369  11.093  0.2835 -0.8772 -0.2933
 5376SOL    HW127764   2.442   2.331  11.104  0.5608  0.1068  0.9000
 5376SOL    HW227765   2.360   2.385  10.999 -1.3372  0.8593 -0.1027
 5377SOL     OW27766   2.710   1.843  10.949 -0.0651 -0.0423  0.9035
 5377SOL    HW127767   2.681   1.856  11.040 -3.9664 -0.6048 -0.2369
 5377SOL    HW227768   2.673   1.919  10.905  0.5657  0.0800  0.5848
 5378SOL     OW27769   0.077   3.378   6.830  0.2505 -0.1197  0.3563
 5378SOL    HW127770   0.056   3.373   6.737 -2.9414 -0.4182  1.0805
 5378SOL    HW227771   0.010   3.439   6.858  0.7323  1.9564 -3.0124
 5379SOL     OW27772   1.997   4.668   6.418 -0.0919  0.2106 -0.0275
 5379SOL    HW127773   1.995   4.572   6.426 -1.4218  0.2151 -0.1715
 5379SOL    HW227774   1.904   4.691   6.408 -0.4150 -1.6260 -1.2458
 5380SOL     OW27775   2.191   0.595  16.440  0.1790  0.1897 -0.2199
 5380SOL    HW127776   2.098   0.596  16.464  0.5018 -1.8114  1.1321
 5380SOL    HW227777   2.191   0.561  16.351  0.2943 -0.8875  0.1852
 5381SOL     OW27778   4.414   1.879   7.040 -0.0288  0.4046  0.6702
 5381SOL    HW127779   4.458   1.808   7.086  1.2126 -0.3256 -1.6607
 5381SOL    HW227780   4.384   1.826   6.966  2.0937  1.5403 -1.0018
 5382SOL     OW27781   0.920   1.527  17.010 -0.1692  0.2307  0.0919
 5382SOL    HW127782   0.989   1.462  17.006  1.8147  2.2431  1.3014
 5382SOL    HW227783   0.841   1.478  16.986 -0.7075  0.3744  1.5461
 5383SOL     OW27784   1.810   0.134   6.797  0.4287 -0.2786  0.5564
 5383SOL    HW127785   1.774   0.057   6.752 -1.5910  2.0637 -1.8793
 5383SOL    HW227786   1.875   0.091   6.852 -0.3856 -1.5781  0.5044
 5384SOL     OW27787   3.470   2.501   4.405  0.3020  0.0700 -0.2225
 5384SOL    HW127788   3.465   2.419   4.357  2.0536 -1.0748  1.5397
 5384SOL    HW227789   3.382   2.537   4.392  0.2927 -0.0403 -0.4577
 5385SOL     OW27790   3.669   3.891   7.524 -0.1251 -0.2248  0.0879
 5385SOL    HW127791   3.656   3.849   7.439 -2.2323 -1.4213  1.0080
 5385SOL    HW227792   3.760   3.919   7.515 -0.5913  1.8932  2.0817
 5386SOL     OW27793   1.297   2.206   3.607  0.0377 -0.5350 -0.3824
 5386SOL    HW127794   1.296   2.287   3.556  0.7184 -0.5026 -0.3407
 5386SOL    HW227795   1.370   2.156   3.571 -0.8151 -1.2857 -1.0853
 5387SOL     OW27796   2.937   2.144  10.859 -0.2498  0.4872 -0.8473
 5387SOL    HW127797   2.921   2.236  10.880 -0.2062 -0.0763  1.5714
 5387SOL    HW227798   2.925   2.105  10.945  0.0154  0.1235 -0.9762
 5388SOL     OW27799   1.971   0.573   4.610 -0.0879 -0.2507 -0.4746
 5388SOL    HW127800   1.973   0.575   4.514  0.4413  1.2899 -0.4341
 5388SOL    HW227801   2.026   0.650   4.624  0.5783 -1.3585  2.9734
 5389SOL     OW27802   0.597   1.070   5.601 -0.3607  0.1976 -0.3977
 5389SOL    HW127803   0.573   0.994   5.653  0.2558  0.9119  0.9210
 5389SOL    HW227804   0.577   1.043   5.511  0.8006  0.1738 -0.6481
 5390SOL     OW27805   2.359   1.256   1.826 -0.2254  0.5768 -0.3626
 5390SOL    HW127806   2.371   1.343   1.788 -2.4711  1.5608  1.1494
 5390SOL    HW227807   2.443   1.243   1.871  0.8579 -0.7366 -2.7955
 5391SOL     OW27808   2.821   2.445  14.755  0.4043  0.4395 -0.1013
 5391SOL    HW127809   2.795   2.507  14.824  0.9858 -2.5581  2.8310
 5391SOL    HW227810   2.842   2.500  14.680  1.4807  0.6158  0.3242
 5392SOL     OW27811   3.287   2.609  15.592 -0.0148  0.2620  0.2718
 5392SOL    HW127812   3.250   2.571  15.672  2.0267 -0.7354  0.7580
 5392SOL    HW227813   3.378   2.578  15.600 -0.1085 -0.1346 -0.1724
 5393SOL     OW27814   3.404   4.247   9.845  0.7013 -0.1626  0.1805
 5393SOL    HW127815   3.498   4.230   9.853  0.4923 -1.1397  0.6067
 5393SOL    HW227816   3.392   4.324   9.901 -0.0599 -0.2715  0.1782
 5394SOL     OW27817   3.598   1.601   5.140  0.0470 -0.2179 -0.1223
 5394SOL    HW127818   3.602   1.555   5.224  0.7985  1.6097  0.8174
 5394SOL    HW227819   3.545   1.679   5.156  0.4255 -0.0274  0.1821
 5395SOL     OW27820   3.204   3.041   2.671 -1.0256 -0.2065 -0.2558
 5395SOL    HW127821   3.242   3.084   2.595  0.1482  0.4695  0.7157
 5395SOL    HW227822   3.218   2.951   2.644  0.8383 -0.5985  2.0200
 5396SOL     OW27823   3.369   0.937   4.672 -0.5073 -0.3259 -0.3585
 5396SOL    HW127824   3.329   0.958   4.756 -1.5826 -0.6919 -0.7666
 5396SOL    HW227825   3.294   0.928   4.612  0.8433  2.2735 -2.4357
 5397SOL     OW27826   0.093   3.515   5.267 -0.3923 -0.4656 -0.3491
 5397SOL    HW127827   0.166   3.517   5.205  0.7531  0.4002  1.0428
 5397SOL    HW227828   0.117   3.579   5.334 -1.6462 -0.4564  0.0982
 5398SOL     OW27829   1.243   3.689  11.461  0.1882  0.7611 -0.1579
 5398SOL    HW127830   1.194   3.758  11.506 -0.3816 -0.1762  0.6640
 5398SOL    HW227831   1.186   3.613  11.476  1.0403  0.3546  1.0721
 5399SOL     OW27832   2.344   1.808   7.344  0.2874 -0.4225 -0.5114
 5399SOL    HW127833   2.279   1.876   7.324 -1.3209 -1.3759  1.4037
 5399SOL    HW227834   2.382   1.856   7.418 -2.5266  1.2697 -0.1413
 5400SOL     OW27835   3.997   2.052  13.903 -0.0766  0.1760 -0.1973
 5400SOL    HW127836   3.983   1.958  13.908  2.4887 -0.1914 -0.1865
 5400SOL    HW227837   4.008   2.062  13.998  1.6566 -0.4461 -0.3312
 5401SOL     OW27838   1.174   2.296   5.326 -0.1362 -0.2403 -0.1526
 5401SOL    HW127839   1.134   2.375   5.290  0.8831 -0.9876 -2.9084
 5401SOL    HW227840   1.221   2.320   5.406 -0.0210  1.0534 -0.6080
 5402SOL     OW27841   0.525   0.680   5.391 -0.1037  0.1435  0.2420
 5402SOL    HW127842   0.484   0.766   5.402 -1.8336 -1.0116  2.8243
 5402SOL    HW227843   0.467   0.639   5.326 -0.1604  1.4925 -0.5657
 5403SOL     OW27844   1.354   2.850  10.694 -0.0858  0.3001 -0.3788
 5403SOL    HW127845   1.322   2.818  10.609 -0.5494  4.5270 -1.8012
 5403SOL    HW227846   1.448   2.837  10.699 -0.3119 -0.7970  0.9885
 5404SOL     OW27847   1.392   2.743   2.952 -0.3407  0.5429 -0.2146
 5404SOL    HW127848   1.453   2.766   3.023  0.5746 -0.8835 -0.5184
 5404SOL    HW227849   1.396   2.647   2.954  2.4399  0.6574  0.9089
 5405SOL     OW27850   0.214   2.481  15.221 -0.4276  0.6365 -0.8195
 5405SOL    HW127851   0.211   2.420  15.148  0.2121 -0.7394  0.2971
 5405SOL    HW227852   0.271   2.431  15.280  0.3308  1.0806 -1.1659
 5406SOL     OW27853   2.798   2.980  15.150  0.2124 -0.5299 -0.5298
 5406SOL    HW127854   2.735   2.933  15.094  1.3817  2.0221 -4.0079
 5406SOL    HW227855   2.783   2.940  15.235 -3.6056 -1.0971 -1.4677
 5407SOL     OW27856   4.327   2.667  14.316  0.2401 -0.4693  0.0959
 5407SOL    HW127857   4.318   2.699  14.226  0.1780  0.6424  0.4941
 5407SOL    HW227858   4.234   2.664  14.340  0.5962 -1.9103  1.3424
 5408SOL     OW27859   2.013   0.930  16.242 -0.3821  0.3195  0.3502
 5408SOL    HW127860   2.094   0.882  16.223 -0.5895 -0.4424  1.4148
 5408SOL    HW227861   1.960   0.897  16.170  1.3372 -0.0528 -0.7584
 5409SOL     OW27862   3.447   0.312  12.965  0.1849 -0.1388 -0.3731
 5409SOL    HW127863   3.494   0.331  13.046  0.1725 -1.2094 -0.1166
 5409SOL    HW227864   3.443   0.399  12.925  0.8668 -0.5413 -1.3134
 5410SOL     OW27865   2.544   3.541   6.366 -0.4066  0.3695 -0.3643
 5410SOL    HW127866   2.485   3.612   6.391  2.3372  2.0239  1.3180
 5410SOL    HW227867   2.592   3.575   6.291  1.8077  0.1863  0.9554
 5411SOL     OW27868   4.092   1.077   0.849  0.0092  0.6456  0.1895
 5411SOL    HW127869   4.113   1.024   0.926 -2.8296  0.3039  0.7191
 5411SOL    HW227870   3.998   1.090   0.861  0.1589  2.4739 -0.6857
 5412SOL     OW27871   3.979   1.838   6.798 -0.1110  0.8546 -0.0529
 5412SOL    HW127872   3.942   1.757   6.764  3.1548 -0.0203 -1.5299
 5412SOL    HW227873   4.071   1.833   6.772  0.1475 -0.4185  1.0729
 5413SOL     OW27874   3.886   0.341   9.349  0.1164 -0.0993 -0.3611
 5413SOL    HW127875   3.954   0.301   9.404  0.7542  1.8095  0.2441
 5413SOL    HW227876   3.944   0.406   9.309  1.5553  0.2072  2.2078
 5414SOL     OW27877   0.073   0.683   5.644  0.1844  0.6521 -0.3817
 5414SOL    HW127878   0.153   0.676   5.696 -0.1360  0.6652  0.1134
 5414SOL    HW227879   0.078   0.774   5.613 -1.5487  1.1077  0.6610
 5415SOL     OW27880   0.104   4.724   4.658 -0.0978  0.2417 -0.3817
 5415SOL    HW127881   0.077   4.657   4.595 -1.4700  0.3024  0.1530
 5415SOL    HW227882   0.195   0.002   4.632 -0.5494 -2.1964 -3.2342
 5416SOL     OW27883   2.364   2.984  11.363  0.0122  0.1589  0.0028
 5416SOL    HW127884   2.348   3.079  11.361  0.8480  0.3679  2.6108
 5416SOL    HW227885   2.273   2.957  11.350  0.1246  0.1220 -0.6867
 5417SOL     OW27886   1.340   2.775  10.348  0.6451  0.4981  0.5134
 5417SOL    HW127887   1.295   2.736  10.423 -0.1491 -0.1289 -0.2908
 5417SOL    HW227888   1.418   2.721  10.337  0.9312  0.5882  2.1666
 5418SOL     OW27889   0.267   3.422  13.123 -0.2626 -0.0672  0.2106
 5418SOL    HW127890   0.214   3.498  13.100  0.9633  0.1810 -1.8281
 5418SOL    HW227891   0.220   3.395  13.202  0.6927  0.1777  0.8654
 5419SOL     OW27892   3.769   3.374   7.855 -0.2665 -0.1955 -0.2465
 5419SOL    HW127893   3.799   3.404   7.941  0.0475  1.4063 -0.9117
 5419SOL    HW227894   3.803   3.443   7.798  0.8143 -1.5791 -1.2729
 5420SOL     OW27895   2.473   2.033   8.224  0.1305 -0.0893 -0.3297
 5420SOL    HW127896   2.389   2.073   8.247 -0.8978 -2.1592 -0.4822
 5420SOL    HW227897   2.458   1.939   8.221  2.3589 -0.4029 -2.4687
 5421SOL     OW27898   0.876   2.853   7.182  0.5330 -0.0408 -0.0076
 5421SOL    HW127899   0.925   2.791   7.237 -1.0862  0.3800  1.9174
 5421SOL    HW227900   0.823   2.796   7.126 -1.4486  1.0398  0.7731
 5422SOL     OW27901   1.602   4.154  16.773 -0.0943 -0.3224 -0.6553
 5422SOL    HW127902   1.574   4.239  16.807  3.8340  1.0205 -0.8296
 5422SOL    HW227903   1.684   4.177  16.730 -1.5455  3.2691 -1.5100
 5423SOL     OW27904   4.352   0.930   6.045 -0.0592 -0.2123  0.4962
 5423SOL    HW127905   4.302   0.968   6.117  0.1917 -0.7587  0.9549
 5423SOL    HW227906   4.433   0.900   6.087  0.6227 -0.7259 -1.1821
 5424SOL     OW27907   1.925   2.094  17.687 -1.2580 -0.2488  0.1240
 5424SOL    HW127908   1.983   2.163  17.719 -1.7595  0.8992 -1.4611
 5424SOL    HW227909   1.941   2.019   0.005 -1.2884  0.3097  0.8531
 5425SOL     OW27910   4.240   2.748   7.963  0.2918  0.1787 -1.0368
 5425SOL    HW127911   4.274   2.680   8.022  1.4774 -0.2433 -2.2017
 5425SOL    HW227912   4.264   2.718   7.876 -0.6124 -1.8033 -0.6237
 5426SOL     OW27913   3.165   2.650  13.579 -0.2413 -0.0368  0.3868
 5426SOL    HW127914   3.254   2.621  13.557 -0.1434  1.1763 -0.8386
 5426SOL    HW227915   3.172   2.740  13.546 -1.7497 -0.2804 -0.5703
 5427SOL     OW27916   3.915   4.603   0.642 -0.3899  0.1168  0.0732
 5427SOL    HW127917   3.967   4.630   0.567  1.7240  1.2690  1.9871
 5427SOL    HW227918   3.977   4.549   0.691 -0.1568 -0.9249 -1.3598
 5428SOL     OW27919   3.818   4.670   9.160 -0.1167  0.0183 -0.7316
 5428SOL    HW127920   3.870   0.001   9.115 -1.2829 -0.7326 -3.1891
 5428SOL    HW227921   3.757   4.729   9.206 -1.1194 -1.3657 -0.2761
 5429SOL     OW27922   3.276   1.385  17.310 -0.0122 -0.4607 -0.3747
 5429SOL    HW127923   3.330   1.307  17.297  3.0746  1.6790 -0.2213
 5429SOL    HW227924   3.191   1.347  17.332 -0.1296  0.9119  1.5560
 5430SOL     OW27925   1.285   3.877   2.396  0.2835 -0.0700 -0.4606
 5430SOL    HW127926   1.327   3.802   2.438  1.3326 -0.0797 -1.5162
 5430SOL    HW227927   1.306   3.855   2.305 -0.8264  1.7549 -1.1700
 5431SOL     OW27928   4.722   0.096  14.455 -0.4479 -0.0675 -0.0138
 5431SOL    HW127929   4.722   0.188  14.428  0.5467 -0.1051 -0.1103
 5431SOL    HW227930   4.665   0.099  14.532 -0.0172  0.8518  0.2664
 5432SOL     OW27931   2.011   2.985   5.191  0.4800 -0.1035 -0.3138
 5432SOL    HW127932   1.971   2.981   5.278  2.7222 -1.4453  0.6462
 5432SOL    HW227933   1.946   2.966   5.124  2.5149 -0.9747 -2.0246
 5433SOL     OW27934   3.425   1.925   8.301 -0.3447  0.1478  0.1955
 5433SOL    HW127935   3.376   1.905   8.221 -0.8356 -1.2104  0.8356
 5433SOL    HW227936   3.463   2.003   8.261 -1.1673 -0.6217 -2.0683
 5434SOL     OW27937   2.845   3.353   4.937  0.2464  0.1121  0.5450
 5434SOL    HW127938   2.864   3.323   5.026 -1.8648  3.7210  2.2151
 5434SOL    HW227939   2.922   3.320   4.890  0.7735  0.5000  1.1299
 5435SOL     OW27940   1.154   3.652   3.151 -0.3074 -0.5655  0.0017
 5435SOL    HW127941   1.223   3.678   3.212 -0.7178 -1.9166  1.0556
 5435SOL    HW227942   1.138   3.738   3.112 -0.6922 -1.1558 -1.1307
 5436SOL     OW27943   0.675   3.359   5.068  0.6742  0.2103  0.3019
 5436SOL    HW127944   0.686   3.396   5.155 -0.3685 -1.5770  1.1932
 5436SOL    HW227945   0.716   3.430   5.017 -0.2370 -0.0277 -0.7713
 5437SOL     OW27946   3.044   1.850  15.092  0.7629  0.6787  0.5603
 5437SOL    HW127947   3.026   1.944  15.094 -1.8416  0.1934  0.3042
 5437SOL    HW227948   3.138   1.861  15.100  1.0857  0.0295 -2.5335
 5438SOL     OW27949   4.499   0.792   6.968  0.4159  0.1960 -0.7714
 5438SOL    HW127950   4.484   0.761   6.878  0.2838  0.1867 -0.7458
 5438SOL    HW227951   4.476   0.884   6.957 -1.7973 -0.2343  0.3670
 5439SOL     OW27952   3.945   3.393   4.254 -0.2598  0.1171  0.3341
 5439SOL    HW127953   3.867   3.448   4.263  0.4887  1.2582 -0.1991
 5439SOL    HW227954   3.929   3.340   4.332 -0.6727  1.9414  1.4805
 5440SOL     OW27955   2.891   2.493   0.237  0.1401 -0.9221  0.6094
 5440SOL    HW127956   2.977   2.500   0.196 -0.1826  1.1518  0.2726
 5440SOL    HW227957   2.857   2.406   0.215 -0.4414 -0.4173 -0.4613
 5441SOL     OW27958   1.808   3.711   6.895  0.0378  0.1494  0.1502
 5441SOL    HW127959   1.881   3.740   6.840 -0.9849 -1.5729 -2.1310
 5441SOL    HW227960   1.793   3.792   6.944  1.1086  1.3903 -1.5248
 5442SOL     OW27961   1.920   2.588   6.737 -0.3199  0.0551  0.4731
 5442SOL    HW127962   1.897   2.552   6.823 -1.0267 -2.2453 -0.6714
 5442SOL    HW227963   1.867   2.537   6.675  2.8775 -2.0795 -0.5070
 5443SOL     OW27964   2.337   4.354   3.543  0.4391 -0.5079 -0.3053
 5443SOL    HW127965   2.294   4.400   3.470 -0.2206 -0.8658 -0.1390
 5443SOL    HW227966   2.408   4.310   3.495  0.8169 -1.0443  0.7390
 5444SOL     OW27967   3.608   4.591  16.562  0.5017 -0.1451  0.2605
 5444SOL    HW127968   3.578   4.609  16.651 -0.2248 -2.0421  0.4092
 5444SOL    HW227969   3.597   4.496  16.557 -1.8466  0.0882  1.0161
 5445SOL     OW27970   3.095   0.776  12.640  0.3968 -0.0460  0.5957
 5445SOL    HW127971   3.130   0.696  12.679  0.2540 -1.3652 -2.0126
 5445SOL    HW227972   3.114   0.745  12.552 -0.9706  1.1703 -0.1327
 5446SOL     OW27973   1.641   2.134  10.036 -0.8425  0.7227 -0.2558
 5446SOL    HW127974   1.579   2.063  10.016 -1.1809  1.4379 -1.7769
 5446SOL    HW227975   1.607   2.170  10.118 -0.9810 -0.5723  0.2543
 5447SOL     OW27976   0.491   4.510  11.629 -0.2577 -0.2756  0.2701
 5447SOL    HW127977   0.484   4.423  11.670 -2.0482 -0.6526 -0.8581
 5447SOL    HW227978   0.539   4.489  11.549  1.9524 -0.7311  1.7011
 5448SOL     OW27979   1.641   1.105   5.057  0.6048  0.2378  0.4134
 5448SOL    HW127980   1.655   1.198   5.039 -0.9923  0.5371  0.6792
 5448SOL    HW227981   1.579   1.110   5.130  2.2030  0.4615  1.7503
 5449SOL     OW27982   1.457   3.143   8.762 -0.3568 -0.3105 -0.8323
 5449SOL    HW127983   1.461   3.116   8.854 -1.0345  0.2413 -0.6411
 5449SOL    HW227984   1.549   3.152   8.738  0.0784 -0.6078  0.6728
 5450SOL     OW27985   3.491   2.000   4.971  0.3117 -0.1608 -0.2385
 5450SOL    HW127986   3.545   2.026   4.896  1.5304  1.1084  1.0846
 5450SOL    HW227987   3.435   1.932   4.933  0.4806 -0.8048  0.6534
 5451SOL     OW27988   2.186   0.436   4.735  0.1630  0.3629 -0.7518
 5451SOL    HW127989   2.105   0.432   4.684  0.0844 -0.1114 -0.5936
 5451SOL    HW227990   2.155   0.432   4.826  0.5307 -0.1468 -0.6493
 5452SOL     OW27991   2.598   2.878   4.717  0.4509  0.0449  0.3836
 5452SOL    HW127992   2.663   2.811   4.695  0.1021 -0.1081 -0.1580
 5452SOL    HW227993   2.526   2.823   4.747  0.2760  0.6624  1.1014
 5453SOL     OW27994   0.360   0.948  16.198 -0.0893 -0.1713 -0.2045
 5453SOL    HW127995   0.432   1.007  16.176 -0.6534  0.3138 -0.7577
 5453SOL    HW227996   0.313   1.008  16.255  1.4229  0.7664  0.0380
 5454SOL     OW27997   1.819   4.553   3.380  0.2759  0.3826  0.2914
 5454SOL    HW127998   1.759   4.479   3.395  0.2755  0.2185 -0.4940
 5454SOL    HW227999   1.772   4.630   3.413  0.4984  1.3849 -1.7373
 5455SOL     OW28000   2.453   0.037   8.402 -0.2012 -0.4712 -1.2039
 5455SOL    HW128001   2.521   0.068   8.343  2.0014  1.0654  2.1401
 5455SOL    HW228002   2.491   0.058   8.487 -2.5625 -0.5018 -0.1401
 5456SOL     OW28003   3.097   0.645   1.809  0.0161 -0.2031  0.1471
 5456SOL    HW128004   3.163   0.715   1.817  0.7108 -1.0475  1.7242
 5456SOL    HW228005   3.153   0.567   1.814 -1.6424 -1.3332  0.8275
 5457SOL     OW28006   0.729   2.993   5.800 -0.4254 -0.1728 -0.2274
 5457SOL    HW128007   0.765   2.956   5.719 -0.7707  0.6910 -0.7791
 5457SOL    HW228008   0.760   3.084   5.794 -1.0896  0.0936  0.3960
 5458SOL     OW28009   0.182   1.632   8.338 -0.4316 -0.0114 -0.3893
 5458SOL    HW128010   0.231   1.613   8.418  0.1628 -0.1189 -0.7820
 5458SOL    HW228011   0.108   1.572   8.342  0.1088 -0.6888 -0.5826
 5459SOL     OW28012   2.406   3.943   3.977  0.0654  0.3076  0.1624
 5459SOL    HW128013   2.362   3.908   4.054 -2.2098  0.0557 -1.2353
 5459SOL    HW228014   2.475   3.989   4.025 -0.1819  0.1482  0.6742
 5460SOL     OW28015   1.247   4.637   7.440 -0.2490  0.2628  0.3184
 5460SOL    HW128016   1.175   4.700   7.429 -0.7822 -0.3330  0.3496
 5460SOL    HW228017   1.291   4.645   7.356  0.3140 -0.9395  0.5026
 5461SOL     OW28018   2.129   0.388   8.393 -0.1304  0.4179 -0.3432
 5461SOL    HW128019   2.191   0.362   8.461 -0.4645  1.4705  0.3740
 5461SOL    HW228020   2.131   0.483   8.408 -2.8300  0.4434 -0.2412
 5462SOL     OW28021   1.389   0.266   6.139 -0.4314  0.3656  0.2937
 5462SOL    HW128022   1.439   0.335   6.094  1.0349  0.0412  1.4076
 5462SOL    HW228023   1.373   0.319   6.217 -0.7151 -0.1669  0.5973
 5463SOL     OW28024   1.336   2.151   6.078  0.9108 -0.5874 -0.4680
 5463SOL    HW128025   1.263   2.107   6.034  0.4703  0.9379 -1.2772
 5463SOL    HW228026   1.354   2.093   6.151 -0.5240 -1.1027 -0.5274
 5464SOL     OW28027   2.856   1.597   5.136  0.8295 -0.4884 -0.3345
 5464SOL    HW128028   2.827   1.638   5.055  1.6028  1.2387  0.2651
 5464SOL    HW228029   2.878   1.673   5.190 -0.7768  0.3968 -0.9086
 5465SOL     OW28030   3.681   3.524   2.478 -0.4901 -0.5535 -0.0332
 5465SOL    HW128031   3.677   3.565   2.564  2.7664 -0.8857  0.2781
 5465SOL    HW228032   3.763   3.560   2.445 -1.0123  2.1749  1.6448
 5466SOL     OW28033   3.810   2.135  14.889 -0.2623  0.2655 -0.1998
 5466SOL    HW128034   3.768   2.089  14.962  1.8094 -1.2048  0.0929
 5466SOL    HW228035   3.742   2.125  14.822 -1.3985 -2.2554  1.3145
 5467SOL     OW28036   1.748   1.053   1.928  0.2959  0.0316  0.8704
 5467SOL    HW128037   1.758   0.974   1.980  0.7602  0.8532  2.0305
 5467SOL    HW228038   1.815   1.112   1.963  0.2242  1.0047 -0.6318
 5468SOL     OW28039   3.706   3.915   4.075 -0.3829  0.5045  0.1336
 5468SOL    HW128040   3.752   3.837   4.106  1.5778  0.6901 -2.2501
 5468SOL    HW228041   3.628   3.908   4.129 -0.3747 -0.6489 -0.0045
 5469SOL     OW28042   1.657   0.879   5.704  0.7615  0.6469  0.5582
 5469SOL    HW128043   1.605   0.861   5.626 -0.4485 -1.0787  1.7932
 5469SOL    HW228044   1.727   0.819   5.678 -0.0055 -0.5585  1.3101
 5470SOL     OW28045   1.817   3.036   5.835  0.1981  0.0004  0.1160
 5470SOL    HW128046   1.752   3.021   5.765  0.3493 -0.8829  0.1723
 5470SOL    HW228047   1.847   2.949   5.857  0.3283  0.6714  2.5210
 5471SOL     OW28048   0.018   2.237   5.291  0.4986 -0.0089  0.5851
 5471SOL    HW128049   0.077   2.282   5.230  0.2454 -0.1818  0.2194
 5471SOL    HW228050   4.680   2.298   5.297  2.2947  2.5547 -3.2811
 5472SOL     OW28051   3.739   0.099   3.686  0.4365  0.3562 -0.5745
 5472SOL    HW128052   3.819   0.065   3.727 -0.3744  2.3808  2.7386
 5472SOL    HW228053   3.746   0.193   3.700  0.3199  0.3363 -0.3843
 5473SOL     OW28054   3.306   4.200   1.598 -0.4030 -0.0454  0.3164
 5473SOL    HW128055   3.214   4.209   1.623 -0.3773 -0.5490  0.5970
 5473SOL    HW228056   3.290   4.138   1.527 -0.6676 -1.8174  1.9183
 5474SOL     OW28057   3.866   4.195  15.603  0.5805  0.0665  0.1753
 5474SOL    HW128058   3.839   4.280  15.637 -0.2096  0.5208 -1.6181
 5474SOL    HW228059   3.785   4.152  15.574  0.3795  1.3153 -1.1095
 5475SOL     OW28060   4.150   1.103   5.762  0.0061 -0.2519  0.6910
 5475SOL    HW128061   4.070   1.155   5.763 -0.0774 -0.3820  0.8216
 5475SOL    HW228062   4.180   1.107   5.853  2.5905 -0.2331 -0.1455
 5476SOL     OW28063   1.110   2.977  14.362  0.0374 -0.6439  0.5675
 5476SOL    HW128064   1.068   3.061  14.386 -1.2000 -1.6200  1.8409
 5476SOL    HW228065   1.107   2.992  14.268 -0.1369 -0.2170  0.6396
 5477SOL     OW28066   1.507   0.834   5.205 -0.3758 -0.7068  0.5816
 5477SOL    HW128067   1.501   0.930   5.206  1.0239 -0.6031 -1.5044
 5477SOL    HW228068   1.437   0.814   5.142 -0.1190  0.4961 -0.0853
 5478SOL     OW28069   0.831   2.271   9.730  0.3176 -0.0200 -0.9275
 5478SOL    HW128070   0.836   2.186   9.686 -1.3760  0.1638 -1.4502
 5478SOL    HW228071   0.922   2.296   9.746 -0.0139  1.2666 -1.0623
 5479SOL     OW28072   0.776   2.033  13.539  0.7069  0.8076 -0.3735
 5479SOL    HW128073   0.725   1.956  13.515  0.4432  0.3277  1.7450
 5479SOL    HW228074   0.728   2.098  13.487 -0.0026  1.0627  0.5998
 5480SOL     OW28075   3.408   4.557   4.202  0.7984  0.3697  0.0621
 5480SOL    HW128076   3.366   4.588   4.122  2.2684  0.9431 -0.4967
 5480SOL    HW228077   3.409   4.463   4.185  2.5542 -0.3229  4.1248
 5481SOL     OW28078   1.925   2.433   5.128  0.6054  0.2192 -0.0289
 5481SOL    HW128079   1.842   2.461   5.167 -0.2929 -3.3200  0.5266
 5481SOL    HW228080   1.903   2.435   5.035 -1.4659 -0.2327  0.4406
 5482SOL     OW28081   0.214   3.168  11.388 -0.0146  0.5331  0.0156
 5482SOL    HW128082   0.194   3.075  11.390  3.4963 -0.2346 -0.7920
 5482SOL    HW228083   0.140   3.195  11.442  1.0560 -0.8774  2.1550
 5483SOL     OW28084   1.787   3.684   8.899  0.2188 -0.0433  0.0263
 5483SOL    HW128085   1.838   3.765   8.896 -0.0812  0.1881  0.9869
 5483SOL    HW228086   1.715   3.715   8.844  0.5685  1.5198  0.4361
 5484SOL     OW28087   0.429   3.150  13.876  0.1748  0.1644  0.2716
 5484SOL    HW128088   0.490   3.089  13.835  0.1858  0.5514 -0.2884
 5484SOL    HW228089   0.368   3.163  13.803 -0.7534  0.2554  1.0581
 5485SOL     OW28090   2.350   4.270   4.163  0.2976 -0.0556 -0.5282
 5485SOL    HW128091   2.413   4.255   4.092  0.6469 -1.3035  0.0477
 5485SOL    HW228092   2.325   4.358   4.133  0.1734  0.1579  0.2147
 5486SOL     OW28093   3.282   1.913   8.068  0.1155 -0.2031  0.5509
 5486SOL    HW128094   3.278   1.995   8.019  0.2878 -0.9396 -0.7081
 5486SOL    HW228095   3.234   1.847   8.018 -1.2303  0.3276  1.1488
 5487SOL     OW28096   2.392   2.184  16.880  0.3335 -0.0860 -0.1005
 5487SOL    HW128097   2.366   2.187  16.788  1.8665 -4.3103 -0.6439
 5487SOL    HW228098   2.487   2.188  16.867  0.1569  0.1999 -1.2757
 5488SOL     OW28099   2.243   3.545   9.807  0.6636  0.2194  0.0654
 5488SOL    HW128100   2.263   3.534   9.900 -1.0378  1.0408  0.5327
 5488SOL    HW228101   2.249   3.452   9.785 -0.7212 -0.1942  1.4514
 5489SOL     OW28102   3.352   3.672  10.869  0.3570 -0.1265  0.3542
 5489SOL    HW128103   3.351   3.614  10.793 -0.7070 -0.7026  0.8050
 5489SOL    HW228104   3.294   3.622  10.926  0.5313 -1.1006 -0.3148
 5490SOL     OW28105   0.175   2.627   4.360  0.1238  0.2898 -0.2712
 5490SOL    HW128106   0.247   2.606   4.419  0.3438  1.2647 -0.1933
 5490SOL    HW228107   0.109   2.653   4.425 -0.3639  0.1430 -0.7093
 5491SOL     OW28108   3.088   1.298   4.222 -0.3635  0.4514 -0.4965
 5491SOL    HW128109   3.135   1.236   4.277 -0.2087  0.7681 -0.2662
 5491SOL    HW228110   3.001   1.269   4.249  1.0231 -3.6613 -0.5678
 5492SOL     OW28111   2.525   0.614   9.405 -0.3180 -0.1839  0.1658
 5492SOL    HW128112   2.615   0.638   9.385 -0.2111 -1.4959 -0.9119
 5492SOL    HW228113   2.518   0.521   9.424 -0.1997 -0.7787 -2.6845
 5493SOL     OW28114   0.744   2.213   3.953 -0.0341 -0.0103 -0.3757
 5493SOL    HW128115   0.697   2.296   3.962 -0.3146 -0.1885 -0.2041
 5493SOL    HW228116   0.756   2.205   3.858  0.4975  1.8673 -0.4732
 5494SOL     OW28117   4.705   4.514   9.437 -0.0214  0.3994  0.1242
 5494SOL    HW128118   4.678   4.602   9.411  0.0737  0.1810 -0.6957
 5494SOL    HW228119   4.624   4.463   9.434 -0.4069  1.0745 -0.7698
 5495SOL     OW28120   3.587   3.392  14.683  0.9794  0.0893  0.0260
 5495SOL    HW128121   3.506   3.345  14.703  1.6589 -1.4033 -0.7239
 5495SOL    HW228122   3.656   3.328  14.696 -0.7659 -1.3997  1.9800
 5496SOL     OW28123   3.057   2.522  11.728 -0.1659  0.3240  0.1482
 5496SOL    HW128124   3.063   2.601  11.781  1.4404  0.7240 -0.6322
 5496SOL    HW228125   3.148   2.491  11.731  0.6378  2.5058 -1.6286
 5497SOL     OW28126   3.355   0.159   0.831 -0.0412  0.2153 -0.1108
 5497SOL    HW128127   3.263   0.163   0.802 -0.0104  0.1123 -0.2231
 5497SOL    HW228128   3.355   0.065   0.847 -1.1729  0.1300 -0.6112
 5498SOL     OW28129   2.922   0.301   9.532  0.2244  0.2963  0.3676
 5498SOL    HW128130   2.855   0.267   9.471  0.9950 -0.1653 -0.2177
 5498SOL    HW228131   2.941   0.221   9.581  0.2467  0.4260  0.5723
 5499SOL     OW28132   2.382   0.300   1.356 -0.1693  0.1457  0.0391
 5499SOL    HW128133   2.346   0.247   1.285  2.9067  0.0953 -1.4741
 5499SOL    HW228134   2.458   0.247   1.377 -1.1524 -0.7198  1.4278
 5500SOL     OW28135   4.239   3.197   8.493  0.0958  0.0788  0.2175
 5500SOL    HW128136   4.169   3.257   8.466 -1.4822 -1.7512  0.2646
 5500SOL    HW228137   4.257   3.245   8.574  2.2606 -2.3693  1.1829
 5501SOL     OW28138   2.952   0.189   5.582  0.0820 -0.2427 -0.0669
 5501SOL    HW128139   2.910   0.271   5.606  1.1714 -0.1869  1.6196
 5501SOL    HW228140   3.044   0.215   5.587  0.0036 -0.3853  1.9961
 5502SOL     OW28141   1.224   4.344   4.551 -0.5867 -0.3894  0.3770
 5502SOL    HW128142   1.187   4.262   4.517 -0.2439 -0.6798  0.7001
 5502SOL    HW228143   1.247   4.318   4.641  0.3931 -0.5603  0.0822
 5503SOL     OW28144   3.128   1.209   2.928 -0.0024 -0.4536 -0.4417
 5503SOL    HW128145   3.052   1.201   2.986  1.1487 -1.2322  0.9619
 5503SOL    HW228146   3.174   1.130   2.952  0.5923 -0.0583 -0.2845
 5504SOL     OW28147   1.008   2.935   4.913  0.0387 -0.1709 -0.1339
 5504SOL    HW128148   0.950   2.892   4.976 -1.3620 -1.3791 -2.2767
 5504SOL    HW228149   0.948   3.004   4.882  0.1130  1.0819  2.4949
 5505SOL     OW28150   4.460   3.962   1.629 -0.3243 -0.2050  0.2286
 5505SOL    HW128151   4.417   4.042   1.599 -2.3871 -2.3481 -2.4401
 5505SOL    HW228152   4.418   3.944   1.713  0.1701 -2.3320  0.0319
 5506SOL     OW28153   4.330   0.012   1.676 -0.1157 -0.4958 -0.2892
 5506SOL    HW128154   4.297   0.091   1.633 -1.1795 -1.6571 -1.6191
 5506SOL    HW228155   4.253   4.696   1.700 -0.0464  0.0148  1.0255
 5507SOL     OW28156   4.013   1.712   7.071  0.2552  0.0738 -0.1828
 5507SOL    HW128157   4.014   1.764   6.990  2.7632  0.0022 -0.2008
 5507SOL    HW228158   4.043   1.777   7.134 -0.5593  0.9653 -0.7075
 5508SOL     OW28159   4.271   0.292   5.101 -0.1569 -0.6927 -0.2022
 5508SOL    HW128160   4.204   0.328   5.043  1.3668  0.4661 -1.2696
 5508SOL    HW228161   4.350   0.288   5.047 -1.1109  2.0022 -1.8106
 5509SOL     OW28162   3.898   0.601   4.660  0.4473  0.1428 -0.0027
 5509SOL    HW128163   3.935   0.574   4.577 -0.9906  1.7993 -1.2009
 5509SOL    HW228164   3.868   0.687   4.628 -0.5132 -0.0715  0.3072
 5510SOL     OW28165   0.877   4.439   1.350  0.7708  0.4546 -0.2374
 5510SOL    HW128166   0.954   4.474   1.395  0.7358  1.1367 -0.7097
 5510SOL    HW228167   0.900   4.416   1.259  2.2744 -0.2610  0.3177
 5511SOL     OW28168   3.295   4.608   8.335  0.2891 -0.0153 -0.3124
 5511SOL    HW128169   3.225   4.566   8.286  0.8109 -1.7374  0.4368
 5511SOL    HW228170   3.267   4.694   8.303  1.2511  0.8128  1.0809
 5512SOL     OW28171   1.616   3.579  14.769 -0.6924 -0.2167  0.0048
 5512SOL    HW128172   1.586   3.639  14.701 -1.0288 -2.8734 -2.1915
 5512SOL    HW228173   1.576   3.614  14.848 -0.1064  0.2898  0.0799
 5513SOL     OW28174   0.809   4.010   5.519 -0.2885 -0.7516 -0.2820
 5513SOL    HW128175   0.898   4.027   5.487 -0.6204 -1.5579 -1.6612
 5513SOL    HW228176   0.759   4.042   5.443 -3.3542 -3.4973  0.5924
 5514SOL     OW28177   3.322   4.348   5.942 -0.7052 -0.1344  0.3055
 5514SOL    HW128178   3.396   4.409   5.932  1.1953 -2.2078  1.8464
 5514SOL    HW228179   3.316   4.308   5.855 -1.2563 -0.7260  0.6221
 5515SOL     OW28180   0.060   2.906   3.487 -0.3852 -0.1770  0.0572
 5515SOL    HW128181   0.092   2.996   3.481 -0.0393 -0.4011 -1.5395
 5515SOL    HW228182   4.700   2.907   3.486 -0.4150 -2.2121 -0.2761
 5516SOL     OW28183   0.356   0.328   9.086 -0.4145  0.5329  0.3194
 5516SOL    HW128184   0.414   0.268   9.132 -1.6391 -0.9506 -0.0993
 5516SOL    HW228185   0.420   0.399   9.074  0.1422  0.1627  1.1160
 5517SOL     OW28186   0.556   0.819   4.634 -0.1693  0.1578 -0.0001
 5517SOL    HW128187   0.547   0.825   4.539  0.3611 -1.1091 -0.1261
 5517SOL    HW228188   0.635   0.871   4.645 -0.3485  0.5815 -0.7012
 5518SOL     OW28189   3.891   0.248   8.040 -0.0993  0.0953 -0.1667
 5518SOL    HW128190   3.952   0.251   8.114 -1.4636  0.5293  0.9338
 5518SOL    HW228191   3.957   0.245   7.970 -3.3127 -1.3549 -3.1458
 5519SOL     OW28192   3.808   4.731   0.845 -0.1676  0.7378 -0.0466
 5519SOL    HW128193   3.844   4.711   0.758 -0.2308 -0.2819  0.1580
 5519SOL    HW228194   3.793   0.090   0.838 -2.5901  0.1725 -2.3856
 5520SOL     OW28195   4.246   4.465   7.731 -0.1292  0.1698  0.0912
 5520SOL    HW128196   4.246   4.442   7.638  0.7108 -0.7253  0.3079
 5520SOL    HW228197   4.189   4.541   7.730  1.2099  1.1591 -0.8323
 5521SOL     OW28198   3.803   4.063   5.929 -0.4121 -0.1148 -0.8145
 5521SOL    HW128199   3.824   4.043   5.837  0.9990 -2.8260  0.0877
 5521SOL    HW228200   3.879   4.021   5.969 -0.9689 -0.2373  0.0926
 5522SOL     OW28201   1.116   1.804   1.264 -0.1259  0.0774  0.7896
 5522SOL    HW128202   1.078   1.726   1.304 -0.9339  0.4523  0.7511
 5522SOL    HW228203   1.074   1.806   1.178  2.0010  1.2382 -0.2242
 5523SOL     OW28204   4.312   3.968   1.903  0.5057 -0.2232  0.1546
 5523SOL    HW128205   4.253   4.033   1.938  0.8183 -0.4052  1.0139
 5523SOL    HW228206   4.390   3.978   1.957 -0.9844  1.2865  2.0157
 5524SOL     OW28207   3.483   1.289   8.289  0.5223 -0.3420 -0.3449
 5524SOL    HW128208   3.452   1.273   8.200  1.3915  0.0603 -0.7175
 5524SOL    HW228209   3.432   1.218   8.326  0.0772 -0.4838 -1.2189
 5525SOL     OW28210   4.663   0.504  15.848 -0.3733  0.0553 -0.2782
 5525SOL    HW128211   4.629   0.523  15.760  0.0217 -1.4227 -0.7465
 5525SOL    HW228212   4.679   0.410  15.842 -2.3866 -0.1371 -2.8570
 5526SOL     OW28213   0.148   2.267  12.853  0.1368 -0.1054 -0.4039
 5526SOL    HW128214   0.192   2.308  12.778  1.2653 -1.9988 -0.7958
 5526SOL    HW228215   0.100   2.344  12.883 -0.2817  0.3192 -2.1449
 5527SOL     OW28216   3.656   2.863   5.273  0.6978 -0.2009 -0.3860
 5527SOL    HW128217   3.636   2.952   5.246  0.6135 -0.0973  0.0284
 5527SOL    HW228218   3.726   2.875   5.338 -1.1839  0.5225  1.4892
 5528SOL     OW28219   3.740   3.991   3.474  0.0797  0.3344 -0.3910
 5528SOL    HW128220   3.768   4.065   3.529 -1.3730 -0.0519  0.8696
 5528SOL    HW228221   3.763   3.919   3.533  0.1817  1.1623  0.5828
 5529SOL     OW28222   4.056   1.572   4.892  0.0317 -0.0610 -0.3504
 5529SOL    HW128223   4.085   1.491   4.850  0.1828  0.6015 -1.4979
 5529SOL    HW228224   3.963   1.554   4.908 -0.4810  0.8416 -2.4126
 5530SOL     OW28225   4.641   0.005   7.953 -0.8161  0.4007 -0.7120
 5530SOL    HW128226   4.596   4.694   7.882  1.7161  0.0304 -2.0649
 5530SOL    HW228227   4.613   4.689   8.029  2.1675 -0.6273 -0.3075
 5531SOL     OW28228   1.400   1.271   3.308  0.3450 -0.2309 -0.5148
 5531SOL    HW128229   1.345   1.194   3.293 -0.7878  0.4043  0.4399
 5531SOL    HW228230   1.482   1.240   3.269  0.3754  0.2089 -0.8116
 5532SOL     OW28231   2.099   0.260   3.199 -0.8289  0.1363 -0.1182
 5532SOL    HW128232   2.148   0.335   3.234  1.8482 -2.1803  1.1333
 5532SOL    HW228233   2.134   0.187   3.250  0.9707 -0.6005 -2.4422
 5533SOL     OW28234   3.103   1.583   0.847 -0.1771 -0.3257 -0.4427
 5533SOL    HW128235   3.071   1.507   0.798  1.2048  0.7283 -2.9858
 5533SOL    HW228236   3.189   1.576   0.807 -0.5998  2.0258 -1.7279
 5534SOL     OW28237   4.032   3.984  15.615  0.9109 -0.4283 -0.0780
 5534SOL    HW128238   4.017   3.955  15.705  0.2664  0.6871  0.1809
 5534SOL    HW228239   3.971   4.057  15.605 -1.4313 -2.5346 -1.1800
 5535SOL     OW28240   3.107   4.373  10.020 -0.5590 -0.1991  0.2438
 5535SOL    HW128241   3.103   4.410  10.108  2.2804 -1.1359  0.7862
 5535SOL    HW228242   3.194   4.410  10.001 -0.4545 -0.0664  0.9744
 5536SOL     OW28243   2.691   3.352   2.522 -0.1208  0.4544  0.1540
 5536SOL    HW128244   2.605   3.359   2.564  1.1604  2.9379  2.3943
 5536SOL    HW228245   2.694   3.256   2.520  0.7653  0.4181  2.1111
 5537SOL     OW28246   0.254   4.149   8.212 -0.2373  0.4655  0.7384
 5537SOL    HW128247   0.290   4.215   8.154 -0.3132 -0.6418 -0.5700
 5537SOL    HW228248   0.191   4.106   8.154 -1.8062  0.1754  2.6612
 5538SOL     OW28249   3.584   4.061  15.582  0.4999 -0.5306 -0.2319
 5538SOL    HW128250   3.592   4.104  15.497  0.7723  0.4101  0.2595
 5538SOL    HW228251   3.498   4.087  15.616  0.8564 -0.2485  0.4726
 5539SOL     OW28252   3.699   3.878   9.211 -0.0066 -0.1112 -0.1300
 5539SOL    HW128253   3.742   3.811   9.158 -1.3735 -0.6762 -0.5153
 5539SOL    HW228254   3.620   3.834   9.240  0.8654 -0.8902  1.0614
 5540SOL     OW28255   1.320   1.189   5.902 -0.0940  0.1562 -0.3282
 5540SOL    HW128256   1.365   1.246   5.965 -2.3882 -0.8782  2.2348
 5540SOL    HW228257   1.391   1.131   5.875  2.1286  3.0330 -0.7018
 5541SOL     OW28258   2.582   3.377   5.921  0.0400  0.8095 -0.0610
 5541SOL    HW128259   2.604   3.297   5.873 -0.1145 -0.5360  2.1058
 5541SOL    HW228260   2.619   3.360   6.008 -0.0768  2.6606  0.3610
 5542SOL     OW28261   0.561   4.527   6.574  1.1411 -0.4318  0.2084
 5542SOL    HW128262   0.630   4.488   6.627 -2.0503 -3.1340  2.2913
 5542SOL    HW228263   0.547   4.446   6.525  0.3265 -0.9507  1.3154
 5543SOL     OW28264   3.854   0.950   1.349 -0.1059  0.1956  0.0567
 5543SOL    HW128265   3.777   0.976   1.400  0.5566  1.1850  0.5188
 5543SOL    HW228266   3.810   0.923   1.268 -0.9815 -0.4639  0.7549
 5544SOL     OW28267   1.093   4.519   1.520  0.0242  0.2302 -0.5209
 5544SOL    HW128268   1.180   4.556   1.512 -0.9341  2.6831  0.5902
 5544SOL    HW228269   1.041   4.566   1.584  1.0050 -0.4915  0.8086
 5545SOL     OW28270   4.362   4.054   7.955  0.4394  0.3504 -0.6436
 5545SOL    HW128271   4.373   4.112   7.879  2.1365 -0.5917 -1.0914
 5545SOL    HW228272   4.445   4.035   7.998 -0.5721 -0.1662  1.0535
 5546SOL     OW28273   2.990   1.583   7.722 -0.0098 -0.1171 -0.0388
 5546SOL    HW128274   2.955   1.653   7.667  0.8998 -0.0969 -0.5853
 5546SOL    HW228275   3.000   1.634   7.803 -1.9165 -0.7435  0.6053
 5547SOL     OW28276   4.014   0.805   3.700  0.1489 -0.3827  0.3594
 5547SOL    HW128277   3.993   0.795   3.607  0.5633 -1.7219  0.4064
 5547SOL    HW228278   4.009   0.715   3.734  1.2596 -0.7193 -0.3415
 5548SOL     OW28279   1.459   4.087   3.539  0.1023  0.1577  0.6138
 5548SOL    HW128280   1.496   4.175   3.532  1.3505 -0.3854  0.5303
 5548SOL    HW228281   1.489   4.033   3.466 -0.6271  0.1494  0.3217
 5549SOL     OW28282   3.336   3.255   9.400  0.8239  0.0834  0.4415
 5549SOL    HW128283   3.381   3.172   9.412 -0.4089 -0.6498  0.0253
 5549SOL    HW228284   3.243   3.230   9.395  1.1996 -1.1042 -0.6463
 5550SOL     OW28285   2.114   2.829   5.448  0.1128 -0.1108  0.5136
 5550SOL    HW128286   2.200   2.861   5.474  0.1464  0.3023 -0.1060
 5550SOL    HW228287   2.056   2.902   5.467  0.3335  0.3978 -0.7996
 5551SOL     OW28288   4.635   3.205   6.213  0.5137 -0.0003 -0.0048
 5551SOL    HW128289   4.720   3.247   6.226 -0.1039  1.4272 -0.6216
 5551SOL    HW228290   4.645   3.196   6.119 -1.6927  1.6163 -0.3769
 5552SOL     OW28291   0.077   0.054   6.863 -0.1052  0.0409  0.5479
 5552SOL    HW128292   0.027   0.130   6.836 -1.6070 -1.3346 -0.5567
 5552SOL    HW228293   0.066   0.058   6.958  2.7509 -1.6125  0.9688
 5553SOL     OW28294   1.024   1.737   0.266  0.3948  0.0157 -0.0076
 5553SOL    HW128295   0.991   1.661   0.218 -0.4802  1.4801 -1.7094
 5553SOL    HW228296   0.961   1.806   0.250  0.4445 -0.2094 -1.1665
 5554SOL     OW28297   0.169   0.310   5.676  0.0964 -0.3361 -0.0103
 5554SOL    HW128298   0.214   0.257   5.741  0.2098  1.0612  1.0549
 5554SOL    HW228299   0.242   0.330   5.617  0.5671 -0.9949  0.3603
 5555SOL     OW28300   1.165   1.756  12.668  0.0704 -0.2718 -0.9841
 5555SOL    HW128301   1.225   1.684  12.646  0.1748 -0.8373  1.1157
 5555SOL    HW228302   1.085   1.706  12.685 -0.3892  0.9962  0.5615
 5556SOL     OW28303   4.087   0.270   8.800 -0.0849 -0.0074 -0.2949
 5556SOL    HW128304   4.003   0.298   8.836  0.0207  1.8138 -1.4260
 5556SOL    HW228305   4.144   0.342   8.825  0.4709  0.1518 -1.9903
 5557SOL     OW28306   2.581   1.231   8.229  0.3083  0.2486  0.2941
 5557SOL    HW128307   2.507   1.246   8.288 -0.7295 -2.3512 -0.3323
 5557SOL    HW228308   2.642   1.271   8.291 -0.2478  2.8402 -0.8495
 5558SOL     OW28309   0.931   4.345   5.521 -0.1136  0.1104 -0.1492
 5558SOL    HW128310   0.930   4.364   5.615 -0.2878 -0.4109 -0.0466
 5558SOL    HW228311   0.971   4.258   5.523  1.5271  0.8950  0.8320
 5559SOL     OW28312   1.247   3.816  14.683 -0.4225 -0.2944  0.3108
 5559SOL    HW128313   1.189   3.810  14.759 -1.5719  0.0604 -0.5403
 5559SOL    HW228314   1.191   3.767  14.622  1.0988  0.0223 -1.3201
 5560SOL     OW28315   3.798   4.401   7.041 -0.0128  0.1408  0.2555
 5560SOL    HW128316   3.723   4.386   7.100 -1.3281  1.0768 -1.1632
 5560SOL    HW228317   3.817   4.313   7.009 -0.8833 -0.2119  0.6991
 5561SOL     OW28318   0.096   3.407   1.811 -0.1604  0.2095  0.3781
 5561SOL    HW128319   0.009   3.436   1.836 -0.2790 -1.1969  1.5919
 5561SOL    HW228320   0.104   3.324   1.858  0.0220  0.3044  0.5167
 5562SOL     OW28321   4.510   0.076   6.337  0.7738  0.1312  0.9551
 5562SOL    HW128322   4.441   0.133   6.302  0.7988 -1.1578 -1.2116
 5562SOL    HW228323   4.490   0.088   6.430  1.7039  1.9976  0.9218
 5563SOL     OW28324   2.544   4.659   6.555 -0.0231 -0.2172  0.2297
 5563SOL    HW128325   2.597   4.674   6.633 -0.1695  0.6394  0.1683
 5563SOL    HW228326   2.457   4.639   6.590 -0.0731  0.6004  0.5876
 5564SOL     OW28327   4.382   1.549   0.765 -0.3062  0.2311 -0.2676
 5564SOL    HW128328   4.430   1.556   0.683  0.8880 -0.2872  0.3726
 5564SOL    HW228329   4.314   1.486   0.744  1.5133 -1.4662 -1.1210
 5565SOL     OW28330   0.400   2.430  12.149  0.4642 -0.6426 -0.2997
 5565SOL    HW128331   0.420   2.469  12.064  2.3903 -0.0082  0.4530
 5565SOL    HW228332   0.469   2.461  12.207  1.7514 -2.4870 -0.8363
 5566SOL     OW28333   0.154   0.454   4.734  0.5096 -0.1167 -0.7875
 5566SOL    HW128334   0.124   0.447   4.824  0.8757  1.4768 -0.5399
 5566SOL    HW228335   0.237   0.501   4.732 -0.1042  0.9551 -1.0829
 5567SOL     OW28336   0.878   3.669   6.990  0.6857 -0.7604  0.2543
 5567SOL    HW128337   0.855   3.593   7.044  1.5896 -2.3813 -1.6662
 5567SOL    HW228338   0.799   3.721   6.974  0.9046 -0.4344  0.2311
 5568SOL     OW28339   2.703   1.349  16.569 -0.1415  0.1239 -0.7261
 5568SOL    HW128340   2.639   1.414  16.596  1.0670  0.5627  1.0826
 5568SOL    HW228341   2.646   1.297  16.511 -1.6775  0.0485  0.8371
 5569SOL     OW28342   4.246   1.407   8.511  0.4051  0.2643  0.3346
 5569SOL    HW128343   4.275   1.369   8.428 -0.2463  0.6433 -0.0690
 5569SOL    HW228344   4.281   1.345   8.574  0.4184 -2.2597 -2.1560
 5570SOL     OW28345   1.686   4.044   3.393 -0.0652 -0.2795  0.1770
 5570SOL    HW128346   1.722   4.075   3.310 -1.3902  0.1032 -0.2685
 5570SOL    HW228347   1.689   3.950   3.377 -0.3668 -0.5245  1.5656
 5571SOL     OW28348   0.308   4.702   7.848 -0.1962 -0.4302 -0.0771
 5571SOL    HW128349   0.319   4.626   7.791  0.8387 -1.9244  2.0845
 5571SOL    HW228350   0.251   4.669   7.917 -1.5366 -0.6628 -1.3133
 5572SOL     OW28351   0.213   3.487   8.981  0.2827 -0.6888  0.4659
 5572SOL    HW128352   0.136   3.450   8.937 -0.6950  0.9459  0.7972
 5572SOL    HW228353   0.232   3.565   8.930  0.3086  0.0465  1.5909
 5573SOL     OW28354   3.569   0.227  17.622  0.3660  0.6073 -0.1484
 5573SOL    HW128355   3.491   0.175  17.602  1.9600 -2.8398  2.8174
 5573SOL    HW228356   3.616   0.178  17.689  2.7464  2.5741 -0.3807
 5574SOL     OW28357   4.717   3.370   6.559  0.9468 -0.6696  0.0876
 5574SOL    HW128358   4.716   3.456   6.518 -1.4667 -1.1969 -0.9567
 5574SOL    HW228359   0.055   3.325   6.518  1.6222  0.2006  0.3401
 5575SOL     OW28360   2.530   0.288   7.074  0.2060  0.2941  0.0306
 5575SOL    HW128361   2.576   0.234   7.009  0.1607  0.1727  0.1003
 5575SOL    HW228362   2.604   0.336   7.111  0.7065 -0.1293 -0.4090
 5576SOL     OW28363   2.276   0.201   6.952 -0.1336  0.5000 -0.6133
 5576SOL    HW128364   2.278   0.286   6.908 -1.2360  0.2223 -1.1960
 5576SOL    HW228365   2.368   0.204   6.979 -0.1243  1.9447 -0.8096
 5577SOL     OW28366   1.316   0.920   6.958 -0.0596  0.2227 -0.1207
 5577SOL    HW128367   1.354   0.926   6.870 -0.8176  2.0806 -0.3166
 5577SOL    HW228368   1.388   0.969   6.998 -0.2875  0.8409 -0.4594
 5578SOL     OW28369   3.360   1.496   2.853  0.1603  0.1348 -0.5775
 5578SOL    HW128370   3.427   1.436   2.887  0.0551  0.6047  0.4529
 5578SOL    HW228371   3.347   1.464   2.764  0.3140  2.1952 -1.3334
 5579SOL     OW28372   0.851   3.608   7.691  0.6242  0.3366 -0.3995
 5579SOL    HW128373   0.845   3.563   7.775 -1.6981 -0.7418 -1.1493
 5579SOL    HW228374   0.940   3.584   7.665  0.6445  0.7612 -0.7188
 5580SOL     OW28375   2.065   2.678   8.196 -0.2400  0.2913 -0.1258
 5580SOL    HW128376   2.072   2.771   8.172  0.4867  0.7387  1.8543
 5580SOL    HW228377   2.150   2.644   8.169 -2.0934 -2.8515 -1.9761
 5581SOL     OW28378   0.218   3.003   1.868  0.2086 -0.2582  0.3685
 5581SOL    HW128379   0.167   3.075   1.906 -0.5072 -0.1116 -0.8534
 5581SOL    HW228380   0.300   3.051   1.858  0.3042 -0.7801 -1.2453
 5582SOL     OW28381   4.120   1.304  16.301 -0.3780  0.2149 -0.0042
 5582SOL    HW128382   4.092   1.322  16.211 -3.4645  1.6627  1.2357
 5582SOL    HW228383   4.180   1.377  16.317  0.0939 -0.3660  0.8707
 5583SOL     OW28384   0.001   0.667   8.423 -0.0345 -0.1225  0.2555
 5583SOL    HW128385   0.080   0.688   8.374  0.8577  0.1405  1.8348
 5583SOL    HW228386   0.025   0.591   8.476 -0.7459  0.3210  1.2183
 5584SOL     OW28387   4.289   0.168   7.834 -0.4492  0.2480  0.3612
 5584SOL    HW128388   4.305   0.152   7.927 -1.1863 -1.7797  0.1464
 5584SOL    HW228389   4.271   0.262   7.828  3.6118  1.0226  0.4652
 5585SOL     OW28390   1.525   1.002   4.427  0.1868  0.3608 -0.0340
 5585SOL    HW128391   1.517   0.921   4.478 -0.0343  0.9987  0.9586
 5585SOL    HW228392   1.464   1.058   4.475 -0.2555  0.2537 -0.4719
 5586SOL     OW28393   3.939   3.090   9.400 -0.1095 -0.6070  0.6855
 5586SOL    HW128394   3.921   3.013   9.454  1.1613 -1.0931  0.4164
 5586SOL    HW228395   3.868   3.143   9.437  0.2367  0.9991 -0.9359
 5587SOL     OW28396   3.478   2.875   6.954 -0.0990 -0.2198  0.0050
 5587SOL    HW128397   3.540   2.936   6.914  0.0628  0.6499  1.5658
 5587SOL    HW228398   3.459   2.923   7.035  0.9841 -1.0609  0.7571
 5588SOL     OW28399   3.258   1.710   8.601 -0.7524 -0.5023  0.2384
 5588SOL    HW128400   3.327   1.670   8.653 -0.5641 -1.3647 -0.6605
 5588SOL    HW228401   3.204   1.736   8.675 -1.6701 -0.5548 -0.4049
 5589SOL     OW28402   1.285   4.128   1.918  0.1606 -0.2466 -0.0442
 5589SOL    HW128403   1.227   4.203   1.912  1.9722  1.1279 -0.1615
 5589SOL    HW228404   1.347   4.161   1.853  1.5339  0.2074  1.5071
 5590SOL     OW28405   4.369   1.844   4.966  0.4745  0.4247 -0.1510
 5590SOL    HW128406   4.374   1.752   4.942 -1.6160  0.1606  0.4110
 5590SOL    HW228407   4.296   1.840   5.028  0.5449 -0.8854 -0.1598
 5591SOL     OW28408   1.845   1.491   5.402  0.0811  0.1392 -0.3366
 5591SOL    HW128409   1.935   1.461   5.387  0.8468  2.4651 -0.4388
 5591SOL    HW228410   1.838   1.557   5.334  3.2301  0.6394 -0.1848
 5592SOL     OW28411   3.519   2.728  15.393  1.0476 -0.0881  0.5478
 5592SOL    HW128412   3.605   2.769  15.401  1.1278  0.2627 -2.1086
 5592SOL    HW228413   3.522   2.658  15.458 -2.4628 -0.7640 -0.0545
 5593SOL     OW28414   1.752   3.144   2.110  0.9358 -0.0515 -0.3008
 5593SOL    HW128415   1.707   3.138   2.025  1.1768 -0.5216 -0.3908
 5593SOL    HW228416   1.827   3.197   2.081  1.8645  0.1998  2.6014
 5594SOL     OW28417   3.301   2.027  13.194 -0.3305  0.3978  0.1872
 5594SOL    HW128418   3.389   2.028  13.157 -0.2980 -2.0105  0.1828
 5594SOL    HW228419   3.249   1.963  13.145 -0.6188  1.1762 -0.5214
 5595SOL     OW28420   3.066   1.041   6.099  0.0944  0.0344 -0.0630
 5595SOL    HW128421   3.161   1.054   6.100  0.1915 -0.7110 -0.0157
 5595SOL    HW228422   3.022   1.125   6.114 -2.7940 -2.0676  3.0637
 5596SOL     OW28423   3.526   3.348  15.810  0.0965  0.3391  0.1185
 5596SOL    HW128424   3.534   3.348  15.906  0.3840  0.1803  0.0959
 5596SOL    HW228425   3.431   3.341  15.801 -0.0596  1.1274  1.0923
 5597SOL     OW28426   4.722   2.980   6.805  0.1191  0.5272  0.1827
 5597SOL    HW128427   0.036   3.060   6.823 -1.8679  2.1943 -1.7435
 5597SOL    HW228428   4.704   2.952   6.895  0.6370  0.9501  0.4189
 5598SOL     OW28429   1.059   3.996   6.886 -0.0302 -0.0757 -0.0361
 5598SOL    HW128430   1.019   3.963   6.805 -1.9240 -1.1345  1.3234
 5598SOL    HW228431   0.979   4.004   6.939 -1.2179  0.0693 -1.8377
 5599SOL     OW28432   1.667   1.351   4.735  0.1843  0.3794  0.7567
 5599SOL    HW128433   1.716   1.280   4.694 -3.0445  0.4330 -3.1714
 5599SOL    HW228434   1.605   1.384   4.669 -0.7522 -2.1346  0.3618
 5600SOL     OW28435   2.043   3.574  11.348  0.0497 -0.0731  0.0670
 5600SOL    HW128436   2.115   3.617  11.302  0.6188  1.3430  2.2562
 5600SOL    HW228437   2.034   3.624  11.430  0.8463 -0.4803  0.4074
 5601SOL     OW28438   0.746   4.681  12.444  0.0197 -0.0174  0.5341
 5601SOL    HW128439   0.809   4.637  12.501 -1.5028  1.8548  3.6825
 5601SOL    HW228440   0.796   0.026  12.431  0.2870  0.2254  3.1145
 5602SOL     OW28441   4.686   0.309  14.058  0.0420 -0.1762  0.0172
 5602SOL    HW128442   4.699   0.318  14.153  1.2764 -0.1068 -0.1535
 5602SOL    HW228443   0.022   0.253  14.028  1.0524  1.2977 -0.3640
 5603SOL     OW28444   1.762   1.098  16.080  0.0798  0.2411  0.1454
 5603SOL    HW128445   1.712   1.098  16.161  1.2113  0.3496  0.8540
 5603SOL    HW228446   1.688   1.110  16.022  0.4322 -1.6170 -0.7080
 5604SOL     OW28447   2.083   3.062   4.145 -0.0115  0.1502 -0.0942
 5604SOL    HW128448   2.118   2.998   4.206 -0.2666 -0.7257 -0.8614
 5604SOL    HW228449   2.091   3.142   4.196 -0.4772  0.2479 -0.1673
 5605SOL     OW28450   3.432   0.417   6.448 -0.2145 -0.4318 -0.2219
 5605SOL    HW128451   3.513   0.438   6.496 -1.5121  2.9110  0.5339
 5605SOL    HW228452   3.373   0.484   6.483  0.2730 -0.4861  0.7025
 5606SOL     OW28453   3.544   0.246   9.030  0.4109  0.6270  0.5995
 5606SOL    HW128454   3.525   0.329   9.073 -1.8578  1.4442 -1.9542
 5606SOL    HW228455   3.483   0.190   9.078 -0.0518 -0.4343 -1.2291
 5607SOL     OW28456   3.217   3.775   7.403  0.4117  0.3290 -0.2924
 5607SOL    HW128457   3.167   3.794   7.483 -1.3653 -1.7797 -0.9286
 5607SOL    HW228458   3.165   3.830   7.344 -0.1684  1.0146  0.8494
 5608SOL     OW28459   3.921   2.819  17.521 -0.4146  0.2699  0.5794
 5608SOL    HW128460   3.932   2.795  17.429  1.3040 -0.4363  0.9703
 5608SOL    HW228461   3.940   2.912  17.521  0.8246  0.0100  1.6281
 5609SOL     OW28462   3.495   1.730   7.707 -0.5631  0.0344  0.7829
 5609SOL    HW128463   3.451   1.674   7.643 -2.3360  1.3950  0.8104
 5609SOL    HW228464   3.559   1.667   7.741  0.7642  0.2259 -1.3914
 5610SOL     OW28465   2.295   2.958   5.592  0.0107 -0.1819 -0.0849
 5610SOL    HW128466   2.325   3.034   5.541 -0.5058 -1.2599 -2.0175
 5610SOL    HW228467   2.321   2.989   5.679  1.2746  2.5489 -1.4137
 5611SOL     OW28468   2.253   4.010   8.961  0.0328  0.6421 -0.0414
 5611SOL    HW128469   2.326   4.067   8.934  1.6688 -1.4217  0.0446
 5611SOL    HW228470   2.186   4.067   8.998 -1.0679 -1.0758  0.5686
 5612SOL     OW28471   3.900   4.111   0.903 -0.0657 -0.2725 -0.2609
 5612SOL    HW128472   3.941   4.098   0.988 -1.8448 -0.6109  0.5436
 5612SOL    HW228473   3.974   4.116   0.842  1.0089 -1.0846  0.9799
 5613SOL     OW28474   1.787   4.591   1.191 -0.0023 -0.1361  0.2318
 5613SOL    HW128475   1.874   4.560   1.166  0.8430  0.0833  2.9869
 5613SOL    HW228476   1.783   4.675   1.146  1.2139 -1.5798 -2.5951
 5614SOL     OW28477   0.017   3.148   0.056 -0.5357  0.5137  0.7958
 5614SOL    HW128478   0.001   3.056   0.035 -0.5776  1.1355 -1.8528
 5614SOL    HW228479   4.729   3.192  17.714  0.9729  0.5267  0.3750
 5615SOL     OW28480   1.334   0.190  17.501  0.1676  0.0903 -0.6135
 5615SOL    HW128481   1.258   0.245  17.481 -0.9226 -1.5245 -0.9408
 5615SOL    HW228482   1.399   0.200  17.432  2.3053 -2.3064  1.0402
 5616SOL     OW28483   0.513   2.618  13.514  0.0024 -0.1224 -0.2423
 5616SOL    HW128484   0.537   2.541  13.565 -1.1122  0.1293  0.6665
 5616SOL    HW228485   0.509   2.686  13.582 -0.2309  1.7394 -2.1111
 5617SOL     OW28486   2.043   3.506   5.965  0.6898  0.0120 -0.8879
 5617SOL    HW128487   1.973   3.568   5.982  1.1454  0.1600  0.4207
 5617SOL    HW228488   1.989   3.434   5.932  0.5180 -0.9421  1.5069
 5618SOL     OW28489   2.415   1.322   4.097  0.3532 -0.2423 -0.2750
 5618SOL    HW128490   2.339   1.379   4.104  0.4587 -0.3802  2.0756
 5618SOL    HW228491   2.374   1.266   4.030  1.3528  0.5354 -1.5340
 5619SOL     OW28492   2.254   2.879  13.462  0.2449  0.0074 -0.1931
 5619SOL    HW128493   2.205   2.819  13.518 -2.1439 -0.7288 -3.0589
 5619SOL    HW228494   2.224   2.966  13.488 -2.8008 -1.2892  0.5556
 5620SOL     OW28495   4.425   1.213   7.744  0.2778  0.1900  0.5746
 5620SOL    HW128496   4.452   1.170   7.663 -0.3593  1.3936 -0.2826
 5620SOL    HW228497   4.463   1.299   7.724 -1.0011  0.7581  0.5277
 5621SOL     OW28498   1.346   2.739   7.069 -0.3582 -0.4604 -0.6209
 5621SOL    HW128499   1.382   2.655   7.039 -0.2446  0.0577 -1.9414
 5621SOL    HW228500   1.299   2.711   7.148  0.0696  0.1703 -0.1485
 5622SOL     OW28501   0.530   2.430   9.434 -0.1410 -0.0762 -0.3496
 5622SOL    HW128502   0.626   2.433   9.439 -0.1755 -0.5611  0.6544
 5622SOL    HW228503   0.510   2.457   9.344 -3.2199  0.1236  0.4182
 5623SOL     OW28504   3.015   0.764   6.439 -0.4898 -0.4881  0.4151
 5623SOL    HW128505   3.100   0.724   6.462 -0.3155 -2.2976 -3.3376
 5623SOL    HW228506   3.002   0.827   6.510  0.1888 -0.4666  0.5287
 5624SOL     OW28507   1.383   3.625   9.366 -0.3089 -0.1829 -0.1400
 5624SOL    HW128508   1.313   3.570   9.329  0.3350 -0.8064 -0.4296
 5624SOL    HW228509   1.342   3.711   9.370 -1.4251 -0.7148 -0.1519
 5625SOL     OW28510   0.532   1.583   5.727  0.4831  0.0860 -0.1104
 5625SOL    HW128511   0.605   1.645   5.727  0.7364 -0.2120 -2.6765
 5625SOL    HW228512   0.583   1.503   5.738  0.3912 -0.1362 -1.2814
 5626SOL     OW28513   3.976   4.687   4.669 -0.2389 -0.1631  0.4261
 5626SOL    HW128514   3.954   4.600   4.635  2.4815 -0.8236  0.2864
 5626SOL    HW228515   4.040   4.729   4.611 -1.7957  0.7534 -0.6429
 5627SOL     OW28516   2.579   4.730   3.935  0.0280 -0.1811 -0.0202
 5627SOL    HW128517   2.668   0.026   3.920 -0.1914 -0.3780 -1.7326
 5627SOL    HW228518   2.568   4.660   3.870 -1.1428 -2.4281  2.6018
 5628SOL     OW28519   4.459   3.755   5.974  0.0777 -0.1460  0.3974
 5628SOL    HW128520   4.408   3.696   5.919  1.0160  0.3080 -0.9681
 5628SOL    HW228521   4.506   3.688   6.023  0.5450 -1.0331 -1.2831
 5629SOL     OW28522   1.318   0.200  15.704 -0.1868  0.5286 -0.1486
 5629SOL    HW128523   1.245   0.185  15.643 -0.8432 -0.4623  0.8669
 5629SOL    HW228524   1.298   0.264  15.772 -0.2712  1.3338 -0.9345
 5630SOL     OW28525   1.147   4.502   4.836 -1.2040 -0.2197 -0.0120
 5630SOL    HW128526   1.184   4.416   4.817  1.1972 -0.0154  3.7293
 5630SOL    HW228527   1.070   4.493   4.780 -0.7229  0.4389 -0.7759
 5631SOL     OW28528   4.144   3.098   1.285  0.1060 -0.0195  0.1847
 5631SOL    HW128529   4.235   3.069   1.291 -0.5672 -1.9426  1.2732
 5631SOL    HW228530   4.100   3.047   1.353  1.3202 -1.1027  0.1713
 5632SOL     OW28531   0.356   0.107   1.671 -0.1243  0.1372  0.2659
 5632SOL    HW128532   0.331   0.121   1.762 -1.0307 -0.0724  0.0568
 5632SOL    HW228533   0.447   0.132   1.656  0.0209 -0.5515 -0.0037
 5633SOL     OW28534   1.212   3.164   4.287  0.2633 -0.2277  0.0099
 5633SOL    HW128535   1.151   3.094   4.261  0.2812 -0.4872  0.6671
 5633SOL    HW228536   1.272   3.114   4.342  1.0123  0.9103  0.2246
 5634SOL     OW28537   3.953   1.171   2.613 -0.0487  0.1327 -0.3436
 5634SOL    HW128538   4.042   1.207   2.614  0.0813 -0.2303  2.7271
 5634SOL    HW228539   3.932   1.145   2.524 -1.0744  0.6320 -0.2445
 5635SOL     OW28540   1.877   2.421   8.517 -0.5620  0.0002 -0.4135
 5635SOL    HW128541   1.818   2.496   8.514  0.0412  0.5171  0.7326
 5635SOL    HW228542   1.820   2.349   8.488 -1.0333  0.8317 -1.5338
 5636SOL     OW28543   4.112   3.442  10.445  0.2162  0.1357  0.4827
 5636SOL    HW128544   4.147   3.416  10.530  1.1395  1.8520  0.6166
 5636SOL    HW228545   4.153   3.376  10.389  0.7959  0.0831  0.9713
 5637SOL     OW28546   1.579   0.330   4.556 -0.2370 -0.0936 -0.1704
 5637SOL    HW128547   1.664   0.338   4.598 -0.6088  0.3535  0.4983
 5637SOL    HW228548   1.601   0.370   4.472  0.9249 -1.7494 -0.6463
 5638SOL     OW28549   0.533   4.182   7.363 -0.2287  0.0673 -0.2965
 5638SOL    HW128550   0.596   4.235   7.412 -1.5593  0.5431  0.8824
 5638SOL    HW228551   0.492   4.248   7.307  0.8191  0.3367 -0.7351
 5639SOL     OW28552   0.569   3.897  14.765  0.3102 -0.3339 -0.1716
 5639SOL    HW128553   0.584   3.963  14.833  0.2331  1.4027 -1.8341
 5639SOL    HW228554   0.541   3.822  14.817  0.1862 -1.6836 -2.1779
 5640SOL     OW28555   0.273   4.613  12.862  0.4045  0.4926  0.3668
 5640SOL    HW128556   0.348   4.579  12.911  1.6320  2.7497  0.0673
 5640SOL    HW228557   0.311   4.618  12.774  1.4315 -1.8197  0.6743
 5641SOL     OW28558   3.706   0.183   9.955 -0.0544  0.0064  0.2862
 5641SOL    HW128559   3.730   0.248   9.889 -1.9861  0.2979 -0.1445
 5641SOL    HW228560   3.641   0.237  10.000 -0.1354 -0.3144  0.5545
 5642SOL     OW28561   2.248   3.073  12.980  0.3653 -0.4081 -0.3412
 5642SOL    HW128562   2.213   3.150  13.024 -1.0763 -1.2943  0.0646
 5642SOL    HW228563   2.180   3.011  13.009 -0.3551  0.1997 -0.7263
 5643SOL     OW28564   2.783   2.354   9.012 -0.7922  0.3556  0.2742
 5643SOL    HW128565   2.824   2.404   9.082  2.6594  1.2598 -2.4344
 5643SOL    HW228566   2.787   2.404   8.930 -0.6886 -0.4254 -0.2016
 5644SOL     OW28567   4.616   3.239   4.675 -0.1334  0.0077 -0.8091
 5644SOL    HW128568   4.656   3.163   4.716  1.2097 -0.0071 -2.1438
 5644SOL    HW228569   4.684   3.254   4.609 -0.9652  2.7572 -1.0437
 5645SOL     OW28570   2.398   2.155   6.752 -0.0611  0.1999 -0.4649
 5645SOL    HW128571   2.325   2.118   6.802  1.5936 -0.8010  1.2192
 5645SOL    HW228572   2.411   2.235   6.803  1.6039 -0.5624  0.2774
 5646SOL     OW28573   0.702   3.131   6.913 -0.5210  0.0040  0.4113
 5646SOL    HW128574   0.685   3.195   6.844 -0.2317  1.7768  1.9670
 5646SOL    HW228575   0.780   3.093   6.873 -1.7487 -2.1724  0.0806
 5647SOL     OW28576   2.854   0.110  14.433 -0.2861 -0.1704 -0.2394
 5647SOL    HW128577   2.878   0.143  14.519  2.1082 -1.1896 -0.5379
 5647SOL    HW228578   2.941   0.096  14.397 -1.1068 -2.0906 -1.5067
 5648SOL     OW28579   1.528   4.530  11.518 -0.5372  0.1610 -0.5049
 5648SOL    HW128580   1.473   4.576  11.581  0.9929 -0.6874  1.4499
 5648SOL    HW228581   1.613   4.523  11.563  0.0363  1.5554 -1.3876
 5649SOL     OW28582   4.484   0.695   6.717  0.1035 -0.0631 -0.3995
 5649SOL    HW128583   4.442   0.776   6.686 -1.4342 -0.6073  0.2444
 5649SOL    HW228584   4.561   0.690   6.661 -0.5450 -1.8242 -1.1560
 5650SOL     OW28585   0.221   2.162   8.593 -0.0361 -0.2627 -0.0776
 5650SOL    HW128586   0.288   2.210   8.543 -0.4285  1.3671  0.9696
 5650SOL    HW228587   0.222   2.198   8.681 -0.1039 -0.7769  0.1288
 5651SOL     OW28588   3.755   1.307   3.699  0.6420 -0.1841  0.1761
 5651SOL    HW128589   3.688   1.341   3.640 -1.5998 -0.2284  2.6431
 5651SOL    HW228590   3.829   1.365   3.685  0.0113  0.6996  0.5018
 5652SOL     OW28591   3.453   1.649   4.449 -0.3233 -0.0848  0.4400
 5652SOL    HW128592   3.533   1.658   4.397 -0.1709  0.7164  0.8095
 5652SOL    HW228593   3.433   1.737   4.482  1.0581  0.0026  1.0436
 5653SOL     OW28594   2.070   1.614   1.615 -0.2443 -0.1973 -0.4096
 5653SOL    HW128595   2.014   1.543   1.584  0.0290 -1.1174  1.1887
 5653SOL    HW228596   2.159   1.579   1.610  0.1120  0.6702 -0.1876
 5654SOL     OW28597   3.412   4.084   7.213  0.5583 -0.3071 -0.4457
 5654SOL    HW128598   3.448   4.139   7.283  0.8406 -1.7912  0.5728
 5654SOL    HW228599   3.438   4.133   7.135  1.9393 -2.5147 -1.3887
 5655SOL     OW28600   4.145   0.472   1.845  0.5414 -0.0637  0.4849
 5655SOL    HW128601   4.212   0.528   1.806 -0.4914  0.6815 -0.2367
 5655SOL    HW228602   4.193   0.390   1.840 -0.0876 -0.1970 -3.7063
 5656SOL     OW28603   4.518   4.548   6.551 -0.2246  0.5765  0.0388
 5656SOL    HW128604   4.591   4.585   6.601  1.2611  0.2230 -1.8947
 5656SOL    HW228605   4.554   4.459   6.545  0.3183  0.6930  1.4674
 5657SOL     OW28606   3.082   0.219   8.837 -0.1004  0.0197  0.4345
 5657SOL    HW128607   3.120   0.147   8.886 -1.2047 -0.5686  0.4185
 5657SOL    HW228608   3.160   0.273   8.846  1.9943 -2.7406 -1.4066
 5658SOL     OW28609   1.878   1.883   4.033  0.3906 -0.1011  0.2812
 5658SOL    HW128610   1.842   1.953   4.087  2.4394 -0.8328  2.6013
 5658SOL    HW228611   1.903   1.927   3.952  2.1884 -0.2125  0.7733
 5659SOL     OW28612   2.957   3.049   5.176 -0.1460 -0.0065  0.2906
 5659SOL    HW128613   2.943   3.143   5.170 -0.8807 -0.1774 -0.5652
 5659SOL    HW228614   2.878   3.037   5.125 -0.0177 -0.7790  0.2711
 5660SOL     OW28615   2.892   3.504   1.512 -0.2685  0.1705  0.6652
 5660SOL    HW128616   2.820   3.472   1.459  0.3689  3.5462 -2.2311
 5660SOL    HW228617   2.895   3.598   1.493  0.7800 -0.0807 -0.4754
 5661SOL     OW28618   3.591   0.465   0.040 -0.2746  0.1773 -0.1830
 5661SOL    HW128619   3.577   0.393  17.718  0.1523  0.0625 -0.1515
 5661SOL    HW228620   3.561   0.540  17.728 -1.7620 -0.2587  0.0577
 5662SOL     OW28621   3.785   2.003   6.903 -0.3387 -0.5520  0.0012
 5662SOL    HW128622   3.754   1.998   6.812  0.3075  1.5554 -0.3182
 5662SOL    HW228623   3.870   1.966   6.881  0.3053  0.8238  0.2048
 5663SOL     OW28624   2.981   3.274   4.355 -0.0439 -0.1999 -0.3828
 5663SOL    HW128625   2.984   3.349   4.413  1.2313 -0.2972 -0.3257
 5663SOL    HW228626   2.902   3.223   4.374  0.3210 -0.7859 -0.4277
 5664SOL     OW28627   3.009   3.694   2.603 -0.4120  0.3538 -0.3876
 5664SOL    HW128628   3.034   3.786   2.600 -1.2933  0.6110 -0.0023
 5664SOL    HW228629   2.968   3.680   2.517  0.6891  0.2418 -0.8947
 5665SOL     OW28630   2.032   1.837   5.364 -0.6093  0.4654  0.0204
 5665SOL    HW128631   2.040   1.747   5.394 -1.2312  1.2255  2.4638
 5665SOL    HW228632   1.989   1.826   5.279 -2.3266 -0.2068  0.9723
 5666SOL     OW28633   3.273   0.211  14.552 -0.4820 -0.3542 -0.3101
 5666SOL    HW128634   3.281   0.155  14.629  0.3863  1.1622  0.6894
 5666SOL    HW228635   3.347   0.270  14.562 -0.6236 -0.0311 -1.1509
 5667SOL     OW28636   3.607   3.706   4.684  0.0950  0.0553  0.1691
 5667SOL    HW128637   3.637   3.763   4.754  0.5996 -0.5898  0.4666
 5667SOL    HW228638   3.559   3.641   4.735  0.0625  0.7755  1.0467
 5668SOL     OW28639   2.798   3.039   8.046  0.0998 -0.6511 -0.7726
 5668SOL    HW128640   2.891   3.062   8.046  0.1669 -0.9067  0.0458
 5668SOL    HW228641   2.765   3.105   8.107 -1.2504 -2.4962  0.4661
 5669SOL     OW28642   4.144   2.323  16.444  0.1128 -0.4217 -0.2629
 5669SOL    HW128643   4.197   2.398  16.471  0.6478 -0.2552 -1.8247
 5669SOL    HW228644   4.095   2.300  16.523  1.7432 -1.5627  0.4330
 5670SOL     OW28645   3.721   0.550   4.393 -0.4964 -0.2009 -0.5632
 5670SOL    HW128646   3.661   0.618   4.423 -0.3767 -0.6765  0.7355
 5670SOL    HW228647   3.697   0.479   4.452  0.8622 -0.4810 -0.3676
 5671SOL     OW28648   3.221   1.307   7.332  0.3418 -0.1777  0.1910
 5671SOL    HW128649   3.219   1.217   7.299 -0.4907 -0.2008  0.3015
 5671SOL    HW228650   3.277   1.287   7.407  0.4708 -1.4755 -0.2441
 5672SOL     OW28651   0.310   2.277   4.122 -0.1038  0.2041  0.2384
 5672SOL    HW128652   0.227   2.231   4.131 -0.0263 -0.0009 -0.0672
 5672SOL    HW228653   0.348   2.231   4.047 -3.2883 -1.4537 -0.3846
 5673SOL     OW28654   2.982   4.432   0.167 -0.0072  0.0851 -0.3995
 5673SOL    HW128655   2.924   4.483   0.110  0.9826  3.2132  1.3762
 5673SOL    HW228656   3.006   4.357   0.114  0.6456  1.7070 -2.4121
 5674SOL     OW28657   1.203   0.884   5.157  0.4460  0.3667 -0.2006
 5674SOL    HW128658   1.162   0.969   5.142 -0.0123  0.3363  0.8720
 5674SOL    HW228659   1.203   0.894   5.253 -1.3201  1.2301 -0.2841
 5675SOL     OW28660   3.041   0.611   2.893  0.1439 -0.0666  0.0669
 5675SOL    HW128661   2.987   0.685   2.865 -1.5563 -2.4239 -2.9059
 5675SOL    HW228662   3.115   0.654   2.935 -0.8461  0.6257  1.1183
 5676SOL     OW28663   0.789   2.797   2.373 -0.0642  0.0823  0.5249
 5676SOL    HW128664   0.763   2.714   2.412 -0.3565 -1.8300 -3.7452
 5676SOL    HW228665   0.859   2.820   2.434  0.8159 -2.2408  0.3751
 5677SOL     OW28666   4.570   2.748   7.677 -1.0472 -0.4459  0.4188
 5677SOL    HW128667   4.581   2.760   7.771 -0.2668 -2.8352  0.6273
 5677SOL    HW228668   4.555   2.840   7.654  1.5904  0.0768  0.8017
 5678SOL     OW28669   3.991   2.306   5.132  0.2474 -0.2171  0.0891
 5678SOL    HW128670   3.983   2.260   5.049 -0.7861  0.7424 -0.3536
 5678SOL    HW228671   3.909   2.270   5.166  0.1242  0.0161  0.0362
 5679SOL     OW28672   3.509   3.705  15.705  0.0714 -0.3448 -0.5798
 5679SOL    HW128673   3.560   3.642  15.655 -0.5224 -0.2007 -1.3808
 5679SOL    HW228674   3.588   3.758  15.718  0.8106 -1.5843 -0.0803
 5680SOL     OW28675   1.547   4.329   2.430  0.2016 -0.3848 -0.2131
 5680SOL    HW128676   1.532   4.245   2.473  0.2193 -0.1412  0.2724
 5680SOL    HW228677   1.602   4.299   2.357 -0.3937  0.7808 -1.1524
 5681SOL     OW28678   2.941   1.539  14.730  0.0656  0.1125 -0.5250
 5681SOL    HW128679   2.854   1.516  14.696 -0.2348  1.1528 -0.4552
 5681SOL    HW228680   2.993   1.461  14.710  1.7259  1.0757  0.0747
 5682SOL     OW28681   2.289   0.455   3.332 -0.6913 -0.3744  0.2611
 5682SOL    HW128682   2.360   0.404   3.294  0.9396  1.2150  1.1639
 5682SOL    HW228683   2.334   0.509   3.397  1.1043 -0.6115 -0.7938
 5683SOL     OW28684   2.422   0.250   8.918  0.0517 -0.5203 -0.5739
 5683SOL    HW128685   2.490   0.266   8.983  0.9477 -0.6800 -1.4655
 5683SOL    HW228686   2.410   0.340   8.886  1.0718 -0.0407  0.3593
 5684SOL     OW28687   0.953   3.502   3.562 -0.2036 -0.6150 -0.3244
 5684SOL    HW128688   0.859   3.521   3.564 -0.3485 -1.1850 -1.9166
 5684SOL    HW228689   0.998   3.572   3.516  0.8495 -1.9270 -1.3063
 5685SOL     OW28690   3.627   2.116   1.761 -0.2226 -0.2384  0.4183
 5685SOL    HW128691   3.707   2.123   1.813 -0.0042  3.6554 -0.4175
 5685SOL    HW228692   3.673   2.138   1.680  0.9560 -1.8406  0.6538
 5686SOL     OW28693   0.897   4.692   2.138  0.0380  0.2629  0.4453
 5686SOL    HW128694   0.829   0.024   2.141  0.4263  0.7919 -3.1612
 5686SOL    HW228695   0.973   4.730   2.183 -1.0030 -1.3373  3.5527
 5687SOL     OW28696   3.530   4.597   7.816 -0.1391  0.0280 -0.0730
 5687SOL    HW128697   3.442   4.594   7.853  0.4536  0.1815  1.3907
 5687SOL    HW228698   3.545   4.690   7.800  1.1543 -0.2161 -0.2563
 5688SOL     OW28699   2.262   0.792   6.603 -0.3216  0.2025 -0.0602
 5688SOL    HW128700   2.203   0.717   6.607 -0.0333  0.0449  1.6190
 5688SOL    HW228701   2.298   0.782   6.692  1.0507 -0.3612 -0.6878
 5689SOL     OW28702   4.547   0.052  17.296  0.3260  0.8950 -0.2375
 5689SOL    HW128703   4.542   0.001  17.215 -0.8754  0.8380 -0.1228
 5689SOL    HW228704   4.555   0.140  17.259  1.6341  0.3643 -1.2369
 5690SOL     OW28705   1.906   3.814   2.886 -0.7732  0.2323 -0.4410
 5690SOL    HW128706   1.979   3.752   2.882  0.4413  1.4569  3.4185
 5690SOL    HW228707   1.937   3.873   2.817 -1.4701  0.5503 -0.4786
 5691SOL     OW28708   1.383   3.515  16.015  0.1765 -0.0961  0.4043
 5691SOL    HW128709   1.369   3.585  15.952 -0.1968 -0.8889 -0.3992
 5691SOL    HW228710   1.434   3.558  16.083 -0.9298  1.7997  0.0258
 5692SOL     OW28711   3.938   2.801  10.728 -0.6470 -0.0592  0.2823
 5692SOL    HW128712   3.968   2.892  10.724 -1.3861  0.1361 -0.8798
 5692SOL    HW228713   3.924   2.792  10.822  0.3840 -0.2899  0.4059
 5693SOL     OW28714   3.108   2.373   3.865 -0.3025 -0.4040  0.0116
 5693SOL    HW128715   3.062   2.434   3.808  0.7879  1.6738  1.3448
 5693SOL    HW228716   3.039   2.349   3.926  0.2287  0.3711  0.9227
 5694SOL     OW28717   1.715   3.961   0.561 -0.2966 -0.2235 -0.0375
 5694SOL    HW128718   1.704   4.027   0.493  1.3892  0.0042 -0.0889
 5694SOL    HW228719   1.623   3.964   0.589 -1.0200 -1.6410 -2.3133
 5695SOL     OW28720   2.813   1.872   2.099 -0.2956  0.5080  0.0578
 5695SOL    HW128721   2.904   1.843   2.089 -0.3283  0.3814  0.1303
 5695SOL    HW228722   2.794   1.891   2.007 -0.9634 -1.6591 -0.2568
 5696SOL     OW28723   0.002   4.544  16.995  0.3362  0.2385 -0.0908
 5696SOL    HW128724   0.036   4.633  16.991 -1.5811  1.0029  1.0217
 5696SOL    HW228725   0.077   4.498  17.031  0.3191  0.5065  0.2826
 5697SOL     OW28726   3.447   2.511   1.518  0.6874  0.0791  0.2156
 5697SOL    HW128727   3.361   2.538   1.551  0.2685  0.3033 -1.0827
 5697SOL    HW228728   3.479   2.453   1.587 -2.1690 -3.4064 -1.3736
 5698SOL     OW28729   4.654   3.043   4.428  0.0403  0.1611  0.3355
 5698SOL    HW128730   4.561   3.024   4.433  0.0729  0.2429  1.2717
 5698SOL    HW228731   4.651   3.139   4.424  2.5478  0.2436  0.0824
 5699SOL     OW28732   3.984   3.261  13.967  0.7300 -0.1720  0.3082
 5699SOL    HW128733   3.893   3.286  13.981  1.8783  2.5590  2.8499
 5699SOL    HW228734   4.022   3.349  13.974  1.2302 -0.4102  0.6483
 5700SOL     OW28735   0.141   2.294  10.327 -0.5189 -0.1112 -0.3418
 5700SOL    HW128736   0.058   2.301  10.374 -0.5062 -0.8339 -0.2188
 5700SOL    HW228737   0.197   2.248  10.389 -0.9207  0.1833  0.2398
 5701SOL     OW28738   2.997   0.259   6.837 -0.3124 -0.5987 -0.0172
 5701SOL    HW128739   2.937   0.190   6.867 -2.9180  1.0460 -1.5451
 5701SOL    HW228740   2.969   0.332   6.892  1.2221  0.2471 -0.3605
 5702SOL     OW28741   3.801   4.507   7.931 -0.8019  0.0926 -0.2993
 5702SOL    HW128742   3.778   4.421   7.967 -3.6553 -0.3211 -3.1113
 5702SOL    HW228743   3.731   4.539   7.874 -0.6338  0.9769 -0.0122
 5703SOL     OW28744   4.367   2.653   4.016  0.3134  0.1491  0.0194
 5703SOL    HW128745   4.417   2.729   3.985 -0.4576 -0.3163 -2.3467
 5703SOL    HW228746   4.422   2.584   3.979  0.6864  0.3398  0.2146
 5704SOL     OW28747   2.658   0.939   8.264  0.5407  0.0017  0.3435
 5704SOL    HW128748   2.578   0.917   8.312 -0.9905 -1.2839 -2.7798
 5704SOL    HW228749   2.647   1.027   8.228  0.1821  1.3424  3.7619
 5705SOL     OW28750   2.780   2.723   0.350  0.0999  0.2261  0.3330
 5705SOL    HW128751   2.691   2.703   0.321  0.0536  0.9308 -0.0117
 5705SOL    HW228752   2.830   2.651   0.313 -0.7745  0.1425 -0.6984
 5706SOL     OW28753   2.327   4.264   7.519 -0.2508 -0.0821 -0.0188
 5706SOL    HW128754   2.305   4.198   7.583  1.3399  0.8576  1.4879
 5706SOL    HW228755   2.422   4.270   7.525 -0.4884  2.8446  0.9583
 5707SOL     OW28756   2.760   1.763   5.899 -0.1231  0.1185  0.2656
 5707SOL    HW128757   2.749   1.668   5.890  0.9476 -0.2137  2.4007
 5707SOL    HW228758   2.704   1.786   5.973 -0.2315  0.3219  0.1176
 5708SOL     OW28759   0.368   4.085   9.239  0.0108 -0.8012  0.2374
 5708SOL    HW128760   0.354   3.990   9.235 -2.0777 -0.4392 -1.1526
 5708SOL    HW228761   0.361   4.098   9.144  5.2429  1.0853  0.1038
 5709SOL     OW28762   2.153   1.659   5.618  0.0336 -0.3504 -0.3516
 5709SOL    HW128763   2.234   1.671   5.569 -0.0614 -1.6779 -0.8570
 5709SOL    HW228764   2.159   1.564   5.628  1.4339 -0.2515 -0.2565
 5710SOL     OW28765   2.476   4.603  15.330 -0.0605  0.5666 -0.0389
 5710SOL    HW128766   2.560   4.587  15.371 -0.3423 -2.2780 -0.5374
 5710SOL    HW228767   2.484   4.560  15.245 -0.3899 -0.4068  0.4200
 5711SOL     OW28768   0.702   4.509   1.916  0.1854  0.0113 -0.3873
 5711SOL    HW128769   0.736   4.598   1.920 -1.2166  0.3879  3.3130
 5711SOL    HW228770   0.763   4.469   1.855 -1.1646 -0.0022 -1.7344
 5712SOL     OW28771   3.434   2.032   0.909 -0.4553 -0.1337 -0.2283
 5712SOL    HW128772   3.522   2.070   0.913 -1.1915  1.4725  0.6920
 5712SOL    HW228773   3.400   2.054   0.996  3.0268  1.0851  0.8285
 5713SOL     OW28774   0.880   4.300   9.333  0.2137 -0.7056 -0.1750
 5713SOL    HW128775   0.944   4.271   9.398 -0.7456 -0.6485  0.7809
 5713SOL    HW228776   0.853   4.225   9.279 -1.2244 -0.5323  0.3240
 5714SOL     OW28777   1.927   1.052   6.686 -0.6408 -0.0607 -0.2312
 5714SOL    HW128778   1.986   1.095   6.623 -0.0023 -2.2076 -1.0797
 5714SOL    HW228779   1.840   1.077   6.654  0.1338 -0.0906 -2.3562
 5715SOL     OW28780   1.507   2.808   8.880 -0.1748  0.3696 -0.0436
 5715SOL    HW128781   1.472   2.763   8.803  0.9609 -1.7584  0.6759
 5715SOL    HW228782   1.601   2.791   8.875 -0.3848 -0.5053 -1.1317
 5716SOL     OW28783   1.076   3.005   8.074  0.3470 -0.1413 -0.4702
 5716SOL    HW128784   0.982   2.988   8.068  0.3974 -0.8019  0.7868
 5716SOL    HW228785   1.098   3.007   8.167 -0.6562 -0.4385 -0.2366
 5717SOL     OW28786   3.703   2.295   5.770 -0.7395  0.2368  0.0391
 5717SOL    HW128787   3.731   2.384   5.791  1.7900  0.0545 -2.4319
 5717SOL    HW228788   3.687   2.270   5.861  2.4114  1.4762  0.9544
 5718SOL     OW28789   4.129   2.180   2.338  0.1423  0.6270  1.2012
 5718SOL    HW128790   4.068   2.126   2.388  1.4721  0.1079  2.2550
 5718SOL    HW228791   4.211   2.135   2.358 -0.1003 -0.5355 -0.3936
 5719SOL     OW28792   3.160   1.920   3.668 -0.4228  0.3314 -0.3419
 5719SOL    HW128793   3.209   1.883   3.595  0.1200 -1.9293  1.1546
 5719SOL    HW228794   3.174   2.014   3.655  0.2079  0.2661 -0.1411
 5720SOL     OW28795   0.336   0.831  15.943  0.5759 -0.4587 -0.5641
 5720SOL    HW128796   0.339   0.879  16.025 -0.7326 -0.5266 -0.4782
 5720SOL    HW228797   0.262   0.773  15.962  0.6257  0.3266  1.9530
 5721SOL     OW28798   3.259   0.082  11.288 -0.0603  0.4263 -0.0663
 5721SOL    HW128799   3.224   0.123  11.209 -2.3147 -0.2862  0.5782
 5721SOL    HW228800   3.353   0.075  11.268 -0.7226 -1.2734 -2.5946
 5722SOL     OW28801   0.833   2.564   6.915 -0.0710  0.9290 -0.5559
 5722SOL    HW128802   0.770   2.617   6.963  0.8328  1.2743  0.2614
 5722SOL    HW228803   0.819   2.588   6.823 -0.0876 -3.6083 -1.7413
 5723SOL     OW28804   2.114   0.082   7.975 -0.5063 -0.4328 -0.1275
 5723SOL    HW128805   2.129   0.168   8.014 -1.2064 -0.0580 -0.6951
 5723SOL    HW228806   2.094   0.028   8.052  1.6527 -2.3313 -0.8629
 5724SOL     OW28807   4.079   2.230   0.139  0.0953 -0.4829  0.2467
 5724SOL    HW128808   4.162   2.273   0.121  0.1054 -0.7027 -0.2575
 5724SOL    HW228809   4.092   2.177   0.217  0.5682  0.1186  0.5749
 5725SOL     OW28810   1.951   2.863   4.679 -0.2058  0.7715 -0.4830
 5725SOL    HW128811   2.021   2.874   4.615 -0.0832  1.4185 -0.2431
 5725SOL    HW228812   1.944   2.953   4.711  0.7273  0.8208 -0.4126
 5726SOL     OW28813   1.785   2.710   5.906  0.5644 -0.1421 -0.1151
 5726SOL    HW128814   1.815   2.650   5.974 -0.4388 -1.3551 -0.7412
 5726SOL    HW228815   1.869   2.740   5.873 -0.1658  0.1969 -1.6660
 5727SOL     OW28816   3.445   0.680   4.500  0.0251  0.0514  0.5362
 5727SOL    HW128817   3.377   0.668   4.433  0.2544 -1.8705  0.6508
 5727SOL    HW228818   3.446   0.776   4.500 -0.6953  0.0586  0.9775
 5728SOL     OW28819   2.944   3.644  13.469  0.5110  0.1708 -0.6826
 5728SOL    HW128820   2.888   3.567  13.476  0.1456  0.4227 -0.8430
 5728SOL    HW228821   3.031   3.612  13.492 -0.1417  0.5515  2.2370
 5729SOL     OW28822   3.144   1.866  12.317  0.0311 -0.0651 -0.1359
 5729SOL    HW128823   3.122   1.880  12.225  0.4911 -0.9969 -0.3842
 5729SOL    HW228824   3.189   1.943  12.351  1.3708 -0.9779  0.1512
 5730SOL     OW28825   4.721   0.581   1.195 -0.3679  0.1201  0.0868
 5730SOL    HW128826   0.079   0.567   1.213 -0.7174 -2.3738  0.0755
 5730SOL    HW228827   4.688   0.559   1.282  1.5392  0.3540  0.8853
 5731SOL     OW28828   1.427   1.022  14.580  0.1047 -0.4938  0.0326
 5731SOL    HW128829   1.409   1.006  14.673 -0.7516 -0.2076 -0.0881
 5731SOL    HW228830   1.356   1.086  14.577  0.1780 -0.5141 -2.2026
 5732SOL     OW28831   3.599   4.196   1.886  0.6224 -0.2239 -0.0233
 5732SOL    HW128832   3.662   4.268   1.892  1.5354 -1.1211  0.9743
 5732SOL    HW228833   3.520   4.235   1.923 -0.8662 -1.8752 -1.4179
 5733SOL     OW28834   3.362   1.470  11.556  0.8533 -0.1164 -0.3154
 5733SOL    HW128835   3.352   1.389  11.606  0.8848  0.3622  0.4614
 5733SOL    HW228836   3.274   1.508  11.553  0.8209 -0.0617  1.2962
 5734SOL     OW28837   2.850   4.532   9.678 -0.0452  0.1892  0.2037
 5734SOL    HW128838   2.844   4.443   9.713  1.5481 -0.0388 -0.0678
 5734SOL    HW228839   2.821   4.519   9.588  1.7686  0.8557 -0.4824
 5735SOL     OW28840   2.818   0.381   5.719  0.3843 -0.6266 -0.5727
 5735SOL    HW128841   2.740   0.435   5.704 -0.6364 -2.0552 -0.4747
 5735SOL    HW228842   2.827   0.371   5.814  0.4297  0.4964 -0.4531
 5736SOL     OW28843   3.935   0.413   9.788  0.2658 -0.5612 -0.1521
 5736SOL    HW128844   4.003   0.477   9.768 -0.8053  1.3219  2.2146
 5736SOL    HW228845   3.859   0.445   9.741  0.6469 -2.0588 -1.7518
 5737SOL     OW28846   1.328   2.644   4.002  0.4006  0.3580 -0.8724
 5737SOL    HW128847   1.270   2.714   3.973  1.8235  2.1348  0.5245
 5737SOL    HW228848   1.300   2.573   3.945  0.0399 -2.2358  2.5520
 5738SOL     OW28849   1.723   2.472  12.719  0.6063 -0.0819 -0.2691
 5738SOL    HW128850   1.744   2.402  12.657  3.1522  2.1483 -1.8898
 5738SOL    HW228851   1.804   2.495  12.763  1.0439 -0.0191 -1.0996
 5739SOL     OW28852   0.456   2.405   2.362 -0.3473 -0.1196  0.2435
 5739SOL    HW128853   0.438   2.386   2.270  0.8083 -0.2809  0.0464
 5739SOL    HW228854   0.384   2.465   2.382 -0.3747 -0.0891  0.0489
 5740SOL     OW28855   3.013   4.388   4.559  0.6193  0.3163  0.8749
 5740SOL    HW128856   3.086   4.426   4.510  1.4592 -2.1477  0.2521
 5740SOL    HW228857   2.949   4.440   4.509  1.2953 -0.0112 -0.3245
 5741SOL     OW28858   0.186   4.253   3.013  0.2825 -0.6603 -0.3195
 5741SOL    HW128859   0.153   4.200   2.940  1.1381 -0.9522 -0.4829
 5741SOL    HW228860   0.261   4.299   2.975  0.8662 -2.7724 -1.7336
 5742SOL     OW28861   3.650   3.175   2.139 -0.1391  0.4366 -0.3510
 5742SOL    HW128862   3.610   3.093   2.169  2.0235  0.4462  2.6078
 5742SOL    HW228863   3.668   3.156   2.047 -1.0142 -1.0547 -0.2064
 5743SOL     OW28864   4.164   4.525   1.634  0.6746 -0.4174  0.1500
 5743SOL    HW128865   4.166   4.563   1.546 -0.0192 -3.2515 -1.1148
 5743SOL    HW228866   4.122   4.442   1.611 -1.7748  0.8975 -0.0063
 5744SOL     OW28867   3.898   1.849   4.032 -0.4910  0.7224 -0.3233
 5744SOL    HW128868   3.917   1.771   4.084 -0.6467  0.7467 -0.2307
 5744SOL    HW228869   3.837   1.899   4.087 -1.2257 -0.7761  0.2147
 5745SOL     OW28870   0.722   2.917   7.672 -0.3375  0.1146 -0.0591
 5745SOL    HW128871   0.719   2.943   7.764  0.6976  1.2931 -0.3661
 5745SOL    HW228872   0.644   2.863   7.658 -0.8147  0.2199  2.3263
 5746SOL     OW28873   1.429   2.214   4.132  0.2624  0.0469  0.1337
 5746SOL    HW128874   1.489   2.141   4.117 -1.0972 -1.1612  0.5859
 5746SOL    HW228875   1.376   2.198   4.054 -1.9091  2.1933  1.1571
 5747SOL     OW28876   4.299   3.387   7.837 -0.1832  0.6136 -0.2087
 5747SOL    HW128877   4.236   3.458   7.836  0.9478  1.6472  1.8727
 5747SOL    HW228878   4.280   3.347   7.752  2.2899 -1.9576  0.4318
 5748SOL     OW28879   2.988   4.696   7.642 -0.0994  0.8271  0.1629
 5748SOL    HW128880   2.952   0.005   7.719  1.1206 -0.8491  1.6735
 5748SOL    HW228881   3.063   0.011   7.608  0.3577 -0.9591 -1.5060
 5749SOL     OW28882   3.642   4.188  15.347 -0.0356  0.3595  0.1649
 5749SOL    HW128883   3.595   4.242  15.283 -3.0692 -2.9819 -0.4287
 5749SOL    HW228884   3.721   4.242  15.344  0.8762 -1.0100 -0.6386
 5750SOL     OW28885   3.594   1.751   0.411  0.3403 -0.3138 -0.1883
 5750SOL    HW128886   3.537   1.755   0.488  1.8642  1.6810  0.8379
 5750SOL    HW228887   3.546   1.796   0.343 -1.6075 -1.0514  0.6992
 5751SOL     OW28888   0.947   1.393   2.604 -0.0993  0.0987  0.7862
 5751SOL    HW128889   0.884   1.331   2.568  0.4634 -0.5439  0.9230
 5751SOL    HW228890   0.926   1.464   2.543 -4.4978 -0.5063  1.5559
 5752SOL     OW28891   1.228   0.884   5.429  0.2969 -0.4752 -0.3623
 5752SOL    HW128892   1.281   0.915   5.502  0.8103  0.9284 -1.3481
 5752SOL    HW228893   1.165   0.818   5.461  0.1684  0.2184  0.8200
 5753SOL     OW28894   4.046   0.700   2.068 -0.1153  0.3210  0.0090
 5753SOL    HW128895   4.085   0.616   2.042 -1.3898 -0.1798 -0.2821
 5753SOL    HW228896   4.073   0.712   2.159  0.0754 -0.5064  0.0594
 5754SOL     OW28897   3.009   0.491   3.573 -0.6866 -0.4408 -0.0784
 5754SOL    HW128898   3.056   0.437   3.637 -0.4839 -0.9250 -0.6317
 5754SOL    HW228899   3.067   0.567   3.578 -1.8369  0.3724  0.9708
 5755SOL     OW28900   1.419   1.321   4.019  0.3490 -0.4181  0.4720
 5755SOL    HW128901   1.462   1.332   4.104  0.2419 -0.9916  0.6009
 5755SOL    HW228902   1.430   1.412   3.992 -1.6668 -0.2539  0.2013
 5756SOL     OW28903   2.158   2.084   8.546  0.1938  0.4774 -0.3285
 5756SOL    HW128904   2.067   2.095   8.518  0.6850  0.7828 -1.8124
 5756SOL    HW228905   2.160   2.154   8.611 -1.0247  0.3234 -0.1304
 5757SOL     OW28906   1.162   1.653   8.475  0.0466  0.2136 -0.6757
 5757SOL    HW128907   1.214   1.687   8.547  0.7567 -1.5263 -0.3663
 5757SOL    HW228908   1.123   1.575   8.516 -1.3313  1.4213  0.3336
 5758SOL     OW28909   3.065   1.739  10.402 -0.1532 -0.0758  0.6796
 5758SOL    HW128910   3.149   1.698  10.421 -1.1718 -1.8062  1.3985
 5758SOL    HW228911   3.085   1.833  10.408 -1.4209  0.1089  2.2121
 5759SOL     OW28912   3.016   1.421   7.481  0.1430 -0.0165  0.5410
 5759SOL    HW128913   3.094   1.384   7.441  0.6512  1.1244  0.4945
 5759SOL    HW228914   3.039   1.426   7.574 -1.9132  2.4341  0.9370
 5760SOL     OW28915   2.029   3.908   4.304  0.1779  0.1842 -0.0108
 5760SOL    HW128916   2.112   3.948   4.329 -1.2796  1.4941  2.7162
 5760SOL    HW228917   2.056   3.858   4.227 -1.7684 -0.9364  0.0264
 5761SOL     OW28918   1.800   0.447  10.349 -0.2058 -0.4806  0.5979
 5761SOL    HW128919   1.803   0.433  10.255 -1.0287  0.9855  0.3486
 5761SOL    HW228920   1.854   0.375  10.382 -0.8427 -0.1708  2.3137
 5762SOL     OW28921   3.374   4.614   8.772 -0.1369  0.2536  0.0756
 5762SOL    HW128922   3.351   4.707   8.776 -0.1285  0.2290  0.6284
 5762SOL    HW228923   3.337   4.577   8.852 -2.8405  0.8103 -0.9163
 5763SOL     OW28924   0.270   3.118   8.987 -0.1277 -0.0859 -0.1676
 5763SOL    HW128925   0.194   3.121   9.046 -1.5353  2.9768 -2.1362
 5763SOL    HW228926   0.227   3.154   8.910 -0.3674  0.0065  0.0073
 5764SOL     OW28927   3.097   0.944   0.131  0.5155 -0.5505  0.0629
 5764SOL    HW128928   3.051   0.997   0.066 -0.2707 -1.0099  0.2302
 5764SOL    HW228929   3.118   1.013   0.194  0.0967 -0.7549  0.4320
 5765SOL     OW28930   1.293   3.347   6.197 -0.5946  0.6003 -0.2550
 5765SOL    HW128931   1.296   3.379   6.287  1.3387 -0.6806  0.1295
 5765SOL    HW228932   1.317   3.421   6.142 -0.1606  1.6016  1.2914
 5766SOL     OW28933   2.664   3.331   1.401  0.0550  0.0231  0.5023
 5766SOL    HW128934   2.692   3.253   1.354 -0.2804  1.5620 -2.2717
 5766SOL    HW228935   2.575   3.303   1.425 -0.0240  0.4674  0.7366
 5767SOL     OW28936   1.596   3.075   9.695  0.1681  0.5392 -0.5276
 5767SOL    HW128937   1.606   3.154   9.641 -2.9158  1.0769 -0.3403
 5767SOL    HW228938   1.530   3.033   9.639  0.4580  0.1663 -0.5901
 5768SOL     OW28939   1.828   2.958   1.648 -0.0705 -0.5726  0.3414
 5768SOL    HW128940   1.746   2.935   1.691 -0.5049  2.3567  1.1159
 5768SOL    HW228941   1.834   3.038   1.700 -2.0232  0.2154 -0.6491
 5769SOL     OW28942   1.744   2.715   8.542 -0.4136  0.0092 -0.7168
 5769SOL    HW128943   1.799   2.717   8.621 -1.2678  0.4663 -0.1297
 5769SOL    HW228944   1.808   2.752   8.480 -0.7048 -0.1015 -1.0807
 5770SOL     OW28945   3.366   4.291   4.373  0.6515 -0.6458  0.0656
 5770SOL    HW128946   3.412   4.300   4.290 -0.5583 -0.1301 -0.5457
 5770SOL    HW228947   3.324   4.376   4.387 -0.2480 -1.0385 -0.2901
 5771SOL     OW28948   3.254   3.985   9.863  0.1197  0.0798  0.2940
 5771SOL    HW128949   3.309   4.064   9.860 -0.4751  0.5851  2.3629
 5771SOL    HW228950   3.174   4.021   9.826  0.3458  2.0055  1.6143
 5772SOL     OW28951   2.171   2.377   7.669 -0.3992 -0.2118  0.0867
 5772SOL    HW128952   2.194   2.467   7.694 -3.6539  0.7599 -0.4697
 5772SOL    HW228953   2.147   2.352   7.758  0.7701  0.7434  0.6794
 5773SOL     OW28954   1.465   3.991   6.718 -0.5130 -0.4173  0.0379
 5773SOL    HW128955   1.436   4.080   6.699 -0.9303 -0.7061 -0.6792
 5773SOL    HW228956   1.410   3.979   6.795  1.5116  0.7717  1.6617
 5774SOL     OW28957   3.076   4.219   6.298  0.3060  0.1625 -0.2158
 5774SOL    HW128958   3.095   4.142   6.244 -0.9690 -0.9043  0.8888
 5774SOL    HW228959   2.981   4.221   6.290  0.5986  1.3445 -3.3461
 5775SOL     OW28960   2.652   3.827  16.262  0.5062 -0.4652  0.4559
 5775SOL    HW128961   2.581   3.811  16.324 -1.6306  0.9974 -1.6380
 5775SOL    HW228962   2.729   3.810  16.317  0.7915  1.7404  0.7204
 5776SOL     OW28963   3.259   0.688   4.305 -0.1809 -0.2357 -0.2098
 5776SOL    HW128964   3.245   0.706   4.212 -1.5437 -0.9556 -0.1365
 5776SOL    HW228965   3.183   0.637   4.331 -2.0219  2.1287 -0.9416
 5777SOL     OW28966   4.530   2.519  12.150  0.5703 -0.3081  0.0667
 5777SOL    HW128967   4.494   2.450  12.205  0.1904 -0.6259 -0.5834
 5777SOL    HW228968   4.602   2.551  12.204  2.7503 -2.1175 -1.7780
 5778SOL     OW28969   3.865   1.626  12.636 -0.3523 -0.0099 -0.1692
 5778SOL    HW128970   3.874   1.543  12.684  0.8612 -0.1248 -0.5876
 5778SOL    HW228971   3.842   1.595  12.548 -1.5389  2.3158 -0.6692
 5779SOL     OW28972   2.915   4.611  12.060  0.0689  0.4853  0.1859
 5779SOL    HW128973   2.997   4.647  12.028 -0.5615 -0.9078 -3.0031
 5779SOL    HW228974   2.854   4.658  12.002  1.0782  2.2779  0.5699
 5780SOL     OW28975   3.384   2.793   4.650 -0.0344  0.2893  0.3198
 5780SOL    HW128976   3.469   2.832   4.631 -0.2760  0.7552  0.1879
 5780SOL    HW228977   3.398   2.725   4.715 -0.2731 -0.4561 -0.4101
 5781SOL     OW28978   1.227   0.844  10.550  0.1268  0.6176 -0.1563
 5781SOL    HW128979   1.279   0.773  10.588  1.9263  1.0796 -1.7524
 5781SOL    HW228980   1.154   0.800  10.507 -0.0183  1.8246 -1.1632
 5782SOL     OW28981   2.287   3.926   2.231 -0.2961  0.1148 -0.0452
 5782SOL    HW128982   2.376   3.957   2.245 -0.2742 -0.0461  0.1811
 5782SOL    HW228983   2.254   3.986   2.164  1.9172 -1.4790 -2.5472
 5783SOL     OW28984   0.288   1.227   8.035 -0.2352 -0.2985 -0.0845
 5783SOL    HW128985   0.262   1.314   8.067  0.2731  0.3989 -1.5722
 5783SOL    HW228986   0.378   1.250   8.012  0.3573 -1.4587  1.0825
 5784SOL     OW28987   1.358   0.155  10.022 -0.3165 -0.3447 -0.5915
 5784SOL    HW128988   1.274   0.201  10.022  1.3269  2.7341 -1.3783
 5784SOL    HW228989   1.330   0.064  10.020 -0.9190 -0.1686  0.1004
 5785SOL     OW28990   3.877   0.081   5.030  0.2229  0.2169 -0.5671
 5785SOL    HW128991   3.953   0.026   5.012  0.6180  1.3807 -2.5258
 5785SOL    HW228992   3.898   0.114   5.117  1.9502 -1.1724 -0.4610
 5786SOL     OW28993   2.071   4.041   6.417  0.0822 -0.3817 -0.1073
 5786SOL    HW128994   2.103   4.113   6.364  0.8017 -1.4907 -1.1786
 5786SOL    HW228995   1.976   4.056   6.421 -0.2334 -2.4574  0.7183
 5787SOL     OW28996   0.743   3.604   5.769  0.7176  0.1734 -0.1086
 5787SOL    HW128997   0.810   3.544   5.801  2.0504  2.2080  0.9045
 5787SOL    HW228998   0.666   3.589   5.825  0.9434 -1.7136 -0.2893
 5788SOL     OW28999   4.436   1.453  12.474  0.4389 -0.5439 -0.2920
 5788SOL    HW129000   4.456   1.502  12.394  0.7982  0.6978  0.5471
 5788SOL    HW229001   4.461   1.361  12.467 -0.2172 -0.8187  1.0473
 5789SOL     OW29002   0.997   0.438   0.771 -0.0403 -0.4411  0.3216
 5789SOL    HW129003   1.020   0.529   0.758 -0.3758 -0.2719  0.8782
 5789SOL    HW229004   0.918   0.420   0.720  0.9200 -0.5400 -1.1256
 5790SOL     OW29005   2.429   0.014  16.253 -0.2000  0.1797 -0.0631
 5790SOL    HW129006   2.503   4.697  16.282 -0.1751  0.8824  1.1205
 5790SOL    HW229007   2.416   4.692  16.177  0.4951  0.4920 -0.4140
 5791SOL     OW29008   2.987   2.965   0.792 -0.3158 -0.1731 -0.3841
 5791SOL    HW129009   3.059   2.949   0.853  1.1210  4.4837 -0.8246
 5791SOL    HW229010   3.026   2.957   0.704 -1.0183  1.3854 -0.8452
 5792SOL     OW29011   0.897   1.374   5.041  0.9763 -0.1157  0.1445
 5792SOL    HW129012   0.925   1.311   4.974  0.7755  0.8386 -0.8419
 5792SOL    HW229013   0.981   1.384   5.085  0.8981 -3.5925  1.0230
 5793SOL     OW29014   4.028   1.429   5.484  0.1581 -0.3711  0.4418
 5793SOL    HW129015   4.124   1.421   5.483  0.1077 -0.8613 -0.4322
 5793SOL    HW229016   4.017   1.519   5.453  3.3708 -0.2777 -0.4450
 5794SOL     OW29017   0.266   1.132  14.789 -0.0034 -0.1227 -0.2257
 5794SOL    HW129018   0.199   1.140  14.721 -0.3149  0.2616  0.1227
 5794SOL    HW229019   0.295   1.043  14.771  0.1801  0.1410 -1.2728
 5795SOL     OW29020   0.249   2.693  12.434 -0.2015 -0.0183  0.3761
 5795SOL    HW129021   0.266   2.743  12.513  1.3202 -0.5487  0.3982
 5795SOL    HW229022   0.273   2.755  12.364 -2.0900 -0.3143 -0.5180
 5796SOL     OW29023   3.372   3.884   3.290 -0.1678 -0.0988 -0.1343
 5796SOL    HW129024   3.468   3.887   3.295 -0.0877 -0.9530 -1.1969
 5796SOL    HW229025   3.366   3.925   3.203  1.5198 -1.9918 -1.1618
 5797SOL     OW29026   2.584   3.888   9.327 -0.5304  0.2762 -0.0695
 5797SOL    HW129027   2.641   3.875   9.402 -0.7122  0.8840  0.1708
 5797SOL    HW229028   2.605   3.817   9.266 -1.0763  0.7078 -0.7728
 5798SOL     OW29029   2.853   2.312   3.212 -0.3296 -0.3210  0.1383
 5798SOL    HW129030   2.886   2.306   3.122 -1.6026 -0.9681 -0.2770
 5798SOL    HW229031   2.804   2.232   3.227  0.7641 -0.9205  0.5529
 5799SOL     OW29032   3.785   1.607  10.900  0.4668 -0.1566 -0.3524
 5799SOL    HW129033   3.751   1.616  10.989 -0.2224 -0.3488 -0.5933
 5799SOL    HW229034   3.871   1.578  10.931  1.0463  2.9675  1.0438
 5800SOL     OW29035   2.567   2.174   2.585  0.3943 -0.0509 -0.4507
 5800SOL    HW129036   2.492   2.138   2.537 -0.2870 -1.5586  1.7459
 5800SOL    HW229037   2.531   2.180   2.673  3.5752 -2.4753  1.0143
 5801SOL     OW29038   2.390   0.372   5.836 -0.1938  0.5893  0.3485
 5801SOL    HW129039   2.437   0.296   5.800  0.5603  0.4761  1.5663
 5801SOL    HW229040   2.449   0.397   5.907  1.4297 -2.5610  0.1057
 5802SOL     OW29041   4.456   1.753   3.336 -0.6023 -0.5017  0.5984
 5802SOL    HW129042   4.453   1.845   3.308  0.1738 -0.0631  1.9177
 5802SOL    HW229043   4.468   1.712   3.251 -1.0921  0.1252  0.2193
 5803SOL     OW29044   4.683   0.375   7.796 -0.1216  0.0238 -0.2839
 5803SOL    HW129045   4.722   0.454   7.833  0.1941  0.5232 -1.6930
 5803SOL    HW229046   4.670   0.316   7.871  0.9302 -0.4591 -0.4714
 5804SOL     OW29047   3.986   2.770   7.826  0.5417  0.3784  0.1123
 5804SOL    HW129048   4.071   2.792   7.865  2.1173 -0.9337 -2.5886
 5804SOL    HW229049   4.005   2.771   7.733  1.3756 -0.7058  0.2664
 5805SOL     OW29050   4.015   3.974   6.612  0.4889 -0.1489 -0.0543
 5805SOL    HW129051   4.063   3.905   6.568  0.8813 -0.8833  1.5274
 5805SOL    HW229052   4.081   4.028   6.656  1.3028 -0.7435 -0.5377
 5806SOL     OW29053   2.779   0.770   3.249 -0.1546 -0.6539  0.5818
 5806SOL    HW129054   2.842   0.839   3.227 -2.1068  1.4024  1.4347
 5806SOL    HW229055   2.742   0.794   3.334  0.4838 -0.3307  0.7716
 5807SOL     OW29056   4.268   2.832   6.525  0.5929  0.3187 -0.2918
 5807SOL    HW129057   4.313   2.912   6.550  1.4058  0.0343 -0.8481
 5807SOL    HW229058   4.283   2.774   6.600 -2.1710  2.0601  1.6237
 5808SOL     OW29059   2.710   0.657   7.942  0.2120 -0.1667  0.0688
 5808SOL    HW129060   2.661   0.720   7.889  2.0304 -1.0447 -2.6751
 5808SOL    HW229061   2.658   0.578   7.931  0.8896 -0.8189  1.5053
 5809SOL     OW29062   3.555   2.344   4.612  0.2973 -0.0070 -0.2941
 5809SOL    HW129063   3.504   2.390   4.546  0.4516 -0.0505 -0.4438
 5809SOL    HW229064   3.628   2.401   4.634 -0.4620  1.1068 -0.6880
 5810SOL     OW29065   2.846   0.750   8.196 -0.6282  0.5336 -0.0738
 5810SOL    HW129066   2.795   0.827   8.222 -1.0945 -0.4753  2.0298
 5810SOL    HW229067   2.808   0.729   8.111 -1.4625 -1.9352  0.8993
 5811SOL     OW29068   1.568   4.575  17.328 -0.6691  0.2423 -0.2008
 5811SOL    HW129069   1.566   4.480  17.340 -3.0864  0.2851 -0.4339
 5811SOL    HW229070   1.623   4.610  17.398 -1.2209  2.0838 -0.6859
 5812SOL     OW29071   4.163   1.230   6.953  0.0078  0.0718  0.1351
 5812SOL    HW129072   4.078   1.248   6.911  0.5075 -2.7707 -2.1609
 5812SOL    HW229073   4.165   1.303   7.014  0.6285  1.9828 -2.2036
 5813SOL     OW29074   2.791   0.053  11.135  0.0970 -0.7580 -0.4933
 5813SOL    HW129075   2.708   0.097  11.153  0.0163 -1.0004 -0.2726
 5813SOL    HW229076   2.826   0.106  11.063  0.2401  0.5086  0.5117
 5814SOL     OW29077   2.980   4.220   3.435  0.5030  0.1768  0.2017
 5814SOL    HW129078   2.948   4.277   3.505 -0.3321  0.4918 -0.4444
 5814SOL    HW229079   2.968   4.278   3.360 -1.4028 -0.3143  0.1161
 5815SOL     OW29080   1.335   1.395  15.583  0.7136 -0.1838  0.3867
 5815SOL    HW129081   1.279   1.342  15.640  0.7312 -0.0471  0.5310
 5815SOL    HW229082   1.350   1.475  15.633 -2.9032  2.0354 -2.0933
 5816SOL     OW29083   3.263   2.871  10.364 -0.0910 -0.1406  0.8868
 5816SOL    HW129084   3.200   2.871  10.436 -1.9853 -0.7785 -0.7543
 5816SOL    HW229085   3.230   2.950  10.322 -1.2563 -0.5184  1.0728
 5817SOL     OW29086   4.417   4.592   6.857  0.1756  0.1044 -0.1223
 5817SOL    HW129087   4.407   4.655   6.786 -0.7436  2.0169  1.6945
 5817SOL    HW229088   4.439   4.666   6.914  3.0716 -0.0796 -1.0464
 5818SOL     OW29089   0.495   1.166   4.799 -0.1620  0.5430 -0.5134
 5818SOL    HW129090   0.587   1.192   4.808 -0.6421  1.4321  1.7152
 5818SOL    HW229091   0.464   1.208   4.879 -1.8461  0.8254 -1.3226
 5819SOL     OW29092   0.357   2.373   4.967 -0.7515  0.1222 -0.2370
 5819SOL    HW129093   0.283   2.353   5.025  0.3586 -0.7398  0.8710
 5819SOL    HW229094   0.328   2.329   4.886 -2.9891  2.4805 -0.6898
 5820SOL     OW29095   1.176   1.709   4.694  0.0004 -0.0793 -0.2728
 5820SOL    HW129096   1.129   1.710   4.778  0.8684 -2.6255  0.2506
 5820SOL    HW229097   1.137   1.782   4.646  0.0514 -0.9463 -1.6101
 5821SOL     OW29098   2.238   1.822  12.667  0.0784 -0.0449 -0.1370
 5821SOL    HW129099   2.219   1.728  12.669 -0.3581  0.1046  2.9965
 5821SOL    HW229100   2.333   1.814  12.676  0.3965  0.7319 -2.6401
 5822SOL     OW29101   0.016   1.311  12.494  0.1805  0.0603 -0.3938
 5822SOL    HW129102   0.033   1.260  12.414 -1.3771 -1.7255  0.4178
 5822SOL    HW229103   4.657   1.317  12.481  0.4242 -0.0902 -2.3534
 5823SOL     OW29104   4.079   0.311   0.537 -0.9288  0.4743 -0.4412
 5823SOL    HW129105   4.082   0.369   0.461  0.6395  1.0012  0.0239
 5823SOL    HW229106   3.985   0.292   0.535 -1.1862  1.5391  1.3994
 5824SOL     OW29107   4.041   0.242   0.883 -0.0143 -0.3599 -0.0255
 5824SOL    HW129108   4.001   0.274   0.963  0.2232 -1.1347  0.4014
 5824SOL    HW229109   3.961   0.211   0.840  0.0564  0.3113 -0.6533
 5825SOL     OW29110   2.119   2.690   8.909  0.2350 -0.4813  0.1246
 5825SOL    HW129111   2.086   2.634   8.839  1.7047 -0.9620 -0.1599
 5825SOL    HW229112   2.104   2.779   8.877  1.0076 -0.4647 -0.1756
 5826SOL     OW29113   0.616   4.392  10.403 -0.8598  0.5258  0.2093
 5826SOL    HW129114   0.676   4.388  10.328 -2.1628  3.6667 -0.9877
 5826SOL    HW229115   0.533   4.413  10.359 -0.2253  0.3235 -1.0814
 5827SOL     OW29116   0.747   4.310  10.187 -0.2184 -0.4124  0.0268
 5827SOL    HW129117   0.789   4.225  10.172 -2.4181 -1.7089  1.3299
 5827SOL    HW229118   0.680   4.301  10.119  0.7126  1.2982 -1.1159
 5828SOL     OW29119   1.128   4.156   6.436  0.0232 -0.2595  0.1429
 5828SOL    HW129120   1.126   4.061   6.423  0.3845 -0.3161  0.5182
 5828SOL    HW229121   1.211   4.180   6.395 -0.2779  0.0821 -0.2662
 5829SOL     OW29122   1.913   4.405   5.211  0.0764 -0.2759  0.0753
 5829SOL    HW129123   1.845   4.467   5.239  0.6143 -0.2256  1.2729
 5829SOL    HW229124   1.858   4.327   5.204 -0.8717  0.4441 -0.4397
 5830SOL     OW29125   0.788   3.253   4.624  0.2394  0.2812 -0.1623
 5830SOL    HW129126   0.710   3.308   4.626 -1.1754 -1.8139  0.9443
 5830SOL    HW229127   0.861   3.311   4.600 -0.6156  2.0164  1.3972
 5831SOL     OW29128   4.225   2.464   9.908 -0.1215 -0.0550  0.4549
 5831SOL    HW129129   4.305   2.434   9.867  1.7093  0.2769  3.7650
 5831SOL    HW229130   4.183   2.397   9.962  0.9145 -1.1919 -0.1634
 5832SOL     OW29131   2.118   4.302   6.254 -0.3377 -0.3794  1.0566
 5832SOL    HW129132   2.061   4.336   6.322 -1.4942 -0.1835 -0.0041
 5832SOL    HW229133   2.190   4.365   6.261  0.6025 -1.4752  1.1719
 5833SOL     OW29134   0.843   0.315   6.880 -0.4849  0.1899 -0.1851
 5833SOL    HW129135   0.819   0.291   6.969 -0.2758  0.2764 -0.1071
 5833SOL    HW229136   0.759   0.356   6.856 -1.2277  1.2805  4.3523
 5834SOL     OW29137   1.998   0.291   6.375 -0.0275  0.0923  0.0433
 5834SOL    HW129138   2.034   0.307   6.463 -1.2955  1.0240  0.3840
 5834SOL    HW229139   2.035   0.368   6.333 -1.8071 -0.5427 -2.6646
 5835SOL     OW29140   4.435   4.700   8.482 -0.0905 -0.2105  0.4419
 5835SOL    HW129141   4.388   0.038   8.521 -0.2733 -0.0431 -0.0950
 5835SOL    HW229142   4.384   4.624   8.512  1.8212 -1.4836  0.4180
 5836SOL     OW29143   2.451   4.039   6.502  0.2355 -0.2291  0.5420
 5836SOL    HW129144   2.541   4.024   6.473 -0.4155  0.2416 -1.7727
 5836SOL    HW229145   2.437   3.975   6.572  1.2133 -1.3907 -0.3062
 5837SOL     OW29146   2.228   0.760   3.555 -0.1338  0.0056  0.3238
 5837SOL    HW129147   2.268   0.844   3.532  1.5544 -1.1232 -0.8461
 5837SOL    HW229148   2.299   0.697   3.547  0.6939  0.7234  1.9473
 5838SOL     OW29149   2.802   2.690   5.221  0.3358 -0.2272 -0.2600
 5838SOL    HW129150   2.896   2.699   5.203  0.2325  1.3604  0.0091
 5838SOL    HW229151   2.789   2.770   5.272  1.8928  0.6518 -1.2669
 5839SOL     OW29152   3.517   0.962   2.912 -0.9571  0.0151  0.0584
 5839SOL    HW129153   3.577   0.943   2.984 -0.0604 -0.0480 -0.7019
 5839SOL    HW229154   3.567   0.916   2.845 -3.6689 -0.2655 -1.7708
 5840SOL     OW29155   1.282   4.633  10.010  0.0022  0.4298  0.0820
 5840SOL    HW129156   1.303   4.592  10.093 -2.5806 -1.2847 -0.1205
 5840SOL    HW229157   1.232   4.559   9.974 -2.1388  1.0294  1.8938
 5841SOL     OW29158   2.370   1.629   6.098 -0.3273  0.4324  0.1418
 5841SOL    HW129159   2.283   1.669   6.096 -0.2977  0.6238  2.8541
 5841SOL    HW229160   2.409   1.650   6.183 -1.8275  1.1310  0.6691
 5842SOL     OW29161   4.446   1.939  15.010 -0.5026 -0.1323  0.2517
 5842SOL    HW129162   4.484   2.027  15.014  4.2589 -2.1617 -0.2864
 5842SOL    HW229163   4.353   1.950  14.991 -0.2514  1.2353 -0.1746
 5843SOL     OW29164   4.495   0.526   0.754 -0.2139  0.1783 -0.5300
 5843SOL    HW129165   4.539   0.442   0.766 -1.2425 -0.5158 -1.7131
 5843SOL    HW229166   4.405   0.505   0.777 -0.0855  1.1053  0.8708
 5844SOL     OW29167   4.120   3.516  13.927  0.6133 -0.0738  0.2559
 5844SOL    HW129168   4.201   3.490  13.881  0.3542 -1.3024  0.4830
 5844SOL    HW229169   4.116   3.611  13.929 -1.0793 -0.1866  1.3855
 5845SOL     OW29170   3.357   1.787   2.004  0.4617  0.2787  0.0094
 5845SOL    HW129171   3.427   1.787   2.069 -1.4064  1.1182  2.0491
 5845SOL    HW229172   3.381   1.709   1.954 -1.1739 -0.5501  0.4990
 5846SOL     OW29173   2.018   4.506   7.378  0.2337 -0.6051  0.3376
 5846SOL    HW129174   2.068   4.575   7.421 -0.2188 -0.7066  1.0273
 5846SOL    HW229175   2.020   4.427   7.433 -2.8076 -1.1335 -0.3274
 5847SOL     OW29176   4.056   0.390  12.078  0.2067 -0.4923  0.1914
 5847SOL    HW129177   4.065   0.299  12.049  1.5352 -0.2327 -0.2096
 5847SOL    HW229178   3.979   0.412  12.026  1.8534  0.4870 -1.8197
 5848SOL     OW29179   0.747   3.052   2.321  0.2279  0.5471 -0.1456
 5848SOL    HW129180   0.834   3.071   2.355 -0.5654 -0.5730  2.5479
 5848SOL    HW229181   0.755   2.958   2.334 -0.6326  0.6078  0.8566
 5849SOL     OW29182   0.323   1.157  15.060  0.2050  0.2993  0.4420
 5849SOL    HW129183   0.288   1.138  14.973  0.2751 -2.2091  0.9640
 5849SOL    HW229184   0.339   1.069  15.094 -0.3104  0.1301  0.2413
 5850SOL     OW29185   0.613   3.553   7.578 -0.4824  0.0533 -0.1085
 5850SOL    HW129186   0.705   3.569   7.598 -0.2721 -2.1477  0.6550
 5850SOL    HW229187   0.626   3.511   7.494  2.7003  0.1526  0.3473
 5851SOL     OW29188   2.088   0.575   9.202  0.0982  0.1013  0.6577
 5851SOL    HW129189   2.181   0.599   9.200  0.5195 -1.8360 -3.1418
 5851SOL    HW229190   2.073   0.596   9.109 -3.8731  0.2709  1.3838
 5852SOL     OW29191   4.127   0.547   6.616  0.1561 -0.8709 -0.3518
 5852SOL    HW129192   4.127   0.615   6.683 -1.3202  0.2588 -1.4664
 5852SOL    HW229193   4.094   0.475   6.669 -1.6523 -0.0952 -0.4079
 5853SOL     OW29194   2.483   0.608   1.363  0.2173 -1.1452  0.3235
 5853SOL    HW129195   2.574   0.630   1.341 -0.0764  0.5647  0.8369
 5853SOL    HW229196   2.459   0.662   1.438  1.2616 -0.6197  0.2826
 5854SOL     OW29197   2.478   2.964   1.003 -0.1990 -0.8893  0.0239
 5854SOL    HW129198   2.474   2.917   1.087  0.3091 -0.1810  0.4506
 5854SOL    HW229199   2.550   2.929   0.951  1.6535 -0.3248  2.1890
 5855SOL     OW29200   0.912   3.913  12.733  0.6489 -0.0308 -0.1807
 5855SOL    HW129201   0.883   3.987  12.786  0.6562 -1.1487  1.4004
 5855SOL    HW229202   1.003   3.934  12.716  0.3139  1.7703  0.2269
 5856SOL     OW29203   3.808   0.264   7.710 -0.4688  0.0424 -0.0241
 5856SOL    HW129204   3.858   0.330   7.662  0.7905  0.8451  2.4295
 5856SOL    HW229205   3.851   0.189   7.669  1.9400  1.2570  0.2953
 5857SOL     OW29206   3.245   3.557   1.886 -0.5546 -0.7356  0.0079
 5857SOL    HW129207   3.216   3.560   1.794 -3.7425 -0.0044  1.0297
 5857SOL    HW229208   3.288   3.642   1.896 -1.4247 -0.4397  1.2627
 5858SOL     OW29209   4.083   0.238   9.501  0.1559 -0.3044 -0.1171
 5858SOL    HW129210   4.031   0.276   9.571  0.1055  0.4253 -0.5383
 5858SOL    HW229211   4.174   0.263   9.521 -0.0680 -0.5052  1.1506
 5859SOL     OW29212   1.278   4.087   6.989 -0.6088  0.7209 -0.1306
 5859SOL    HW129213   1.249   4.055   7.074  2.4588  1.8247  1.3258
 5859SOL    HW229214   1.208   4.047   6.938 -1.3436  0.4531  1.0847
 5860SOL     OW29215   4.495   2.004  14.404  0.2519 -0.0332  0.3168
 5860SOL    HW129216   4.529   1.991  14.316  1.6745 -1.1802  1.0309
 5860SOL    HW229217   4.473   2.097  14.417 -0.2019 -0.2024  0.7515
 5861SOL     OW29218   0.093   0.944   5.540 -0.5081  0.3740  0.4120
 5861SOL    HW129219   0.012   0.976   5.580 -0.0340  0.0090  1.6506
 5861SOL    HW229220   0.142   1.024   5.559 -2.1859  0.9539  2.2715
 5862SOL     OW29221   4.505   3.577  14.747  0.0415  0.4502 -0.0587
 5862SOL    HW129222   4.586   3.532  14.724 -1.4474 -0.2574 -4.0429
 5862SOL    HW229223   4.437   3.520  14.711  0.9443 -0.8776  0.3307
 5863SOL     OW29224   0.316   0.755   9.845 -0.2964  0.3286  0.3229
 5863SOL    HW129225   0.233   0.786   9.810  0.3350  1.5895 -0.0490
 5863SOL    HW229226   0.313   0.672   9.798  1.9122  0.7867 -0.6310
 5864SOL     OW29227   1.378   0.626  10.653 -0.4805  0.2178 -0.3243
 5864SOL    HW129228   1.452   0.621  10.591 -0.6693 -0.5355 -0.4856
 5864SOL    HW229229   1.406   0.561  10.717 -3.3562 -0.3780  0.3148
 5865SOL     OW29230   4.439   2.546  13.114  0.7540  0.1726 -0.3512
 5865SOL    HW129231   4.493   2.470  13.136 -0.5770 -0.4335  0.8122
 5865SOL    HW229232   4.502   2.618  13.119 -0.8202  1.5905 -0.9154
 5866SOL     OW29233   1.122   0.393  14.863  0.3204 -0.3669 -0.4157
 5866SOL    HW129234   1.045   0.434  14.823  0.2441  0.2777  0.3861
 5866SOL    HW229235   1.098   0.301  14.857 -2.0000  0.3149 -1.6182
 5867SOL     OW29236   2.192   3.274   2.772 -0.0200 -0.3133 -0.3090
 5867SOL    HW129237   2.192   3.246   2.680 -0.4357  1.8020 -0.9470
 5867SOL    HW229238   2.106   3.248   2.803 -0.8118  1.4952 -1.0264
 5868SOL     OW29239   1.884   4.316   5.583  0.4111 -0.6575  0.0126
 5868SOL    HW129240   1.906   4.406   5.562  0.8774 -0.5563  0.9023
 5868SOL    HW229241   1.885   4.318   5.679 -1.1071  1.9642 -0.0506
 5869SOL     OW29242   1.681   3.410   8.531 -0.3746  1.0120  0.9825
 5869SOL    HW129243   1.651   3.358   8.606  0.1579 -0.1586  0.3963
 5869SOL    HW229244   1.775   3.392   8.523 -1.0985 -3.4528  2.1804
 5870SOL     OW29245   2.467   3.516   1.581  0.4381 -1.1438 -0.4907
 5870SOL    HW129246   2.446   3.467   1.502  0.5367 -1.3244 -0.4028
 5870SOL    HW229247   2.555   3.548   1.562  0.2168 -0.3513 -0.1997
 5871SOL     OW29248   3.043   0.878  15.397  0.0352  0.4338  0.0496
 5871SOL    HW129249   3.088   0.962  15.390  0.9095 -0.1879 -1.8548
 5871SOL    HW229250   2.987   0.896  15.321 -0.0251  0.8078  0.1844
 5872SOL     OW29251   2.494   0.829  10.864  0.6063 -0.5957  0.5740
 5872SOL    HW129252   2.489   0.858  10.773 -1.0160 -0.7746  0.6089
 5872SOL    HW229253   2.403   0.818  10.890  1.5751 -3.5939  2.7571
 5873SOL     OW29254   0.824   4.701   7.525  0.0866 -0.5760  0.0103
 5873SOL    HW129255   0.821   4.640   7.599 -0.8642 -0.9873 -0.3545
 5873SOL    HW229256   0.745   0.017   7.544 -1.3923 -3.6276  2.1222
 5874SOL     OW29257   0.367   0.738   9.131 -0.3097 -0.0430 -0.2364
 5874SOL    HW129258   0.342   0.818   9.177 -3.5363 -1.6098  0.7631
 5874SOL    HW229259   0.289   0.682   9.127 -0.0076 -0.5581  0.9900
 5875SOL     OW29260   2.834   0.938   7.536 -0.1389 -0.3297 -0.3822
 5875SOL    HW129261   2.843   0.998   7.610  0.0504  0.3762 -0.9778
 5875SOL    HW229262   2.922   0.903   7.521  0.2150  0.3572  0.1081
 5876SOL     OW29263   1.757   2.777   4.363  0.2916 -0.0728 -0.3023
 5876SOL    HW129264   1.697   2.790   4.436  0.3076  0.8036 -0.4521
 5876SOL    HW229265   1.756   2.859   4.315 -0.7842  0.0009 -0.1553
 5877SOL     OW29266   0.812   4.355  10.835  0.4607 -0.4232  0.3704
 5877SOL    HW129267   0.881   4.289  10.846  0.6544 -0.3210 -0.1907
 5877SOL    HW229268   0.786   4.332  10.746  2.3791  2.4152 -0.9455
 5878SOL     OW29269   2.202   3.226  15.439 -0.0346 -0.0460 -0.1335
 5878SOL    HW129270   2.204   3.172  15.359 -2.1809 -0.8618  0.3650
 5878SOL    HW229271   2.195   3.154  15.500 -1.2544  0.5771  0.4631
 5879SOL     OW29272   2.628   0.298  14.246  0.2336 -0.1326  0.3750
 5879SOL    HW129273   2.694   0.311  14.314  1.7062 -1.4898 -0.7779
 5879SOL    HW229274   2.556   0.274  14.305  0.4526 -2.1966 -0.1791
 5880SOL     OW29275   1.498   0.720   5.892 -0.4081 -0.2877 -0.7821
 5880SOL    HW129276   1.552   0.780   5.841  0.6440 -0.5285  0.0388
 5880SOL    HW229277   1.499   0.643   5.835 -0.4136 -0.9226  0.0697
 5881SOL     OW29278   1.385   3.195   5.407  0.8972 -0.4859  0.4359
 5881SOL    HW129279   1.407   3.102   5.408  2.2028 -0.2015 -0.2992
 5881SOL    HW229280   1.295   3.178   5.378  1.6554 -1.8853 -1.1154
 5882SOL     OW29281   1.360   1.942   6.226  0.1031  0.6399  0.3994
 5882SOL    HW129282   1.272   1.926   6.260 -0.0034  0.0624 -0.1558
 5882SOL    HW229283   1.411   1.892   6.290  3.1346 -0.6623 -3.0851
 5883SOL     OW29284   1.222   3.411  16.250 -0.4880 -0.4739 -0.2249
 5883SOL    HW129285   1.167   3.437  16.176 -0.4683 -0.0374 -0.0855
 5883SOL    HW229286   1.207   3.317  16.259  0.3973 -0.5720  0.1987
 5884SOL     OW29287   4.345   1.991   2.168 -0.1912 -0.3406  0.0974
 5884SOL    HW129288   4.251   1.994   2.148  0.4566 -2.2019 -3.1621
 5884SOL    HW229289   4.369   1.907   2.128 -0.9841  0.1900 -1.4859
 5885SOL     OW29290   2.610   2.046   7.006 -0.3399 -0.5850 -0.3245
 5885SOL    HW129291   2.612   1.972   7.067  1.0742 -0.5236 -0.2997
 5885SOL    HW229292   2.528   2.084   7.037 -0.2422  0.2975 -1.1566
 5886SOL     OW29293   3.013   0.150   0.490 -0.1219  0.1656  0.0226
 5886SOL    HW129294   3.055   0.148   0.404  1.1521 -2.0007  0.6854
 5886SOL    HW229295   2.948   0.081   0.478  0.2613  0.0226 -1.2665
 5887SOL     OW29296   2.604   3.691  13.877 -0.1164 -0.6780 -0.6003
 5887SOL    HW129297   2.521   3.738  13.887  1.4866  2.1347 -0.5764
 5887SOL    HW229298   2.607   3.639  13.957  2.4648 -0.8138 -0.8034
 5888SOL     OW29299   4.318   0.849   1.303  0.0619 -0.3484 -0.1548
 5888SOL    HW129300   4.390   0.807   1.254  1.3303 -0.7178  2.0287
 5888SOL    HW229301   4.262   0.776   1.329 -1.7719  0.6576 -1.2878
 5889SOL     OW29302   2.879   3.830   0.849 -0.1615  0.1103 -0.2478
 5889SOL    HW129303   2.819   3.756   0.857 -0.5602  0.4118 -0.4279
 5889SOL    HW229304   2.821   3.897   0.888  2.3590  1.2845  1.4759
 5890SOL     OW29305   0.966   3.207   8.511  0.0084 -0.1102  0.1472
 5890SOL    HW129306   1.050   3.214   8.555 -0.6096 -1.4430  1.5602
 5890SOL    HW229307   0.902   3.196   8.582 -0.7653 -1.4017 -0.7637
 5891SOL     OW29308   0.176   1.776   0.757 -0.0004  0.3505  0.2830
 5891SOL    HW129309   0.218   1.767   0.671  1.7777 -0.5290  1.2483
 5891SOL    HW229310   0.120   1.698   0.754  0.1918  0.2399 -0.3943
 5892SOL     OW29311   3.421   0.773   0.592  0.4663 -0.1244  0.4698
 5892SOL    HW129312   3.434   0.758   0.498  0.4301 -0.5268  0.5315
 5892SOL    HW229313   3.509   0.760   0.626  0.0780 -1.8249  0.7998
 5893SOL     OW29314   1.801   2.994   4.184  0.4749 -0.2507 -0.3005
 5893SOL    HW129315   1.743   3.055   4.138  1.1430  0.9876  0.4837
 5893SOL    HW229316   1.885   3.027   4.152  1.5234 -2.8799 -0.2409
 5894SOL     OW29317   3.936   3.981   7.538  0.8153 -0.4632  0.1280
 5894SOL    HW129318   3.948   4.004   7.630  0.3486 -0.0298  0.0821
 5894SOL    HW229319   4.017   3.934   7.518  0.4668 -0.8264 -0.4534
 5895SOL     OW29320   1.354   3.799   9.022 -0.0356 -0.7282  0.6261
 5895SOL    HW129321   1.270   3.838   9.045  0.0752  0.2986 -0.6749
 5895SOL    HW229322   1.328   3.711   8.993  2.0216 -0.7173 -1.2995
 5896SOL     OW29323   4.618   1.861  14.818 -0.2859 -0.3648 -0.1332
 5896SOL    HW129324   4.549   1.799  14.792 -0.9641 -0.4063  1.7389
 5896SOL    HW229325   4.564   1.887  14.893  1.0772  1.8464  0.0740
 5897SOL     OW29326   2.399   1.995   5.868  0.4813 -0.4395 -0.1638
 5897SOL    HW129327   2.351   2.068   5.830 -0.3481  0.2811  2.2354
 5897SOL    HW229328   2.343   1.984   5.945 -1.4785 -1.4430 -1.7469
 5898SOL     OW29329   4.704   4.223   9.376 -0.0106  0.1008  0.2291
 5898SOL    HW129330   4.626   4.254   9.422  0.5017  1.1966  0.3620
 5898SOL    HW229331   0.047   4.250   9.425 -0.1529  0.6256  0.1689
 5899SOL     OW29332   3.914   4.468  13.082 -0.3536  0.3991 -0.0613
 5899SOL    HW129333   3.970   4.544  13.069  1.5436 -0.5635  2.4795
 5899SOL    HW229334   3.859   4.467  13.003  0.8181  0.2379 -0.8704
 5900SOL     OW29335   0.385   3.976  15.803 -0.1081  0.0780 -0.4249
 5900SOL    HW129336   0.460   4.018  15.761  1.0203 -0.0875  1.3964
 5900SOL    HW229337   0.315   4.035  15.777 -0.0205  0.3377 -0.0699
 5901SOL     OW29338   1.671   2.942  16.741  0.1727 -0.1729 -0.5665
 5901SOL    HW129339   1.746   2.892  16.773 -0.2327 -0.3604  0.0885
 5901SOL    HW229340   1.603   2.925  16.806 -0.4626  0.6665 -1.0113
 5902SOL     OW29341   0.363   4.723  14.928  0.2120 -0.1065 -0.0429
 5902SOL    HW129342   0.311   0.023  15.000  2.1199 -1.0902  1.8166
 5902SOL    HW229343   0.304   4.654  14.898  0.2291 -0.8864  1.7337
 5903SOL     OW29344   4.197   1.767   9.399  0.1062  0.1647 -0.3501
 5903SOL    HW129345   4.125   1.705   9.412  0.7672 -1.5201 -4.6329
 5903SOL    HW229346   4.243   1.755   9.482  2.2992  0.0420 -1.5786
 5904SOL     OW29347   3.209   2.606   1.889 -0.0272  0.1428 -0.1014
 5904SOL    HW129348   3.273   2.630   1.956  0.6832 -1.2265 -0.2863
 5904SOL    HW229349   3.156   2.546   1.942  2.4696 -1.1891  0.9256
 5905SOL     OW29350   4.618   3.920  16.040  0.1909 -0.1395 -0.1598
 5905SOL    HW129351   4.629   3.980  15.966 -2.7741 -0.0689 -0.5421
 5905SOL    HW229352   4.579   3.844  15.997 -1.0043  0.8184 -0.7655
 5906SOL     OW29353   2.353   3.459  15.386 -0.0291 -0.1292 -0.0288
 5906SOL    HW129354   2.328   3.367  15.388 -1.3211  0.1659 -2.0727
 5906SOL    HW229355   2.285   3.483  15.448  1.2165  1.4885  0.7219
 5907SOL     OW29356   2.505   2.187  13.580  0.1212 -0.1496  0.1019
 5907SOL    HW129357   2.595   2.197  13.547 -0.5337 -0.0155 -1.6758
 5907SOL    HW229358   2.458   2.265  13.551 -0.2747 -0.0586  1.0152
 5908SOL     OW29359   4.456   1.374   5.081  0.0559  0.0073 -0.4437
 5908SOL    HW129360   4.549   1.397   5.075  0.2659 -0.9634 -0.8935
 5908SOL    HW229361   4.416   1.441   5.026 -2.1233 -0.8188  0.1683
 5909SOL     OW29362   4.496   2.937   7.249 -0.3742  0.3155  0.5326
 5909SOL    HW129363   4.451   3.021   7.239 -1.0668 -0.4129 -2.4172
 5909SOL    HW229364   4.574   2.940   7.194 -1.6447  0.4300 -1.2658
 5910SOL     OW29365   2.058   3.306  15.731 -0.5669 -0.3118 -0.2472
 5910SOL    HW129366   2.153   3.305  15.717  0.1203 -2.4589  4.3590
 5910SOL    HW229367   2.051   3.290  15.826 -3.6520 -1.5743 -0.6879
 5911SOL     OW29368   2.093   4.633  17.620  0.0606  0.3754  0.0127
 5911SOL    HW129369   2.121   4.545  17.596  0.0481 -0.2839  2.3858
 5911SOL    HW229370   2.065   4.631  17.711 -0.7921 -1.6229 -0.2916
 5912SOL     OW29371   1.730   3.273  16.682 -0.2033 -0.3075  0.0950
 5912SOL    HW129372   1.656   3.266  16.743 -0.6429 -0.4443 -0.4593
 5912SOL    HW229373   1.714   3.215  16.608 -0.7066  1.3656 -1.1194
 5913SOL     OW29374   1.714   3.561   3.186 -0.3815  0.7043  0.1655
 5913SOL    HW129375   1.665   3.524   3.112 -1.5236  0.2245  1.1670
 5913SOL    HW229376   1.753   3.478   3.213  0.6425  1.7023  1.7604
 5914SOL     OW29377   2.985   2.233  11.327 -0.4310 -0.0812 -0.4853
 5914SOL    HW129378   3.010   2.308  11.382 -2.2617  0.0909  0.1180
 5914SOL    HW229379   2.909   2.270  11.282  1.1839  2.4435 -1.1422
 5915SOL     OW29380   4.343   1.961  10.144  0.2709 -0.3802 -0.0703
 5915SOL    HW129381   4.388   1.899  10.202  1.6164  0.3186 -0.3598
 5915SOL    HW229382   4.328   2.030  10.210 -1.5343 -1.6512  0.8401
 5916SOL     OW29383   3.471   2.238  16.008  0.2977  0.0662  0.0670
 5916SOL    HW129384   3.406   2.178  16.045 -1.6452  1.8629 -0.4126
 5916SOL    HW229385   3.530   2.262  16.079  1.4162 -3.3916  0.3229
 5917SOL     OW29386   2.972   1.263  16.627  0.0933 -0.3028 -0.1793
 5917SOL    HW129387   2.877   1.278  16.623  0.1533  0.1541  0.0972
 5917SOL    HW229388   2.988   1.264  16.532 -1.0664  1.0749 -0.3637
 5918SOL     OW29389   2.877   2.967  14.805  0.1878  0.0777 -0.4953
 5918SOL    HW129390   2.795   2.925  14.778 -0.9668  0.6399  2.1940
 5918SOL    HW229391   2.933   2.890  14.805  0.5059  0.3125 -0.3799
 5919SOL     OW29392   4.155   3.099   6.814  0.4029 -0.3880 -0.4646
 5919SOL    HW129393   4.082   3.150   6.781  0.4854  0.3430  0.5046
 5919SOL    HW229394   4.113   3.014   6.826 -1.1988  0.4711 -0.0855
 5920SOL     OW29395   2.855   2.075   4.214  0.3080  0.3775 -0.2838
 5920SOL    HW129396   2.766   2.105   4.231  0.3250 -0.3852  1.1799
 5920SOL    HW229397   2.867   2.028   4.297 -1.3272 -0.4252 -0.5125
 5921SOL     OW29398   3.201   1.220   6.298 -0.5442 -0.3916 -0.0611
 5921SOL    HW129399   3.261   1.236   6.370 -2.0281  2.4425  0.5324
 5921SOL    HW229400   3.266   1.182   6.239  0.2398 -1.3551  1.4161
 5922SOL     OW29401   2.534   0.285  12.666  0.6795 -0.5792  0.2401
 5922SOL    HW129402   2.548   0.200  12.624 -0.2060  0.2324 -1.6439
 5922SOL    HW229403   2.551   0.258  12.757  0.4995  2.4261  1.1705
 5923SOL     OW29404   1.175   0.612   3.644 -0.0584  0.1333 -0.1422
 5923SOL    HW129405   1.226   0.538   3.612 -0.2204  0.3107 -0.8087
 5923SOL    HW229406   1.205   0.618   3.735  0.9705  0.7227 -0.5115
 5924SOL     OW29407   1.059   2.501   9.772 -0.2601 -0.2511 -0.1511
 5924SOL    HW129408   1.054   2.507   9.676  2.8993  4.8878  0.0255
 5924SOL    HW229409   1.029   2.586   9.803 -2.3124 -1.2976  0.7486
 5925SOL     OW29410   1.681   0.552   3.084  0.5251 -0.5174 -0.2347
 5925SOL    HW129411   1.609   0.583   3.139  2.4672  0.6312  1.6660
 5925SOL    HW229412   1.646   0.468   3.053 -2.0124  0.2021  0.6471
 5926SOL     OW29413   3.421   1.225   1.173 -0.0019  0.1650  0.0541
 5926SOL    HW129414   3.388   1.160   1.112 -3.9394  0.9917  1.2902
 5926SOL    HW229415   3.389   1.303   1.128  0.2369 -0.4014 -1.0827
 5927SOL     OW29416   1.026   3.375   3.177 -0.5444  0.1193  0.1827
 5927SOL    HW129417   1.053   3.355   3.267  1.5020  1.0946 -0.2138
 5927SOL    HW229418   1.056   3.465   3.188  0.2017  0.1833 -2.4670
 5928SOL     OW29419   2.258   3.119   3.044  0.0757  0.2166 -0.0520
 5928SOL    HW129420   2.221   3.129   3.131 -0.5793  1.0149 -0.4229
 5928SOL    HW229421   2.321   3.191   3.049  0.2040  0.1438 -0.6013
 5929SOL     OW29422   2.057   3.578   4.717  0.2746  0.7372  0.0869
 5929SOL    HW129423   1.996   3.606   4.649 -0.1985  2.1091  1.0597
 5929SOL    HW229424   2.101   3.659   4.745  1.2872  0.7414 -1.5214
 5930SOL     OW29425   3.544   1.846   6.145 -0.6574  0.7407 -0.0267
 5930SOL    HW129426   3.572   1.836   6.055  0.8596 -1.4264  0.6967
 5930SOL    HW229427   3.520   1.755   6.161  3.5340 -0.4302 -0.4182
 5931SOL     OW29428   1.205   0.316   9.369  0.2381  0.3271 -0.2414
 5931SOL    HW129429   1.217   0.275   9.284 -0.1792  1.6868 -0.9662
 5931SOL    HW229430   1.111   0.302   9.380 -0.1076  0.9469 -2.3969
 5932SOL     OW29431   4.106   2.732   8.321 -0.1878 -0.0250  0.4723
 5932SOL    HW129432   4.072   2.648   8.290 -0.9707  0.5069 -0.1007
 5932SOL    HW229433   4.083   2.726   8.414  2.0358  1.7621  1.1484
 5933SOL     OW29434   0.863   1.019   7.439 -0.7562  0.2782  0.1550
 5933SOL    HW129435   0.792   1.054   7.386  1.3799 -0.2093 -3.0327
 5933SOL    HW229436   0.825   1.005   7.526  0.5361 -1.4099  0.4561
 5934SOL     OW29437   1.548   2.088  12.583  0.6674 -0.1771  0.1067
 5934SOL    HW129438   1.473   2.126  12.537 -0.6527 -1.4678  1.2087
 5934SOL    HW229439   1.499   2.030  12.640  1.8160  1.0542  2.3338
 5935SOL     OW29440   0.011   2.059  15.859 -0.4283 -0.0491  0.1736
 5935SOL    HW129441   0.103   2.040  15.844 -0.1513  0.8033  0.8182
 5935SOL    HW229442   0.016   2.155  15.859  2.3928 -0.2054  3.5325
 5936SOL     OW29443   2.133   4.176  17.730  0.2521  0.5362  0.1425
 5936SOL    HW129444   2.116   4.192   0.083  0.6609  2.4267 -0.1055
 5936SOL    HW229445   2.114   4.083  17.724 -0.3600  0.6752 -0.0480
 5937SOL     OW29446   0.456   2.264   5.895 -1.1809  0.1838  0.2685
 5937SOL    HW129447   0.464   2.331   5.963 -0.5009 -0.8431  1.2012
 5937SOL    HW229448   0.392   2.307   5.838  0.2364  1.9345  0.0170
 5938SOL     OW29449   4.224   4.560   8.606 -0.1033 -0.4787 -0.0735
 5938SOL    HW129450   4.231   4.515   8.690 -1.0390 -2.9399 -1.3287
 5938SOL    HW229451   4.201   4.491   8.545  0.9182  0.9063 -2.0327
 5939SOL     OW29452   1.888   4.508   8.531 -0.1575  0.4452  0.0857
 5939SOL    HW129453   1.932   4.446   8.589  0.5394  0.8173 -0.0589
 5939SOL    HW229454   1.858   4.569   8.598  2.8433  0.3627  1.4961
 5940SOL     OW29455   0.637   0.869   7.168  0.3443  0.7071  0.1214
 5940SOL    HW129456   0.563   0.816   7.196 -0.3774  2.4580  1.5507
 5940SOL    HW229457   0.674   0.812   7.100  0.7698 -0.1539  1.0888
 5941SOL     OW29458   1.342   4.102   9.607 -0.1654  0.6344 -0.8812
 5941SOL    HW129459   1.312   4.149   9.685  1.3540 -1.6625  1.0774
 5941SOL    HW229460   1.386   4.166   9.550 -2.1038  1.7503 -1.1052
 5942SOL     OW29461   3.277   4.266   5.692 -0.4157 -0.2817  0.4395
 5942SOL    HW129462   3.275   4.207   5.617  1.3715  0.2491 -0.0226
 5942SOL    HW229463   3.216   4.212   5.742  0.1535 -0.5200  0.8757
 5943SOL     OW29464   3.350   0.419   4.947 -0.1254  0.4092 -0.2253
 5943SOL    HW129465   3.289   0.463   4.888 -1.5291  0.1149  0.9995
 5943SOL    HW229466   3.428   0.473   4.959 -0.1130  0.5873 -1.1238
 5944SOL     OW29467   2.839   4.541   4.405 -0.1987  0.2629 -0.6664
 5944SOL    HW129468   2.891   4.592   4.344  0.5050  0.5572  0.1723
 5944SOL    HW229469   2.829   4.459   4.356 -0.5142 -0.3313  0.3669
 5945SOL     OW29470   4.024   1.467   3.353 -0.5330  0.5902  0.1050
 5945SOL    HW129471   4.055   1.555   3.375 -2.6213  1.4937 -0.5750
 5945SOL    HW229472   4.034   1.459   3.258 -2.6017  1.5913 -0.1922
 5946SOL     OW29473   4.610   0.102   4.334  0.9600  0.2203 -0.3490
 5946SOL    HW129474   4.579   0.090   4.424  1.8614 -1.4658 -0.2541
 5946SOL    HW229475   4.689   0.145   4.366  1.0277 -0.2377  0.1101
 5947SOL     OW29476   1.091   3.356   9.455  0.4694 -0.9633  0.2119
 5947SOL    HW129477   1.052   3.406   9.527 -1.2270 -2.2599  0.1862
 5947SOL    HW229478   1.030   3.386   9.387  0.5659  1.0052  0.9957
 5948SOL     OW29479   3.070   3.398   2.601  0.2060 -0.2310  0.4418
 5948SOL    HW129480   3.104   3.471   2.550 -1.9112 -0.3736 -1.1401
 5948SOL    HW229481   3.145   3.384   2.660  0.9375 -1.3691 -0.7480
 5949SOL     OW29482   3.534   2.579   6.300 -0.2446  0.2223 -0.1243
 5949SOL    HW129483   3.505   2.645   6.364  0.9947 -0.9090  1.5927
 5949SOL    HW229484   3.581   2.628   6.232 -0.7385 -1.2017 -1.4646
 5950SOL     OW29485   4.001   0.898   6.038 -0.4925 -0.0969  0.4171
 5950SOL    HW129486   3.935   0.839   6.002  0.3439  0.0566 -1.3757
 5950SOL    HW229487   4.077   0.842   6.024 -0.3798  0.5909 -1.6536
 5951SOL     OW29488   0.680   3.839   6.972  0.4657 -0.1933  0.0606
 5951SOL    HW129489   0.726   3.896   6.911  1.2101 -0.5282  0.3027
 5951SOL    HW229490   0.642   3.894   7.040  0.1328  0.1145 -0.3733
 5952SOL     OW29491   3.060   1.402  15.773 -0.4902 -0.4281 -0.0292
 5952SOL    HW129492   3.150   1.403  15.805 -0.8168  1.2287  0.8734
 5952SOL    HW229493   3.058   1.481  15.719 -0.3116 -0.4091 -0.0089
 5953SOL     OW29494   1.757   0.420   1.036 -0.0436  0.4939  0.2149
 5953SOL    HW129495   1.845   0.451   1.015 -0.0023  0.5517  0.4746
 5953SOL    HW229496   1.722   0.375   0.959  0.5539  0.5292 -0.0843
 5954SOL     OW29497   4.528   1.608   0.552 -0.1645 -0.2141 -0.9345
 5954SOL    HW129498   4.547   1.701   0.541 -2.6004  0.1187 -2.4039
 5954SOL    HW229499   4.493   1.591   0.464  0.2894  0.4466 -1.2407
 5955SOL     OW29500   3.292   1.850   6.464 -0.3102 -0.1156  0.6926
 5955SOL    HW129501   3.209   1.821   6.426  0.1456  0.3582 -0.6654
 5955SOL    HW229502   3.263   1.921   6.521 -0.8740  0.7431 -0.6437
 5956SOL     OW29503   1.662   0.610   7.801 -0.9575 -0.0808 -0.3608
 5956SOL    HW129504   1.727   0.571   7.859 -1.5278 -1.3727 -0.5843
 5956SOL    HW229505   1.672   0.554   7.724  0.0993 -0.8103  0.3129
 5957SOL     OW29506   3.480   2.203  17.450  0.2502  0.3208 -0.1280
 5957SOL    HW129507   3.560   2.167  17.487 -0.7609 -2.4339 -0.6098
 5957SOL    HW229508   3.434   2.133  17.403  0.8709  0.2083 -0.5720
 5958SOL     OW29509   0.410   2.917   5.866  0.2171  0.7699  0.5131
 5958SOL    HW129510   0.490   2.886   5.908 -0.7809 -0.8120  1.2753
 5958SOL    HW229511   0.449   2.990   5.818  0.9546 -0.2472 -0.4360
 5959SOL     OW29512   2.027   2.138  13.052 -0.1958 -0.5506  0.3202
 5959SOL    HW129513   1.964   2.149  12.982  3.3651  1.3753 -2.5692
 5959SOL    HW229514   2.073   2.067  13.006  0.5578  0.5724 -0.6421
 5960SOL     OW29515   3.793   4.181   8.928 -0.5997 -0.4390 -0.2255
 5960SOL    HW129516   3.813   4.183   9.022  0.2174 -1.0183 -0.3931
 5960SOL    HW229517   3.818   4.271   8.905  2.0771 -1.3570 -0.9288
 5961SOL     OW29518   0.398   1.532   7.364 -0.3282  0.1476  0.2706
 5961SOL    HW129519   0.387   1.590   7.439  1.0466  1.3207 -0.4521
 5961SOL    HW229520   0.432   1.597   7.303 -3.0007  1.7480  0.4622
 5962SOL     OW29521   1.762   0.185   9.269 -0.5221  0.2235 -0.1220
 5962SOL    HW129522   1.785   0.258   9.213  0.8250 -1.5364 -1.8842
 5962SOL    HW229523   1.768   0.224   9.356 -3.0463 -0.3461  0.3048
 5963SOL     OW29524   4.130   4.079   5.450  0.2875  0.2272  0.4334
 5963SOL    HW129525   4.198   4.103   5.387 -0.2625 -2.7097 -1.2420
 5963SOL    HW229526   4.050   4.115   5.411  1.0953  0.3075 -1.1253
 5964SOL     OW29527   2.071   1.795   1.367  0.1308  0.1501 -0.0434
 5964SOL    HW129528   2.067   1.742   1.446 -1.3986 -1.2809 -1.0711
 5964SOL    HW229529   2.154   1.841   1.375 -0.0471  0.3999  0.3641
 5965SOL     OW29530   2.369   4.182   4.612 -0.0436  0.0211  0.2945
 5965SOL    HW129531   2.397   4.253   4.670  1.4961 -0.5101  0.2266
 5965SOL    HW229532   2.283   4.212   4.585  0.2816 -0.6202 -1.4676
 5966SOL     OW29533   0.122   1.376   9.854  0.4625 -0.2389 -0.1175
 5966SOL    HW129534   0.122   1.432   9.932  0.1554  2.3395 -1.9542
 5966SOL    HW229535   0.139   1.290   9.891  1.5865  0.4462  0.9489
 5967SOL     OW29536   4.239   2.395   2.181  0.1976  0.4010  0.3688
 5967SOL    HW129537   4.246   2.358   2.093 -0.3182  2.3679 -0.4875
 5967SOL    HW229538   4.194   2.326   2.230 -3.2270  0.8470 -2.1363
 5968SOL     OW29539   0.313   1.996   3.758 -0.1564  0.3440 -0.3634
 5968SOL    HW129540   0.291   1.953   3.675  1.0621 -0.3897 -0.3103
 5968SOL    HW229541   0.356   1.922   3.801 -0.7432  0.7901  0.9698
 5969SOL     OW29542   3.378   3.164  16.662  0.0842 -0.1469 -0.1906
 5969SOL    HW129543   3.345   3.251  16.641 -0.4264 -0.5148 -0.9157
 5969SOL    HW229544   3.390   3.168  16.757 -2.0434  2.5797 -0.0382
 5970SOL     OW29545   3.305   1.213   5.912 -0.2965 -0.3015 -0.0386
 5970SOL    HW129546   3.378   1.151   5.923 -0.6209 -0.6121  0.3827
 5970SOL    HW229547   3.249   1.159   5.857 -1.7845 -0.9081  2.0746
 5971SOL     OW29548   0.358   0.889  13.389  0.6798  0.4527 -0.1809
 5971SOL    HW129549   0.421   0.960  13.401 -2.0686  2.8548 -0.0450
 5971SOL    HW229550   0.328   0.919  13.304 -1.2053  0.2635  0.4265
 5972SOL     OW29551   4.100   0.174  11.424  0.0099 -0.0624 -0.1214
 5972SOL    HW129552   4.107   0.125  11.506  0.0243 -1.0587 -0.7172
 5972SOL    HW229553   4.193   0.181  11.404  0.2813 -0.0343  1.1773
 5973SOL     OW29554   4.701   4.049   1.706  0.1812 -0.1650  0.2303
 5973SOL    HW129555   4.629   4.000   1.664  1.1349 -1.4593  0.0851
 5973SOL    HW229556   4.692   4.137   1.670  2.1590  0.0651  0.3379
 5974SOL     OW29557   0.942   2.496   9.090 -0.1531  0.3178 -0.1262
 5974SOL    HW129558   1.033   2.509   9.061 -0.1898 -1.5508 -1.0339
 5974SOL    HW229559   0.890   2.491   9.010  3.8202 -2.0135 -2.5572
 5975SOL     OW29560   3.819   1.867  12.772  0.2953  0.0454  0.1828
 5975SOL    HW129561   3.887   1.913  12.724 -0.6316  0.6412 -0.5618
 5975SOL    HW229562   3.840   1.779  12.740 -0.7120 -0.6058  1.2903
 5976SOL     OW29563   1.301   4.236   2.177 -0.6815  0.0009  0.2121
 5976SOL    HW129564   1.392   4.207   2.176 -0.0846  1.8932  0.1653
 5976SOL    HW229565   1.263   4.163   2.128  0.6676 -1.1609  0.9010
 5977SOL     OW29566   3.669   0.523   6.520 -0.2631  0.3787 -0.2973
 5977SOL    HW129567   3.713   0.578   6.585  1.5790 -0.1345 -1.1261
 5977SOL    HW229568   3.742   0.506   6.461 -0.5646 -0.6990 -0.3629
 5978SOL     OW29569   1.340   3.282   1.715 -0.3559  0.4104  0.2576
 5978SOL    HW129570   1.246   3.265   1.705  0.3049 -3.5388  0.8555
 5978SOL    HW229571   1.347   3.348   1.784  0.4917  0.8171 -0.2170
 5979SOL     OW29572   0.954   2.596   5.889  0.5856  0.2393 -0.1789
 5979SOL    HW129573   1.004   2.674   5.866  0.7605  0.6032  1.3795
 5979SOL    HW229574   0.984   2.529   5.828  0.3535  0.6473 -0.7340
 5980SOL     OW29575   1.380   0.960   9.324  0.2324  0.2747  0.4090
 5980SOL    HW129576   1.466   1.002   9.326  1.3329 -1.9372 -0.2247
 5980SOL    HW229577   1.320   1.033   9.336  0.7071  0.1943  3.2999
 5981SOL     OW29578   4.435   4.701   3.034 -0.1403  0.0796  0.3181
 5981SOL    HW129579   4.388   4.629   2.992  0.3669  0.1258 -0.3248
 5981SOL    HW229580   4.487   4.732   2.960  1.8951 -0.6704  1.4492
 5982SOL     OW29581   4.272   4.144   5.992 -0.6156  0.6595  0.0878
 5982SOL    HW129582   4.305   4.211   5.933  0.3572 -0.5068 -0.7120
 5982SOL    HW229583   4.349   4.140   6.048 -1.2740 -2.3065  0.7970
 5983SOL     OW29584   1.022   4.382  15.633 -0.1615  0.4109 -0.8380
 5983SOL    HW129585   0.968   4.452  15.670  1.2099 -0.4373  2.7590
 5983SOL    HW229586   1.093   4.440  15.604  0.6608  0.2142  0.8091
 5984SOL     OW29587   1.743   4.006   6.690 -0.0447  0.0679  0.1352
 5984SOL    HW129588   1.751   4.100   6.706  0.4883  0.0250  0.0997
 5984SOL    HW229589   1.651   3.990   6.711  0.0191 -1.8919 -1.0856
 5985SOL     OW29590   0.776   4.283   4.956  0.1048 -0.0512  0.8490
 5985SOL    HW129591   0.835   4.353   4.984  0.0740  0.6586 -0.8529
 5985SOL    HW229592   0.826   4.246   4.883 -0.9406 -0.4186  0.3249
 5986SOL     OW29593   0.882   0.069   7.977  0.1781  0.0967  0.1092
 5986SOL    HW129594   0.900   0.123   7.900 -0.6008 -1.0557 -0.8731
 5986SOL    HW229595   0.798   0.109   7.999  0.3099  1.1977 -1.4159
 5987SOL     OW29596   1.463   4.609   5.428 -0.2604  0.0254 -0.0057
 5987SOL    HW129597   1.419   4.529   5.456 -0.0374  0.1137  0.5976
 5987SOL    HW229598   1.549   4.572   5.409 -0.8409 -0.6828 -1.2170
 5988SOL     OW29599   3.464   0.860  15.383  0.3983  0.0835  0.4594
 5988SOL    HW129600   3.466   0.944  15.430  1.0859 -0.0235  0.6243
 5988SOL    HW229601   3.522   0.883  15.310 -2.0029  2.6935 -0.6398
 5989SOL     OW29602   2.059   4.491  12.998  0.5854  0.2391 -0.4442
 5989SOL    HW129603   2.140   4.496  12.947  1.8540  0.9967  1.6678
 5989SOL    HW229604   2.034   4.581  12.981 -1.0915  0.0288  0.9296
 5990SOL     OW29605   0.154   0.198  15.883  0.0589  0.1950 -0.3340
 5990SOL    HW129606   0.062   0.206  15.857 -0.7988 -0.5877  2.4472
 5990SOL    HW229607   0.168   0.278  15.933  0.7749 -1.1885  1.6664
 5991SOL     OW29608   4.455   2.376  14.211  0.4986  0.0570  0.3015
 5991SOL    HW129609   4.399   2.411  14.281 -1.1557  0.7531 -1.3579
 5991SOL    HW229610   4.402   2.298  14.196  0.2248  0.2440  0.2931
 5992SOL     OW29611   2.850   2.656   4.640 -0.1740  0.2648 -0.0770
 5992SOL    HW129612   2.863   2.744   4.605  1.2904 -0.0834 -0.4369
 5992SOL    HW229613   2.897   2.606   4.574  0.5225 -0.4438  0.9393
 5993SOL     OW29614   4.148   1.913   3.755 -0.2566  0.0281 -0.3522
 5993SOL    HW129615   4.179   1.908   3.846  2.7817  0.3183 -1.3663
 5993SOL    HW229616   4.232   1.899   3.711 -0.9291 -1.5373 -1.1569
 5994SOL     OW29617   0.424   4.091   2.838 -0.0598 -0.2599 -0.2284
 5994SOL    HW129618   0.342   4.050   2.865  0.4083 -1.8001 -1.2033
 5994SOL    HW229619   0.422   4.064   2.746  0.1334 -0.2454 -0.2371
 5995SOL     OW29620   2.799   3.382  16.059  0.0766  0.0345  0.5341
 5995SOL    HW129621   2.731   3.414  16.120 -1.2921  1.6198 -1.8380
 5995SOL    HW229622   2.850   3.462  16.047 -0.0493  0.0307 -0.0252
 5996SOL     OW29623   3.528   2.170   5.975  0.3546 -0.3440  0.1978
 5996SOL    HW129624   3.578   2.092   5.999 -2.3498 -1.7532  1.2640
 5996SOL    HW229625   3.500   2.208   6.058  0.8057  0.6963 -0.1281
 5997SOL     OW29626   2.774   3.099   1.335 -0.0947  0.4719 -0.0663
 5997SOL    HW129627   2.827   3.123   1.411 -0.6429 -0.9385  0.7580
 5997SOL    HW229628   2.843   3.076   1.274 -0.0073 -0.6366  0.4564
 5998SOL     OW29629   3.976   4.434   4.607 -0.1926 -0.4658  0.0014
 5998SOL    HW129630   4.036   4.362   4.626  2.4230  1.9643  0.8760
 5998SOL    HW229631   3.892   4.392   4.588 -0.9554 -0.0148  2.3292
 5999SOL     OW29632   2.134   1.928  12.255  0.0328 -0.9362 -0.6658
 5999SOL    HW129633   2.105   1.957  12.342  1.2104 -0.3173 -0.4865
 5999SOL    HW229634   2.131   1.833  12.267 -0.2635 -0.8820 -0.3017
 6000SOL     OW29635   3.084   3.729   7.622  0.3104  0.2870 -0.4770
 6000SOL    HW129636   3.096   3.739   7.716  0.8205  0.4005 -0.5568
 6000SOL    HW229637   3.104   3.637   7.606  0.5596  0.3631 -0.6083
 6001SOL     OW29638   0.258   4.353   3.675  0.2290 -0.4354 -0.3494
 6001SOL    HW129639   0.255   4.445   3.703  0.6206 -1.8180  4.2497
 6001SOL    HW229640   0.168   4.324   3.686  0.0004  0.7005  0.8430
 6002SOL     OW29641   4.114   4.647   6.181  0.1602  0.0535 -0.0875
 6002SOL    HW129642   4.114   4.644   6.085 -2.1175 -0.4187 -0.0632
 6002SOL    HW229643   4.135   4.554   6.191 -4.0400 -0.9351 -0.3694
 6003SOL     OW29644   2.252   4.467   3.314  0.1403 -0.0211  0.3820
 6003SOL    HW129645   2.173   4.449   3.263 -0.1144 -2.7114  1.7042
 6003SOL    HW229646   2.292   4.524   3.249  0.9002  0.1298  0.9818
 6004SOL     OW29647   3.304   4.531  16.596  0.1943 -0.2358  0.4478
 6004SOL    HW129648   3.356   4.591  16.649 -0.3636  0.3427  0.3343
 6004SOL    HW229649   3.279   4.473  16.668 -0.9649  0.4095  0.5580
 6005SOL     OW29650   2.102   2.423   7.981  0.0825  0.0025  0.6797
 6005SOL    HW129651   2.178   2.372   8.008  1.9390  2.6969  0.5151
 6005SOL    HW229652   2.146   2.500   7.944 -1.1912  1.9677  3.2169
 6006SOL     OW29653   2.971   0.264   7.780 -0.1118  0.0148 -0.3358
 6006SOL    HW129654   2.982   0.355   7.806  0.2266 -0.3494  0.7788
 6006SOL    HW229655   3.059   0.229   7.766  0.3541  0.5180  1.4019
 6007SOL     OW29656   4.506   1.033   3.792  0.4454  0.2010 -0.3743
 6007SOL    HW129657   4.537   0.993   3.873  0.2602  0.0603 -0.3730
 6007SOL    HW229658   4.442   0.970   3.760  0.2157 -1.2849  2.9907
 6008SOL     OW29659   4.729   1.426   1.270  0.6212  0.2211  0.0628
 6008SOL    HW129660   4.697   1.423   1.180 -4.0233  2.2112  1.6204
 6008SOL    HW229661   4.698   1.339   1.296  1.4642  0.9166  3.3722
 6009SOL     OW29662   1.702   2.263   8.326  0.4225 -0.0240  0.3130
 6009SOL    HW129663   1.679   2.354   8.304 -1.8103 -0.5304  0.5227
 6009SOL    HW229664   1.670   2.217   8.249  1.4549 -0.4075  0.1139
 6010SOL     OW29665   4.652   3.447   4.917 -0.3508  0.4045  0.3296
 6010SOL    HW129666   4.663   3.386   4.843  1.1521 -0.3272  1.1436
 6010SOL    HW229667   0.009   3.469   4.932  0.6954 -3.0953 -0.7355
 6011SOL     OW29668   2.908   2.236   6.376 -0.6373 -0.1216  0.5564
 6011SOL    HW129669   2.899   2.152   6.422  3.0821 -0.3512  0.8898
 6011SOL    HW229670   2.932   2.203   6.289 -2.5042  1.8275 -0.6915
 6012SOL     OW29671   2.471   0.967   2.346 -0.0960 -0.6879  0.8507
 6012SOL    HW129672   2.487   0.892   2.403  1.3245 -0.3998  0.8550
 6012SOL    HW229673   2.393   0.941   2.298  0.7113 -0.4001 -0.6421
 6013SOL     OW29674   1.655   1.158   2.586 -0.6823  0.1316  0.0837
 6013SOL    HW129675   1.587   1.141   2.521 -0.2748  0.2306 -0.3691
 6013SOL    HW229676   1.703   1.075   2.578 -2.4829 -0.9106  0.0428
 6014SOL     OW29677   2.618   1.023   7.975 -0.2581 -0.3530 -0.4730
 6014SOL    HW129678   2.661   0.967   7.911  0.6372 -1.4116  1.0687
 6014SOL    HW229679   2.688   1.073   8.017  0.0427 -2.4868  1.5331
 6015SOL     OW29680   1.595   2.253   6.887 -0.2236  0.2896 -0.8243
 6015SOL    HW129681   1.529   2.185   6.904  0.8569 -0.7054 -0.6641
 6015SOL    HW229682   1.606   2.292   6.974 -1.1689  1.6753 -1.3139
 6016SOL     OW29683   0.382   1.999   0.496  0.2079  0.0438 -0.1209
 6016SOL    HW129684   0.360   1.999   0.590  1.9341  3.3704  0.2486
 6016SOL    HW229685   0.455   2.061   0.495 -0.5999  0.9437 -1.6246
 6017SOL     OW29686   3.835   1.467   5.020  0.0805  0.0751  0.2718
 6017SOL    HW129687   3.873   1.440   5.104 -0.4260 -0.6512  0.2673
 6017SOL    HW229688   3.753   1.512   5.042  1.4502  1.6194  2.2222
 6018SOL     OW29689   0.029   0.464   9.288 -0.1814  0.0003 -0.3075
 6018SOL    HW129690   0.105   0.478   9.232 -0.7532 -3.1727 -1.8877
 6018SOL    HW229691   4.709   0.540   9.271  0.7497  0.7799  0.1722
 6019SOL     OW29692   2.290   4.554   2.720 -0.1062 -0.7784 -0.5634
 6019SOL    HW129693   2.233   4.503   2.777  2.5703  0.9202  3.6052
 6019SOL    HW229694   2.242   4.636   2.710  1.1913 -0.2654 -2.4919
 6020SOL     OW29695   3.676   1.628   3.924 -0.3279 -0.0984 -0.0045
 6020SOL    HW129696   3.659   1.546   3.970  1.6758 -1.4299 -1.6442
 6020SOL    HW229697   3.771   1.632   3.926 -0.1644 -2.6751 -2.7531
 6021SOL     OW29698   3.638   1.062   1.476 -0.5093  0.3441 -0.6061
 6021SOL    HW129699   3.621   1.156   1.478  0.4743  0.4537  1.5443
 6021SOL    HW229700   3.575   1.028   1.539  0.0791  0.9878  0.3235
 6022SOL     OW29701   4.330   4.443   3.183  0.2569 -0.1172 -0.6166
 6022SOL    HW129702   4.388   4.397   3.244  0.0783  0.0904 -0.2846
 6022SOL    HW229703   4.289   4.514   3.233 -1.1069  0.3080 -2.3371
 6023SOL     OW29704   0.899   2.980   1.580 -0.3007 -0.2026 -0.3765
 6023SOL    HW129705   0.825   3.040   1.570  0.7338  1.2296  0.5080
 6023SOL    HW229706   0.878   2.935   1.662  0.1804  1.5701  0.7188
 6024SOL     OW29707   3.220   1.733  13.683  0.5294  0.4453  0.4247
 6024SOL    HW129708   3.134   1.712  13.647  1.8183  0.5271 -2.7183
 6024SOL    HW229709   3.226   1.825  13.656  2.2232  0.2785  0.2503
 6025SOL     OW29710   3.000   1.536   4.645  0.3459 -0.0257 -0.2007
 6025SOL    HW129711   3.059   1.546   4.571 -0.8676  0.9024 -1.0486
 6025SOL    HW229712   3.059   1.507   4.715  1.2460  0.2055 -0.8747
 6026SOL     OW29713   3.986   1.006  13.762 -0.0839  0.4298  0.0345
 6026SOL    HW129714   4.035   0.976  13.840 -2.3777  0.9551  1.6699
 6026SOL    HW229715   3.895   0.995  13.788  0.2393  0.9139  1.3866
 6027SOL     OW29716   2.804   3.480  11.708  0.2570 -0.0295 -0.0953
 6027SOL    HW129717   2.803   3.502  11.615  1.4331  2.6290  0.5472
 6027SOL    HW229718   2.883   3.426  11.710  1.2072  1.4841  2.3543
 6028SOL     OW29719   4.095   4.429   0.779 -0.1432 -0.2140  0.5761
 6028SOL    HW129720   4.101   4.344   0.734  1.8817  0.2635 -0.0611
 6028SOL    HW229721   4.178   4.470   0.752 -0.7533 -2.3355 -4.5687
 6029SOL     OW29722   3.945   2.992   6.235  0.3412  0.4222  0.2396
 6029SOL    HW129723   3.886   3.007   6.309  1.3370 -1.9511  1.4906
 6029SOL    HW229724   3.980   2.906   6.257 -1.5220 -0.7076 -1.1896
 6030SOL     OW29725   2.795   4.701   2.314 -0.0846 -0.0049 -0.2003
 6030SOL    HW129726   2.807   4.720   2.407 -1.4641 -0.7814  0.1392
 6030SOL    HW229727   2.756   4.615   2.329 -2.3965  0.9943 -0.4031
 6031SOL     OW29728   2.404   2.207   6.472  0.1510  0.0114  0.1743
 6031SOL    HW129729   2.395   2.185   6.565 -1.9650  0.8559  0.1620
 6031SOL    HW229730   2.436   2.297   6.485  0.6238  0.2297 -2.4918
 6032SOL     OW29731   2.655   4.054   3.519  0.2772  0.1274 -0.2009
 6032SOL    HW129732   2.714   4.116   3.561  0.5170  0.8398 -1.5685
 6032SOL    HW229733   2.703   3.973   3.504  0.0415 -0.0551  0.0404
 6033SOL     OW29734   1.568   4.626   4.167 -0.3287 -0.0567 -0.3709
 6033SOL    HW129735   1.591   4.718   4.179  0.1404 -0.2892  0.5033
 6033SOL    HW229736   1.627   4.581   4.227  0.6812  0.8918 -0.6516
 6034SOL     OW29737   3.560   3.211   7.740  0.2054  0.7738 -0.0672
 6034SOL    HW129738   3.631   3.151   7.718 -0.7500 -0.3355 -0.1098
 6034SOL    HW229739   3.599   3.274   7.802 -1.0574  2.5115 -1.0433
 6035SOL     OW29740   4.270   1.660   6.277  0.1734 -0.3295 -0.0892
 6035SOL    HW129741   4.301   1.591   6.335  0.7525 -0.7382 -0.8832
 6035SOL    HW229742   4.329   1.635   6.205 -0.6256  0.5845 -1.0647
 6036SOL     OW29743   4.556   4.521   7.402 -0.2441  0.1991  0.1010
 6036SOL    HW129744   4.528   4.430   7.395 -2.7346  0.9369  0.4598
 6036SOL    HW229745   4.473   4.566   7.389  0.3797  1.4369  0.4381
 6037SOL     OW29746   4.611   0.386   3.925  0.2213 -0.3680  0.3210
 6037SOL    HW129747   4.661   0.305   3.935 -1.6981 -1.7352 -1.3356
 6037SOL    HW229748   4.642   0.424   4.008  1.1268 -2.2287  0.8346
 6038SOL     OW29749   1.116   3.153  11.938  0.1704 -0.2563  0.1337
 6038SOL    HW129750   1.185   3.113  11.886 -1.3414 -1.4795 -0.9134
 6038SOL    HW229751   1.165   3.152  12.020 -1.6084 -1.3503  1.1873
 6039SOL     OW29752   1.684   1.664   7.385 -0.2848  0.3272  0.7475
 6039SOL    HW129753   1.742   1.615   7.445  1.3459 -0.7447 -1.6899
 6039SOL    HW229754   1.605   1.634   7.430  0.4682 -1.3170  0.9985
 6040SOL     OW29755   4.077   2.477   0.634  0.2141  0.2871 -0.1114
 6040SOL    HW129756   4.046   2.549   0.689  1.1665  1.0707 -0.5890
 6040SOL    HW229757   4.042   2.511   0.551 -2.0418 -2.3677 -0.2484
 6041SOL     OW29758   1.997   1.198   7.660  0.3097  0.0336 -0.3657
 6041SOL    HW129759   1.918   1.226   7.707  0.3486  0.8370 -0.7770
 6041SOL    HW229760   2.057   1.272   7.653 -0.6790  0.6903 -2.0506
 6042SOL     OW29761   2.279   3.979   1.791  0.1651  0.4000  0.0882
 6042SOL    HW129762   2.366   3.945   1.811 -0.5676 -1.9895 -0.8807
 6042SOL    HW229763   2.237   3.903   1.752 -1.6106  0.2797  2.2266
 6043SOL     OW29764   4.307   0.402   8.933  0.5690 -0.7677 -0.1336
 6043SOL    HW129765   4.395   0.435   8.920  0.4725 -1.1792 -1.8237
 6043SOL    HW229766   4.321   0.358   9.017  1.0896 -0.8845 -0.2826
 6044SOL     OW29767   0.852   3.012  14.259 -0.6913 -0.0227 -0.1957
 6044SOL    HW129768   0.840   3.027  14.166 -0.7946  1.6491  0.0926
 6044SOL    HW229769   0.939   2.971  14.264 -1.0047 -0.4516  1.7623
 6045SOL     OW29770   4.161   3.610  11.279  0.0744 -0.2138 -0.3407
 6045SOL    HW129771   4.118   3.638  11.199 -0.7088 -2.2282 -0.6083
 6045SOL    HW229772   4.217   3.685  11.301 -1.6699  0.7313  0.9440
 6046SOL     OW29773   2.261   0.288  12.595  0.8601 -0.5705  0.0270
 6046SOL    HW129774   2.239   0.315  12.506  0.0338 -1.4004 -0.0303
 6046SOL    HW229775   2.337   0.346  12.596  0.6482 -0.2861 -0.3780
 6047SOL     OW29776   0.711   1.124   7.216  0.5350  0.2321  0.3558
 6047SOL    HW129777   0.686   1.032   7.209  0.4752  0.2920 -0.2156
 6047SOL    HW229778   0.713   1.141   7.122  0.4324  2.1508  0.6864
 6048SOL     OW29779   3.147   2.421   5.531 -0.5210  0.5593  0.0969
 6048SOL    HW129780   3.230   2.457   5.499 -0.1646 -0.6809 -0.3697
 6048SOL    HW229781   3.103   2.396   5.450 -0.9516  1.5501  0.0273
 6049SOL     OW29782   1.135   1.328   4.399 -0.3682 -0.3505  0.2333
 6049SOL    HW129783   1.085   1.409   4.392 -1.0918 -0.6126  2.4836
 6049SOL    HW229784   1.188   1.352   4.475  0.7488 -1.5594 -0.1564
 6050SOL     OW29785   2.880   3.537   0.836  0.0123  0.7161 -0.4066
 6050SOL    HW129786   2.952   3.478   0.815 -1.4779 -1.3568  0.1942
 6050SOL    HW229787   2.858   3.574   0.751  2.4853  0.9737 -0.9148
 6051SOL     OW29788   1.124   3.184   5.271  0.3370 -0.1460 -0.7768
 6051SOL    HW129789   1.078   3.263   5.244  1.5731  1.6329  2.3428
 6051SOL    HW229790   1.194   3.182   5.206  0.3581  2.2615 -0.8245
 6052SOL     OW29791   2.015   1.365   3.129 -0.2586  0.4615 -0.4108
 6052SOL    HW129792   2.048   1.276   3.121 -1.3418  0.1913 -1.9146
 6052SOL    HW229793   2.088   1.407   3.175 -1.2583  1.6536  0.0880
 6053SOL     OW29794   0.046   0.370  14.301 -0.1289  0.1537 -0.1342
 6053SOL    HW129795   0.124   0.314  14.299 -1.2722 -1.3721 -1.7817
 6053SOL    HW229796   0.086   0.450  14.337 -2.4580  0.2144  2.2873
 6054SOL     OW29797   1.033   0.320   8.123 -0.4990 -0.3757  0.1958
 6054SOL    HW129798   1.109   0.263   8.130  0.5705  0.9411 -0.8262
 6054SOL    HW229799   0.961   0.257   8.127  0.4814 -1.4610  0.6256
 6055SOL     OW29800   2.110   3.711   2.749  0.1804  0.2209 -0.5709
 6055SOL    HW129801   2.191   3.660   2.741  0.4453  0.7109 -0.9955
 6055SOL    HW229802   2.093   3.723   2.656  2.3245 -0.3996 -1.0563
 6056SOL     OW29803   3.784   1.046  17.503  0.8700  0.1314  0.1970
 6056SOL    HW129804   3.868   1.073  17.540  0.2294  0.4685  1.4135
 6056SOL    HW229805   3.716   1.087  17.557  0.5744 -0.2064  0.0810
 6057SOL     OW29806   2.997   2.730   4.422 -0.8045  0.0544  0.0411
 6057SOL    HW129807   2.928   2.699   4.363  0.4135 -2.4286 -0.0960
 6057SOL    HW229808   2.990   2.823   4.400  1.3323  0.1743 -0.1094
 6058SOL     OW29809   2.581   1.387   7.342 -0.5685 -0.4059 -0.1865
 6058SOL    HW129810   2.515   1.359   7.279 -2.5392  0.8187  1.3443
 6058SOL    HW229811   2.647   1.321   7.362  0.2415  0.2535 -0.7024
 6059SOL     OW29812   1.053   1.250   7.447  0.2291 -0.1800  0.3508
 6059SOL    HW129813   1.005   1.168   7.441 -0.9034  0.4100  1.3457
 6059SOL    HW229814   0.985   1.317   7.444 -0.6134 -1.0273  0.6137
 6060SOL     OW29815   1.336   4.501   2.453 -0.2700  1.0217  0.4267
 6060SOL    HW129816   1.286   4.448   2.391 -1.5185  1.2260  1.2507
 6060SOL    HW229817   1.402   4.433   2.442 -0.7858  1.4127 -4.8184
 6061SOL     OW29818   2.470   1.721   6.341  0.4270  0.0201  0.2364
 6061SOL    HW129819   2.429   1.691   6.422  0.5070 -0.6637  0.0258
 6061SOL    HW229820   2.455   1.814   6.356 -1.4232 -0.3681  0.7525
 6062SOL     OW29821   4.053   4.648  10.819  0.0139  0.2437  0.1493
 6062SOL    HW129822   4.130   4.591  10.828  0.0184  0.2559  0.1860
 6062SOL    HW229823   3.992   4.593  10.867 -0.4160 -1.2996 -2.1587
 6063SOL     OW29824   2.006   0.324   6.678  0.0069 -0.5730  0.0255
 6063SOL    HW129825   2.054   0.244   6.653  1.1599  0.3341 -0.6517
 6063SOL    HW229826   1.949   0.305   6.751  0.3177  3.2584  1.2250
 6064SOL     OW29827   1.134   1.614   9.085 -0.4784 -0.1362 -0.5549
 6064SOL    HW129828   1.149   1.676   9.014  0.9130 -0.3323 -0.4334
 6064SOL    HW229829   1.166   1.531   9.050  3.4818  1.0971  0.1287
 6065SOL     OW29830   2.798   4.074   2.688 -0.0347 -0.1900 -0.2813
 6065SOL    HW129831   2.800   4.015   2.763  3.0424 -0.9422 -0.9637
 6065SOL    HW229832   2.776   4.157   2.731  0.7907  0.3032 -0.8203
 6066SOL     OW29833   0.999   0.863  16.798 -0.1790 -0.1553 -0.0621
 6066SOL    HW129834   1.044   0.818  16.727 -0.4864 -0.7928  0.1454
 6066SOL    HW229835   0.923   0.902  16.756  0.1034  1.0676  0.5792
 6067SOL     OW29836   1.345   0.816   6.572  0.2256  0.7983  0.3565
 6067SOL    HW129837   1.414   0.882   6.585 -0.0606  1.2295 -0.2786
 6067SOL    HW229838   1.336   0.778   6.659 -2.3686 -2.0984 -1.2080
 6068SOL     OW29839   0.803   1.231   9.032  1.0562 -0.0894  0.2149
 6068SOL    HW129840   0.798   1.318   9.070 -0.5923 -0.5030  0.9350
 6068SOL    HW229841   0.896   1.209   9.039  1.1959  0.6831  0.7332
 6069SOL     OW29842   1.187   4.651   3.831 -0.5664 -0.2356  0.2339
 6069SOL    HW129843   1.111   4.593   3.836 -0.0892 -0.7481  1.4609
 6069SOL    HW229844   1.239   4.629   3.908  1.1172  0.7511 -0.5980
 6070SOL     OW29845   0.946   2.603   5.538 -0.1576  0.5322  0.1621
 6070SOL    HW129846   0.890   2.585   5.463 -0.2434 -0.7659  0.5425
 6070SOL    HW229847   0.906   2.557   5.612  0.0866 -0.9263 -0.6220
 6071SOL     OW29848   0.705   4.343   8.144 -0.2809 -0.3237  0.6990
 6071SOL    HW129849   0.784   4.298   8.115  1.4699  2.4721  1.1231
 6071SOL    HW229850   0.646   4.333   8.070  1.7884  0.0207 -0.9728
 6072SOL     OW29851   3.173   3.497   0.231 -0.0949 -0.0122  0.0903
 6072SOL    HW129852   3.194   3.420   0.283  3.0766  1.7849  1.4994
 6072SOL    HW229853   3.241   3.562   0.252  1.5685 -1.3948 -0.9826
 6073SOL     OW29854   2.995   0.903  10.107  0.2467  0.1976 -0.3958
 6073SOL    HW129855   2.968   0.912  10.015  1.4810 -1.9109 -0.9583
 6073SOL    HW229856   3.061   0.835  10.094  1.0174  0.6788  1.0430
 6074SOL     OW29857   3.136   3.730  14.551  0.0747  0.1385 -0.9202
 6074SOL    HW129858   3.212   3.772  14.592 -0.8646  0.9223  0.0359
 6074SOL    HW229859   3.093   3.804  14.509  0.6673  0.2800 -1.2798
 6075SOL     OW29860   2.892   3.403   0.436 -0.0628  0.4165  0.1398
 6075SOL    HW129861   2.952   3.371   0.503 -2.7943 -2.1104  1.3927
 6075SOL    HW229862   2.945   3.480   0.414  1.5214 -0.0116  2.5161
 6076SOL     OW29863   0.132   4.493   1.601  0.3206 -0.4549  0.3339
 6076SOL    HW129864   0.153   4.408   1.562 -0.0865  0.5007 -2.0251
 6076SOL    HW229865   0.182   4.485   1.681 -1.7372 -2.2623  1.4573
 6077SOL     OW29866   3.137   0.057   4.239  0.3022 -0.2228  0.0396
 6077SOL    HW129867   3.214   0.113   4.240 -0.2402  0.4868  2.1952
 6077SOL    HW229868   3.067   0.121   4.253  1.4541  0.9596  0.3153
 6078SOL     OW29869   1.380   3.678   1.858 -0.5858  0.2631  0.3044
 6078SOL    HW129870   1.438   3.653   1.786 -0.1213  0.6150  0.5553
 6078SOL    HW229871   1.350   3.594   1.892 -0.0718 -0.1109 -0.1718
 6079SOL     OW29872   0.636   0.875   2.056 -0.1635 -0.1175  0.1732
 6079SOL    HW129873   0.598   0.939   1.995  0.5756 -0.8584 -1.0665
 6079SOL    HW229874   0.727   0.864   2.028 -0.0828 -1.0717  0.8491
 6080SOL     OW29875   0.694   0.831   3.500 -0.2061 -0.3814 -0.4319
 6080SOL    HW129876   0.778   0.837   3.545 -0.2963 -0.2708 -0.2783
 6080SOL    HW229877   0.713   0.750   3.452 -0.0849 -0.0308 -0.9725
 6081SOL     OW29878   1.383   3.051   6.166  0.3111  0.6275  0.4534
 6081SOL    HW129879   1.448   3.083   6.103  1.3622 -0.6028  0.9173
 6081SOL    HW229880   1.341   3.135   6.186 -0.0319  0.3676  0.8094
 6082SOL     OW29881   3.647   1.505   9.013 -0.1612 -0.1280 -0.2422
 6082SOL    HW129882   3.581   1.471   9.073 -1.0994  2.3532  0.1306
 6082SOL    HW229883   3.694   1.575   9.057 -0.6925 -0.0126  0.1442
 6083SOL     OW29884   0.314   3.652   3.381  0.5045  0.4016 -0.0604
 6083SOL    HW129885   0.252   3.684   3.447 -0.6603 -1.4539 -0.2663
 6083SOL    HW229886   0.369   3.729   3.365  0.7556  0.2516  0.0863
 6084SOL     OW29887   3.836   1.977   2.327 -0.1945 -0.0483  0.0817
 6084SOL    HW129888   3.773   1.911   2.358  0.0912  0.0460  0.8602
 6084SOL    HW229889   3.897   1.990   2.400 -0.1043  1.0309 -0.1875
 6085SOL     OW29890   4.569   3.345   2.170  0.3753 -0.2735  0.1030
 6085SOL    HW129891   4.486   3.317   2.131  0.0652  0.4237  0.2702
 6085SOL    HW229892   4.619   3.263   2.169  0.3747 -0.2837  1.1377
 6086SOL     OW29893   1.572   4.206   5.878  0.3303  0.1516 -0.0427
 6086SOL    HW129894   1.490   4.187   5.832 -0.4794  2.6412  0.3305
 6086SOL    HW229895   1.635   4.158   5.824 -0.2215 -0.9254  0.2756
 6087SOL     OW29896   0.720   0.481  15.021 -0.1322  0.6110  0.1653
 6087SOL    HW129897   0.766   0.456  15.101 -0.7856  1.3001  0.7527
 6087SOL    HW229898   0.714   0.576  15.029  0.2098  0.6480 -0.0024
 6088SOL     OW29899   0.086   3.911  10.065 -0.1978  0.7239 -0.4081
 6088SOL    HW129900   0.076   3.977  10.134  1.1180 -0.6646  1.1228
 6088SOL    HW229901   4.735   3.913  10.025 -0.7522 -0.6402  0.7270
 6089SOL     OW29902   3.066   0.098   0.776  0.5040  1.1160  0.3959
 6089SOL    HW129903   2.982   0.055   0.791 -0.6221  1.7801 -4.1806
 6089SOL    HW229904   3.056   0.109   0.682 -1.0127  0.4665  0.4833
 6090SOL     OW29905   3.270   1.461   1.627 -0.9965 -0.4014 -0.1763
 6090SOL    HW129906   3.329   1.458   1.703 -0.8196  2.1423 -0.2054
 6090SOL    HW229907   3.304   1.389   1.575  1.4539  1.3787 -1.0629
 6091SOL     OW29908   0.123   1.707  16.512  0.3099 -0.7361 -0.0254
 6091SOL    HW129909   0.105   1.801  16.512 -2.5972 -1.2909  0.4623
 6091SOL    HW229910   0.121   1.692  16.606 -1.7284  0.6036  0.1422
 6092SOL     OW29911   2.416   2.680   0.360  0.7435  0.0367 -0.6028
 6092SOL    HW129912   2.333   2.694   0.405  0.9709  0.4435 -0.3073
 6092SOL    HW229913   2.436   2.764   0.319 -3.3180  1.0969 -0.4369
 6093SOL     OW29914   0.186   1.593   6.963  0.0434  0.0726  0.5914
 6093SOL    HW129915   0.114   1.647   6.930 -0.6090 -1.2213 -0.0992
 6093SOL    HW229916   0.148   1.505   6.961  1.6835 -0.6303  0.6217
 6094SOL     OW29917   3.598   0.383  15.480 -0.3613 -0.1356  0.2957
 6094SOL    HW129918   3.545   0.451  15.437 -1.3985 -1.5593 -0.6629
 6094SOL    HW229919   3.613   0.432  15.561  1.4757 -1.5431  0.7940
 6095SOL     OW29920   1.691   1.035  14.518  0.3489  0.2157  0.7537
 6095SOL    HW129921   1.604   1.008  14.547 -0.9497  2.4275 -1.1474
 6095SOL    HW229922   1.668   1.127  14.529  1.7366  0.6108  0.3578
 6096SOL     OW29923   1.542   0.485  13.581 -0.5025 -0.1525 -0.1185
 6096SOL    HW129924   1.545   0.500  13.675 -0.1713 -0.4708 -0.0818
 6096SOL    HW229925   1.517   0.571  13.545 -0.8597 -0.2862 -0.1939
 6097SOL     OW29926   4.085   4.393   1.219  0.0354  0.2253  0.2148
 6097SOL    HW129927   4.091   4.377   1.125 -2.7909 -0.4005  0.1179
 6097SOL    HW229928   4.017   4.461   1.228  0.0255  0.2999 -0.4206
 6098SOL     OW29929   3.110   4.705   0.306  0.1295 -0.0493 -0.7869
 6098SOL    HW129930   3.199   4.671   0.304  0.3304  0.3752  0.8745
 6098SOL    HW229931   3.055   4.627   0.315  0.6872 -0.7105 -3.1774
 6099SOL     OW29932   2.136   2.000   4.697  0.0516 -0.2803  0.0712
 6099SOL    HW129933   2.091   1.972   4.617 -0.1585 -1.8864  0.7434
 6099SOL    HW229934   2.063   2.022   4.756  1.9257  0.8572  1.9617
 6100SOL     OW29935   1.887   4.705   8.271 -0.3990 -0.5145 -0.0213
 6100SOL    HW129936   1.890   4.641   8.342 -1.2104  0.1897  0.6508
 6100SOL    HW229937   1.922   4.654   8.199 -1.5693  1.8064 -2.2335
 6101SOL     OW29938   1.658   2.850   6.849 -0.0178  0.0053 -0.0287
 6101SOL    HW129939   1.670   2.764   6.889 -0.7165 -0.5614 -1.0302
 6101SOL    HW229940   1.589   2.894   6.898  0.6762 -0.6869  1.5818
 6102SOL     OW29941   2.239   1.565  14.579  0.3630 -0.6264  0.5732
 6102SOL    HW129942   2.328   1.588  14.553 -0.4810  2.4414  0.4506
 6102SOL    HW229943   2.231   1.593  14.670 -1.9896  1.0428 -0.1627
 6103SOL     OW29944   2.678   2.396   8.334 -0.4213 -0.1300 -0.3462
 6103SOL    HW129945   2.768   2.415   8.359 -0.6991 -0.2075  0.6872
 6103SOL    HW229946   2.630   2.451   8.396  0.8640  0.4574  0.1137
 6104SOL     OW29947   2.423   1.722   5.830 -0.1311 -0.0998 -0.1517
 6104SOL    HW129948   2.419   1.817   5.836  1.7566  0.0311 -0.8630
 6104SOL    HW229949   2.394   1.696   5.917 -1.8142  1.9810 -0.0947
 6105SOL     OW29950   0.022   0.432   3.376  0.3739  0.6333  0.5011
 6105SOL    HW129951   4.707   0.511   3.357 -0.3904  0.3227  1.2674
 6105SOL    HW229952   4.714   0.408   3.458 -0.2175 -1.3737 -0.3864
 6106SOL     OW29953   2.854   4.369   7.784  0.4704  0.1430  0.0093
 6106SOL    HW129954   2.830   4.434   7.850  1.1298 -1.1363  1.5122
 6106SOL    HW229955   2.869   4.297   7.846 -0.3328  0.5695  0.6994
 6107SOL     OW29956   1.744   3.607   1.882  0.3570  0.3725 -0.3795
 6107SOL    HW129957   1.697   3.575   1.959  0.4707 -0.1703 -0.5346
 6107SOL    HW229958   1.681   3.588   1.812  1.1779  0.1580 -1.0633
 6108SOL     OW29959   0.812   3.438   7.119  0.2670 -0.0313 -0.3830
 6108SOL    HW129960   0.800   3.454   7.213  0.4849 -0.7160 -0.2399
 6108SOL    HW229961   0.858   3.354   7.115 -1.3411 -1.0514  2.2314
 6109SOL     OW29962   1.353   3.123  10.779 -0.0367  0.4856 -0.0617
 6109SOL    HW129963   1.351   3.034  10.745 -0.8991  0.9077 -1.1240
 6109SOL    HW229964   1.260   3.144  10.771 -0.0238  0.8207  0.6383
 6110SOL     OW29965   2.116   0.740  13.260  0.0634 -1.2717 -0.1894
 6110SOL    HW129966   2.080   0.828  13.243  3.4698 -0.3618 -2.5541
 6110SOL    HW229967   2.056   0.710  13.329  0.0376  0.3483  0.5179
 6111SOL     OW29968   3.734   4.416   5.190  0.4478  0.1327 -0.2949
 6111SOL    HW129969   3.693   4.463   5.118 -0.5900 -1.1844 -0.5850
 6111SOL    HW229970   3.799   4.367   5.141 -0.6958 -0.8355 -0.8546
 6112SOL     OW29971   3.491   3.574   6.486 -0.7802  0.0846  0.0505
 6112SOL    HW129972   3.400   3.587   6.461 -1.1277  0.0599  1.3024
 6112SOL    HW229973   3.484   3.575   6.581 -2.0176  0.3950 -0.0449
 6113SOL     OW29974   1.510   1.199   7.555  0.1147  0.1607  0.0862
 6113SOL    HW129975   1.536   1.236   7.471  1.1430 -0.0151  0.3252
 6113SOL    HW229976   1.424   1.240   7.567 -0.6986 -2.4579  3.2854
 6114SOL     OW29977   2.978   0.649   6.865 -0.6047 -0.2646  0.8938
 6114SOL    HW129978   3.064   0.608   6.876 -0.4825  0.2075  1.6857
 6114SOL    HW229979   2.933   0.571   6.898  1.2700 -2.1227 -0.9728
 6115SOL     OW29980   2.575   1.191   2.506  0.0198 -0.2463  0.2692
 6115SOL    HW129981   2.670   1.180   2.515  0.4530  2.2414 -1.4367
 6115SOL    HW229982   2.544   1.114   2.458  0.3428  0.4903 -1.1358
 6116SOL     OW29983   1.611   3.562  16.582  0.2184  0.0729 -0.0664
 6116SOL    HW129984   1.555   3.537  16.509 -1.8695 -0.1474  1.6021
 6116SOL    HW229985   1.657   3.484  16.614 -0.2493  0.1481  0.7888
 6117SOL     OW29986   4.074   0.327  17.717 -0.1697 -0.1746 -0.0211
 6117SOL    HW129987   4.002   0.347   0.036  1.8420 -0.4382  2.5166
 6117SOL    HW229988   4.029   0.338  17.633 -0.9715 -1.1570  0.2836
 6118SOL     OW29989   2.924   2.615   4.019 -0.2571  0.0375 -0.4363
 6118SOL    HW129990   2.961   2.546   4.074  1.2659  0.1794 -1.2974
 6118SOL    HW229991   2.834   2.597   4.046  0.1061  0.7006  1.2222
 6119SOL     OW29992   0.731   4.315   7.469 -0.1257  0.9612 -0.3544
 6119SOL    HW129993   0.771   4.345   7.388 -0.1798  1.4214 -0.2077
 6119SOL    HW229994   0.806   4.267   7.505 -0.7268  1.3641  1.4493
 6120SOL     OW29995   3.494   2.296   2.088  0.1064  0.1489 -0.1792
 6120SOL    HW129996   3.484   2.229   2.021  2.7215  0.6636 -1.0852
 6120SOL    HW229997   3.574   2.264   2.130  0.1967 -1.2164 -1.4203
 6121SOL     OW29998   3.799   1.246   3.382  0.1713 -0.0380  0.3976
 6121SOL    HW129999   3.814   1.185   3.453 -0.9043 -0.9948 -0.2128
 6121SOL    HW230000   3.879   1.299   3.371  1.3777 -1.6266  1.5550
 6122SOL     OW30001   0.280   2.847   3.682 -0.2359 -0.0017  1.3883
 6122SOL    HW130002   0.211   2.879   3.623  1.3171 -2.3933 -1.7483
 6122SOL    HW230003   0.245   2.859   3.770  0.8449  1.2870  1.6446
 6123SOL     OW30004   1.847   3.712  14.774  0.6284  0.5707  0.0997
 6123SOL    HW130005   1.758   3.677  14.773  1.0210 -0.2777 -3.8984
 6123SOL    HW230006   1.871   3.731  14.865  1.0734 -0.7064  0.2499
 6124SOL     OW30007   0.057   1.576  15.242  0.7250 -0.3998 -0.3571
 6124SOL    HW130008   0.124   1.632  15.281  1.4904  0.7522 -3.3690
 6124SOL    HW230009   0.038   1.627  15.163 -3.1254 -0.8347  0.2882
 6125SOL     OW30010   1.212   4.459   8.159 -0.3331 -0.3201  0.2856
 6125SOL    HW130011   1.131   4.480   8.113  0.2680  1.8337  0.1888
 6125SOL    HW230012   1.281   4.509   8.115  0.1788  0.9481  2.5098
 6126SOL     OW30013   4.248   4.296   9.917 -0.6667  1.0662  0.0489
 6126SOL    HW130014   4.221   4.223   9.972  0.4950  1.0881  0.6412
 6126SOL    HW230015   4.307   4.332   9.983  0.3950 -0.3526 -0.1255
 6127SOL     OW30016   4.092   0.434   9.204  0.3412 -0.2617  0.3192
 6127SOL    HW130017   4.161   0.372   9.182 -0.9205 -0.5807 -2.7442
 6127SOL    HW230018   4.140   0.511   9.175 -1.1736  0.3676 -0.5679
 6128SOL     OW30019   0.385   0.567   7.661 -0.3741  0.2708 -0.1907
 6128SOL    HW130020   0.321   0.531   7.600 -0.6149  0.9326 -0.3171
 6128SOL    HW230021   0.403   0.649   7.615  0.0033  0.2650 -0.0589
 6129SOL     OW30022   2.636   4.471   2.403  0.1954 -0.2363 -0.3513
 6129SOL    HW130023   2.545   4.488   2.427 -0.0328 -2.5371  0.4294
 6129SOL    HW230024   2.624   4.381   2.373 -0.6283 -0.6682  1.2963
 6130SOL     OW30025   0.636   0.577  17.130 -0.7031 -0.1605  0.0137
 6130SOL    HW130026   0.691   0.655  17.133  1.8273 -1.9423 -0.1844
 6130SOL    HW230027   0.694   0.507  17.102  0.6590  1.1547 -0.4204
 6131SOL     OW30028   4.718   0.005   4.884  0.1961 -0.0339 -0.0865
 6131SOL    HW130029   4.699   0.097   4.868 -1.8488  0.0352  2.9208
 6131SOL    HW230030   0.018   4.722   4.796 -2.4961  0.4203 -1.2580
 6132SOL     OW30031   0.842   2.669   8.470 -0.3368 -0.3211 -0.1402
 6132SOL    HW130032   0.897   2.713   8.535  0.1514  1.0821 -1.4981
 6132SOL    HW230033   0.875   2.580   8.462 -2.7947 -1.3563  1.1843
 6133SOL     OW30034   1.548   0.956  11.514  0.0772 -0.1629  0.1576
 6133SOL    HW130035   1.604   0.913  11.580  0.0586 -0.8993 -0.2993
 6133SOL    HW230036   1.497   1.021  11.562 -0.0703 -0.7223  0.7722
 6134SOL     OW30037   0.456   0.413   1.675 -0.2367  0.1562 -0.4386
 6134SOL    HW130038   0.420   0.357   1.744  0.6689 -0.0961 -0.1737
 6134SOL    HW230039   0.539   0.371   1.652 -0.6722  1.1512 -3.8427
 6135SOL     OW30040   3.004   4.652   6.272 -0.3615  0.6857  0.4179
 6135SOL    HW130041   2.912   4.630   6.255  0.4802 -1.8706 -0.7925
 6135SOL    HW230042   3.049   4.588   6.216 -0.1629  1.4071 -0.2503
 6136SOL     OW30043   0.282   0.041   5.324 -0.3778 -0.6739  0.3894
 6136SOL    HW130044   0.275   4.733   5.239  1.5066  1.1066 -0.6957
 6136SOL    HW230045   0.334   0.117   5.299  0.1424 -0.5362  1.9404
 6137SOL     OW30046   1.371   0.853   7.946  0.1888  0.1703  0.5360
 6137SOL    HW130047   1.460   0.885   7.935  0.1436  0.0722 -0.1347
 6137SOL    HW230048   1.369   0.797   7.868  2.0931  1.8803 -0.7385
 6138SOL     OW30049   3.189   4.541  15.059 -0.1137 -1.2772 -0.0523
 6138SOL    HW130050   3.178   4.582  15.145 -2.1206  0.5160 -1.1725
 6138SOL    HW230051   3.139   4.460  15.068  1.3609 -1.9231  2.3718
 6139SOL     OW30052   3.443   1.904  12.209  0.0218 -0.0563 -0.2173
 6139SOL    HW130053   3.457   1.813  12.236  0.1748 -0.1501 -0.6182
 6139SOL    HW230054   3.391   1.895  12.130  0.4356 -1.6953 -0.3202
 6140SOL     OW30055   3.499   3.751  10.190 -0.1364  1.0257  0.1716
 6140SOL    HW130056   3.510   3.775  10.098  1.7467 -3.3172 -0.7292
 6140SOL    HW230057   3.581   3.712  10.220 -1.1443 -1.0463  0.1918
 6141SOL     OW30058   4.606   0.477   8.854 -0.4106  0.1020 -0.1734
 6141SOL    HW130059   4.690   0.436   8.834  0.5127  1.8228  0.2121
 6141SOL    HW230060   4.601   0.562   8.810  1.3204  1.0154  1.3897
 6142SOL     OW30061   4.188   0.957  17.387 -0.5812  0.1855 -0.0446
 6142SOL    HW130062   4.198   0.878  17.333 -2.9971 -0.1145 -0.0672
 6142SOL    HW230063   4.114   0.934  17.443 -0.9762  0.9499 -0.2445
 6143SOL     OW30064   2.998   1.724  11.257 -0.2486  0.3392 -0.1990
 6143SOL    HW130065   2.981   1.806  11.303 -1.9235  0.4159 -0.9675
 6143SOL    HW230066   3.062   1.753  11.192 -1.8787  0.5590 -1.6926
 6144SOL     OW30067   4.058   0.177  10.766 -0.2792  0.4370 -0.2818
 6144SOL    HW130068   3.987   0.204  10.708 -0.6748 -2.4503 -1.1851
 6144SOL    HW230069   4.034   0.086  10.785 -1.0456  1.2313  2.5386
 6145SOL     OW30070   0.127   1.692   5.177  0.1334  0.4981  0.2692
 6145SOL    HW130071   0.211   1.737   5.166 -0.6100  1.4604 -1.4106
 6145SOL    HW230072   0.143   1.606   5.140  2.8222  0.7648  0.8175
 6146SOL     OW30073   1.702   0.120   4.224 -0.5850  0.4578 -0.0549
 6146SOL    HW130074   1.715   0.121   4.319  0.8315  0.5440 -0.2451
 6146SOL    HW230075   1.624   0.174   4.216  0.6823  2.0517 -1.4979
 6147SOL     OW30076   0.942   0.314   9.446  0.8078  0.0201 -0.1017
 6147SOL    HW130077   0.878   0.335   9.378 -1.4879 -1.6326  1.5424
 6147SOL    HW230078   0.892   0.358   9.514  2.3623  0.8845  0.4793
 6148SOL     OW30079   0.521   3.995   4.495  0.1558 -1.0037 -0.5266
 6148SOL    HW130080   0.452   3.990   4.561 -1.9114  3.0338 -2.4039
 6148SOL    HW230081   0.490   4.050   4.424  1.4411  0.2458 -0.1353
 6149SOL     OW30082   2.638   1.749   5.026 -0.1080  0.0525  0.1360
 6149SOL    HW130083   2.608   1.831   5.063  0.6676  0.7532 -0.7954
 6149SOL    HW230084   2.623   1.759   4.932  1.2214  1.0737  0.0287
 6150SOL     OW30085   3.361   2.229   5.750  0.0270 -0.1914 -0.6440
 6150SOL    HW130086   3.397   2.317   5.757  0.1828 -0.2395 -0.8435
 6150SOL    HW230087   3.417   2.199   5.822  0.5884 -3.5997 -2.4430
 6151SOL     OW30088   0.129   0.570  11.197 -0.1781  0.5913 -0.0422
 6151SOL    HW130089   0.181   0.490  11.209 -1.2089 -0.0944 -0.1641
 6151SOL    HW230090   0.144   0.586  11.104 -1.0065 -0.4377 -0.3573
 6152SOL     OW30091   2.886   0.356  15.566  0.6003  0.0244 -0.3614
 6152SOL    HW130092   2.946   0.429  15.573  1.5967 -0.6156 -2.1490
 6152SOL    HW230093   2.812   0.416  15.567  1.8797  1.6227 -2.3253
 6153SOL     OW30094   4.454   4.249   7.099  0.6513  0.3869  0.3328
 6153SOL    HW130095   4.374   4.297   7.077 -0.5682 -1.8659 -0.2389
 6153SOL    HW230096   4.433   4.161   7.066 -0.8599  1.8113 -2.4784
 6154SOL     OW30097   4.664   3.574   3.212  0.1673 -0.1029 -0.0457
 6154SOL    HW130098   4.678   3.622   3.130  0.8559 -2.0559 -1.0953
 6154SOL    HW230099   4.569   3.576   3.220  0.4633  3.0375  2.3988
 6155SOL     OW30100   2.265   2.855   4.275  0.5516  0.5687  0.3141
 6155SOL    HW130101   2.256   2.808   4.192  0.7513  3.2074 -1.1735
 6155SOL    HW230102   2.359   2.866   4.284  1.0190 -1.8996 -1.4374
 6156SOL     OW30103   0.247   3.095   0.559 -0.0880 -0.1813  0.2703
 6156SOL    HW130104   0.260   3.065   0.470  1.0031  0.6070  0.1641
 6156SOL    HW230105   0.189   3.026   0.591  1.2102 -1.0703  0.7021
 6157SOL     OW30106   2.098   3.163   4.432  0.3798 -0.0491 -0.0152
 6157SOL    HW130107   2.105   3.216   4.512  1.0311 -0.8767  0.4740
 6157SOL    HW230108   2.017   3.205   4.401  1.0812  0.8143 -0.6587
 6158SOL     OW30109   4.017   1.184   0.453  0.9510 -0.1827  0.5825
 6158SOL    HW130110   4.066   1.149   0.379 -1.0164 -1.6333 -0.0157
 6158SOL    HW230111   4.015   1.274   0.421 -0.2242 -0.8063 -1.0782
 6159SOL     OW30112   4.060   4.660   0.433 -0.2460 -0.0342 -0.1943
 6159SOL    HW130113   4.140   4.710   0.452 -0.9209 -0.0109  2.5561
 6159SOL    HW230114   4.035   4.714   0.357  0.7506  0.9493  0.1704
 6160SOL     OW30115   4.495   0.444   5.688  0.3475 -0.0419  0.3868
 6160SOL    HW130116   4.515   0.533   5.715  0.6642  0.2621 -0.8694
 6160SOL    HW230117   4.400   0.440   5.693  0.2856 -0.3813 -0.9253
 6161SOL     OW30118   2.284   0.009   6.373 -0.2024  0.0217  0.0140
 6161SOL    HW130119   2.192   0.032   6.362 -0.0412  0.7889  0.2379
 6161SOL    HW230120   2.287   4.728   6.467  0.4832  0.3090  0.0437
 6162SOL     OW30121   0.204   0.993   8.141 -0.0899  0.1564 -0.1402
 6162SOL    HW130122   0.243   1.067   8.095 -1.7682  0.3399 -1.2731
 6162SOL    HW230123   0.126   1.040   8.171  0.4144  1.0372 -0.2092
 6163SOL     OW30124   1.007   1.173  13.224 -0.5349 -0.6720 -0.3945
 6163SOL    HW130125   0.975   1.091  13.185 -0.4100 -0.8004 -0.2217
 6163SOL    HW230126   0.973   1.237  13.161  0.4769  0.9174  0.6817
 6164SOL     OW30127   4.299   4.679  11.826  0.3329  0.2652  0.2237
 6164SOL    HW130128   4.371   4.724  11.869  0.8947  0.1392 -0.5741
 6164SOL    HW230129   4.359   4.633  11.767  1.6566 -0.8224  2.4141
 6165SOL     OW30130   0.418   3.071   6.093 -0.8861 -0.6513  0.2167
 6165SOL    HW130131   0.387   3.005   6.032 -0.3333 -2.1856  1.6041
 6165SOL    HW230132   0.471   3.020   6.154  0.0196  0.3144  0.2356
 6166SOL     OW30133   1.424   1.562   1.747  0.3521 -0.4646 -0.3431
 6166SOL    HW130134   1.512   1.583   1.715  1.0801 -0.6284  1.5681
 6166SOL    HW230135   1.372   1.633   1.710 -0.7365 -2.3728 -2.5030
 6167SOL     OW30136   1.348   2.980   4.069 -0.2418 -0.4602 -0.2621
 6167SOL    HW130137   1.342   2.948   4.159  0.5598 -1.6779 -0.6367
 6167SOL    HW230138   1.285   2.924   4.024  1.9074 -2.7982 -0.3456
 6168SOL     OW30139   1.192   0.188   7.146  0.3081 -0.3597  0.1198
 6168SOL    HW130140   1.235   0.244   7.082  2.0444 -1.7881  0.0545
 6168SOL    HW230141   1.112   0.235   7.170 -0.5568 -1.4759 -0.5929
 6169SOL     OW30142   0.315   0.515   2.111 -0.2690 -0.7371  0.2408
 6169SOL    HW130143   0.311   0.609   2.094 -1.1585 -0.3321  2.7584
 6169SOL    HW230144   0.396   0.509   2.160  1.0699 -2.5951 -2.1837
 6170SOL     OW30145   4.023   3.944   6.059  0.0991 -0.2104  0.5262
 6170SOL    HW130146   4.014   3.950   6.154 -1.8681  1.4005  0.2506
 6170SOL    HW230147   4.097   3.998   6.031  1.3476 -2.2610 -0.1114
 6171SOL     OW30148   0.244   1.146   4.347 -0.5481 -0.1600  0.1406
 6171SOL    HW130149   0.313   1.086   4.320  1.5249  1.9237  0.8427
 6171SOL    HW230150   0.280   1.196   4.420 -1.3974 -0.5059  0.7988
 6172SOL     OW30151   4.082   1.756   3.406 -0.1446  0.3853  0.2546
 6172SOL    HW130152   4.136   1.799   3.472 -0.1315  2.3426 -1.0275
 6172SOL    HW230153   4.058   1.838   3.363 -3.9370 -0.7411  0.2322
 6173SOL     OW30154   3.683   1.706   9.358  0.3238  0.1169 -0.4247
 6173SOL    HW130155   3.742   1.731   9.428  0.4505 -0.0273 -0.4793
 6173SOL    HW230156   3.747   1.687   9.289  2.5154  2.0443  1.1072
 6174SOL     OW30157   0.027   1.608  14.637  0.0466 -0.1045 -0.3510
 6174SOL    HW130158   0.083   1.647  14.705 -1.8138 -0.2671  1.2876
 6174SOL    HW230159   4.732   1.685  14.588  0.8649 -0.1597 -0.9311
 6175SOL     OW30160   2.800   4.396  13.403 -0.2447  0.7668  0.1234
 6175SOL    HW130161   2.838   4.365  13.485 -1.3431 -1.2397 -0.1165
 6175SOL    HW230162   2.860   4.468  13.385  1.4054 -1.0848 -1.8262
 6176SOL     OW30163   4.564   0.764  14.998  0.4024 -0.3309  0.3877
 6176SOL    HW130164   4.586   0.844  15.046  2.2957 -0.4848 -0.2313
 6176SOL    HW230165   4.561   0.798  14.908  1.1323 -1.6161 -0.1150
 6177SOL     OW30166   3.822   3.715  11.262  0.6706  0.0516  0.0456
 6177SOL    HW130167   3.772   3.649  11.215  1.6132 -0.1352 -0.7045
 6177SOL    HW230168   3.844   3.662  11.339 -0.8515 -1.8268 -0.8446
 6178SOL     OW30169   3.055   1.815   3.143  0.2685  0.3141  0.1201
 6178SOL    HW130170   3.137   1.768   3.158 -0.1678 -0.2323  0.8256
 6178SOL    HW230171   3.034   1.859   3.226 -0.4569  3.1975 -1.5910
 6179SOL     OW30172   0.413   1.937   5.397  0.1642  0.4681  0.4426
 6179SOL    HW130173   0.498   1.933   5.354  1.4433 -1.7029  3.1913
 6179SOL    HW230174   0.397   2.031   5.391  1.3634  0.5428 -1.4218
 6180SOL     OW30175   2.434   3.519   4.337  0.3996  0.7091  0.3535
 6180SOL    HW130176   2.452   3.428   4.311  1.8239  0.4554  2.2471
 6180SOL    HW230177   2.518   3.565   4.331  1.2684 -0.8523  0.4784
 6181SOL     OW30178   0.776   0.680   5.505  0.1579  0.5453  0.0492
 6181SOL    HW130179   0.685   0.702   5.485  0.2265 -0.3823 -1.2797
 6181SOL    HW230180   0.766   0.586   5.516  0.3510  0.2283 -2.6557
 6182SOL     OW30181   3.302   4.354  10.888 -0.1357 -0.2602 -0.4481
 6182SOL    HW130182   3.258   4.303  10.956  1.8829 -3.2462 -1.3465
 6182SOL    HW230183   3.352   4.418  10.940 -1.9635  0.4741  0.3896
 6183SOL     OW30184   4.512   2.901   3.929 -0.3232  0.2557 -0.0280
 6183SOL    HW130185   4.606   2.889   3.943  0.3436  3.9684 -1.3892
 6183SOL    HW230186   4.505   2.988   3.967 -1.5126 -0.3924  1.2180
 6184SOL     OW30187   1.567   4.095  10.556 -0.3343 -0.4496  0.5878
 6184SOL    HW130188   1.607   4.170  10.512 -1.0136  0.1661  0.9986
 6184SOL    HW230189   1.614   4.086  10.638  0.2627 -1.7653  0.0854
 6185SOL     OW30190   2.918   3.562  10.729  0.4373 -0.1416  0.5732
 6185SOL    HW130191   2.874   3.521  10.804 -0.9250 -0.2761 -0.3065
 6185SOL    HW230192   2.980   3.489  10.721 -1.5299 -1.5249 -2.0314
 6186SOL     OW30193   1.694   3.824   6.175 -0.0215  0.4711  0.3680
 6186SOL    HW130194   1.681   3.832   6.270 -1.4699  0.3537  0.1722
 6186SOL    HW230195   1.606   3.856   6.153  0.8833  1.4735 -1.8292
 6187SOL     OW30196   4.639   3.757   8.990 -0.5712 -0.2081 -0.2952
 6187SOL    HW130197   4.551   3.787   9.012 -0.6169 -1.1401  0.7568
 6187SOL    HW230198   4.641   3.765   8.895  2.3986 -0.3500 -0.2466
 6188SOL     OW30199   2.780   3.090   6.365 -0.3533  0.4804 -0.1166
 6188SOL    HW130200   2.770   3.182   6.392  0.7690  0.3772  0.6720
 6188SOL    HW230201   2.830   3.102   6.284  0.5737 -1.4016  0.1876
 6189SOL     OW30202   4.078   2.671   6.071  0.7443  0.5892 -0.0777
 6189SOL    HW130203   4.091   2.686   6.165  1.1687  0.4548 -0.1161
 6189SOL    HW230204   3.995   2.624   6.080  0.9738 -0.2042 -2.0500
 6190SOL     OW30205   3.927   3.851   4.370  0.2734 -0.3417  0.1871
 6190SOL    HW130206   4.020   3.833   4.356  0.4865 -0.6202  1.9149
 6190SOL    HW230207   3.925   3.826   4.463  0.3104  2.7174  1.0020
 6191SOL     OW30208   3.528   1.483   9.316  0.5881 -0.6377 -0.3948
 6191SOL    HW130209   3.586   1.559   9.320  0.7585 -0.7435 -0.8039
 6191SOL    HW230210   3.524   1.465   9.410 -1.4112  0.4987 -0.2651
 6192SOL     OW30211   0.134   2.787   6.076  0.2374  0.2203 -0.2946
 6192SOL    HW130212   0.085   2.814   6.153 -0.7277  0.7450 -1.0845
 6192SOL    HW230213   0.164   2.868   6.036 -0.6853  0.7822  0.1511
 6193SOL     OW30214   1.500   1.292   9.415  0.1428 -0.2090  0.3583
 6193SOL    HW130215   1.417   1.245   9.419  0.8499 -1.6145 -1.5710
 6193SOL    HW230216   1.471   1.371   9.370 -1.2821 -0.9962 -0.1015
 6194SOL     OW30217   0.005   3.325   8.531  0.7029 -0.3357 -0.0273
 6194SOL    HW130218   4.712   3.262   8.465 -0.3106  2.1608 -1.9673
 6194SOL    HW230219   0.063   3.273   8.587  2.4246  0.6867 -0.8786
 6195SOL     OW30220   3.493   3.065   3.271 -0.6531 -0.3235  0.6325
 6195SOL    HW130221   3.553   3.138   3.282  0.0114 -0.9352  1.0768
 6195SOL    HW230222   3.522   3.020   3.191 -0.0816 -2.7363  2.1853
 6196SOL     OW30223   1.173   1.656  12.377 -0.1908 -0.5936  0.0744
 6196SOL    HW130224   1.083   1.686  12.372 -0.0324 -0.0505  0.4765
 6196SOL    HW230225   1.157   1.591  12.446  1.4742 -0.5116  0.5494
 6197SOL     OW30226   4.343   0.967   1.613 -0.2586 -0.0601 -0.4801
 6197SOL    HW130227   4.394   0.956   1.533  0.2467  2.6416 -0.5320
 6197SOL    HW230228   4.256   0.975   1.575 -0.6861 -0.0997  0.4758
 6198SOL     OW30229   0.295   0.343  14.923 -0.2981 -0.8868  0.2581
 6198SOL    HW130230   0.357   0.290  14.873 -0.0936 -1.1513  0.8044
 6198SOL    HW230231   0.214   0.301  14.893 -0.4429 -0.5034  0.1100
 6199SOL     OW30232   4.276   2.902   1.009 -0.2332 -0.1387 -0.2140
 6199SOL    HW130233   4.354   2.921   0.957  0.3143 -2.3273 -0.1745
 6199SOL    HW230234   4.264   2.809   0.992 -0.6805  0.1194 -1.3808
 6200SOL     OW30235   0.766   4.243   3.517 -0.3716  1.0075  0.0983
 6200SOL    HW130236   0.704   4.255   3.445  0.4613  2.3771 -0.4008
 6200SOL    HW230237   0.700   4.237   3.586  1.4677 -2.9928  1.5050
 6201SOL     OW30238   2.535   1.429  11.314 -0.2756  0.0233  0.4466
 6201SOL    HW130239   2.489   1.360  11.266  0.4154 -1.6033  2.1446
 6201SOL    HW230240   2.461   1.478  11.350  1.0310  1.0129  1.7779
 6202SOL     OW30241   4.559   0.663   8.220 -0.0392  0.1156 -0.0861
 6202SOL    HW130242   4.613   0.612   8.160  3.1105  2.1738  0.9992
 6202SOL    HW230243   4.608   0.659   8.303  0.3745 -0.7372 -0.3779
 6203SOL     OW30244   4.386   4.499   8.926  0.0858  0.2471  0.8156
 6203SOL    HW130245   4.412   4.413   8.892 -2.0382  0.0866 -0.4204
 6203SOL    HW230246   4.461   4.553   8.902  1.1770 -0.5028  2.5238
 6204SOL     OW30247   3.656   1.232   9.106 -0.3408 -0.9217 -0.4268
 6204SOL    HW130248   3.710   1.283   9.166 -0.2009 -1.5768 -0.0001
 6204SOL    HW230249   3.668   1.279   9.023 -0.5000  1.0767  0.6742
 6205SOL     OW30250   4.600   3.480   9.015  0.2421 -0.4895 -0.4443
 6205SOL    HW130251   4.640   3.466   8.929  0.1168  1.0763 -0.7528
 6205SOL    HW230252   4.597   3.575   9.023 -0.6984 -0.4161 -1.6792
 6206SOL     OW30253   4.544   4.032   2.068 -0.2912  0.3808  0.1375
 6206SOL    HW130254   4.615   4.093   2.048  0.5114 -0.3773  0.6566
 6206SOL    HW230255   4.594   3.975   2.126  0.1665  4.6751  3.8911
 6207SOL     OW30256   0.030   3.064   9.696 -0.1728  0.4023 -0.0382
 6207SOL    HW130257   0.097   3.080   9.630 -1.2132  0.8063 -1.0010
 6207SOL    HW230258   0.066   2.984   9.734 -0.5216  0.9185  1.3872
 6208SOL     OW30259   1.913   3.935   8.937  0.0977  0.6000 -0.1562
 6208SOL    HW130260   1.973   3.938   9.011 -1.2239  0.6403  0.8996
 6208SOL    HW230261   1.899   4.029   8.927 -0.8210  0.6697  1.8047
 6209SOL     OW30262   1.369   3.296   9.483 -0.0042  0.1638  0.1300
 6209SOL    HW130263   1.377   3.370   9.543 -0.0300  1.6751 -1.7166
 6209SOL    HW230264   1.276   3.308   9.465  0.1598 -0.6220 -1.2263
 6210SOL     OW30265   3.285   0.611  13.974  0.1122  0.4316  0.0044
 6210SOL    HW130266   3.315   0.528  13.938 -1.3287 -0.0309 -0.1042
 6210SOL    HW230267   3.292   0.664  13.894 -0.3617  0.3176 -0.1131
 6211SOL     OW30268   0.640   1.673   6.556 -0.3323  0.0306 -0.2550
 6211SOL    HW130269   0.670   1.759   6.584  1.4860  0.1706 -2.7330
 6211SOL    HW230270   0.570   1.682   6.491 -0.5044  1.8260  0.1915
 6212SOL     OW30271   2.880   1.266   4.552 -0.3755  0.5416 -0.2333
 6212SOL    HW130272   2.890   1.269   4.457  1.5820  0.8476 -0.0266
 6212SOL    HW230273   2.937   1.340   4.575  0.9904 -0.8886  0.9464
 6213SOL     OW30274   4.134   1.834   7.310  0.0219  0.1144  0.4258
 6213SOL    HW130275   4.109   1.910   7.259  1.2849  1.1998  1.4194
 6213SOL    HW230276   4.178   1.876   7.384  2.0873  1.1836 -1.4330
 6214SOL     OW30277   1.263   4.299   3.696 -0.5056  0.2537 -0.3842
 6214SOL    HW130278   1.169   4.281   3.691  0.1575 -2.9631 -1.4438
 6214SOL    HW230279   1.282   4.300   3.602  4.6149  1.7051  0.6381
 6215SOL     OW30280   0.699   1.746   8.888  0.2937  0.3095  0.5157
 6215SOL    HW130281   0.630   1.801   8.925 -0.4351  1.0341 -1.8741
 6215SOL    HW230282   0.759   1.776   8.956 -0.1942 -2.4865  2.1618
 6216SOL     OW30283   2.768   0.094  15.294  0.2604  0.4500  0.4042
 6216SOL    HW130284   2.778   0.047  15.377 -2.5715 -0.3575  0.2757
 6216SOL    HW230285   2.817   0.036  15.237  0.3099  1.5584 -0.6823
 6217SOL     OW30286   0.337   3.167   3.742 -0.0675  0.3417 -0.3579
 6217SOL    HW130287   0.249   3.165   3.778 -0.3921 -2.5951 -1.3718
 6217SOL    HW230288   0.346   3.250   3.695  0.3265  0.7630  0.4463
 6218SOL     OW30289   0.752   4.004   6.748  0.3822 -0.2131  0.0968
 6218SOL    HW130290   0.660   3.980   6.737  0.3913  0.7064 -1.9258
 6218SOL    HW230291   0.781   4.047   6.668  1.7055 -2.0037 -0.3866
 6219SOL     OW30292   2.120   3.425   3.102  0.3240 -0.4932  0.1839
 6219SOL    HW130293   2.151   3.509   3.070 -0.4456 -0.7268 -1.1846
 6219SOL    HW230294   2.207   3.391   3.124  0.3887  0.0645  0.7756
 6220SOL     OW30295   1.647   2.988   5.193  0.2529 -0.0753  0.7312
 6220SOL    HW130296   1.567   3.006   5.144  1.7738  1.4710 -1.2358
 6220SOL    HW230297   1.702   2.998   5.115  0.1740 -1.7706  0.4436
 6221SOL     OW30298   1.272   3.197   1.429  0.2973 -0.3580 -0.1361
 6221SOL    HW130299   1.361   3.190   1.394  1.0666  2.5134  1.2570
 6221SOL    HW230300   1.286   3.194   1.524  1.4749 -0.2023 -0.3090
 6222SOL     OW30301   2.345   2.012   3.469 -0.6682 -0.0932 -0.0293
 6222SOL    HW130302   2.282   1.975   3.530 -3.4780  3.0937 -1.0189
 6222SOL    HW230303   2.364   2.091   3.520  1.2069 -1.4594  1.3874
 6223SOL     OW30304   0.236   3.722   8.844 -0.2265  0.3744 -0.0531
 6223SOL    HW130305   0.152   3.767   8.845 -0.4821 -0.1235  0.6631
 6223SOL    HW230306   0.282   3.775   8.779  0.5007 -0.5055 -0.2522
 6224SOL     OW30307   2.126   4.481  15.671 -0.2981 -0.3044  0.5396
 6224SOL    HW130308   2.200   4.513  15.619 -1.1227  0.1580 -0.3420
 6224SOL    HW230309   2.048   4.475  15.616 -0.1952  2.0915  0.1347
 6225SOL     OW30310   4.501   2.249   7.634 -0.0657 -0.6550 -0.2923
 6225SOL    HW130311   4.553   2.292   7.566 -0.4872  2.1244  1.1106
 6225SOL    HW230312   4.567   2.229   7.701 -1.3592 -2.4999  0.4314
 6226SOL     OW30313   2.612   4.069  13.355 -0.2070 -0.4180 -0.2717
 6226SOL    HW130314   2.689   4.097  13.404 -0.3989 -1.2731  0.5276
 6226SOL    HW230315   2.569   4.151  13.330  1.2052  0.4507  0.1291
 6227SOL     OW30316   2.466   4.189   5.022  0.5675 -0.1315 -0.2031
 6227SOL    HW130317   2.491   4.242   5.098 -0.2576  1.7206 -1.2281
 6227SOL    HW230318   2.497   4.244   4.950 -0.5998 -0.7674 -1.1851
 6228SOL     OW30319   3.563   1.523   6.788 -0.0714  0.5838 -0.2481
 6228SOL    HW130320   3.535   1.601   6.835 -2.0516 -0.8300  0.8928
 6228SOL    HW230321   3.547   1.547   6.697  2.3490 -2.7522 -1.5432
 6229SOL     OW30322   3.502   4.338  10.179 -0.3245 -0.4899  0.7329
 6229SOL    HW130323   3.503   4.397  10.255 -0.9573 -1.7595  1.7173
 6229SOL    HW230324   3.443   4.269  10.209 -0.6501 -1.0087 -1.0992
 6230SOL     OW30325   2.610   0.998  15.877  0.0445  0.2083  0.2628
 6230SOL    HW130326   2.581   0.909  15.855 -0.9855  0.5145  0.4021
 6230SOL    HW230327   2.697   0.987  15.837  0.3172 -2.9265  1.6490
 6231SOL     OW30328   2.443   1.655   7.633 -0.5975 -0.8595  0.3956
 6231SOL    HW130329   2.357   1.696   7.644  0.3393  1.3048 -0.2206
 6231SOL    HW230330   2.476   1.648   7.723  0.4934 -0.2344  0.0406
 6232SOL     OW30331   3.529   3.276   7.062 -0.4184 -0.1611 -0.2151
 6232SOL    HW130332   3.514   3.202   7.121  1.6310  0.2750  0.8359
 6232SOL    HW230333   3.576   3.342   7.111 -1.0251  1.1765 -1.4425
 6233SOL     OW30334   2.295   2.955   5.126 -0.2900  0.5492  0.1728
 6233SOL    HW130335   2.204   2.955   5.154 -0.6721  0.5888 -1.1003
 6233SOL    HW230336   2.296   3.007   5.046  0.5469  1.5519  0.8312
 6234SOL     OW30337   3.427   3.016  12.366 -0.3806 -0.4717  0.0811
 6234SOL    HW130338   3.339   2.987  12.345 -1.6618  2.4903  1.3080
 6234SOL    HW230339   3.477   2.942  12.399  1.2360  0.3036 -0.5773
 6235SOL     OW30340   0.203   3.764   5.866  0.0546  0.4340 -0.3424
 6235SOL    HW130341   0.212   3.757   5.771 -2.8031  1.8659 -0.7187
 6235SOL    HW230342   0.204   3.858   5.883 -1.6469  0.4792 -0.4885
 6236SOL     OW30343   2.317   4.143  14.812 -0.4408  0.0373  1.0430
 6236SOL    HW130344   2.373   4.070  14.840 -0.8271 -1.0416 -0.9565
 6236SOL    HW230345   2.377   4.218  14.806 -0.1873 -0.5177 -3.8373
 6237SOL     OW30346   3.820   1.501   4.673  0.1185 -0.3460 -0.1842
 6237SOL    HW130347   3.903   1.538   4.644  1.2251 -1.0267  2.1266
 6237SOL    HW230348   3.759   1.575   4.670  1.4242  0.6811 -1.1746
 6238SOL     OW30349   0.988   2.842   4.602 -0.2989 -0.4963 -0.2439
 6238SOL    HW130350   1.063   2.789   4.574 -0.9423 -1.5135 -0.0433
 6238SOL    HW230351   1.022   2.859   4.689 -2.2198 -0.1854  0.4478
 6239SOL     OW30352   3.382   2.155   7.939 -0.0028  0.1538  0.4691
 6239SOL    HW130353   3.378   2.223   7.872 -0.3213  0.6134  0.9461
 6239SOL    HW230354   3.448   2.094   7.908 -2.1925 -1.5620 -0.8043
 6240SOL     OW30355   1.495   0.272   7.964 -0.0692  0.4178 -0.2377
 6240SOL    HW130356   1.513   0.196   8.019  3.9938  2.9107  1.8833
 6240SOL    HW230357   1.508   0.344   8.026  1.3332  1.3100 -1.5675
 6241SOL     OW30358   0.698   0.218   7.089 -0.3828 -0.0652  0.1432
 6241SOL    HW130359   0.647   0.256   7.018 -0.4960 -0.8759 -0.2062
 6241SOL    HW230360   0.694   0.123   7.076  2.4468 -0.1666 -0.0397
 6242SOL     OW30361   4.633   2.108  10.006 -0.5734 -0.5012 -0.2011
 6242SOL    HW130362   4.724   2.136  10.001 -0.9253  0.3635 -1.7242
 6242SOL    HW230363   4.587   2.182  10.046  0.8258 -0.6761  1.7780
 6243SOL     OW30364   0.737   3.474   5.328 -0.6622  0.2258  0.2201
 6243SOL    HW130365   0.693   3.544   5.377 -1.4783  0.6501 -1.1408
 6243SOL    HW230366   0.784   3.436   5.403 -1.3291  2.5980  1.8592
 6244SOL     OW30367   4.684   2.885  13.949 -0.2640 -0.3021 -0.6743
 6244SOL    HW130368   4.606   2.831  13.936  0.2233 -0.9429 -0.9853
 6244SOL    HW230369   4.690   2.938  13.869  1.4764 -1.2675 -1.2102
 6245SOL     OW30370   2.033   2.459   4.005  0.3818 -0.6556  0.5311
 6245SOL    HW130371   2.030   2.526   3.937  0.0677 -2.2746 -1.0512
 6245SOL    HW230372   2.115   2.473   4.052  0.0795  0.4483  0.7293
 6246SOL     OW30373   0.669   4.585   2.287  0.1682 -0.4008 -0.0947
 6246SOL    HW130374   0.740   4.577   2.224  1.2358 -0.9052  1.1604
 6246SOL    HW230375   0.646   4.494   2.307 -0.2776 -0.2204  0.2268
 6247SOL     OW30376   4.262   3.576   8.950  0.2099 -0.4511 -0.3046
 6247SOL    HW130377   4.279   3.482   8.955  1.2092 -0.2973 -0.8265
 6247SOL    HW230378   4.316   3.606   8.877 -1.3891  0.3215 -1.1681
 6248SOL     OW30379   4.553   1.189   4.788 -0.0772 -0.7195  0.1134
 6248SOL    HW130380   4.538   1.247   4.713 -1.4048  0.7404  1.5019
 6248SOL    HW230381   4.460   1.170   4.804  0.1924 -0.7754  1.5623
 6249SOL     OW30382   1.513   4.599   4.611  0.2230 -0.2868 -0.1143
 6249SOL    HW130383   1.559   4.532   4.562 -1.5669 -3.1963  2.2113
 6249SOL    HW230384   1.485   4.543   4.683 -1.6424 -0.5636 -1.0255
 6250SOL     OW30385   2.782   4.716   3.107 -0.2771  0.5188  0.0796
 6250SOL    HW130386   2.755   4.651   3.041 -0.9536  0.7311  0.1479
 6250SOL    HW230387   2.867   4.686   3.138 -0.0982 -0.4341 -1.2899
 6251SOL     OW30388   1.732   1.197   6.512 -0.3329  0.1919  0.9596
 6251SOL    HW130389   1.644   1.232   6.525 -0.5080 -0.7410  2.3102
 6251SOL    HW230390   1.721   1.102   6.510  0.5040  0.0871  1.3743
 6252SOL     OW30391   3.629   4.732  16.328  0.0025 -0.4125 -0.2501
 6252SOL    HW130392   3.545   4.734  16.283  0.4778  2.9849 -0.9728
 6252SOL    HW230393   3.609   4.683  16.408 -1.9987 -2.6290 -2.1043
 6253SOL     OW30394   2.405   4.554   5.468  0.3889  0.2425  0.0509
 6253SOL    HW130395   2.402   4.604   5.549 -0.1439  0.5246 -0.1411
 6253SOL    HW230396   2.326   4.583   5.422  0.7520 -0.2658 -0.8997
 6254SOL     OW30397   1.861   4.217   8.819  0.6088  0.0208 -0.2578
 6254SOL    HW130398   1.773   4.247   8.796 -0.6433 -2.8073  0.8491
 6254SOL    HW230399   1.895   4.296   8.861  0.3819  1.0823 -2.0864
 6255SOL     OW30400   1.660   0.972   8.506 -0.0477  0.0523  0.3520
 6255SOL    HW130401   1.590   1.007   8.452 -0.6703 -0.1467  1.0253
 6255SOL    HW230402   1.675   0.898   8.448 -2.1518  1.5560 -2.0910
 6256SOL     OW30403   3.131   4.734   2.984  0.2132 -0.1251  0.0468
 6256SOL    HW130404   3.210   0.053   2.989 -1.5831  2.3871  0.9314
 6256SOL    HW230405   3.139   4.704   2.893  1.5587 -0.1705  0.1735
 6257SOL     OW30406   2.052   1.548   6.937 -0.0645  0.2918  0.9027
 6257SOL    HW130407   2.048   1.571   7.030  1.1303  3.4097  0.2025
 6257SOL    HW230408   2.116   1.479   6.953  1.5491  1.8489  1.2209
 6258SOL     OW30409   3.185   0.027   8.998 -0.0592 -0.2182 -0.2328
 6258SOL    HW130410   3.184   4.670   8.972  1.1250  0.2964 -2.1187
 6258SOL    HW230411   3.249   0.026   9.069 -1.3097  0.7185  0.8898
 6259SOL     OW30412   0.926   4.100  10.166  0.0165 -0.0633  0.6634
 6259SOL    HW130413   0.921   4.006  10.148  2.5002 -0.0103 -0.2268
 6259SOL    HW230414   0.981   4.114  10.244 -0.0992  1.8211  0.3865
 6260SOL     OW30415   0.961   0.708   2.754  0.5503 -0.2253  0.2204
 6260SOL    HW130416   1.026   0.664   2.809  1.9535  1.7405  0.1654
 6260SOL    HW230417   0.886   0.654   2.779 -1.3328  2.0077 -0.6422
 6261SOL     OW30418   3.427   1.216   3.217  0.1469  0.0391 -0.2607
 6261SOL    HW130419   3.520   1.235   3.205  0.2166  1.4228  2.4524
 6261SOL    HW230420   3.391   1.290   3.169  2.2019  2.1651  1.4726
 6262SOL     OW30421   3.374   1.124  13.184 -0.1373 -0.0932 -0.4849
 6262SOL    HW130422   3.325   1.112  13.103  1.7662  0.2745 -1.7070
 6262SOL    HW230423   3.418   1.040  13.195  2.7647  1.6118  0.9056
 6263SOL     OW30424   3.998   0.310   3.790 -0.3334 -0.2594  0.1213
 6263SOL    HW130425   3.942   0.384   3.813 -0.3626 -0.1825 -0.2043
 6263SOL    HW230426   4.018   0.278   3.878  2.3881 -0.3285 -0.5128
 6264SOL     OW30427   0.946   1.471   6.920  0.1226 -0.2742 -0.0068
 6264SOL    HW130428   0.950   1.548   6.863 -0.5129 -0.6632 -0.5729
 6264SOL    HW230429   0.870   1.491   6.975  0.3531 -2.9692  1.3109
 6265SOL     OW30430   2.641   1.589   5.598 -0.0745  0.1186  0.1108
 6265SOL    HW130431   2.575   1.576   5.666  1.0324  0.9043  1.3280
 6265SOL    HW230432   2.603   1.656   5.541 -0.5025 -1.0531 -0.9857
 6266SOL     OW30433   3.065   1.927   1.840 -0.5488 -0.2614  0.4674
 6266SOL    HW130434   3.148   1.972   1.856 -0.4218 -0.2402 -0.2432
 6266SOL    HW230435   2.998   1.993   1.855 -0.9677 -0.9328  1.6062
 6267SOL     OW30436   1.020   4.436   6.441  0.7170  0.2977 -0.4202
 6267SOL    HW130437   1.097   4.475   6.400 -0.6621  2.0293 -1.3739
 6267SOL    HW230438   1.042   4.345   6.423  0.7572  0.5275 -1.5015
 6268SOL     OW30439   1.530   3.870   8.342  0.0956 -0.6071  0.0259
 6268SOL    HW130440   1.563   3.887   8.253  1.7642  3.7714  1.5159
 6268SOL    HW230441   1.516   3.959   8.373  0.4098 -1.1656  1.7857
 6269SOL     OW30442   2.208   0.289   8.139 -0.7149 -0.0934 -0.0059
 6269SOL    HW130443   2.285   0.345   8.129 -1.1608  0.4581 -0.3303
 6269SOL    HW230444   2.139   0.354   8.140 -0.4640  0.1979 -1.9213
 6270SOL     OW30445   1.063   2.908   9.599  0.5437  0.0586  0.3709
 6270SOL    HW130446   1.147   2.919   9.643  1.0301  0.1005 -0.5723
 6270SOL    HW230447   1.064   2.965   9.523  0.4524 -1.1926 -0.5655
 6271SOL     OW30448   1.998   0.563  11.270  0.1957 -0.0243 -0.1571
 6271SOL    HW130449   1.940   0.593  11.340  1.9288  0.3016  1.1411
 6271SOL    HW230450   2.067   0.629  11.276  2.0478 -2.0226  0.5210
 6272SOL     OW30451   4.715   1.829   4.938  0.7196  0.1044  0.1561
 6272SOL    HW130452   0.029   1.849   5.018 -0.0144  1.2189  0.3234
 6272SOL    HW230453   4.624   1.838   4.967  0.6641 -0.5558  0.1782
 6273SOL     OW30454   4.010   2.373   5.977  0.1432 -0.2103 -0.1443
 6273SOL    HW130455   3.950   2.307   6.012 -2.0424  1.1776 -1.3083
 6273SOL    HW230456   3.951   2.442   5.949  2.4860  1.4908 -0.9030
 6274SOL     OW30457   0.714   4.088   1.900  0.3850  0.1203  0.3068
 6274SOL    HW130458   0.808   4.110   1.901  0.4215 -0.0461  1.0044
 6274SOL    HW230459   0.687   4.121   1.815 -1.8718 -3.3457 -0.3026
 6275SOL     OW30460   0.896   1.373  13.044 -0.0526  0.0092  0.1639
 6275SOL    HW130461   0.845   1.422  13.108  0.7604  2.0969 -0.8056
 6275SOL    HW230462   0.977   1.424  13.043 -0.3345  0.4639  0.3353
 6276SOL     OW30463   0.151   4.359   6.619 -0.2023 -0.4390 -0.2610
 6276SOL    HW130464   0.234   4.346   6.666 -0.9132 -2.2351  0.5142
 6276SOL    HW230465   0.123   4.445   6.651  2.2267  0.1234  0.3507
 6277SOL     OW30466   0.193   4.508   5.897  0.2694 -0.2904 -0.4886
 6277SOL    HW130467   0.247   4.452   5.841 -0.3406 -2.5208  1.1924
 6277SOL    HW230468   0.119   4.448   5.907  1.3111 -1.5269 -0.2730
 6278SOL     OW30469   2.951   3.412   8.122  0.1265  0.3219  0.2154
 6278SOL    HW130470   2.937   3.405   8.028  1.4879  3.4690 -0.2114
 6278SOL    HW230471   3.045   3.430   8.117  0.0173  1.1426  1.1421
 6279SOL     OW30472   1.983   3.265  16.751  0.0105 -0.3221  0.3568
 6279SOL    HW130473   1.890   3.272  16.730 -0.3128 -1.4667  1.3747
 6279SOL    HW230474   2.020   3.203  16.688  0.0646  0.0321  0.0427
 6280SOL     OW30475   2.333   1.638   3.763  1.4198 -0.2544  0.5923
 6280SOL    HW130476   2.410   1.693   3.775  1.1742  0.3358 -0.5677
 6280SOL    HW230477   2.356   1.587   3.685 -1.9404  0.4538 -0.8939
 6281SOL     OW30478   1.981   4.503   3.671  0.8406  0.8685 -0.2354
 6281SOL    HW130479   1.972   4.534   3.581 -0.8751 -1.3343 -0.8187
 6281SOL    HW230480   1.891   4.498   3.702  1.6887  3.2585  2.6360
 6282SOL     OW30481   3.679   4.166   9.840 -0.0060 -0.3281  0.0003
 6282SOL    HW130482   3.708   4.204   9.923 -0.1838 -1.8368  0.7682
 6282SOL    HW230483   3.758   4.173   9.786  0.0023  0.1816  0.0866
 6283SOL     OW30484   4.216   4.002  16.205 -0.0093  0.2066 -0.7381
 6283SOL    HW130485   4.213   4.030  16.296 -0.1543  0.1631 -0.7297
 6283SOL    HW230486   4.128   3.997  16.169  0.0310 -1.3504 -0.6331
 6284SOL     OW30487   1.735   2.010   5.932  0.2142 -0.2666  0.4501
 6284SOL    HW130488   1.670   2.080   5.935  1.1311  0.5575  1.3663
 6284SOL    HW230489   1.682   1.932   5.915 -0.7939  0.0204  2.3335
 6285SOL     OW30490   0.778   2.451   7.549  0.4844  0.4570  0.0920
 6285SOL    HW130491   0.847   2.467   7.614 -0.0236 -0.2948  0.8189
 6285SOL    HW230492   0.794   2.363   7.513 -1.4226  1.5862 -3.4917
 6286SOL     OW30493   0.994   1.749   5.968 -0.0501 -0.1480  0.7663
 6286SOL    HW130494   1.011   1.725   6.059  0.2326 -0.2765  0.6785
 6286SOL    HW230495   1.068   1.803   5.942  0.5436 -1.5593 -0.4605
 6287SOL     OW30496   1.003   1.538   7.653  0.2626 -0.7978  0.8049
 6287SOL    HW130497   1.036   1.510   7.568  2.6486  0.4533  1.3094
 6287SOL    HW230498   0.910   1.527   7.635  0.7704  1.7048 -3.0747
 6288SOL     OW30499   2.768   4.102   5.300  0.4088  0.5037  0.4314
 6288SOL    HW130500   2.809   4.122   5.385  1.6446 -2.4816  0.5580
 6288SOL    HW230501   2.842   4.062   5.253  0.8139  1.1167  0.5450
 6289SOL     OW30502   3.385   2.347   4.174  0.4157 -0.0648  0.3565
 6289SOL    HW130503   3.298   2.307   4.179  1.0149 -1.2566  1.3636
 6289SOL    HW230504   3.378   2.423   4.117  0.4851 -1.3652 -1.3863
 6290SOL     OW30505   4.601   0.211   2.147 -0.0641 -0.0813  0.1522
 6290SOL    HW130506   4.581   0.180   2.059 -3.0743 -0.0825  0.8435
 6290SOL    HW230507   4.652   0.141   2.188  0.9968 -0.0841 -1.1729
 6291SOL     OW30508   4.515   1.940   1.157  0.2807 -0.1497 -0.0880
 6291SOL    HW130509   4.476   1.912   1.074  1.0421  1.4331 -0.9852
 6291SOL    HW230510   4.593   1.885   1.158 -1.8151 -3.0365  1.5090
 6292SOL     OW30511   0.403   1.075   3.170  0.1537 -0.6153 -0.2735
 6292SOL    HW130512   0.334   1.027   3.126 -1.9394 -0.7655  3.1645
 6292SOL    HW230513   0.348   1.140   3.214  2.6716  0.0829  1.8900
 6293SOL     OW30514   4.514   1.358   3.176 -0.4850 -0.2732  0.6982
 6293SOL    HW130515   4.464   1.432   3.142 -0.0262  0.2624  1.1888
 6293SOL    HW230516   4.498   1.284   3.117 -2.2477  0.5210  0.1685
 6294SOL     OW30517   2.895   2.433  10.841 -0.4206  0.5590 -0.5669
 6294SOL    HW130518   2.955   2.413  10.769  1.3163 -1.5485  1.4551
 6294SOL    HW230519   2.943   2.500  10.890 -0.2235  0.5800 -0.7900
 6295SOL     OW30520   2.046   4.243   5.979 -0.0760 -0.0343 -0.0340
 6295SOL    HW130521   2.088   4.292   6.050  0.6891 -0.5804 -0.1100
 6295SOL    HW230522   1.978   4.304   5.948  1.0806  1.0890 -0.3629
 6296SOL     OW30523   2.721   2.969   1.598  0.3110 -0.4392  1.0713
 6296SOL    HW130524   2.762   2.888   1.628 -1.2871 -1.0431  1.6206
 6296SOL    HW230525   2.749   2.951   1.508 -0.3818  0.3067  0.7024
 6297SOL     OW30526   1.944   2.383  14.190  0.2662 -0.6023  0.1385
 6297SOL    HW130527   1.899   2.299  14.200 -0.5278 -0.2887 -0.8337
 6297SOL    HW230528   2.025   2.356  14.233 -0.2018 -0.6909  0.9843
 6298SOL     OW30529   1.665   4.412   7.931  0.0838  0.3942  0.1280
 6298SOL    HW130530   1.713   4.420   7.849 -2.6060 -1.3189 -1.6211
 6298SOL    HW230531   1.745   4.387   7.978  0.2042 -0.8554 -0.7783
 6299SOL     OW30532   4.030   2.529   6.439  0.1409 -0.9905  0.4176
 6299SOL    HW130533   4.022   2.457   6.501 -1.7882  0.0264  1.3312
 6299SOL    HW230534   4.063   2.477   6.366 -0.0411 -0.0371 -0.3482
 6300SOL     OW30535   4.333   4.258   0.569  0.0079  0.3313  0.3058
 6300SOL    HW130536   4.364   4.327   0.629  1.6314 -1.7770  1.8887
 6300SOL    HW230537   4.380   4.282   0.489  2.0371 -0.0484  1.3834
 6301SOL     OW30538   1.412   4.106   5.451  0.1660  0.6046 -0.2592
 6301SOL    HW130539   1.477   4.171   5.475  2.4398 -0.5017 -3.3957
 6301SOL    HW230540   1.396   4.072   5.539 -0.1278 -2.3516 -1.4603
 6302SOL     OW30541   1.719   3.392   6.776 -0.2828  0.3308  0.3422
 6302SOL    HW130542   1.741   3.408   6.684  2.6205 -1.4609  0.7118
 6302SOL    HW230543   1.802   3.418   6.817  1.1921 -1.8997 -1.1974
 6303SOL     OW30544   0.342   1.769   8.529 -0.1777  0.1758 -0.6161
 6303SOL    HW130545   0.313   1.711   8.600  0.2170 -1.5095 -1.8235
 6303SOL    HW230546   0.260   1.816   8.509 -1.0609 -0.8713  0.5354
 6304SOL     OW30547   2.499   4.498  15.068 -0.0543 -0.5334 -0.0609
 6304SOL    HW130548   2.551   4.544  15.003 -0.5818  0.2040  0.0306
 6304SOL    HW230549   2.533   4.409  15.064 -0.2829 -0.6309  0.1117
 6305SOL     OW30550   2.022   3.490   5.289 -0.2799 -0.0732  0.2183
 6305SOL    HW130551   2.102   3.438   5.276 -0.5807 -0.3780 -0.3991
 6305SOL    HW230552   1.999   3.500   5.197  0.0782  0.3772  0.1747
 6306SOL     OW30553   3.580   1.444   6.419  0.2543  0.4763  0.2397
 6306SOL    HW130554   3.530   1.511   6.466 -0.4808 -0.6435  1.0253
 6306SOL    HW230555   3.564   1.481   6.331 -0.8757  0.5830  0.4847
 6307SOL     OW30556   2.794   0.207  13.110 -0.1939 -0.0708 -0.1880
 6307SOL    HW130557   2.854   0.275  13.078 -1.2678  0.6695 -0.6242
 6307SOL    HW230558   2.716   0.262  13.112  0.3352  0.6991 -0.3252
 6308SOL     OW30559   2.084   0.736   5.648 -0.0424 -0.0152 -0.0701
 6308SOL    HW130560   2.137   0.661   5.675 -0.0445  0.0802  0.1962
 6308SOL    HW230561   2.133   0.763   5.570  0.3652  1.5522  0.7242
 6309SOL     OW30562   2.946   2.728   3.765  0.1944  0.6062 -0.1741
 6309SOL    HW130563   3.013   2.793   3.787  0.4931  0.5268 -0.8625
 6309SOL    HW230564   2.920   2.703   3.854  0.3688 -1.2074 -0.6462
 6310SOL     OW30565   0.058   0.311   9.893 -0.4676  0.2326 -0.7106
 6310SOL    HW130566   0.056   0.271   9.806 -1.9537  1.1901 -1.1143
 6310SOL    HW230567   0.005   0.387   9.870  0.4990  0.8726 -0.8330
 6311SOL     OW30568   4.621   0.932  12.016  0.9867  0.2170 -0.2327
 6311SOL    HW130569   4.580   0.859  11.969 -2.2444  0.0372  2.8927
 6311SOL    HW230570   4.683   0.901  12.081  0.2873 -0.6091  0.0414
 6312SOL     OW30571   0.706   3.087   2.957 -0.3589 -0.1310  0.3774
 6312SOL    HW130572   0.671   3.162   3.004 -1.1387  0.9230 -1.8788
 6312SOL    HW230573   0.774   3.064   3.020 -0.7667  2.2739  1.6722
 6313SOL     OW30574   2.640   2.745   5.024 -0.6908  0.2499  0.1627
 6313SOL    HW130575   2.705   2.731   5.093 -0.4376 -0.9195 -0.3141
 6313SOL    HW230576   2.565   2.737   5.084  1.1858  1.0298  2.6176
 6314SOL     OW30577   1.220   0.625   0.352 -0.5766 -0.0593 -0.1670
 6314SOL    HW130578   1.246   0.556   0.291 -0.2207 -1.3671  1.4596
 6314SOL    HW230579   1.155   0.567   0.391 -1.4387  0.8686 -0.2350
 6315SOL     OW30580   2.566   3.654   1.316  0.0300  0.0495 -0.0126
 6315SOL    HW130581   2.631   3.702   1.265  1.2773  1.7186  3.1221
 6315SOL    HW230582   2.590   3.664   1.408 -0.1394  1.3438 -0.1020
 6316SOL     OW30583   4.651   2.913   5.086 -0.0116 -0.3531 -0.0536
 6316SOL    HW130584   4.636   2.912   5.181 -0.4414 -0.8793 -0.1308
 6316SOL    HW230585   0.011   2.903   5.077 -0.2318  0.8264 -3.8131
 6317SOL     OW30586   4.384   1.175   6.242 -0.7460  0.0767  0.3910
 6317SOL    HW130587   4.346   1.228   6.173 -0.9898  1.7813  1.8431
 6317SOL    HW230588   4.444   1.238   6.282  1.7142 -0.3435 -2.6734
 6318SOL     OW30589   1.586   3.603   4.590 -0.2448 -0.0324  0.0297
 6318SOL    HW130590   1.666   3.606   4.642 -0.6666 -3.5041  0.8943
 6318SOL    HW230591   1.610   3.557   4.509  0.1763  1.9234 -0.9509
 6319SOL     OW30592   3.738   0.658   3.433  0.6653 -0.5835  0.4265
 6319SOL    HW130593   3.693   0.599   3.493  0.5148 -0.8655  0.0371
 6319SOL    HW230594   3.668   0.715   3.401 -0.2216 -1.3182  1.0737
 6320SOL     OW30595   2.618   1.069   4.700 -0.4816  0.1502  0.2533
 6320SOL    HW130596   2.617   1.099   4.791  0.7193 -1.0453  0.6617
 6320SOL    HW230597   2.554   1.130   4.665  2.0380  3.2615  1.0954
 6321SOL     OW30598   4.198   2.316   3.698 -0.4850 -0.0511  0.0004
 6321SOL    HW130599   4.191   2.224   3.676  1.5714 -0.3979  0.7940
 6321SOL    HW230600   4.105   2.337   3.703  0.1066  3.1801 -1.8320
 6322SOL     OW30601   1.869   2.824   1.166  0.3535 -0.0299 -0.3707
 6322SOL    HW130602   1.819   2.891   1.119 -0.8071 -0.7696 -0.1809
 6322SOL    HW230603   1.885   2.872   1.247 -2.9495 -1.9553  1.4556
 6323SOL     OW30604   1.570   1.753  14.405  0.0538 -0.1467  0.3928
 6323SOL    HW130605   1.487   1.708  14.424 -0.6340  0.9608  0.0377
 6323SOL    HW230606   1.555   1.842  14.436 -0.2274 -0.0482 -0.0190
 6324SOL     OW30607   2.250   2.361   3.380  0.5610 -0.0661 -0.6477
 6324SOL    HW130608   2.298   2.338   3.460  2.1305 -0.8119 -1.7993
 6324SOL    HW230609   2.230   2.454   3.393  2.7216  0.2168  0.7591
 6325SOL     OW30610   0.035   2.084   6.819  0.6548 -0.3670 -0.2604
 6325SOL    HW130611   0.010   2.151   6.882 -0.8933 -0.4404 -0.8013
 6325SOL    HW230612   0.108   2.120   6.769 -1.7524  3.8200 -0.7427
 6326SOL     OW30613   0.590   3.121   4.386  0.1047  0.1434  0.1734
 6326SOL    HW130614   0.638   3.114   4.468  1.2814 -1.0479 -0.6064
 6326SOL    HW230615   0.618   3.207   4.356  0.1979  0.6380  1.7212
 6327SOL     OW30616   0.938   1.275   6.728  0.0061  0.7491 -0.0810
 6327SOL    HW130617   0.967   1.345   6.786  0.2309 -1.3407  2.2714
 6327SOL    HW230618   0.889   1.328   6.665 -1.4053  0.8937  1.1504
 6328SOL     OW30619   2.353   2.446   8.775  0.5429 -0.1728 -0.3657
 6328SOL    HW130620   2.266   2.407   8.763  0.3675  0.8642 -2.4753
 6328SOL    HW230621   2.411   2.376   8.745  0.3604 -0.1145 -0.8544
 6329SOL     OW30622   3.179   3.249   0.895 -0.1725 -0.5184 -0.2194
 6329SOL    HW130623   3.121   3.303   0.949 -0.0671 -0.2685 -0.3544
 6329SOL    HW230624   3.259   3.301   0.906 -0.0922 -1.0158  1.5084
 6330SOL     OW30625   2.688   0.137   8.298  1.0574  0.3288  0.1243
 6330SOL    HW130626   2.714   0.170   8.212  1.0435 -0.5975 -0.2357
 6330SOL    HW230627   2.730   0.198   8.360  0.1820 -0.6017  1.6414
 6331SOL     OW30628   2.130   1.587   8.776 -0.7978  0.3371 -0.4144
 6331SOL    HW130629   2.146   1.554   8.687  0.1985 -0.4639  0.0615
 6331SOL    HW230630   2.079   1.512   8.805  0.5721  0.1136  1.4644
 6332SOL     OW30631   3.543   2.003   7.614 -0.2383 -0.0962  0.3010
 6332SOL    HW130632   3.541   1.933   7.680 -2.1695  0.1306  0.4749
 6332SOL    HW230633   3.452   1.996   7.587 -0.5877 -0.1107  1.4707
 6333SOL     OW30634   1.857   2.289   9.131  0.0690 -0.2213 -0.2366
 6333SOL    HW130635   1.905   2.365   9.097  1.3001 -0.4977  0.9110
 6333SOL    HW230636   1.771   2.329   9.127 -0.6087 -1.6344  0.1971
 6334SOL     OW30637   1.672   2.391  11.956 -0.2254 -0.0609  0.2361
 6334SOL    HW130638   1.638   2.454  11.893  2.7449 -0.1941 -1.4820
 6334SOL    HW230639   1.766   2.407  11.951 -0.2572 -0.3447 -1.1554
 6335SOL     OW30640   3.288   0.125  12.826  0.4168  0.1602 -0.4855
 6335SOL    HW130641   3.210   0.164  12.865 -0.5622 -1.0493 -1.2539
 6335SOL    HW230642   3.355   0.179  12.868 -1.6101  1.3925  1.1451
 6336SOL     OW30643   0.378   1.535  15.478 -0.0417  0.4983  0.1692
 6336SOL    HW130644   0.368   1.515  15.571 -1.4746 -0.0545 -0.0929
 6336SOL    HW230645   0.310   1.471  15.454  0.2757  0.0229  0.5405
 6337SOL     OW30646   1.763   0.898   6.202  0.0484 -0.0262  0.1517
 6337SOL    HW130647   1.769   0.993   6.207 -0.7495  0.0538 -0.4642
 6337SOL    HW230648   1.674   0.888   6.168  0.4003 -0.8628 -0.5282
 6338SOL     OW30649   0.490   2.959   7.179  0.0976  0.1688  0.6966
 6338SOL    HW130650   0.571   3.001   7.151  1.3782 -3.0968 -0.4110
 6338SOL    HW230651   0.519   2.872   7.205  1.9557  0.2208 -1.2416
 6339SOL     OW30652   1.164   0.548  15.725 -0.8343 -0.1212 -0.0548
 6339SOL    HW130653   1.216   0.601  15.666 -0.7707 -0.1049  0.0158
 6339SOL    HW230654   1.071   0.569  15.714 -1.4392 -2.1524  1.1726
 6340SOL     OW30655   2.226   2.216  15.867  0.4768  0.1620  0.5862
 6340SOL    HW130656   2.198   2.294  15.915  0.4043  1.2983 -1.2717
 6340SOL    HW230657   2.270   2.252  15.790 -2.8463  0.2307 -1.2968
 6341SOL     OW30658   1.544   3.398   3.008  0.8474  0.1212 -0.4277
 6341SOL    HW130659   1.598   3.343   2.950  0.2050  0.2681 -1.1658
 6341SOL    HW230660   1.541   3.332   3.077 -2.7363  2.3827  1.5507
 6342SOL     OW30661   0.091   0.388  17.519 -0.0142 -0.0736 -0.2847
 6342SOL    HW130662   0.044   0.347  17.446  0.7588 -0.6396 -0.4644
 6342SOL    HW230663   0.028   0.367  17.587  0.0610 -1.6482 -0.6928
 6343SOL     OW30664   2.498   3.305  15.902  0.2349 -0.0078  0.6676
 6343SOL    HW130665   2.591   3.292  15.924  0.2309 -1.1463  0.0170
 6343SOL    HW230666   2.463   3.326  15.988  0.6978 -4.3146  1.9296
 6344SOL     OW30667   0.506   2.013  12.720  0.3411  0.8061  0.3166
 6344SOL    HW130668   0.471   2.088  12.673 -0.6803  0.0694 -0.1048
 6344SOL    HW230669   0.525   1.952  12.649 -2.3153  0.2848  0.0603
 6345SOL     OW30670   0.515   1.961   4.206  0.5724  0.3932  0.3185
 6345SOL    HW130671   0.603   1.983   4.236  0.9571  0.3840 -0.8343
 6345SOL    HW230672   0.515   1.989   4.115 -0.6299 -1.7848 -0.3361
 6346SOL     OW30673   2.249   4.631   1.977 -0.3002 -0.3375  0.3651
 6346SOL    HW130674   2.283   4.714   2.011  1.0023  0.1876 -2.2257
 6346SOL    HW230675   2.325   4.596   1.930 -0.9979 -0.4967 -0.6636
 6347SOL     OW30676   4.333   1.453  12.725 -0.5371 -0.7422  1.0176
 6347SOL    HW130677   4.335   1.442  12.630 -0.2254 -0.7917  1.0304
 6347SOL    HW230678   4.313   1.364  12.753  1.3367 -1.5050 -0.0637
 6348SOL     OW30679   2.094   3.829   7.078 -0.0090 -0.1120  0.1849
 6348SOL    HW130680   2.009   3.847   7.037 -1.2225  0.8876  3.1388
 6348SOL    HW230681   2.117   3.744   7.040 -1.2713  0.8801 -2.8044
 6349SOL     OW30682   4.462   0.154   6.635 -0.3059 -0.6695 -0.1528
 6349SOL    HW130683   4.552   0.156   6.667 -1.0857 -1.5204  2.0601
 6349SOL    HW230684   4.432   0.244   6.651  0.9359 -0.2530 -0.1616
 6350SOL     OW30685   0.829   4.009   0.758  0.7497  0.1222 -0.0056
 6350SOL    HW130686   0.741   4.036   0.732  1.2563  1.3732 -0.4203
 6350SOL    HW230687   0.848   4.081   0.818 -5.3030 -0.2428  2.3278
 6351SOL     OW30688   2.425   2.692   5.194 -0.5040 -0.0881 -0.0054
 6351SOL    HW130689   2.349   2.638   5.216 -0.6714  0.2264  0.1861
 6351SOL    HW230690   2.405   2.779   5.228 -2.3855  0.1394 -1.7045
 6352SOL     OW30691   3.682   1.964   3.105 -0.1818  0.4699 -0.6447
 6352SOL    HW130692   3.656   2.056   3.092  0.1146  0.8492  1.4634
 6352SOL    HW230693   3.594   1.929   3.118  0.6300 -0.9300  1.0192
 6353SOL     OW30694   1.460   2.592   8.098 -0.2847  0.2990  0.1063
 6353SOL    HW130695   1.481   2.510   8.055 -0.0819 -1.5889  3.8156
 6353SOL    HW230696   1.550   2.612   8.124 -0.7072  3.1462 -0.5676
 6354SOL     OW30697   3.111   1.425   8.954 -0.0560  0.0373  0.0218
 6354SOL    HW130698   3.192   1.444   9.001 -1.2065  0.5688  1.7677
 6354SOL    HW230699   3.074   1.350   9.001  0.6779  0.1072  0.6969
 6355SOL     OW30700   2.744   3.724   7.668 -0.2313  0.7400 -0.0023
 6355SOL    HW130701   2.798   3.802   7.651  2.6937 -0.9365  1.5601
 6355SOL    HW230702   2.662   3.773   7.658  0.4129  1.8682  0.1848
 6356SOL     OW30703   3.944   1.414  11.168 -0.3308 -0.3416  0.3419
 6356SOL    HW130704   3.854   1.426  11.195 -0.4708  1.5837 -0.9682
 6356SOL    HW230705   3.991   1.457  11.240  0.3453 -0.1038 -0.2358
 6357SOL     OW30706   4.562   3.932   9.967 -0.0761  0.0438 -0.8311
 6357SOL    HW130707   4.567   4.013   9.916 -0.5038  0.7117  0.1912
 6357SOL    HW230708   4.469   3.912   9.978 -0.2422  1.2282 -0.0818
 6358SOL     OW30709   4.096   2.751   6.333  0.2876 -0.6346  0.3333
 6358SOL    HW130710   4.143   2.803   6.398 -1.7687  1.2509  0.3254
 6358SOL    HW230711   4.072   2.670   6.379 -0.5069 -0.3999  0.3382
 6359SOL     OW30712   1.089   3.094   3.828  0.2660 -0.7131 -0.2396
 6359SOL    HW130713   0.999   3.118   3.852  1.5774  3.0509  0.8439
 6359SOL    HW230714   1.141   3.163   3.868 -0.4604 -0.0263 -0.4646
 6360SOL     OW30715   3.109   0.179   6.587  0.5250  0.2037 -1.0341
 6360SOL    HW130716   3.082   0.231   6.663  2.5915 -1.4894  0.8249
 6360SOL    HW230717   3.051   0.217   6.520  0.3750  0.9917 -0.4581
 6361SOL     OW30718   0.261   0.346  16.832  1.0047  0.1282  0.1294
 6361SOL    HW130719   0.203   0.361  16.758 -0.6802 -1.6031  1.0857
 6361SOL    HW230720   0.271   0.251  16.830  0.1126  0.0611 -0.7392
 6362SOL     OW30721   3.715   4.256   0.708  0.1838 -0.0818 -0.3024
 6362SOL    HW130722   3.776   4.203   0.759 -1.1701  1.0670  2.5231
 6362SOL    HW230723   3.666   4.297   0.780  4.0741  2.5017  0.8721
 6363SOL     OW30724   1.460   3.819   6.955 -0.0738 -0.7925  0.4123
 6363SOL    HW130725   1.521   3.885   6.988  0.6144 -1.8052  1.1507
 6363SOL    HW230726   1.416   3.775   7.027 -0.1229  0.5347  1.1995
 6364SOL     OW30727   4.476   0.446   9.366  0.4862  0.0923 -0.7074
 6364SOL    HW130728   4.535   0.401   9.305  1.3426  3.2068 -2.1984
 6364SOL    HW230729   4.429   0.496   9.300  0.3966  1.0162  0.0510
 6365SOL     OW30730   0.646   1.955  11.317 -0.0100  0.5669  0.7931
 6365SOL    HW130731   0.600   1.889  11.368  0.6540 -1.3188 -1.0003
 6365SOL    HW230732   0.582   2.011  11.273 -1.1349 -0.6217  0.9345
 6366SOL     OW30733   4.184   0.928   7.057 -0.5168 -0.0943  0.3546
 6366SOL    HW130734   4.128   0.991   7.011  2.1852  0.0148 -2.8823
 6366SOL    HW230735   4.268   0.955   7.018 -1.4693  3.1861  0.5912
 6367SOL     OW30736   4.066   1.725   7.890  0.1210  0.0193  0.4558
 6367SOL    HW130737   4.087   1.745   7.799 -0.1729  1.3844  0.6784
 6367SOL    HW230738   4.141   1.673   7.920  0.5552  0.7582  0.6717
 6368SOL     OW30739   0.328   4.466   0.038  0.8964 -0.1878  0.3683
 6368SOL    HW130740   0.387   4.495  17.708  1.1990  1.4974  1.2915
 6368SOL    HW230741   0.395   4.468   0.106  1.3665  3.0170 -0.1564
 6369SOL     OW30742   0.614   3.973   8.224 -0.6150 -0.0709  0.2615
 6369SOL    HW130743   0.558   3.912   8.271 -0.8990  0.2085  0.2865
 6369SOL    HW230744   0.553   4.047   8.214 -1.6194 -0.4838  3.3457
 6370SOL     OW30745   0.804   1.818   5.456  0.4443  0.2181  0.7518
 6370SOL    HW130746   0.844   1.877   5.520  2.0422 -0.3423  0.2760
 6370SOL    HW230747   0.777   1.878   5.387 -0.5425 -0.8135  0.2369
 6371SOL     OW30748   0.464   0.620  14.877 -0.0387  0.3933 -0.5699
 6371SOL    HW130749   0.399   0.552  14.895 -0.0819  0.5064 -0.3035
 6371SOL    HW230750   0.475   0.627  14.782  2.6391  0.9389 -0.2061
 6372SOL     OW30751   0.087   4.515  16.684  0.5381 -0.1018 -0.4625
 6372SOL    HW130752   4.730   4.491  16.696  0.1020  0.9903 -1.6689
 6372SOL    HW230753   0.102   4.557  16.768 -0.2036 -0.3694 -0.1935
 6373SOL     OW30754   2.782   1.532   6.150  0.1341 -0.1233  0.0506
 6373SOL    HW130755   2.849   1.600   6.144 -0.0329 -0.0795 -1.3652
 6373SOL    HW230756   2.788   1.508   6.243 -0.5218  0.4029  0.2302
 6374SOL     OW30757   2.378   3.855  13.935 -0.6256 -0.1497 -0.5772
 6374SOL    HW130758   2.297   3.892  13.971  0.5728  0.1388  1.8663
 6374SOL    HW230759   2.437   3.931  13.937  1.1479 -1.5569  0.5562
 6375SOL     OW30760   0.199   0.893   5.238 -0.6082  0.4085  0.0248
 6375SOL    HW130761   0.179   0.847   5.320  2.1344 -0.8701 -0.0031
 6375SOL    HW230762   0.193   0.986   5.261 -0.7015  0.6883 -1.1416
 6376SOL     OW30763   2.030   2.404  13.123 -0.0936  0.2807  0.1678
 6376SOL    HW130764   2.034   2.437  13.034 -3.4208  0.9614  0.2691
 6376SOL    HW230765   2.042   2.312  13.099  0.7680  0.2715  0.6421
 6377SOL     OW30766   4.666   1.448  11.345  0.7727 -0.1220  0.2661
 6377SOL    HW130767   4.710   1.458  11.429  0.1827 -0.0077  0.5617
 6377SOL    HW230768   4.624   1.362  11.350 -0.1771  0.4580  2.1562
 6378SOL     OW30769   1.185   2.150   8.155 -0.0543 -0.2258 -0.3935
 6378SOL    HW130770   1.146   2.080   8.103 -0.3365 -2.9058  3.3777
 6378SOL    HW230771   1.192   2.218   8.089  1.2213  0.8453  0.8546
 6379SOL     OW30772   2.126   1.068   1.870 -0.3960  0.4542 -0.6761
 6379SOL    HW130773   2.071   1.146   1.866 -1.0020  0.0387 -0.4807
 6379SOL    HW230774   2.209   1.107   1.842 -0.2763  0.6038 -0.1193
 6380SOL     OW30775   2.730   1.429   8.961  0.6653 -0.5289 -0.1985
 6380SOL    HW130776   2.738   1.461   8.871  0.1700  1.0607  0.3312
 6380SOL    HW230777   2.639   1.453   8.980  0.2304 -3.4396  1.3863
 6381SOL     OW30778   4.204   0.934  10.821 -0.8019 -0.3897  0.1693
 6381SOL    HW130779   4.225   1.024  10.845  1.0973 -0.9425  0.5833
 6381SOL    HW230780   4.120   0.943  10.775 -1.3648 -1.6123  0.9419
 6382SOL     OW30781   0.846   1.643  13.774 -0.1588  0.6537  0.5179
 6382SOL    HW130782   0.882   1.728  13.800  1.0469  0.1628  0.4871
 6382SOL    HW230783   0.930   1.602  13.753 -1.0096 -0.5881 -0.4867
 6383SOL     OW30784   1.156   3.946  17.494  0.0009  0.3521  0.4369
 6383SOL    HW130785   1.107   3.906  17.565  1.4215  1.5517  2.0858
 6383SOL    HW230786   1.152   3.881  17.424 -0.4922  0.8935 -0.0392
 6384SOL     OW30787   1.753   4.177   1.882  0.3247 -0.3531  0.5187
 6384SOL    HW130788   1.839   4.146   1.909  0.5363  0.3203  0.6095
 6384SOL    HW230789   1.775   4.239   1.813 -0.5273  2.2472  2.5881
 6385SOL     OW30790   1.185   2.542  14.991  0.4132 -0.4203  0.1805
 6385SOL    HW130791   1.152   2.587  14.913  0.0152 -0.4119  0.3546
 6385SOL    HW230792   1.149   2.599  15.059 -1.0553 -0.1544 -0.8171
 6386SOL     OW30793   4.072   1.903   6.024  0.1935 -0.6974  0.1871
 6386SOL    HW130794   4.052   1.939   6.111 -1.9163  1.7119 -1.2793
 6386SOL    HW230795   4.166   1.918   6.018  0.3353 -0.8000  1.9509
 6387SOL     OW30796   0.176   0.571   9.043  0.0626  0.4039 -0.9107
 6387SOL    HW130797   0.212   0.482   9.045  2.0596  1.2308 -0.7817
 6387SOL    HW230798   0.180   0.577   8.947 -0.5319 -0.4992 -0.9948
 6388SOL     OW30799   4.498   1.624   4.570 -0.7797  0.1469 -0.0403
 6388SOL    HW130800   4.498   1.708   4.526 -0.1004  1.1183  1.8129
 6388SOL    HW230801   4.565   1.584   4.514 -2.2072  0.2345 -1.8014
 6389SOL     OW30802   4.734   1.386   5.118 -0.5328  0.3506 -0.1265
 6389SOL    HW130803   0.036   1.342   5.042  0.9755  2.5383 -0.6611
 6389SOL    HW230804   0.072   1.377   5.179 -2.7234 -1.3690  2.2282
 6390SOL     OW30805   4.162   1.893   6.363  0.5939 -0.2677  0.7065
 6390SOL    HW130806   4.242   1.928   6.402  0.5058 -0.2552  0.8748
 6390SOL    HW230807   4.192   1.804   6.344 -2.1612 -1.1473  0.4072
 6391SOL     OW30808   1.483   0.038  11.213  0.0094 -0.1102 -0.4196
 6391SOL    HW130809   1.490   0.036  11.117  1.4797 -0.1978 -0.3008
 6391SOL    HW230810   1.549   4.710  11.239 -0.1799  0.6370  1.8598
 6392SOL     OW30811   3.742   2.204   5.230  0.0090 -0.0991 -0.1719
 6392SOL    HW130812   3.771   2.117   5.257  0.3992  0.2971  0.6647
 6392SOL    HW230813   3.654   2.185   5.197  0.4551  0.5568 -1.7751
 6393SOL     OW30814   0.070   1.130   8.785  0.0420  0.0590  0.2772
 6393SOL    HW130815   0.113   1.215   8.794  3.2246 -1.7588  1.9747
 6393SOL    HW230816   4.730   1.165   8.833  0.0491 -0.7240  0.8429
 6394SOL     OW30817   3.338   3.943  10.779  0.2558  0.4299 -0.3597
 6394SOL    HW130818   3.355   3.870  10.840 -0.4859 -0.8317 -1.6566
 6394SOL    HW230819   3.256   3.973  10.817  0.6981  0.2305  0.7663
 6395SOL     OW30820   0.940   4.542  12.791 -0.0120 -0.0821 -0.6781
 6395SOL    HW130821   0.940   4.539  12.696 -1.5361 -0.7553 -0.6626
 6395SOL    HW230822   0.848   4.523  12.810 -0.1709  1.4713  0.1045
 6396SOL     OW30823   4.671   1.159   8.219  0.0075  0.2271 -0.0248
 6396SOL    HW130824   4.612   1.217   8.171 -0.2891 -0.8047 -0.8924
 6396SOL    HW230825   4.617   1.087   8.253  2.8502 -1.4803  0.8197
 6397SOL     OW30826   2.679   1.028   5.700  0.5540 -0.2761 -0.3870
 6397SOL    HW130827   2.735   1.064   5.632 -1.5756  3.3821 -0.2599
 6397SOL    HW230828   2.658   1.110   5.745  0.5618 -0.9599  0.8679
 6398SOL     OW30829   2.878   0.924   5.840  0.2175 -0.2686 -0.9106
 6398SOL    HW130830   2.930   0.923   5.760  0.4350 -1.7362 -0.7611
 6398SOL    HW230831   2.788   0.935   5.808  0.0268  2.0647  0.4737
 6399SOL     OW30832   0.537   2.569  10.906 -1.0284  0.1660  0.4517
 6399SOL    HW130833   0.526   2.646  10.851 -0.7722 -0.7909 -0.9400
 6399SOL    HW230834   0.572   2.504  10.845 -2.5952 -2.7189  2.6285
 6400SOL     OW30835   0.887   1.664   6.741 -0.1184  0.1917 -0.5536
 6400SOL    HW130836   0.866   1.756   6.720  2.0425  1.0769  1.1695
 6400SOL    HW230837   0.820   1.618   6.691 -1.2513  1.6472 -0.3896
 6401SOL     OW30838   4.444   2.685   5.918  0.4677  0.6458  0.1870
 6401SOL    HW130839   4.461   2.763   5.972 -1.3648  2.3024 -1.6249
 6401SOL    HW230840   4.528   2.643   5.937 -0.0640 -1.4625 -2.1168
 6402SOL     OW30841   0.562   3.837  15.609  0.3773 -0.2735 -0.4769
 6402SOL    HW130842   0.572   3.931  15.625 -1.4024 -0.2451  0.4346
 6402SOL    HW230843   0.651   3.813  15.582  0.3858  0.1982 -0.8703
 6403SOL     OW30844   3.803   0.908   7.555 -0.0658 -0.1977  0.1873
 6403SOL    HW130845   3.723   0.859   7.536  1.0023 -1.8314 -0.0298
 6403SOL    HW230846   3.834   0.853   7.626 -0.8736 -2.0120 -0.8776
 6404SOL     OW30847   2.169   2.912   4.524 -0.0011 -0.1471 -0.0579
 6404SOL    HW130848   2.186   3.004   4.505  1.4583 -0.6584 -1.2986
 6404SOL    HW230849   2.168   2.868   4.438  1.0788 -2.5452  1.1440
 6405SOL     OW30850   3.592   2.246   2.655  0.4490 -0.0021  0.3840
 6405SOL    HW130851   3.635   2.329   2.634  2.6545 -0.8190  1.7384
 6405SOL    HW230852   3.511   2.292   2.675  0.1663  0.2609 -1.3211
 6406SOL     OW30853   2.380   3.342   3.151  0.3187  0.0502  0.4073
 6406SOL    HW130854   2.370   3.405   3.223 -0.5561 -0.6726  0.9153
 6406SOL    HW230855   2.475   3.338   3.139  0.3434  2.8648 -0.4756
 6407SOL     OW30856   4.088   3.540  14.995 -0.0560  0.1750  0.0227
 6407SOL    HW130857   4.146   3.520  14.921 -0.5116  0.7433 -0.4842
 6407SOL    HW230858   4.004   3.547  14.951  0.2866 -1.5865 -0.9340
 6408SOL     OW30859   1.654   1.568   6.481  0.1526 -0.4093  0.9548
 6408SOL    HW130860   1.640   1.480   6.516 -0.6435 -1.2428 -1.5130
 6408SOL    HW230861   1.748   1.567   6.498  0.5819 -2.6959 -1.6739
 6409SOL     OW30862   2.408   2.238  17.574  0.0929 -0.5172  0.2487
 6409SOL    HW130863   2.502   2.226  17.563 -0.5477 -2.4969 -3.0039
 6409SOL    HW230864   2.370   2.150  17.576 -2.1488  0.4518  0.3952
 6410SOL     OW30865   4.518   1.445   8.623 -0.1000  0.2045  0.1881
 6410SOL    HW130866   4.533   1.351   8.612  0.8882  0.3795  0.0457
 6410SOL    HW230867   4.439   1.453   8.570 -0.5963  0.5957  0.9930
 6411SOL     OW30868   3.538   3.663   6.016  0.0900  0.0865  0.2163
 6411SOL    HW130869   3.572   3.713   5.941  1.4969 -2.2339 -0.6856
 6411SOL    HW230870   3.609   3.690   6.075 -0.0237  4.0069 -1.3835
 6412SOL     OW30871   3.183   0.353   2.153  0.2385  0.0740  0.1320
 6412SOL    HW130872   3.145   0.314   2.232  0.2215  0.9344  0.5546
 6412SOL    HW230873   3.143   0.289   2.094  1.6669  0.4557 -1.2354
 6413SOL     OW30874   0.408   1.062   8.978  0.0924  0.3835 -0.0925
 6413SOL    HW130875   0.398   1.157   8.986  2.6783  0.6613 -0.2986
 6413SOL    HW230876   0.501   1.045   8.963  0.0404 -0.6505  0.7664
 6414SOL     OW30877   3.240   2.491   6.535  0.0736  0.3990 -0.9186
 6414SOL    HW130878   3.242   2.550   6.459  1.3364  0.7330 -0.6313
 6414SOL    HW230879   3.244   2.407   6.490  0.1006 -0.7756  1.3077
 6415SOL     OW30880   1.958   4.288   4.061 -0.4605  0.4275  0.2066
 6415SOL    HW130881   1.979   4.353   3.994  0.1976 -0.4142 -0.3984
 6415SOL    HW230882   1.980   4.205   4.019 -1.4411 -1.0153  2.5199
 6416SOL     OW30883   4.597   4.508  11.022  0.3858 -0.3001 -0.4510
 6416SOL    HW130884   4.548   4.586  11.047 -0.1313 -0.3267 -1.3798
 6416SOL    HW230885   4.686   4.534  11.045 -0.2159  0.9720  0.4548
 6417SOL     OW30886   0.622   0.659   3.888 -0.0127  0.2124  0.4402
 6417SOL    HW130887   0.554   0.727   3.884  1.5112  1.5638 -2.6776
 6417SOL    HW230888   0.595   0.603   3.815  2.1011  0.9594 -0.9102
 6418SOL     OW30889   3.743   0.751   9.592  0.6791 -0.1253  0.4312
 6418SOL    HW130890   3.727   0.659   9.612 -1.1989 -0.1513 -1.2190
 6418SOL    HW230891   3.792   0.775   9.671  2.2466  1.8519 -1.1241
 6419SOL     OW30892   2.575   0.022  12.569  0.0968 -0.3427 -0.1079
 6419SOL    HW130893   2.599   4.675  12.525  1.6532 -0.0600  0.2347
 6419SOL    HW230894   2.487   4.735  12.599 -0.3214  1.3965 -0.0661
 6420SOL     OW30895   3.540   2.667  16.483  0.6680  0.1798  0.0231
 6420SOL    HW130896   3.634   2.662  16.463  0.9471  0.9262  1.1209
 6420SOL    HW230897   3.504   2.659  16.395 -0.6460  2.8724  0.3212
 6421SOL     OW30898   2.178   2.728   0.490 -0.0115 -0.7074 -0.1192
 6421SOL    HW130899   2.103   2.717   0.548  0.1649  2.3850  0.6830
 6421SOL    HW230900   2.154   2.801   0.433  1.6487  0.3982  0.5737
 6422SOL     OW30901   0.054   3.662  16.106  0.6657 -0.1048  0.1543
 6422SOL    HW130902   0.048   3.574  16.143  0.9483  0.1643  0.8338
 6422SOL    HW230903   0.086   3.640  16.018  0.8482  0.5645  0.0463
 6423SOL     OW30904   0.545   0.219   4.547 -0.0891 -0.0060  0.1736
 6423SOL    HW130905   0.514   0.130   4.530 -0.2028  0.3075 -1.2489
 6423SOL    HW230906   0.476   0.248   4.606 -0.5705 -1.2173  0.2075
 6424SOL     OW30907   3.568   1.485   8.457  0.1670  0.0697 -0.2113
 6424SOL    HW130908   3.530   1.445   8.535 -1.1878  0.6505 -0.5689
 6424SOL    HW230909   3.545   1.418   8.392  2.9936 -1.0524 -0.0821
 6425SOL     OW30910   1.844   1.815   6.319 -0.1463 -0.3927 -0.2743
 6425SOL    HW130911   1.768   1.796   6.263 -1.7342 -0.9271  2.0689
 6425SOL    HW230912   1.909   1.771   6.264  1.3285  1.9131 -0.3652
 6426SOL     OW30913   0.104   4.734   7.660 -0.0858 -0.2682  0.2506
 6426SOL    HW130914   0.072   0.011   7.749 -0.6904 -0.8425  0.1054
 6426SOL    HW230915   0.189   4.691   7.673  0.3258  0.9187  1.5723
 6427SOL     OW30916   0.674   3.043   7.912 -0.3299 -0.1666 -0.2540
 6427SOL    HW130917   0.717   3.000   7.987  0.2305  1.8226  0.5809
 6427SOL    HW230918   0.604   3.089   7.957  0.6732 -0.2652  1.4150
 6428SOL     OW30919   2.903   3.020  12.457 -0.6220  0.4270  0.2407
 6428SOL    HW130920   2.847   2.981  12.389 -0.0777  0.9435 -0.5056
 6428SOL    HW230921   2.862   3.106  12.467 -1.4009  0.1242 -0.3708
 6429SOL     OW30922   2.332   4.065  12.865 -0.1012 -0.7058 -0.1060
 6429SOL    HW130923   2.413   4.104  12.898  0.9854 -0.6540 -2.8730
 6429SOL    HW230924   2.314   3.989  12.921 -0.6312 -0.9583 -0.6194
 6430SOL     OW30925   3.371   0.148   4.354 -0.3051 -0.1717  0.0944
 6430SOL    HW130926   3.369   0.127   4.448  0.5311  1.0948  0.3917
 6430SOL    HW230927   3.456   0.186   4.334  0.3140 -0.3472  2.3120
 6431SOL     OW30928   3.611   4.566   7.544 -0.2756  0.3235  0.0207
 6431SOL    HW130929   3.699   4.530   7.530 -0.4549  0.5916 -1.8296
 6431SOL    HW230930   3.598   4.548   7.637  1.5635  0.5119  0.3292
 6432SOL     OW30931   4.128   4.295  14.782 -0.0670 -0.4626 -0.0188
 6432SOL    HW130932   4.170   4.357  14.723  0.8001 -0.5466  0.5237
 6432SOL    HW230933   4.055   4.344  14.820  0.0633  0.6338 -1.1790
 6433SOL     OW30934   3.637   3.991   8.812  0.1810 -0.5504 -0.6239
 6433SOL    HW130935   3.657   3.915   8.866 -3.4227 -0.6773  0.5338
 6433SOL    HW230936   3.704   4.050   8.846 -1.7098  2.8765 -2.8720
 6434SOL     OW30937   2.740   3.264   1.649 -0.4265  0.4253  0.5310
 6434SOL    HW130938   2.706   3.297   1.565 -0.9719  0.0291  0.5969
 6434SOL    HW230939   2.805   3.200   1.622 -1.2960  0.3222 -1.3648
 6435SOL     OW30940   0.466   0.638   8.036 -0.1346 -0.3970 -0.2676
 6435SOL    HW130941   0.449   0.726   8.003  1.7823  0.2225  0.4019
 6435SOL    HW230942   0.454   0.581   7.960  0.2552 -0.8310 -0.0013
 6436SOL     OW30943   4.017   4.448  12.256  0.4449 -0.6485 -0.4522
 6436SOL    HW130944   4.000   4.421  12.166 -0.3614  1.5925 -0.9478
 6436SOL    HW230945   4.013   4.362  12.299 -0.8066 -0.8951 -1.0569
 6437SOL     OW30946   3.287   2.050  13.691  0.8514  0.5553  0.7357
 6437SOL    HW130947   3.285   2.145  13.679  0.0542  0.7923  2.7773
 6437SOL    HW230948   3.268   2.026  13.600  0.9912  1.6729  0.4035
 6438SOL     OW30949   1.403   0.707   7.727 -0.0102 -0.6538  0.4653
 6438SOL    HW130950   1.339   0.638   7.745 -2.0267  1.3184  0.8772
 6438SOL    HW230951   1.489   0.679   7.759  0.7161 -0.2722 -1.1414
 6439SOL     OW30952   1.116   3.936   9.160  0.0538 -0.3456  0.2796
 6439SOL    HW130953   1.121   4.025   9.196  0.4530 -0.2755  0.0564
 6439SOL    HW230954   1.065   3.887   9.225 -1.4025  1.2376  0.3334
 6440SOL     OW30955   3.911   0.388   7.006  0.1703 -0.2605  0.1520
 6440SOL    HW130956   3.844   0.320   6.995  0.1925 -0.2533 -0.0308
 6440SOL    HW230957   3.964   0.386   6.926 -0.5276 -2.7373 -0.2586
 6441SOL     OW30958   3.022   1.997   7.734  0.7869  0.1949  0.3731
 6441SOL    HW130959   3.009   1.926   7.797  2.7245  0.5613  1.1775
 6441SOL    HW230960   3.083   1.960   7.670  0.2214 -0.5630  0.2678
 6442SOL     OW30961   0.855   1.822   9.099  0.0667  0.5472 -0.2952
 6442SOL    HW130962   0.821   1.808   9.187 -0.1724  0.6856 -0.3664
 6442SOL    HW230963   0.919   1.892   9.116 -0.5706  1.0204  0.1474
 6443SOL     OW30964   1.957   3.995   3.956 -0.0001 -0.3196 -0.3501
 6443SOL    HW130965   1.985   3.924   4.014 -0.5053 -0.6486 -0.5100
 6443SOL    HW230966   1.882   3.961   3.906  0.1700 -0.7827 -0.2849
 6444SOL     OW30967   4.212   0.879   6.336 -0.1158  0.3016 -0.5287
 6444SOL    HW130968   4.176   0.791   6.321  1.5211 -0.2265 -1.3763
 6444SOL    HW230969   4.129   0.924   6.324 -0.1213  0.4266  0.0100
 6445SOL     OW30970   4.102   0.454   3.215  0.1314 -0.0113  0.0164
 6445SOL    HW130971   4.194   0.448   3.243  0.4411  0.5533 -0.8978
 6445SOL    HW230972   4.108   0.421   3.126 -1.2902 -0.4397  0.0701
 6446SOL     OW30973   0.893   1.001   9.337 -0.5203 -0.0322  0.4486
 6446SOL    HW130974   0.861   1.033   9.422  0.2327  1.1675  0.2711
 6446SOL    HW230975   0.807   0.975   9.303 -0.2502 -1.7902  1.0739
 6447SOL     OW30976   4.149   4.638   5.916  0.0934 -0.2463 -0.4319
 6447SOL    HW130977   4.059   4.615   5.891  0.2382 -0.3861 -0.8326
 6447SOL    HW230978   4.184   4.664   5.830  2.7792  0.1972  0.7984
 6448SOL     OW30979   4.352   3.204  15.663 -0.1390  0.5352  0.1728
 6448SOL    HW130980   4.305   3.127  15.629 -1.0895  1.7774 -1.3264
 6448SOL    HW230981   4.354   3.190  15.757 -0.2159 -0.1144  0.0782
 6449SOL     OW30982   3.817   1.905   7.369 -0.2724 -0.1604 -0.1946
 6449SOL    HW130983   3.868   1.889   7.289  0.8883 -1.3517  0.7883
 6449SOL    HW230984   3.782   1.994   7.358 -1.9360 -0.7670  0.2261
 6450SOL     OW30985   3.485   3.701   8.828  0.3506 -0.2279  0.5714
 6450SOL    HW130986   3.437   3.670   8.905 -0.4608  1.3684  0.7027
 6450SOL    HW230987   3.563   3.736   8.870  0.3106  0.3811  0.1470
 6451SOL     OW30988   1.578   3.275   4.444  0.3561  0.4066  0.1299
 6451SOL    HW130989   1.618   3.189   4.455 -3.7474 -1.2336  2.1225
 6451SOL    HW230990   1.543   3.295   4.531  0.4045  1.7504 -0.1577
 6452SOL     OW30991   0.075   3.303   2.745 -0.0336 -0.0678  0.3674
 6452SOL    HW130992   0.154   3.249   2.737 -0.4940 -0.4813 -1.2352
 6452SOL    HW230993   0.058   3.295   2.839  0.6093 -2.8103  0.2485
 6453SOL     OW30994   1.405   2.762  15.614  0.2052 -0.3399 -0.6039
 6453SOL    HW130995   1.341   2.825  15.580 -0.0438 -0.8140 -1.0193
 6453SOL    HW230996   1.476   2.816  15.646 -0.9074  0.8833 -0.1973
 6454SOL     OW30997   2.549   3.752   2.222 -0.4993 -0.1947 -0.3488
 6454SOL    HW130998   2.590   3.751   2.308 -0.6544  0.7928 -0.2606
 6454SOL    HW230999   2.544   3.661   2.194 -0.1827  0.3999 -2.3852
 6455SOL     OW31000   1.267   3.879   7.800 -0.3306 -0.2349  0.9550
 6455SOL    HW131001   1.200   3.834   7.852 -0.4437 -2.7295 -1.3573
 6455SOL    HW231002   1.200   3.936   7.762  0.9269  0.0054 -0.8991
 6456SOL     OW31003   3.787   4.336   2.652 -0.8016  0.6123 -0.0549
 6456SOL    HW131004   3.877   4.334   2.685 -1.4950  0.5538  1.8108
 6456SOL    HW231005   3.807   4.334   2.558  0.8263 -0.8294  0.3304
 6457SOL     OW31006   4.629   4.321   1.624  0.2478  0.3406 -0.3218
 6457SOL    HW131007   4.621   4.389   1.691 -0.1455  1.6001 -1.6553
 6457SOL    HW231008   4.694   4.349   1.560  1.9661 -0.4527  1.0945
 6458SOL     OW31009   1.375   3.997   5.007  0.0358 -0.0207 -0.2198
 6458SOL    HW131010   1.315   4.022   5.077 -0.1057 -1.8122  0.2867
 6458SOL    HW231011   1.448   3.981   5.066 -0.0468  1.0198  0.1718
 6459SOL     OW31012   2.234   2.059  15.179 -0.3691 -0.0395 -0.5565
 6459SOL    HW131013   2.279   2.031  15.258  1.5743  1.0441 -1.2779
 6459SOL    HW231014   2.286   2.008  15.117  0.0652 -1.7019  1.1699
 6460SOL     OW31015   3.539   1.224   0.346  0.5962 -0.0798 -0.3467
 6460SOL    HW131016   3.582   1.156   0.293 -0.2859  0.9529 -2.3938
 6460SOL    HW231017   3.602   1.296   0.341  3.5413 -2.6287  0.0816
 6461SOL     OW31018   1.806   0.715  10.375  0.2923 -0.2873  0.2347
 6461SOL    HW131019   1.822   0.621  10.385  1.1899 -0.6298 -4.3320
 6461SOL    HW231020   1.823   0.720  10.281  0.7475  4.5665  0.5868
 6462SOL     OW31021   3.029   2.877   1.099 -0.0824  0.4330 -0.8552
 6462SOL    HW131022   3.098   2.895   1.035  0.6307 -0.7883 -0.4258
 6462SOL    HW231023   2.989   2.963   1.113  0.5302  0.5672 -0.0016
 6463SOL     OW31024   2.182   3.077   1.768  0.1728  0.0379  0.1882
 6463SOL    HW131025   2.247   3.058   1.700 -1.0495 -2.3660 -0.3291
 6463SOL    HW231026   2.153   3.167   1.756 -0.7060 -0.1556  0.9054
 6464SOL     OW31027   2.287   2.500   4.870 -0.0296 -0.0393  0.0279
 6464SOL    HW131028   2.295   2.594   4.885  1.4502 -0.0214 -0.8943
 6464SOL    HW231029   2.372   2.479   4.909  0.0284  0.0125 -0.0717
 6465SOL     OW31030   2.936   2.859   2.802 -0.4773  0.2908  0.2551
 6465SOL    HW131031   2.966   2.835   2.714 -1.5866 -0.2485  0.0278
 6465SOL    HW231032   2.983   2.792   2.853 -2.5626 -3.3702 -2.6602
 6466SOL     OW31033   0.266   0.272   1.468 -0.0872 -0.4480 -0.3512
 6466SOL    HW131034   0.172   0.289   1.479  0.1167  0.5405 -0.1704
 6466SOL    HW231035   0.288   0.209   1.537 -0.4222  0.4260  0.5486
 6467SOL     OW31036   1.368   2.745   3.341 -0.3459 -0.0291  0.4583
 6467SOL    HW131037   1.458   2.742   3.310 -0.5595 -0.9871 -0.0847
 6467SOL    HW231038   1.376   2.804   3.416 -0.3417  2.5982 -1.6131
 6468SOL     OW31039   2.999   3.071  16.020  0.5026 -0.2985  0.1555
 6468SOL    HW131040   3.025   3.162  16.004 -2.0777  0.6730  1.4771
 6468SOL    HW231041   3.075   3.032  16.062 -0.6370 -0.8893  1.6536
 6469SOL     OW31042   4.237   3.268   7.002 -0.4086  0.0159 -0.1858
 6469SOL    HW131043   4.252   3.210   6.927 -3.8150  1.8664 -2.3547
 6469SOL    HW231044   4.255   3.200   7.066  1.6278 -1.4347 -2.3046
 6470SOL     OW31045   2.233   3.747  13.543 -0.1649 -0.2338 -0.0723
 6470SOL    HW131046   2.238   3.702  13.628  5.3589 -0.5341 -0.5168
 6470SOL    HW231047   2.224   3.840  13.562  0.6466 -0.0411 -0.6283
 6471SOL     OW31048   0.701   2.701   9.729  0.1948  0.1190  0.2047
 6471SOL    HW131049   0.688   2.786   9.770  2.1628 -0.0587  1.1683
 6471SOL    HW231050   0.716   2.739   9.642  0.4588  0.4900  0.4138
 6472SOL     OW31051   0.372   4.568  16.258  0.3595 -0.5696  0.0144
 6472SOL    HW131052   0.370   4.654  16.216  1.3938 -0.9322 -0.7730
 6472SOL    HW231053   0.407   4.576  16.346  1.0150  0.5393 -0.3505
 6473SOL     OW31054   4.708   1.684   4.119 -0.1435 -0.0052 -0.0844
 6473SOL    HW131055   4.732   1.753   4.180 -3.1768  0.6007  0.4138
 6473SOL    HW231056   4.645   1.627   4.164 -0.7454  1.4970  0.9582
 6474SOL     OW31057   2.252   3.639  17.737 -0.1813  0.3858  0.5446
 6474SOL    HW131058   2.285   3.654  17.649 -0.4182  2.5330  0.8209
 6474SOL    HW231059   2.159   3.654  17.722 -0.3877 -0.6342  0.8260
 6475SOL     OW31060   4.416   4.223  11.672  0.3797  0.2226 -0.1609
 6475SOL    HW131061   4.491   4.202  11.617  1.1712  1.4817  0.4428
 6475SOL    HW231062   4.453   4.303  11.709 -0.3410  0.4397  0.1096
 6476SOL     OW31063   3.665   3.774   7.091  0.0540  0.3919 -0.2418
 6476SOL    HW131064   3.632   3.798   7.005  1.9947 -2.2873 -1.7334
 6476SOL    HW231065   3.589   3.804   7.141 -1.1146  0.2466 -1.9547
 6477SOL     OW31066   1.046   1.110   5.596  0.0486 -0.3344 -0.4819
 6477SOL    HW131067   1.068   1.025   5.558 -0.2032 -0.9894  0.8273
 6477SOL    HW231068   1.109   1.165   5.550  0.4721 -0.1963  0.2632
 6478SOL     OW31069   1.371   1.776   2.529  0.2192  0.0481  0.0261
 6478SOL    HW131070   1.302   1.833   2.564 -0.4015 -0.1011 -0.9687
 6478SOL    HW231071   1.363   1.802   2.438 -1.6995  0.9793  0.4527
 6479SOL     OW31072   0.037   0.452  11.486 -0.1447 -0.3211  0.5872
 6479SOL    HW131073   0.106   0.455  11.419  0.2465 -0.1056  0.9980
 6479SOL    HW231074   0.083   0.466  11.569  1.9356  1.1625 -0.8240
 6480SOL     OW31075   3.074   2.863  10.555  0.1218  0.1067 -0.3992
 6480SOL    HW131076   2.979   2.849  10.560  0.0216  0.9815  0.1050
 6480SOL    HW231077   3.102   2.834  10.642  0.4087 -0.7676 -0.7823
 6481SOL     OW31078   4.404   1.002  13.304 -0.1139  0.3505  0.4409
 6481SOL    HW131079   4.469   0.952  13.255 -0.0197 -0.3178  1.2486
 6481SOL    HW231080   4.373   0.922  13.345 -1.5389  0.3630 -0.6283
 6482SOL     OW31081   0.952   3.870   7.526 -0.1199  0.1951 -0.6626
 6482SOL    HW131082   1.003   3.929   7.582 -0.5372  0.5296 -0.6301
 6482SOL    HW231083   0.922   3.808   7.592 -2.1811  1.5491 -0.2972
 6483SOL     OW31084   1.679   2.839   6.319  0.3354 -0.3807  0.3501
 6483SOL    HW131085   1.750   2.786   6.283 -0.7010 -1.9828  0.6533
 6483SOL    HW231086   1.673   2.788   6.400  1.4418  0.3009  0.8598
 6484SOL     OW31087   3.324   1.314   0.826 -0.1311  0.2039 -0.3400
 6484SOL    HW131088   3.380   1.325   0.749 -1.5426 -0.4227 -1.4656
 6484SOL    HW231089   3.371   1.238   0.860 -0.5248 -1.7808 -4.2068
 6485SOL     OW31090   1.134   1.990   2.532  0.2408 -0.4978  0.3255
 6485SOL    HW131091   1.108   1.968   2.443 -1.3970  2.5751  0.0453
 6485SOL    HW231092   1.102   2.080   2.526 -2.8908 -1.6184  0.0343
 6486SOL     OW31093   4.607   2.558   7.122  0.2539 -0.6223 -0.0570
 6486SOL    HW131094   4.645   2.547   7.035 -1.0934  0.1724 -0.7417
 6486SOL    HW231095   4.665   2.622   7.164 -1.6225  1.4310 -0.6251
 6487SOL     OW31096   2.870   2.629  10.422 -0.4094  0.9792 -0.0184
 6487SOL    HW131097   2.945   2.581  10.387 -0.6231  0.2676  0.5139
 6487SOL    HW231098   2.838   2.664  10.339 -1.0565  0.3189 -0.0397
 6488SOL     OW31099   1.147   0.103   6.562 -0.5229 -0.5643 -0.5511
 6488SOL    HW131100   1.115   0.096   6.652  0.4162  0.7080 -0.1228
 6488SOL    HW231101   1.076   0.154   6.522 -0.3913  0.1416  0.1038
 6489SOL     OW31102   2.463   0.766   2.524 -0.1220 -0.4117 -0.0435
 6489SOL    HW131103   2.401   0.700   2.555 -1.2201 -0.1838 -1.7920
 6489SOL    HW231104   2.534   0.711   2.491  0.2419  0.5020 -0.8022
 6490SOL     OW31105   3.321   0.803  13.791  0.5716  0.4578  0.7735
 6490SOL    HW131106   3.372   0.875  13.756  0.3000  0.4449  0.3513
 6490SOL    HW231107   3.231   0.824  13.763  0.3691  0.3789  1.3613
 6491SOL     OW31108   3.204   0.220   4.700  0.3150  0.2691 -0.0947
 6491SOL    HW131109   3.291   0.187   4.677  0.1343 -1.0503  1.0928
 6491SOL    HW231110   3.206   0.305   4.656 -0.4677 -0.1344 -0.9198
 6492SOL     OW31111   2.777   4.202   5.589  0.2409 -0.3701  0.5741
 6492SOL    HW131112   2.808   4.292   5.577 -0.0809 -0.5716 -1.6797
 6492SOL    HW231113   2.766   4.194   5.684  1.1387  2.6091  0.9312
 6493SOL     OW31114   1.240   3.435   4.435  0.1026 -0.4387  0.5706
 6493SOL    HW131115   1.246   3.375   4.362 -1.3854  0.0218  0.0669
 6493SOL    HW231116   1.267   3.513   4.386  1.3870 -0.5189  1.1505
 6494SOL     OW31117   1.525   1.925   4.313 -0.0270 -0.8602  0.1462
 6494SOL    HW131118   1.593   1.890   4.255  1.1876 -0.3100  1.2376
 6494SOL    HW231119   1.463   1.854   4.300 -0.7282 -0.0152 -1.1927
 6495SOL     OW31120   3.147   2.671   2.962  0.2486  0.5007  0.4004
 6495SOL    HW131121   3.167   2.601   2.899 -2.3514 -0.0765  0.2097
 6495SOL    HW231122   3.229   2.719   2.966 -0.6528  2.0839 -0.0548
 6496SOL     OW31123   3.622   3.880  12.601 -0.1141 -0.6477 -0.1523
 6496SOL    HW131124   3.565   3.936  12.653  0.2695  0.3678 -0.8325
 6496SOL    HW231125   3.565   3.869  12.525  0.8795 -1.0381 -0.8444
 6497SOL     OW31126   0.004   3.077  13.764  0.6478 -0.4058 -0.3929
 6497SOL    HW131127   0.047   3.158  13.790  2.4738 -1.1969 -0.8981
 6497SOL    HW231128   4.711   3.095  13.674 -1.4168 -2.6004 -0.1918
 6498SOL     OW31129   1.869   2.122  16.671  0.1566 -0.3591  0.1149
 6498SOL    HW131130   1.841   2.134  16.580 -0.7075  1.6854  0.6476
 6498SOL    HW231131   1.826   2.039  16.690  0.2114 -0.5051 -0.4207
 6499SOL     OW31132   3.217   1.256  17.653 -0.3579  0.0390 -0.2829
 6499SOL    HW131133   3.255   1.272  17.739  1.0322 -0.1367 -0.8625
 6499SOL    HW231134   3.151   1.325  17.643  0.3445  0.8842  0.9727
 6500SOL     OW31135   3.006   4.678  10.029 -0.1024  0.4585 -0.3578
 6500SOL    HW131136   2.952   4.599  10.042 -1.3996  1.5719  1.0463
 6500SOL    HW231137   2.934   0.004  10.046  0.2693  0.9953 -0.7482
 6501SOL     OW31138   0.264   1.554   4.345  0.3017 -0.8903  0.3742
 6501SOL    HW131139   0.230   1.602   4.421 -0.6202  0.7762 -1.0772
 6501SOL    HW231140   0.186   1.504   4.321 -0.1834  1.2425 -2.5048
 6502SOL     OW31141   4.034   0.074   8.429 -0.2964 -0.0393 -0.5282
 6502SOL    HW131142   4.104   0.075   8.494  1.2550  1.4323 -2.2179
 6502SOL    HW231143   4.057   4.731   8.379  1.2008  1.0248 -1.5090
 6503SOL     OW31144   4.670   1.460   1.001 -0.2435  0.4140 -0.7015
 6503SOL    HW131145   4.679   1.523   0.929  0.3139 -0.2311 -1.1890
 6503SOL    HW231146   4.618   1.391   0.961 -0.3592 -0.1144  0.3604
 6504SOL     OW31147   3.083   3.343  10.760  0.0936  0.3779  0.1795
 6504SOL    HW131148   3.048   3.256  10.778 -0.0141  0.3233 -0.2779
 6504SOL    HW231149   3.142   3.344  10.835 -0.0907  2.0522  0.2993
 6505SOL     OW31150   3.241   0.360  14.312 -0.1981  0.6265  0.1836
 6505SOL    HW131151   3.244   0.305  14.390  0.9891 -1.7365 -1.5049
 6505SOL    HW231152   3.313   0.325  14.259  0.3272  0.2931  1.1073
 6506SOL     OW31153   3.405   4.574  10.994  0.8658  0.4027  0.3702
 6506SOL    HW131154   3.460   4.645  11.028  0.5055  0.7409  0.2412
 6506SOL    HW231155   3.321   4.621  10.988  1.2119  0.9441 -0.3023
 6507SOL     OW31156   4.435   4.721   0.241  0.1557 -0.1505 -0.2502
 6507SOL    HW131157   4.451   0.058   0.302 -0.1759  0.3338 -0.7353
 6507SOL    HW231158   4.473   0.024   0.162  0.4685 -0.8466 -0.4377
 6508SOL     OW31159   3.527   1.255   6.875 -0.1746 -0.5455  0.5341
 6508SOL    HW131160   3.434   1.270   6.894 -0.0534 -0.2178  0.8646
 6508SOL    HW231161   3.555   1.325   6.817 -1.5932 -0.8800 -0.5557
 6509SOL     OW31162   2.078   2.233   6.381  0.7876  0.8046 -0.0558
 6509SOL    HW131163   1.988   2.199   6.377  1.9157 -2.2036 -0.1206
 6509SOL    HW231164   2.124   2.149   6.389 -0.6296  0.1505  1.2635
 6510SOL     OW31165   0.013   1.546   5.444 -0.2281 -0.1764  0.3142
 6510SOL    HW131166   4.732   1.489   5.519 -0.8149 -0.4104  0.0110
 6510SOL    HW231167   4.702   1.516   5.365  2.4478 -2.2056 -0.4954
 6511SOL     OW31168   0.315   3.388  12.591 -0.6751 -0.6274  0.4479
 6511SOL    HW131169   0.368   3.403  12.670 -1.2684 -0.9659  0.9114
 6511SOL    HW231170   0.311   3.482  12.573  0.3811 -0.1630  2.6418
 6512SOL     OW31171   3.237   3.801  10.315  0.7625 -0.0895  0.8400
 6512SOL    HW131172   3.272   3.843  10.394  1.7514  0.8936 -0.1405
 6512SOL    HW231173   3.312   3.791  10.257 -0.6269  0.4114 -1.0266
 6513SOL     OW31174   4.341   3.736   4.528 -0.0239  0.2375 -0.2925
 6513SOL    HW131175   4.428   3.697   4.536 -1.1140 -2.2339 -0.4617
 6513SOL    HW231176   4.285   3.676   4.579 -1.4849  2.5780  0.8473
 6514SOL     OW31177   3.969   0.976   6.278 -0.3574 -0.7040 -0.3571
 6514SOL    HW131178   3.985   0.939   6.192  1.4708  0.6623 -0.6140
 6514SOL    HW231179   3.882   0.948   6.305 -0.5125 -1.2571 -1.4280
 6515SOL     OW31180   0.898   3.848   6.150  0.2202  0.3403 -0.3473
 6515SOL    HW131181   0.935   3.795   6.080  0.6876 -1.8106  1.5128
 6515SOL    HW231182   0.979   3.894   6.174 -0.0350 -0.2050  1.6068
 6516SOL     OW31183   1.407   1.968   4.920 -0.2088  0.7628  0.0584
 6516SOL    HW131184   1.406   1.873   4.907 -0.8759  0.9455 -1.2207
 6516SOL    HW231185   1.372   1.996   4.835  1.1540 -0.3383 -0.8643
 6517SOL     OW31186   1.231   1.920  13.662  0.1712 -0.0259  0.3583
 6517SOL    HW131187   1.255   1.881  13.746  0.3564 -0.1000  0.2711
 6517SOL    HW231188   1.141   1.945  13.681 -0.0958 -1.0427  0.4465
 6518SOL     OW31189   0.938   0.120   5.333  0.4100  0.3761  0.2175
 6518SOL    HW131190   0.940   0.033   5.372  0.6019  0.8069  1.1502
 6518SOL    HW231191   1.003   0.097   5.266  0.4337  0.5089  0.1956
 6519SOL     OW31192   3.683   2.650  16.107  0.2767 -0.5753  0.4137
 6519SOL    HW131193   3.721   2.654  16.195  1.9725  0.5130 -0.3852
 6519SOL    HW231194   3.591   2.661  16.133  0.5651 -0.2503  1.2960
 6520SOL     OW31195   4.323   4.480   2.816 -0.1890  0.4047 -0.5170
 6520SOL    HW131196   4.332   4.569   2.781 -0.4304  1.6706  2.6532
 6520SOL    HW231197   4.377   4.432   2.753 -1.8765 -0.5009 -1.2964
 6521SOL     OW31198   2.982   1.399   3.179 -0.2743  0.6552  0.2999
 6521SOL    HW131199   3.069   1.388   3.139 -0.5034  1.6456 -0.4594
 6521SOL    HW231200   2.996   1.374   3.270 -1.0022 -1.6955 -0.2350
 6522SOL     OW31201   1.832   1.669   5.183  0.3409 -0.3698 -0.5623
 6522SOL    HW131202   1.877   1.606   5.128 -0.1446 -0.1315 -1.2334
 6522SOL    HW231203   1.756   1.687   5.128  0.3615  1.0299 -0.1480
 6523SOL     OW31204   4.178   2.945   7.293 -0.0259 -0.3466  0.2750
 6523SOL    HW131205   4.124   3.016   7.258 -2.9589 -2.0930  1.2545
 6523SOL    HW231206   4.163   2.881   7.223 -0.1321  0.7238 -0.6973
 6524SOL     OW31207   0.335   1.044   0.531  0.2958 -0.5903  0.0517
 6524SOL    HW131208   0.246   1.064   0.557 -0.2132 -0.4473 -1.7949
 6524SOL    HW231209   0.320   0.965   0.478  1.1720 -0.2274 -0.7296
 6525SOL     OW31210   1.501   0.323   3.726  0.2219  0.1494  0.3620
 6525SOL    HW131211   1.572   0.262   3.704 -2.2484 -1.8587 -2.1648
 6525SOL    HW231212   1.536   0.339   3.814 -1.1579  0.1746  0.9000
 6526SOL     OW31213   2.898   1.644   8.561 -0.1651 -0.2676 -0.4263
 6526SOL    HW131214   2.937   1.570   8.608  2.3553  1.9556  0.9965
 6526SOL    HW231215   2.968   1.708   8.555 -1.2260  0.8853 -0.6034
 6527SOL     OW31216   3.441   2.881  10.077 -0.3968 -0.1012 -0.5807
 6527SOL    HW131217   3.416   2.836  10.158 -1.2764 -1.2479 -1.4954
 6527SOL    HW231218   3.488   2.813  10.029  3.1081  0.2999  2.3010
 6528SOL     OW31219   4.583   3.656   4.307  0.2179 -0.2952 -0.3999
 6528SOL    HW131220   4.560   3.566   4.328 -0.6860  0.5351  2.2012
 6528SOL    HW231221   4.599   3.642   4.214 -0.1376  1.9493 -0.8004
 6529SOL     OW31222   1.745   3.751   3.383  0.2064 -0.0298  0.7402
 6529SOL    HW131223   1.807   3.686   3.416  0.1099 -0.3933  0.1964
 6529SOL    HW231224   1.701   3.710   3.309  0.5744 -2.0013  1.5981
 6530SOL     OW31225   4.156   2.692  15.632 -0.0955 -0.6762 -0.4290
 6530SOL    HW131226   4.161   2.759  15.563  2.2675 -2.2197 -1.7606
 6530SOL    HW231227   4.086   2.727  15.687  1.6408  1.1384  0.6521
 6531SOL     OW31228   4.658   2.021  15.432  0.5027  0.1523 -0.1233
 6531SOL    HW131229   4.604   1.949  15.464  1.3054 -0.0984  0.6660
 6531SOL    HW231230   4.675   1.996  15.341 -2.1281 -1.3960 -0.1664
 6532SOL     OW31231   1.755   4.453   2.793  0.4806  0.2344 -0.1916
 6532SOL    HW131232   1.756   4.477   2.886 -0.0816  0.3768 -0.2174
 6532SOL    HW231233   1.713   4.367   2.796  0.9958 -0.0264 -0.4425
 6533SOL     OW31234   4.180   1.381   2.607  0.2602 -0.3268 -0.0222
 6533SOL    HW131235   4.259   1.434   2.593 -1.3030  1.7767 -0.9035
 6533SOL    HW231236   4.210   1.290   2.596 -0.5274 -0.6846  0.8449
 6534SOL     OW31237   3.756   3.811   3.672 -0.2420  0.0714 -0.2572
 6534SOL    HW131238   3.681   3.863   3.701 -0.7298 -2.3063  2.7779
 6534SOL    HW231239   3.744   3.733   3.727  1.8392  0.2850  0.4855
 6535SOL     OW31240   0.370   0.895  14.769  0.2219 -0.0290 -0.3251
 6535SOL    HW131241   0.429   0.872  14.841  1.3235 -0.5422 -1.3887
 6535SOL    HW231242   0.395   0.827  14.706  0.4947  0.0125 -0.2586
 6536SOL     OW31243   2.988   2.386   5.756  0.0920  0.5283  0.5773
 6536SOL    HW131244   2.929   2.316   5.729  2.3741 -1.7284  1.3933
 6536SOL    HW231245   3.039   2.404   5.677  0.7574  2.0622  1.3523
 6537SOL     OW31246   2.863   1.086   3.969 -0.2009 -0.3706  0.0061
 6537SOL    HW131247   2.775   1.093   4.006  0.0958 -0.5418  0.7437
 6537SOL    HW231248   2.840   1.045   3.886  0.3165  0.8327 -0.7324
 6538SOL     OW31249   3.592   4.381   7.255 -0.4191 -0.7624  0.1172
 6538SOL    HW131250   3.607   4.450   7.320 -0.0546  1.9711 -2.8999
 6538SOL    HW231251   3.588   4.310   7.319 -0.1012 -1.6977 -0.8895
 6539SOL     OW31252   1.134   0.278   8.435  0.4564 -0.3621  0.2105
 6539SOL    HW131253   1.084   0.349   8.394  0.8597 -0.2270 -0.0517
 6539SOL    HW231254   1.133   0.302   8.528  3.3160  2.8299 -0.5933
 6540SOL     OW31255   3.387   4.403   3.441  0.3853  0.3380  0.2124
 6540SOL    HW131256   3.412   4.344   3.369  1.2702  0.2137  0.6217
 6540SOL    HW231257   3.408   4.487   3.401  3.8699 -0.1356  1.0175
 6541SOL     OW31258   0.153   0.159   2.632  0.2689  0.2527 -0.6522
 6541SOL    HW131259   0.085   0.103   2.593  0.5537 -0.8439  0.4482
 6541SOL    HW231260   0.210   0.096   2.674  0.2145  1.3467  1.0430
 6542SOL     OW31261   0.259   0.361   2.458  0.6970  0.2050  0.0512
 6542SOL    HW131262   0.234   0.287   2.513  0.9890 -0.4666 -0.7132
 6542SOL    HW231263   0.241   0.309   2.380 -0.6112 -0.9036  1.0970
 6543SOL     OW31264   1.138   4.301   6.874  0.2352 -0.4097 -0.6343
 6543SOL    HW131265   1.197   4.282   6.801 -0.3232  0.3504 -1.2947
 6543SOL    HW231266   1.179   4.240   6.935 -1.6298 -2.1299 -1.1084
 6544SOL     OW31267   0.868   1.840  13.234 -0.4949 -0.2248 -0.6186
 6544SOL    HW131268   0.936   1.870  13.294  1.0096 -0.4675 -2.2109
 6544SOL    HW231269   0.791   1.831  13.289  0.4735 -2.0001  0.4205
 6545SOL     OW31270   0.059   1.312   5.843 -0.6050 -0.2215  0.0214
 6545SOL    HW131271   4.733   1.275   5.780 -0.8535  0.5171 -0.1778
 6545SOL    HW231272   0.094   1.387   5.794  0.4658  0.0835  1.2469
 6546SOL     OW31273   0.548   0.335   2.420  0.5279 -0.5937 -0.3831
 6546SOL    HW131274   0.618   0.337   2.486 -0.9179 -1.3867  1.1637
 6546SOL    HW231275   0.469   0.357   2.468  1.5852  0.6669  0.7704
 6547SOL     OW31276   4.115   4.571   9.773  0.3486  0.0971 -0.2376
 6547SOL    HW131277   4.165   4.587   9.854  0.0790 -0.3011  0.0061
 6547SOL    HW231278   4.084   4.482   9.790 -1.1215  0.2564 -2.1327
 6548SOL     OW31279   4.281   0.181   8.117 -0.7078 -0.3299  0.1177
 6548SOL    HW131280   4.203   0.213   8.163 -0.9045  0.8042 -1.0040
 6548SOL    HW231281   4.345   0.209   8.182 -0.9713 -1.1653  0.7301
 6549SOL     OW31282   3.938   4.303   7.702 -0.3809 -0.6317  0.5494
 6549SOL    HW131283   3.921   4.384   7.653 -1.2613 -1.5660 -0.6812
 6549SOL    HW231284   4.004   4.264   7.645  1.5288  1.7494  1.1276
 6550SOL     OW31285   3.175   3.787   5.360 -0.0290  0.6162  0.1531
 6550SOL    HW131286   3.160   3.835   5.441 -0.6183  1.5244 -0.4864
 6550SOL    HW231287   3.261   3.823   5.339 -0.1562  1.4087  0.9809
 6551SOL     OW31288   0.247   2.512   3.326 -0.1947  0.1455 -0.1210
 6551SOL    HW131289   0.204   2.449   3.385 -0.1085 -0.4265 -0.6672
 6551SOL    HW231290   0.303   2.558   3.389 -1.4302  1.2863  0.1576
 6552SOL     OW31291   1.522   3.790  14.609 -0.9171  0.5997  0.3935
 6552SOL    HW131292   1.511   3.784  14.514 -1.4815  0.8440  0.4430
 6552SOL    HW231293   1.430   3.788  14.637 -0.5013  0.7495  1.7447
 6553SOL     OW31294   3.165   4.660   7.102  0.3508  0.2942 -0.0386
 6553SOL    HW131295   3.256   4.684   7.117  0.3109  0.7327 -0.4861
 6553SOL    HW231296   3.171   4.616   7.017 -1.6432  0.6866 -0.3870
 6554SOL     OW31297   0.366   3.134   8.499 -0.2655  0.1868  0.0809
 6554SOL    HW131298   0.290   3.192   8.496  0.3279  0.8388 -1.9610
 6554SOL    HW231299   0.410   3.154   8.416  0.2184  2.4670  0.8635
 6555SOL     OW31300   3.166   0.589   6.048  0.2804  1.3763  0.6526
 6555SOL    HW131301   3.171   0.601   6.143  1.0168 -1.8647  1.0328
 6555SOL    HW231302   3.073   0.607   6.031 -0.1943 -2.1619 -0.5123
 6556SOL     OW31303   3.344   3.718   8.090  0.0437 -0.2475  0.4899
 6556SOL    HW131304   3.370   3.791   8.033  0.9503  0.1566  1.4322
 6556SOL    HW231305   3.405   3.744   8.159  0.4625 -1.1083  0.4521
 6557SOL     OW31306   1.836   1.505   4.533  0.4178 -0.3794  0.2056
 6557SOL    HW131307   1.754   1.477   4.574  0.5191 -0.8881  0.0598
 6557SOL    HW231308   1.874   1.421   4.511  2.3266  0.8035 -0.9895
 6558SOL     OW31309   2.913   1.804   5.338  0.4028  0.0920  0.1773
 6558SOL    HW131310   2.966   1.772   5.411 -0.7745 -1.0394  0.5488
 6558SOL    HW231311   2.849   1.851   5.392  0.2223 -1.1577  1.0556
 6559SOL     OW31312   4.566   1.539  10.011  0.2374  0.3830  0.2801
 6559SOL    HW131313   4.624   1.572  10.080  1.9963 -0.4207 -0.8383
 6559SOL    HW231314   4.573   1.446  10.032 -0.3183  0.0670 -0.9573
 6560SOL     OW31315   3.364   3.842   2.556 -0.2329 -0.4602  0.0594
 6560SOL    HW131316   3.372   3.937   2.552 -2.3827 -0.3228 -0.9215
 6560SOL    HW231317   3.301   3.847   2.628 -0.0796 -2.3452  0.3170
 6561SOL     OW31318   2.373   0.780   4.982  0.6085 -0.1677 -0.9238
 6561SOL    HW131319   2.428   0.782   4.903  1.1981  0.5067 -0.4985
 6561SOL    HW231320   2.430   0.827   5.043 -0.0764 -0.0112 -0.4063
 6562SOL     OW31321   3.579   0.048   1.255 -0.6597 -0.3446 -0.3068
 6562SOL    HW131322   3.608   4.704   1.300  0.1903  0.4867  0.6059
 6562SOL    HW231323   3.496   0.014   1.220 -1.9329 -0.1189  2.5093
 6563SOL     OW31324   0.337   1.305   6.034 -0.2594  0.1562  0.9739
 6563SOL    HW131325   0.299   1.357   5.963  0.2631 -1.8184 -0.7409
 6563SOL    HW231326   0.266   1.242   6.043 -0.9682  0.8102 -0.1603
 6564SOL     OW31327   0.710   1.201   6.494  0.6170  0.4026  0.3858
 6564SOL    HW131328   0.640   1.161   6.546  1.2804 -1.1533  0.0807
 6564SOL    HW231329   0.785   1.143   6.507  0.6106  0.6326  1.4338
 6565SOL     OW31330   2.037   0.003   1.710 -0.1690  0.4068 -0.1692
 6565SOL    HW131331   1.989   0.043   1.638  2.4176  0.3103 -1.9293
 6565SOL    HW231332   2.119   4.724   1.664 -0.6801 -1.0438 -0.6248
 6566SOL     OW31333   3.612   1.617   8.082  0.5823 -0.7511 -0.0168
 6566SOL    HW131334   3.586   1.569   8.003  1.5679 -1.7832  0.2943
 6566SOL    HW231335   3.681   1.672   8.044 -1.4232  0.3619 -2.0642
 6567SOL     OW31336   2.696   3.611   6.120  0.4733 -0.3038 -0.2662
 6567SOL    HW131337   2.725   3.520   6.116  0.1741 -0.4490  0.9494
 6567SOL    HW231338   2.782   3.653   6.124  0.1973  0.3288 -0.9823
 6568SOL     OW31339   3.521   3.666  15.990  0.1550 -0.1126  0.2672
 6568SOL    HW131340   3.492   3.693  15.903 -0.3609 -0.1718  0.4197
 6568SOL    HW231341   3.601   3.712  16.013  1.6443 -2.5327 -0.0864
 6569SOL     OW31342   2.696   4.622   0.153 -0.1003  0.1409  0.2207
 6569SOL    HW131343   2.724   4.714   0.158  1.4402 -0.2914 -0.7896
 6569SOL    HW231344   2.601   4.617   0.167 -0.4269 -0.4867 -2.2472
 6570SOL     OW31345   3.945   0.322   4.466  0.6642  0.3236  0.3932
 6570SOL    HW131346   3.851   0.319   4.485  0.5718 -0.5869 -0.2001
 6570SOL    HW231347   3.948   0.246   4.408 -0.3172  0.2781  0.3986
 6571SOL     OW31348   3.478   2.297   8.335  0.4927  0.6398 -0.9672
 6571SOL    HW131349   3.511   2.268   8.420 -1.2164  1.1166 -0.1553
 6571SOL    HW231350   3.536   2.238   8.286 -0.7481 -0.9000 -0.5796
 6572SOL     OW31351   3.347   0.512   3.104  0.5735  0.2181 -0.7596
 6572SOL    HW131352   3.419   0.525   3.041 -0.4965 -0.4053 -2.1222
 6572SOL    HW231353   3.273   0.558   3.065  0.2625  1.7386  1.6394
 6573SOL     OW31354   0.047   1.249   7.516  0.1497 -0.3377 -0.1970
 6573SOL    HW131355   0.070   1.236   7.608  0.5782 -1.4216 -0.4518
 6573SOL    HW231356   4.694   1.214   7.508  0.4808 -0.8504 -1.5225
 6574SOL     OW31357   3.038   3.316   5.633  0.3094 -0.4146  0.3768
 6574SOL    HW131358   3.004   3.399   5.669 -0.0455  0.6475 -2.4038
 6574SOL    HW231359   3.076   3.353   5.553 -2.0030 -0.9949 -1.0023
 6575SOL     OW31360   1.680   0.063   7.417 -0.4854 -0.2990  0.1317
 6575SOL    HW131361   1.685   0.083   7.511 -0.1911 -0.0834  0.0719
 6575SOL    HW231362   1.771   0.088   7.406 -0.7452  0.1211 -1.0823
 6576SOL     OW31363   4.461   3.311   3.471 -0.6137 -0.3558 -0.4870
 6576SOL    HW131364   4.500   3.240   3.522 -0.2794  0.3534  0.2438
 6576SOL    HW231365   4.490   3.389   3.518  0.8738 -2.0050  1.3383
 6577SOL     OW31366   2.245   3.409  11.487 -0.0152 -0.2775  0.2008
 6577SOL    HW131367   2.151   3.402  11.505  0.3116 -0.6269  1.7568
 6577SOL    HW231368   2.290   3.449  11.561  0.2104 -0.8780  0.3937
 6578SOL     OW31369   2.034   2.559   8.690 -0.2308 -0.3387 -0.6374
 6578SOL    HW131370   1.957   2.503   8.678 -0.9850  0.1734  1.8158
 6578SOL    HW231371   2.071   2.575   8.604  1.2823  0.4609  0.1604
 6579SOL     OW31372   3.980   2.555   2.721 -0.1943 -0.8741 -0.2749
 6579SOL    HW131373   4.045   2.548   2.791 -2.0573 -2.4664  1.3075
 6579SOL    HW231374   4.028   2.517   2.647  1.1750 -1.4981  0.9423
 6580SOL     OW31375   1.610   3.564  11.392 -0.3720  0.0957 -0.0611
 6580SOL    HW131376   1.627   3.475  11.421 -0.3837 -0.4629 -1.7625
 6580SOL    HW231377   1.645   3.559  11.303 -0.3715 -0.7796 -0.0127
 6581SOL     OW31378   2.794   4.221   6.358 -0.1156  0.6067  0.7505
 6581SOL    HW131379   2.768   4.271   6.435 -0.7852  2.5472 -0.7320
 6581SOL    HW231380   2.713   4.231   6.308  0.3753  1.8483  0.2044
 6582SOL     OW31381   2.283   3.978   6.164  0.0275 -0.3136 -0.3697
 6582SOL    HW131382   2.322   4.057   6.127 -1.4343  1.4087  1.7484
 6582SOL    HW231383   2.194   4.011   6.175  1.0940  3.4411 -2.8504
 6583SOL     OW31384   4.259   1.162  14.860 -0.0462  0.5220 -0.6783
 6583SOL    HW131385   4.192   1.226  14.837  1.6489  1.8076 -2.0565
 6583SOL    HW231386   4.264   1.104  14.785 -0.4094 -1.4109  0.8036
 6584SOL     OW31387   0.359   3.781   9.543 -0.0278  0.2559  0.0824
 6584SOL    HW131388   0.278   3.816   9.581 -0.7829 -0.2951 -1.0172
 6584SOL    HW231389   0.399   3.865   9.523 -0.3466  1.4961  4.6737
 6585SOL     OW31390   3.535   0.515  10.426  0.3246  0.0138  0.9552
 6585SOL    HW131391   3.599   0.554  10.367 -0.1230  1.5694  1.4847
 6585SOL    HW231392   3.594   0.459  10.477 -0.7483 -2.0862 -0.1038
 6586SOL     OW31393   1.078   0.092   9.508 -0.1621  0.8218  0.0275
 6586SOL    HW131394   1.164   0.105   9.469  0.4267  1.0791  1.3845
 6586SOL    HW231395   1.022   0.159   9.469 -0.2348  0.6918 -0.0921
 6587SOL     OW31396   1.867   3.682   6.036 -0.4294 -0.0701 -0.2417
 6587SOL    HW131397   1.819   3.664   5.955 -0.2080  1.3937 -0.6979
 6587SOL    HW231398   1.809   3.737   6.090 -1.2125 -2.3032  1.1728
 6588SOL     OW31399   1.610   3.674   6.688 -0.1453 -0.1598  0.3441
 6588SOL    HW131400   1.670   3.640   6.753  2.1520 -0.1991 -1.8069
 6588SOL    HW231401   1.606   3.767   6.711 -1.6678  0.1769 -1.2280
 6589SOL     OW31402   2.366   3.172   9.298  0.4249  0.2515  0.1692
 6589SOL    HW131403   2.417   3.253   9.292  1.9957 -0.6611  1.2168
 6589SOL    HW231404   2.427   3.113   9.254 -0.8462 -0.9150 -0.0058
 6590SOL     OW31405   1.508   0.899   6.145 -0.7636 -0.8731  0.0813
 6590SOL    HW131406   1.478   0.838   6.078  0.1613  0.6419 -1.7306
 6590SOL    HW231407   1.460   0.867   6.222 -3.8278  1.6346 -0.7847
 6591SOL     OW31408   2.433   2.827   8.885 -0.1997  0.0673 -0.1109
 6591SOL    HW131409   2.394   2.803   8.969  0.2203  1.3206  0.4396
 6591SOL    HW231410   2.484   2.905   8.905 -1.8469  1.0440  0.3020
 6592SOL     OW31411   2.277   0.122   5.420 -0.3849 -0.1590  0.5934
 6592SOL    HW131412   2.223   0.048   5.391 -1.4273  1.6452 -2.1033
 6592SOL    HW231413   2.308   0.092   5.505  0.7874  0.5375  0.4101
 6593SOL     OW31414   0.771   4.284   3.037 -0.0101 -0.2098 -0.1877
 6593SOL    HW131415   0.812   4.222   2.977  0.8103  1.7752 -1.6599
 6593SOL    HW231416   0.820   4.362   3.013  1.6361 -0.5567  2.0039
 6594SOL     OW31417   4.308   1.851   5.713  0.2945  0.0397 -0.0530
 6594SOL    HW131418   4.369   1.848   5.640 -1.2040 -1.9209 -1.2208
 6594SOL    HW231419   4.319   1.760   5.741  0.3971  0.9424  2.8238
 6595SOL     OW31420   1.876   2.789   0.574  0.2441 -0.5997  0.0130
 6595SOL    HW131421   1.922   2.759   0.652 -2.6935  1.4155  2.5155
 6595SOL    HW231422   1.796   2.738   0.587 -0.3495  0.0791 -0.9849
 6596SOL     OW31423   4.618   4.398   2.827 -0.4444  0.0385  0.3829
 6596SOL    HW131424   4.603   4.336   2.898 -1.8178 -0.1609 -0.0813
 6596SOL    HW231425   4.641   4.478   2.874  0.1298  0.9341 -1.3952
 6597SOL     OW31426   3.809   2.633  17.712  0.3206 -0.0098  0.3854
 6597SOL    HW131427   3.834   2.683  17.634  0.8783 -1.2154 -0.2064
 6597SOL    HW231428   3.818   2.704   0.036  2.4286  0.1741 -0.1158
 6598SOL     OW31429   1.134   3.296  14.344  0.0237 -0.2725  0.1286
 6598SOL    HW131430   1.166   3.331  14.427  1.8191 -0.7353 -0.3792
 6598SOL    HW231431   1.040   3.317  14.347  1.1063  4.3415  1.4829
 6599SOL     OW31432   0.908   1.539  13.460  0.0894  0.0884 -0.3263
 6599SOL    HW131433   0.913   1.628  13.493  0.5316  1.0949 -3.1464
 6599SOL    HW231434   0.937   1.491  13.537 -1.3194  1.0012  0.7749
 6600SOL     OW31435   1.349   1.175   4.557 -0.5889  0.7297 -0.0923
 6600SOL    HW131436   1.376   1.246   4.615  0.4005  1.9486 -2.0266
 6600SOL    HW231437   1.277   1.148   4.614 -0.3166 -1.1165 -0.6292
 6601SOL     OW31438   3.230   2.618  11.226 -0.4003  0.1676 -0.6331
 6601SOL    HW131439   3.260   2.660  11.306  0.6574 -2.5396  0.4247
 6601SOL    HW231440   3.318   2.587  11.200  0.6168  0.6934  2.2277
 6602SOL     OW31441   3.182   2.199   1.912  0.3062 -0.3964 -0.4057
 6602SOL    HW131442   3.270   2.163   1.922  1.6003  2.9654  0.1080
 6602SOL    HW231443   3.181   2.260   1.985  1.6196  0.1740 -0.8590
 6603SOL     OW31444   1.134   2.821  16.782  0.1073  0.5746  0.0915
 6603SOL    HW131445   1.183   2.872  16.846  0.9080  0.8255 -0.7229
 6603SOL    HW231446   1.081   2.891  16.743 -1.7232 -0.5767  0.4981
 6604SOL     OW31447   4.311   1.089   4.846  0.1970  0.8076 -0.3670
 6604SOL    HW131448   4.226   1.047   4.826  0.7141 -0.0641 -0.7450
 6604SOL    HW231449   4.315   1.043   4.930  2.5933  0.4616 -0.6663
 6605SOL     OW31450   3.467   0.298   6.695 -0.2823  0.0943  0.1229
 6605SOL    HW131451   3.396   0.291   6.759 -1.0944  1.5257 -0.6346
 6605SOL    HW231452   3.430   0.279   6.609  0.7002  0.0109 -0.2866
 6606SOL     OW31453   0.192   3.762   3.595 -0.0283  0.3585  0.6093
 6606SOL    HW131454   0.224   3.809   3.673  2.3724  1.5035 -1.0621
 6606SOL    HW231455   0.096   3.765   3.603 -0.1181 -1.8322  0.3394
 6607SOL     OW31456   4.469   0.361   6.119  0.0371 -0.2059 -0.0940
 6607SOL    HW131457   4.374   0.360   6.113 -0.0246  1.1162  0.7125
 6607SOL    HW231458   4.485   0.284   6.063  1.7517 -0.3989  0.6468
 6608SOL     OW31459   3.359   2.584   5.451 -0.7921  0.0945  0.0811
 6608SOL    HW131460   3.360   2.627   5.366  0.5921 -0.8681 -0.3908
 6608SOL    HW231461   3.351   2.662   5.505 -0.6765 -0.8261  1.4309
 6609SOL     OW31462   2.679   3.347   7.792 -0.7810 -0.1819 -0.2459
 6609SOL    HW131463   2.720   3.416   7.845 -0.0754 -0.6418 -0.1934
 6609SOL    HW231464   2.705   3.375   7.704  0.3337 -0.6210 -0.0517
 6610SOL     OW31465   0.382   2.498  11.630  0.4610 -0.3609  0.1873
 6610SOL    HW131466   0.447   2.445  11.585 -0.8400  0.2557 -2.4682
 6610SOL    HW231467   0.303   2.472  11.582  0.2630  2.7413 -1.1563
 6611SOL     OW31468   3.440   2.092   5.227 -0.2832 -0.6153  0.5560
 6611SOL    HW131469   3.401   2.094   5.139  3.2371 -1.7435 -1.0672
 6611SOL    HW231470   3.382   2.131   5.291 -0.8866  0.3599 -0.5821
 6612SOL     OW31471   0.142   0.038   0.021  0.9346 -0.2268 -0.3259
 6612SOL    HW131472   0.092   0.045  17.679  0.7651 -0.0905 -0.2092
 6612SOL    HW231473   0.235   0.028  17.739  1.0514  0.7506 -0.2784
 6613SOL     OW31474   3.197   2.883  12.288 -0.7817  0.0092 -0.3605
 6613SOL    HW131475   3.103   2.866  12.283 -0.2021 -3.2053 -0.1260
 6613SOL    HW231476   3.225   2.794  12.310 -0.7472  0.4214  1.3071
 6614SOL     OW31477   2.188   2.788   7.457 -0.0337  0.1524 -0.6496
 6614SOL    HW131478   2.175   2.842   7.379  0.6826  0.2371 -0.7102
 6614SOL    HW231479   2.282   2.769   7.453 -0.2885 -0.8983 -1.6575
 6615SOL     OW31480   4.184   1.537  14.846  0.0591  0.5271 -0.4306
 6615SOL    HW131481   4.263   1.483  14.844 -1.0113 -1.0111 -1.8461
 6615SOL    HW231482   4.135   1.487  14.780 -0.4797  0.0006  0.3577
 6616SOL     OW31483   2.330   3.272   7.420  0.2487 -0.1048  0.1226
 6616SOL    HW131484   2.244   3.231   7.425 -0.6319  1.7760  0.3606
 6616SOL    HW231485   2.385   3.194   7.422 -0.0310 -0.2648  1.5948
 6617SOL     OW31486   3.954   0.091   5.301  0.0805 -0.1118 -0.1168
 6617SOL    HW131487   3.988   0.001   5.298  1.6345  0.4221  1.5753
 6617SOL    HW231488   4.019   0.129   5.360  0.3626  1.7305 -1.6531
 6618SOL     OW31489   2.327   3.310  16.157 -0.3966 -0.0171 -0.1819
 6618SOL    HW131490   2.236   3.289  16.179 -0.4960 -0.5002 -1.0611
 6618SOL    HW231491   2.314   3.404  16.159 -0.4022  0.0100 -2.2123
 6619SOL     OW31492   1.203   0.043   3.306  0.1437 -0.4313 -0.3328
 6619SOL    HW131493   1.293   0.074   3.292  0.7952 -1.6150  1.2090
 6619SOL    HW231494   1.159   0.118   3.345 -0.0798  0.3771 -2.1320
 6620SOL     OW31495   3.194   3.055   5.376 -0.4341 -0.0258 -0.4107
 6620SOL    HW131496   3.134   3.067   5.302 -0.9672 -0.5454 -0.0583
 6620SOL    HW231497   3.225   3.145   5.389  0.0991 -0.0198 -1.6622
 6621SOL     OW31498   4.308   2.899  16.968  0.2076  0.4098 -0.4962
 6621SOL    HW131499   4.278   2.908  17.059 -1.7478 -3.0518 -0.8199
 6621SOL    HW231500   4.301   2.992  16.945  0.4958  1.0149  1.8513
 6622SOL     OW31501   2.987   3.473  15.251 -0.1842 -0.6200 -0.7753
 6622SOL    HW131502   2.915   3.504  15.196 -0.0054  0.2591 -0.5193
 6622SOL    HW231503   3.003   3.379  15.240 -1.2940 -0.4326 -3.7699
 6623SOL     OW31504   2.800   2.055   2.303  0.1672  0.1848 -0.4235
 6623SOL    HW131505   2.763   2.129   2.254  0.1183  0.3189 -0.1854
 6623SOL    HW231506   2.800   1.993   2.230 -0.1159  0.5097 -0.7015
 6624SOL     OW31507   1.196   3.320  13.165  0.0155 -0.0656 -0.7071
 6624SOL    HW131508   1.229   3.330  13.076  0.3099 -2.0612 -0.8183
 6624SOL    HW231509   1.216   3.400  13.214 -0.3883 -0.1341 -0.4221
 6625SOL     OW31510   0.440   0.493  17.318  0.1272  0.5640  0.3436
 6625SOL    HW131511   0.399   0.579  17.329 -2.4184 -0.9429  2.5322
 6625SOL    HW231512   0.502   0.519  17.250  1.6910 -1.5903  0.9401
 6626SOL     OW31513   3.545   3.792   5.434  0.3303  0.1058 -0.2911
 6626SOL    HW131514   3.622   3.741   5.460  0.6247  0.6711 -0.0427
 6626SOL    HW231515   3.588   3.832   5.358 -0.6104 -0.8941 -1.3519
 6627SOL     OW31516   2.176   3.405   2.091 -0.0431 -0.0944  0.0192
 6627SOL    HW131517   2.232   3.465   2.140 -1.1768 -0.2947  1.5910
 6627SOL    HW231518   2.201   3.415   1.999  0.6772 -0.3312  0.1911
 6628SOL     OW31519   0.489   0.022   8.788  0.5284 -0.2458  0.1645
 6628SOL    HW131520   0.548   0.024   8.863  1.4693 -2.5530 -0.5114
 6628SOL    HW231521   0.460   0.113   8.794 -1.0065 -0.7034 -0.4305
 6629SOL     OW31522   2.975   2.770   6.325  0.0931 -0.1963  0.6251
 6629SOL    HW131523   3.000   2.685   6.288 -2.0513 -0.6593  0.1775
 6629SOL    HW231524   2.884   2.752   6.349  0.7642 -3.3647  0.7960
 6630SOL     OW31525   4.546   0.796   9.267 -0.3045  0.7256 -0.1422
 6630SOL    HW131526   4.591   0.852   9.331  1.0816 -1.8307  1.1199
 6630SOL    HW231527   4.591   0.815   9.184 -0.3716  2.0238  0.1164
 6631SOL     OW31528   0.708   1.802  10.659  0.1741  0.6743  0.0586
 6631SOL    HW131529   0.731   1.726  10.604  3.0642  1.3972  0.2589
 6631SOL    HW231530   0.724   1.770  10.748  1.1011 -0.3508 -0.4693
 6632SOL     OW31531   2.128   4.489   2.195  0.4176 -0.3237 -0.4186
 6632SOL    HW131532   2.169   4.460   2.276  0.0841  0.0937 -0.1059
 6632SOL    HW231533   2.196   4.537   2.147  0.2834 -1.4986 -1.8058
 6633SOL     OW31534   3.335   3.344   4.999  0.1698  0.0377  0.3460
 6633SOL    HW131535   3.334   3.394   5.081  4.8596 -1.9524  1.6242
 6633SOL    HW231536   3.355   3.253   5.021  0.1105  0.1561  0.8808
 6634SOL     OW31537   0.057   4.343   9.959  0.1618  0.2847 -0.1607
 6634SOL    HW131538   0.066   4.284   9.884  2.0850  1.6553 -0.9956
 6634SOL    HW231539   0.038   4.281  10.029 -0.7547  1.0082  0.2416
 6635SOL     OW31540   0.156   2.999   5.856 -0.5527 -0.4851 -0.2382
 6635SOL    HW131541   0.245   2.963   5.849 -0.1873  0.5645 -1.0095
 6635SOL    HW231542   0.134   2.994   5.763 -0.2683  3.7649 -0.5161
 6636SOL     OW31543   3.044   1.417   5.339  0.1326  0.5127  0.4877
 6636SOL    HW131544   3.043   1.463   5.255 -0.4864  1.6948  1.1311
 6636SOL    HW231545   2.959   1.444   5.374 -0.1974  0.1321 -0.0289
 6637SOL     OW31546   0.400   0.293   8.764 -0.0496  0.1186  0.2105
 6637SOL    HW131547   0.446   0.349   8.701  0.4797 -0.2793  0.2373
 6637SOL    HW231548   0.310   0.319   8.746 -0.4510 -1.8291 -0.6742
 6638SOL     OW31549   4.188   2.040   9.006 -0.1023 -0.0831 -1.2836
 6638SOL    HW131550   4.262   1.989   8.972  0.2838 -0.8181  0.6279
 6638SOL    HW231551   4.170   1.987   9.084 -1.5244 -0.4295 -1.8432
 6639SOL     OW31552   0.771   1.558   0.918 -0.2304  0.5121  0.3004
 6639SOL    HW131553   0.679   1.581   0.915 -0.8154 -2.0743 -1.9621
 6639SOL    HW231554   0.782   1.496   0.846  1.6753  0.8700  0.2616
 6640SOL     OW31555   4.253   0.998   4.246  0.5025  0.9748  0.2535
 6640SOL    HW131556   4.184   1.044   4.197  0.9170  2.7676  1.3288
 6640SOL    HW231557   4.268   0.911   4.209  3.7570  0.5345  2.6994
 6641SOL     OW31558   1.407   2.885   6.405  0.5683 -0.1824  0.3759
 6641SOL    HW131559   1.441   2.803   6.369  1.3351  0.6638 -0.8684
 6641SOL    HW231560   1.406   2.948   6.332  1.6796 -0.7629 -0.1454
 6642SOL     OW31561   1.996   4.541   8.044  0.1561  0.2203  0.5644
 6642SOL    HW131562   2.085   4.518   8.018 -0.0332  1.7130 -1.3900
 6642SOL    HW231563   1.962   4.452   8.034  0.6361  0.2502 -1.3084
 6643SOL     OW31564   3.682   3.982   5.264 -0.0031 -0.3668 -0.0823
 6643SOL    HW131565   3.677   4.050   5.196  0.0339  0.0453  0.3223
 6643SOL    HW231566   3.731   3.920   5.211  2.1892  0.1487  1.3683
 6644SOL     OW31567   1.407   4.401   8.763  0.5450  0.2999  0.2840
 6644SOL    HW131568   1.483   4.450   8.793  1.2588  0.1593 -1.3244
 6644SOL    HW231569   1.337   4.403   8.829 -0.6616 -0.2626 -0.9754
 6645SOL     OW31570   3.739   1.711   5.781 -0.2704 -0.1046  0.3803
 6645SOL    HW131571   3.804   1.746   5.720 -1.7387 -1.5108 -2.0048
 6645SOL    HW231572   3.790   1.683   5.856 -0.5536  1.3678  1.1151
 6646SOL     OW31573   3.934   0.873   5.254  0.3510  0.3231 -0.0295
 6646SOL    HW131574   3.867   0.813   5.287  0.4261  0.3037  0.0861
 6646SOL    HW231575   4.013   0.849   5.303 -1.4661 -2.5171  1.4850
 6647SOL     OW31576   3.875   0.461   6.351 -0.2381  0.3040 -0.2379
 6647SOL    HW131577   3.909   0.442   6.263  0.4344 -0.6721  0.2329
 6647SOL    HW231578   3.871   0.368   6.376 -0.6120  0.2961 -0.3263
 6648SOL     OW31579   2.604   1.836  11.954 -0.3233  0.0875 -0.4368
 6648SOL    HW131580   2.586   1.928  11.940 -2.2950 -0.4298 -1.3054
 6648SOL    HW231581   2.697   1.839  11.932  0.5453 -1.2455  2.9951
 6649SOL     OW31582   1.609   0.916   3.276 -0.3605  0.1737 -0.0550
 6649SOL    HW131583   1.618   1.004   3.239  1.2257  0.1628  0.3038
 6649SOL    HW231584   1.699   0.887   3.288  0.3480  1.0702 -3.0713
 6650SOL     OW31585   0.447   0.909   2.236 -0.0582 -0.5205 -0.0060
 6650SOL    HW131586   0.386   0.909   2.163  0.8308 -0.7251 -0.7448
 6650SOL    HW231587   0.526   0.887   2.186  1.6082 -1.9842  3.2196
 6651SOL     OW31588   1.720   4.329   4.841  0.0683 -0.0358 -0.6301
 6651SOL    HW131589   1.646   4.390   4.852  0.4820  0.7316 -2.1221
 6651SOL    HW231590   1.790   4.390   4.819 -0.7290  1.2234  0.2759
 6652SOL     OW31591   0.874   0.107   2.579 -0.2715  0.1724  0.3941
 6652SOL    HW131592   0.900   0.023   2.543 -1.5332  0.1121 -0.3742
 6652SOL    HW231593   0.826   0.077   2.657  0.8152  1.5288  1.6057
 6653SOL     OW31594   3.738   3.087  12.449  0.9086  0.2609  0.0081
 6653SOL    HW131595   3.686   3.007  12.441  0.9764  0.0940  1.2970
 6653SOL    HW231596   3.830   3.064  12.437  0.3965 -1.2120 -1.1425
 6654SOL     OW31597   3.066   4.630   5.480  0.3863 -1.0132  0.4218
 6654SOL    HW131598   3.063   4.700   5.546  0.6127 -2.0340  1.5036
 6654SOL    HW231599   3.125   4.562   5.511 -0.9216 -1.7812  1.2185
 6655SOL     OW31600   2.573   1.467   8.481 -0.0726  0.4217  0.6056
 6655SOL    HW131601   2.587   1.550   8.436  0.6969 -0.3740 -0.6221
 6655SOL    HW231602   2.651   1.423   8.448  0.8049  2.6786 -0.2966
 6656SOL     OW31603   0.697   0.545   6.744  0.4487 -0.4492 -0.1734
 6656SOL    HW131604   0.616   0.495   6.752 -0.1351  0.4115 -0.6974
 6656SOL    HW231605   0.697   0.568   6.651  2.0315  0.8318  0.1395
 6657SOL     OW31606   3.533   4.049   5.540  0.5566 -0.3313 -0.5122
 6657SOL    HW131607   3.525   3.971   5.486 -0.5660 -1.5672  1.4763
 6657SOL    HW231608   3.450   4.091   5.516  0.8531  0.8542  0.5112
 6658SOL     OW31609   3.246   0.568   9.921  0.0101 -0.3108 -0.8048
 6658SOL    HW131610   3.250   0.473   9.911 -0.2721 -0.3897 -0.2228
 6658SOL    HW231611   3.332   0.601   9.896  1.2082 -1.4525  1.7835
 6659SOL     OW31612   4.104   1.574   1.510  0.5264 -0.4397 -0.0729
 6659SOL    HW131613   4.052   1.554   1.588 -0.1722  2.7319  0.2723
 6659SOL    HW231614   4.115   1.665   1.538  0.0622 -0.2021 -0.6497
 6660SOL     OW31615   1.131   1.902   1.968 -0.3912  0.0543  0.1008
 6660SOL    HW131616   1.062   1.883   1.904  1.8598 -2.0489 -1.6794
 6660SOL    HW231617   1.194   1.947   1.912 -0.4280  0.7791  0.6480
 6661SOL     OW31618   2.561   1.089  16.110  0.3746 -0.4051 -0.2453
 6661SOL    HW131619   2.602   1.054  16.031  1.2678 -0.6742  0.3282
 6661SOL    HW231620   2.469   1.096  16.086  0.3370 -0.1009 -0.0207
 6662SOL     OW31621   4.278   1.660  14.531  0.1635 -0.7999  0.1568
 6662SOL    HW131622   4.295   1.567  14.519 -1.6599 -1.1743  0.4932
 6662SOL    HW231623   4.195   1.673  14.484  0.2374 -0.9054 -0.0002
 6663SOL     OW31624   0.856   0.482   5.835 -0.2298  0.1769  0.1743
 6663SOL    HW131625   0.827   0.573   5.830  1.3158  0.6933  0.4473
 6663SOL    HW231626   0.852   0.460   5.742  1.5328  2.0981 -0.3653
 6664SOL     OW31627   1.730   3.077   3.678  0.4614 -0.2981  0.0230
 6664SOL    HW131628   1.765   3.148   3.733  0.1917  0.4411 -0.7572
 6664SOL    HW231629   1.663   3.049   3.740  1.1438 -0.8330  0.5273
 6665SOL     OW31630   1.774   0.340   6.951  0.4087  0.2294 -0.2463
 6665SOL    HW131631   1.732   0.292   7.022  0.9877  1.1527  0.7263
 6665SOL    HW231632   1.769   0.271   6.885 -0.2220  0.2650 -0.2307
 6666SOL     OW31633   1.062   3.258   1.709 -0.1534 -0.2112  0.2584
 6666SOL    HW131634   1.032   3.292   1.793 -0.1221  0.6717 -0.0924
 6666SOL    HW231635   1.029   3.326   1.651 -0.9107 -0.4248  0.4442
 6667SOL     OW31636   2.443   3.178   0.398  0.4556 -0.2007  0.7943
 6667SOL    HW131637   2.445   3.225   0.482 -0.7052  1.2504 -0.0039
 6667SOL    HW231638   2.511   3.209   0.339 -0.6868 -0.5186 -0.6789
 6668SOL     OW31639   0.521   4.208   6.256  0.4689  0.1784  0.2622
 6668SOL    HW131640   0.604   4.161   6.265  0.4399 -0.2624 -1.8482
 6668SOL    HW231641   0.516   4.220   6.162 -0.1255 -2.4153 -0.0278
 6669SOL     OW31642   2.903   1.687   9.040 -0.1105 -0.1088  0.3366
 6669SOL    HW131643   2.864   1.718   8.958  1.2202 -0.1432 -0.3204
 6669SOL    HW231644   2.906   1.592   9.030 -1.2332 -0.1521  0.4616
 6670SOL     OW31645   2.059   3.460  14.408  0.0842 -0.0859 -0.4462
 6670SOL    HW131646   2.001   3.525  14.369  1.1298  0.7449 -0.6134
 6670SOL    HW231647   2.027   3.380  14.366 -0.7664 -0.0299  0.0877
 6671SOL     OW31648   2.699   3.139   5.884  0.1201  0.1171 -0.3029
 6671SOL    HW131649   2.647   3.082   5.940 -0.7447 -1.0395 -2.2795
 6671SOL    HW231650   2.789   3.112   5.900 -0.5299 -2.1083 -0.4684
 6672SOL     OW31651   2.846   0.007   8.919  0.0398 -0.4927  0.1432
 6672SOL    HW131652   2.869   0.022   8.828  0.8466 -2.0502  0.0967
 6672SOL    HW231653   2.763   4.698   8.899 -0.1999  0.0824 -0.1505
 6673SOL     OW31654   1.074   4.686   5.673 -0.5490 -0.0267  0.1380
 6673SOL    HW131655   1.159   4.729   5.679  0.5741 -2.1609 -0.6244
 6673SOL    HW231656   1.054   4.680   5.766  0.2687 -2.6845  0.1286
 6674SOL     OW31657   3.265   0.400   5.865  0.0788  0.1774  0.0669
 6674SOL    HW131658   3.198   0.451   5.910  0.3624  2.1530 -1.7380
 6674SOL    HW231659   3.301   0.357   5.943  2.9305  1.5961 -0.4612
 6675SOL     OW31660   1.934   1.237   1.077  0.8753  0.3099  0.8587
 6675SOL    HW131661   1.926   1.225   0.983 -1.4978  1.3409  0.9462
 6675SOL    HW231662   2.000   1.306   1.069  0.5758  0.4213 -0.6484
 6676SOL     OW31663   4.228   4.036   7.179  0.5199 -0.4476 -0.1556
 6676SOL    HW131664   4.191   4.124   7.191 -0.2366 -0.9242  1.0639
 6676SOL    HW231665   4.208   3.986   7.259  1.6092  2.7114  2.1002
 6677SOL     OW31666   0.729   3.368   8.380  0.3448 -0.5777 -0.1308
 6677SOL    HW131667   0.805   3.330   8.424  1.2493  0.8502 -0.4560
 6677SOL    HW231668   0.772   3.377   8.295 -0.7374  0.5106 -0.5648
 6678SOL     OW31669   1.700   2.743  16.365  0.4141  0.2414  0.8316
 6678SOL    HW131670   1.761   2.800  16.413  2.4605 -0.5258 -0.8364
 6678SOL    HW231671   1.691   2.667  16.423  1.7347  1.7190  2.9676
 6679SOL     OW31672   1.592   4.213   2.168 -0.1511  0.1549 -0.0027
 6679SOL    HW131673   1.647   4.206   2.089 -0.6700  0.9265 -0.4339
 6679SOL    HW231674   1.613   4.125   2.200  0.5533  0.4835  0.4477
 6680SOL     OW31675   0.879   2.344   6.006  0.0103  0.3065  0.0476
 6680SOL    HW131676   0.827   2.417   6.041  1.2088  0.9509  0.4736
 6680SOL    HW231677   0.958   2.394   5.985 -0.1138  0.3561 -0.3041
 6681SOL     OW31678   1.245   0.016  11.359  0.6587  0.9250 -0.4605
 6681SOL    HW131679   1.319   0.040  11.302  1.0413  0.5503 -0.1245
 6681SOL    HW231680   1.211   4.688  11.296  0.1048 -0.4007  1.1622
 6682SOL     OW31681   0.251   4.175   5.461 -0.3918 -0.9251  0.4498
 6682SOL    HW131682   0.200   4.243   5.506 -0.1012 -0.1542 -0.3769
 6682SOL    HW231683   0.187   4.120   5.415  0.9095 -2.1485  0.1250
 6683SOL     OW31684   1.416   1.922  12.762 -0.2979  0.3068  0.3302
 6683SOL    HW131685   1.428   1.868  12.840 -0.0173 -2.6050 -1.7572
 6683SOL    HW231686   1.331   1.964  12.775 -1.6523 -1.8807 -1.4536
 6684SOL     OW31687   1.355   1.678  10.948 -0.1010  0.3747 -0.4565
 6684SOL    HW131688   1.300   1.612  10.988  0.1740 -0.4037 -1.3479
 6684SOL    HW231689   1.437   1.667  10.996 -0.2290  0.8548 -0.1284
 6685SOL     OW31690   2.658   0.591  11.745  0.0868  0.1514  0.1089
 6685SOL    HW131691   2.712   0.670  11.744  1.1158 -0.5910 -1.5684
 6685SOL    HW231692   2.601   0.581  11.669 -1.8123  0.6422  1.4639
 6686SOL     OW31693   4.277   2.872   4.220  0.3030  0.2597  0.1975
 6686SOL    HW131694   4.227   2.800   4.182 -2.6026  2.6837 -0.5916
 6686SOL    HW231695   4.356   2.822   4.242 -0.0018  0.4092  1.5955
 6687SOL     OW31696   3.989   1.429   0.365 -0.2044 -0.0706 -0.1164
 6687SOL    HW131697   3.921   1.452   0.302  0.1848 -2.2327 -1.3405
 6687SOL    HW231698   4.009   1.506   0.418 -2.8133 -0.7704  1.9213
 6688SOL     OW31699   0.034   2.503   5.727  0.1559 -0.4035  0.4662
 6688SOL    HW131700   4.704   2.463   5.670 -0.3926 -1.0040  1.5183
 6688SOL    HW231701   0.012   2.483   5.818  1.7239 -0.2969  0.8630
 6689SOL     OW31702   0.337   1.863  11.545 -0.2540  0.1716 -0.3334
 6689SOL    HW131703   0.430   1.842  11.547  0.3087  2.5111 -1.8130
 6689SOL    HW231704   0.342   1.955  11.570  0.1009 -0.0623  0.4611
 6690SOL     OW31705   0.618   3.403  11.215 -0.4498  0.7047  0.0783
 6690SOL    HW131706   0.629   3.309  11.230 -1.1965  0.6924  0.5616
 6690SOL    HW231707   0.707   3.424  11.242  0.0862 -1.0387 -0.3606
 6691SOL     OW31708   3.409   3.399   3.091  0.0480 -0.6231 -0.4138
 6691SOL    HW131709   3.359   3.430   3.167  0.3850 -1.0762 -0.0111
 6691SOL    HW231710   3.485   3.456   3.091 -0.3166 -0.1330  0.0628
 6692SOL     OW31711   4.604   2.221   0.213  0.0951 -0.1021 -0.5651
 6692SOL    HW131712   4.552   2.141   0.207 -0.4112  0.3072 -1.7736
 6692SOL    HW231713   4.556   2.272   0.279  2.7372  0.5111  0.8473
 6693SOL     OW31714   2.999   1.434   8.703  0.2504  0.1671  0.5308
 6693SOL    HW131715   3.003   1.421   8.798 -1.6730 -2.3712  0.2579
 6693SOL    HW231716   3.086   1.472   8.687  1.5220 -2.2109  1.8391
 6694SOL     OW31717   3.625   4.300   5.746  0.0371  0.7054 -0.6213
 6694SOL    HW131718   3.589   4.254   5.670  2.7860 -0.5009 -1.1795
 6694SOL    HW231719   3.577   4.383   5.746 -0.4888  0.4070  1.0258
 6695SOL     OW31720   0.715   0.069   1.881 -0.3591 -0.1782  0.1003
 6695SOL    HW131721   0.689   0.136   1.943  1.7324  1.1858 -0.4918
 6695SOL    HW231722   0.668   0.098   1.803  0.3407 -2.8868 -1.3406
 6696SOL     OW31723   0.630   4.262   2.703  0.6080 -0.0604 -0.2335
 6696SOL    HW131724   0.716   4.224   2.688  0.9031 -0.4425  2.5108
 6696SOL    HW231725   0.577   4.186   2.726 -1.3065  0.8967 -1.4437
 6697SOL     OW31726   0.878   2.000  15.221  0.2103 -0.4739 -0.7200
 6697SOL    HW131727   0.845   1.913  15.200 -2.7108  0.8117 -1.3529
 6697SOL    HW231728   0.969   1.990  15.191  0.0954  0.9920 -1.5301
 6698SOL     OW31729   3.038   2.459  17.628  0.4686  0.3769  0.0847
 6698SOL    HW131730   3.117   2.431  17.581  0.8504 -0.0150  0.9520
 6698SOL    HW231731   3.048   2.436  17.720  0.0084  1.0123  0.2837
 6699SOL     OW31732   1.862   2.309   4.860  0.0317 -0.0022  0.3186
 6699SOL    HW131733   1.918   2.362   4.802 -1.6856  0.4174 -0.9725
 6699SOL    HW231734   1.906   2.225   4.869  0.0017 -0.1363 -0.7357
 6700SOL     OW31735   4.692   2.297  15.482  0.2141  0.6223  0.2552
 6700SOL    HW131736   4.618   2.321  15.537  0.6984  1.4766  0.5442
 6700SOL    HW231737   4.692   2.201  15.485 -2.8783  0.6269  0.3143
 6701SOL     OW31738   3.498   0.561   1.702  0.0777 -0.0002  0.6914
 6701SOL    HW131739   3.527   0.649   1.675 -1.3140 -0.1699 -1.3729
 6701SOL    HW231740   3.564   0.512   1.654 -1.6423 -1.7734  0.1333
 6702SOL     OW31741   1.819   0.356   0.075 -0.7535  0.0276  0.5573
 6702SOL    HW131742   1.822   0.295   0.000  0.6511  1.8586 -0.8846
 6702SOL    HW231743   1.800   0.440   0.033  0.0747 -0.9843 -1.8687
 6703SOL     OW31744   3.916   1.320   6.838 -0.0411 -0.4362 -0.1443
 6703SOL    HW131745   3.876   1.267   6.769  1.5499 -1.0861 -0.5478
 6703SOL    HW231746   3.844   1.320   6.901  0.5401 -0.7155  0.5169
 6704SOL     OW31747   0.447   1.348   8.987  0.7127  0.0341  0.0163
 6704SOL    HW131748   0.492   1.358   8.903 -0.3531  2.4928 -0.2601
 6704SOL    HW231749   0.504   1.395   9.047  0.6778  1.8345 -1.3255
 6705SOL     OW31750   3.914   4.153   9.717 -0.2732 -0.7762  0.0766
 6705SOL    HW131751   3.992   4.208   9.719 -1.7106  1.2478  0.7928
 6705SOL    HW231752   3.934   4.108   9.635  0.3389  0.8307 -0.6627
 6706SOL     OW31753   0.116   0.480   5.241  0.3921  0.2510  0.2913
 6706SOL    HW131754   0.105   0.385   5.237 -1.7825  0.5270 -0.5685
 6706SOL    HW231755   0.083   0.495   5.330 -0.9758 -0.3900 -0.0933
 6707SOL     OW31756   0.565   0.430  14.455  0.1034  0.2622 -0.3746
 6707SOL    HW131757   0.498   0.409  14.520  2.8480 -0.5198  2.2126
 6707SOL    HW231758   0.538   0.383  14.376 -0.2682 -0.5233  0.2202
 6708SOL     OW31759   4.436   2.056   0.078 -0.4544 -0.3985 -0.2539
 6708SOL    HW131760   4.472   2.034  17.732  0.3156 -1.2145  0.2661
 6708SOL    HW231761   4.407   2.146   0.065 -2.2139 -0.7252  1.3564
 6709SOL     OW31762   3.054   2.337   5.070 -0.5426 -0.0612 -0.2172
 6709SOL    HW131763   3.143   2.367   5.089 -0.5844  1.7180 -2.7692
 6709SOL    HW231764   3.034   2.304   5.157  0.9422 -1.1023 -0.2688
 6710SOL     OW31765   0.532   2.759  10.725 -0.0414 -0.1959 -0.2417
 6710SOL    HW131766   0.600   2.712  10.675 -0.8489  1.5701 -3.0151
 6710SOL    HW231767   0.524   2.839  10.673 -2.9522  2.0055  3.6540
 6711SOL     OW31768   2.772   2.874   6.526 -0.5946  0.0620  0.4935
 6711SOL    HW131769   2.746   2.801   6.469  0.5232  0.2187 -0.2081
 6711SOL    HW231770   2.776   2.946   6.464 -0.3386 -0.2663  0.1291
 6712SOL     OW31771   2.546   1.064   6.095 -0.3326  0.0950 -0.3809
 6712SOL    HW131772   2.466   1.029   6.056 -0.3439  0.8771 -1.0486
 6712SOL    HW231773   2.518   1.154   6.108 -0.8739 -0.2717  1.1300
 6713SOL     OW31774   4.516   2.010   7.936 -0.0395 -0.2508  0.6767
 6713SOL    HW131775   4.567   2.081   7.897  2.4949 -2.8494 -0.7112
 6713SOL    HW231776   4.442   2.053   7.979 -0.3478  0.6774 -0.7780
 6714SOL     OW31777   4.040   3.373   5.751  0.0699  0.9426 -0.2505
 6714SOL    HW131778   3.984   3.412   5.685 -0.8928 -1.7150 -1.0108
 6714SOL    HW231779   4.063   3.289   5.711  0.0815  1.3279 -1.0493
 6715SOL     OW31780   0.025   4.644   2.897 -0.3943 -0.2989  0.3520
 6715SOL    HW131781   0.111   4.603   2.894 -0.1482  0.0693  1.9270
 6715SOL    HW231782   0.042   4.702   2.972 -3.2788 -2.4016  2.6402
 6716SOL     OW31783   1.460   4.513   3.802 -0.2855 -0.5728 -0.1974
 6716SOL    HW131784   1.410   4.431   3.806 -1.3499  0.1473  1.0316
 6716SOL    HW231785   1.451   4.548   3.714  0.6218  0.6392  0.1851
 6717SOL     OW31786   3.466   1.005  13.696 -0.3386 -0.6543  0.0147
 6717SOL    HW131787   3.497   1.005  13.606 -1.3246 -1.0068 -0.3206
 6717SOL    HW231788   3.420   1.090  13.695 -0.2169 -0.5826  0.5725
 6718SOL     OW31789   3.751   0.117  17.453 -0.0884  0.0493  0.4300
 6718SOL    HW131790   3.679   0.143  17.510  1.2362  2.4648  0.9968
 6718SOL    HW231791   3.797   0.200  17.442  0.7076 -1.0065 -4.0101
 6719SOL     OW31792   3.317   3.054   3.485 -0.4826  0.1688  0.0784
 6719SOL    HW131793   3.243   3.011   3.442 -0.7998  0.1730  0.6268
 6719SOL    HW231794   3.380   3.037   3.414 -0.2134  2.9685 -0.3371
 6720SOL     OW31795   0.250   1.703  14.804  0.3286 -0.1285  0.3687
 6720SOL    HW131796   0.324   1.714  14.864  1.2976 -1.0594 -0.6551
 6720SOL    HW231797   0.274   1.774  14.744  2.5968 -0.4594  0.8865
 6721SOL     OW31798   3.355   4.471   9.974  0.0474  0.0277 -0.2534
 6721SOL    HW131799   3.375   4.551   9.925  1.7645 -0.2106  0.0847
 6721SOL    HW231800   3.414   4.481  10.049 -1.0833  2.3829  0.3528
 6722SOL     OW31801   2.283   4.313   6.893  0.2250 -0.5916  0.8671
 6722SOL    HW131802   2.251   4.235   6.848  1.2429 -1.2624  1.3097
 6722SOL    HW231803   2.376   4.295   6.879  0.1341  1.8052 -2.7445
 6723SOL     OW31804   0.739   4.247  16.468 -0.5020  0.1545 -0.4887
 6723SOL    HW131805   0.719   4.171  16.414  0.6787 -0.8580  0.4895
 6723SOL    HW231806   0.709   4.216  16.554  1.6250 -0.3473  0.0679
 6724SOL     OW31807   1.977   1.221   9.085  0.0866 -0.0627 -0.4408
 6724SOL    HW131808   1.953   1.272   9.008 -0.7697  4.2003  2.7016
 6724SOL    HW231809   1.890   1.189   9.109  0.1841 -0.5750 -0.7432
 6725SOL     OW31810   2.886   3.636   4.720 -0.3393 -0.3323  0.1099
 6725SOL    HW131811   2.822   3.626   4.790 -0.5770 -1.3375 -0.2457
 6725SOL    HW231812   2.880   3.728   4.696  0.1142  0.3959  2.7797
 6726SOL     OW31813   3.864   3.361  16.372 -0.0872 -0.1694 -0.3132
 6726SOL    HW131814   3.787   3.400  16.412 -0.2150  0.6636 -1.3500
 6726SOL    HW231815   3.841   3.372  16.279  1.0988  2.5032 -0.3099
 6727SOL     OW31816   1.168   1.106   3.249  0.2297  0.3050  0.4212
 6727SOL    HW131817   1.219   1.141   3.176 -1.4703  0.7830 -0.5398
 6727SOL    HW231818   1.184   1.016   3.222 -0.4656  0.0646  0.7999
 6728SOL     OW31819   2.451   4.298   3.065  0.2581 -0.1063  0.0386
 6728SOL    HW131820   2.390   4.264   3.130  0.6614  0.4456  0.7012
 6728SOL    HW231821   2.422   4.251   2.986  2.0526  0.5701 -1.0225
 6729SOL     OW31822   3.846   3.530   0.066 -0.3902  0.2889 -0.1961
 6729SOL    HW131823   3.821   3.567   0.150 -1.9024 -1.9013  0.3281
 6729SOL    HW231824   3.853   3.612   0.018 -0.8058  2.0754  2.8436
 6730SOL     OW31825   3.564   1.185  15.007  0.0589  0.2323  0.1253
 6730SOL    HW131826   3.608   1.244  15.068  1.0965 -1.6863  1.2004
 6730SOL    HW231827   3.562   1.253  14.939  0.1177 -0.1149 -0.2207
 6731SOL     OW31828   0.419   3.081   4.836 -0.2082 -0.2418 -0.1174
 6731SOL    HW131829   0.416   3.151   4.902 -0.8471 -0.3102 -0.0753
 6731SOL    HW231830   0.332   3.066   4.798  0.1559 -0.4598 -0.8583
 6732SOL     OW31831   0.328   4.517   7.638  0.5242 -0.3907 -0.7798
 6732SOL    HW131832   0.293   4.431   7.618  1.1101 -0.8859  0.3393
 6732SOL    HW231833   0.418   4.489   7.656  0.3100 -1.3869 -1.3208
 6733SOL     OW31834   1.295   2.635  16.960 -0.5136  0.3626 -0.4199
 6733SOL    HW131835   1.381   2.622  17.000  0.1588 -1.4448 -2.4361
 6733SOL    HW231836   1.248   2.659  17.040  0.6235  0.8009  0.1166
 6734SOL     OW31837   3.939   0.237   2.447 -0.1692 -0.2403  0.3871
 6734SOL    HW131838   3.881   0.233   2.372  0.5632  0.2955 -0.2107
 6734SOL    HW231839   4.020   0.272   2.410 -1.1460  1.8000  0.1568
 6735SOL     OW31840   4.444   3.488   7.163  0.3365 -0.3956 -0.4123
 6735SOL    HW131841   4.419   3.407   7.118  0.4818 -1.4518  1.3864
 6735SOL    HW231842   4.451   3.460   7.254 -0.5254 -1.3637 -0.6445
 6736SOL     OW31843   4.481   2.737   2.336 -0.0623 -0.4232 -0.0135
 6736SOL    HW131844   4.513   2.810   2.389  0.7822 -0.4474 -0.4890
 6736SOL    HW231845   4.557   2.725   2.279  1.3698 -3.8406  2.6477
 6737SOL     OW31846   2.093   1.455   7.601  0.1583  0.3375  0.2330
 6737SOL    HW131847   2.157   1.496   7.543 -0.7476  1.5426  0.0851
 6737SOL    HW231848   2.082   1.515   7.675  1.3412  1.1180 -0.2218
 6738SOL     OW31849   0.194   2.556   0.508 -0.1077  0.4148 -0.4792
 6738SOL    HW131850   0.223   2.512   0.588 -1.5603 -2.8948 -1.7586
 6738SOL    HW231851   0.103   2.526   0.518  0.1357  0.4191  1.7099
 6739SOL     OW31852   4.413   2.904   4.982 -0.0045  1.0106  0.1696
 6739SOL    HW131853   4.422   2.827   4.926 -0.9406  0.6969  0.4446
 6739SOL    HW231854   4.502   2.910   5.016 -0.1208 -0.2331  0.7055
 6740SOL     OW31855   0.033   0.476   4.961 -0.0704 -0.0748  0.4073
 6740SOL    HW131856   0.019   0.560   4.917  0.4304  0.7723  1.8563
 6740SOL    HW231857   0.069   0.500   5.047 -2.4498  1.6969  0.9015
 6741SOL     OW31858   2.632   0.830   6.513  0.4979 -0.4097 -0.7950
 6741SOL    HW131859   2.708   0.772   6.520  1.1507  0.6445  0.9765
 6741SOL    HW231860   2.553   0.777   6.515  0.3658 -0.1854 -0.0108
 6742SOL     OW31861   0.397   2.143   2.913  0.6624 -0.2660 -0.1373
 6742SOL    HW131862   0.442   2.178   2.836  2.8308 -0.1753  1.1956
 6742SOL    HW231863   0.374   2.224   2.958 -0.2842  0.7422 -2.4331
 6743SOL     OW31864   0.450   2.796   8.795 -0.0039 -0.8925  0.6886
 6743SOL    HW131865   0.513   2.806   8.865 -0.3158  1.6202  0.5861
 6743SOL    HW231866   0.432   2.701   8.795  2.1258 -1.2877 -1.2693
 6744SOL     OW31867   0.566   3.399   9.034 -0.7527  0.1520 -0.0516
 6744SOL    HW131868   0.521   3.450   8.967 -1.6264  0.8893  1.0882
 6744SOL    HW231869   0.544   3.307   9.019 -1.8249  0.3319  0.4216
 6745SOL     OW31870   1.124   0.421   5.946  0.1603 -0.7771  0.1170
 6745SOL    HW131871   1.187   0.446   5.878  0.8226 -1.0793  0.6166
 6745SOL    HW231872   1.037   0.438   5.910  1.2082  1.1228 -1.5921
 6746SOL     OW31873   1.909   0.659  11.696 -0.3096  0.4057  0.1374
 6746SOL    HW131874   1.988   0.712  11.689 -1.1563  1.6764  0.2945
 6746SOL    HW231875   1.960   0.583  11.725  0.2659  1.0233  0.7381
 6747SOL     OW31876   2.583   3.403  11.386  0.2757  0.1893 -0.2836
 6747SOL    HW131877   2.652   3.336  11.387  0.5112  0.4508  1.5086
 6747SOL    HW231878   2.624   3.474  11.336  1.2048 -0.6738 -0.7587
 6748SOL     OW31879   0.554   0.547   9.402 -0.1919  0.1355  0.6127
 6748SOL    HW131880   0.474   0.500   9.425 -1.2820  1.4280 -0.5212
 6748SOL    HW231881   0.609   0.481   9.360  1.0922  2.4943 -1.4570
 6749SOL     OW31882   0.780   3.572   3.128  0.2183 -0.0351 -0.3558
 6749SOL    HW131883   0.793   3.478   3.138 -1.0792 -0.2920 -1.0554
 6749SOL    HW231884   0.862   3.595   3.083  0.4304  0.6862  0.4012
 6750SOL     OW31885   3.790   2.382  16.565 -0.2003 -0.3060  0.6217
 6750SOL    HW131886   3.710   2.374  16.616  0.4271 -0.7518  1.5395
 6750SOL    HW231887   3.862   2.352  16.621  0.2271 -0.5061 -0.0333
 6751SOL     OW31888   1.877   4.407   5.869 -0.0602 -0.2190 -0.5163
 6751SOL    HW131889   1.943   4.475   5.852  0.2620 -0.3573  0.1943
 6751SOL    HW231890   1.819   4.450   5.932  1.5147  0.9649  0.1316
 6752SOL     OW31891   2.434   2.148  16.041 -0.1076  0.2847  0.7144
 6752SOL    HW131892   2.352   2.164  15.995 -0.3474 -1.7098  0.4673
 6752SOL    HW231893   2.498   2.212  16.010 -0.2485  0.9714  1.8288
 6753SOL     OW31894   1.947   0.619  13.426 -0.0241  0.0040  0.2490
 6753SOL    HW131895   1.876   0.670  13.464 -1.5771 -0.1414 -2.4963
 6753SOL    HW231896   2.004   0.595  13.500  0.2375 -1.5348 -0.4426
 6754SOL     OW31897   4.606   0.402   4.585  0.2001 -0.2142  0.3462
 6754SOL    HW131898   4.670   0.333   4.566  0.4606 -0.1632  1.0453
 6754SOL    HW231899   4.651   0.451   4.653 -0.9736 -0.4919  1.3286
 6755SOL     OW31900   2.224   0.339   7.423  0.0541 -0.3683 -0.2608
 6755SOL    HW131901   2.313   0.305   7.425  0.2155  0.2075  2.4748
 6755SOL    HW231902   2.186   0.288   7.351 -1.0756 -0.4996  0.4271
 6756SOL     OW31903   3.216   1.628   8.026  0.3099 -0.1497  0.3264
 6756SOL    HW131904   3.253   1.571   7.959 -0.2496 -1.1147  0.8408
 6756SOL    HW231905   3.281   1.625   8.096  0.4579 -1.2213  0.1388
 6757SOL     OW31906   2.811   0.003   0.806  0.0267 -0.0258  0.3794
 6757SOL    HW131907   2.745   4.682   0.764  1.9995 -2.5907  0.6852
 6757SOL    HW231908   2.753   0.071   0.839 -1.6152 -0.1838 -2.2021
 6758SOL     OW31909   0.817   2.413   4.272  0.0245  0.0432 -0.3336
 6758SOL    HW131910   0.882   2.445   4.210  0.0363 -1.4136 -1.0729
 6758SOL    HW231911   0.784   2.500   4.295 -0.0185 -1.0489  3.8190
 6759SOL     OW31912   4.249   2.213   4.363 -0.5613 -0.5296  0.1733
 6759SOL    HW131913   4.185   2.149   4.331 -2.6717 -0.4109  4.1856
 6759SOL    HW231914   4.248   2.202   4.458 -0.1828  2.1186  0.4855
 6760SOL     OW31915   4.056   4.215   2.746  0.1883 -0.1472 -0.9422
 6760SOL    HW131916   4.030   4.142   2.689 -1.9054  1.1988 -1.7133
 6760SOL    HW231917   4.109   4.176   2.815 -0.6629 -0.5060 -0.4848
 6761SOL     OW31918   2.691   0.408   4.793 -0.1389  0.3877 -0.2781
 6761SOL    HW131919   2.609   0.436   4.751 -0.7312 -1.2215 -0.1613
 6761SOL    HW231920   2.686   0.465   4.870  1.4664  0.7578 -0.4397
 6762SOL     OW31921   3.518   3.965   4.263 -0.0895  0.2766  0.6071
 6762SOL    HW131922   3.448   4.008   4.214 -1.6042 -1.8732  0.9026
 6762SOL    HW231923   3.461   3.920   4.325  1.9970 -0.2989  2.1206
 6763SOL     OW31924   1.327   4.067  13.904  0.6309 -0.5775  0.2533
 6763SOL    HW131925   1.341   4.005  13.833 -2.1406 -1.4197  0.4374
 6763SOL    HW231926   1.366   4.144  13.862 -0.9185 -1.5848 -3.0513
 6764SOL     OW31927   0.548   1.485   6.785  0.5925  0.2606 -0.4963
 6764SOL    HW131928   0.542   1.579   6.805 -2.4892 -0.8901  4.0801
 6764SOL    HW231929   0.538   1.484   6.690 -1.2292  3.7635 -0.3486
 6765SOL     OW31930   2.433   2.242   9.437 -0.0691  0.0904 -0.1622
 6765SOL    HW131931   2.466   2.165   9.390  2.3975  0.4428  1.0108
 6765SOL    HW231932   2.434   2.205   9.526  1.7987 -2.1580 -1.1105
 6766SOL     OW31933   0.391   1.987   6.516 -0.6247  0.4426 -0.3579
 6766SOL    HW131934   0.459   1.990   6.448 -0.4117  0.0984 -0.1609
 6766SOL    HW231935   0.312   1.987   6.462 -0.6477 -0.3618 -0.3207
 6767SOL     OW31936   1.158   0.657   4.853  0.3717 -0.1478  0.4127
 6767SOL    HW131937   1.196   0.658   4.941 -1.5560 -2.1194  1.2685
 6767SOL    HW231938   1.063   0.666   4.863 -0.0923 -1.0199 -2.9099
 6768SOL     OW31939   2.403   0.416  16.499 -0.5851 -0.2691  0.1931
 6768SOL    HW131940   2.335   0.449  16.441  0.2082 -3.0729 -2.3316
 6768SOL    HW231941   2.449   0.499  16.510 -1.8046  0.2622  1.2444
 6769SOL     OW31942   1.065   2.790  12.657  0.7201 -0.0526  0.7352
 6769SOL    HW131943   1.047   2.704  12.617  2.4180  0.9100 -2.1115
 6769SOL    HW231944   1.003   2.837  12.600  0.4422  0.3639  1.3868
 6770SOL     OW31945   2.556   3.961   4.679  0.4535 -0.0562 -0.0947
 6770SOL    HW131946   2.505   4.038   4.653 -2.1428 -1.0689  1.9403
 6770SOL    HW231947   2.639   3.977   4.634  1.2258 -1.6325  0.7851
 6771SOL     OW31948   2.939   4.634   4.166 -0.1836 -0.6642  0.4255
 6771SOL    HW131949   2.996   4.710   4.169 -0.4471 -0.4533  0.1130
 6771SOL    HW231950   2.856   4.678   4.146  1.6897  2.9734  0.8330
 6772SOL     OW31951   4.275   0.064   3.235  0.1001  0.3514  0.6704
 6772SOL    HW131952   4.330   0.068   3.157 -2.3365 -0.6772 -1.1167
 6772SOL    HW231953   4.336   0.058   3.308 -0.1151 -0.2033  0.8027
 6773SOL     OW31954   0.429   0.186   9.860  0.4413  0.0999  0.2650
 6773SOL    HW131955   0.446   0.161   9.951  1.5576  1.1526  0.3442
 6773SOL    HW231956   0.471   0.118   9.808 -0.9405 -1.3040  0.9871
 6774SOL     OW31957   3.359   0.702  16.617 -0.2682 -0.0415  0.2471
 6774SOL    HW131958   3.279   0.737  16.577 -1.2163 -1.5411  0.8683
 6774SOL    HW231959   3.413   0.713  16.539 -0.9342  1.2450 -0.0466
 6775SOL     OW31960   4.141   3.692  10.558 -0.0579  0.7074  0.6999
 6775SOL    HW131961   4.079   3.626  10.526  0.9881  0.6830 -1.2607
 6775SOL    HW231962   4.190   3.640  10.621  0.3076  1.6257  1.1727
 6776SOL     OW31963   2.920   0.408   4.646 -0.0694 -0.8286 -1.1655
 6776SOL    HW131964   2.847   0.394   4.706  0.0113  0.5605 -0.7432
 6776SOL    HW231965   2.959   0.494   4.667  0.7612 -1.4841 -0.0505
 6777SOL     OW31966   2.850   0.238   8.685  0.2692  0.1320 -0.3282
 6777SOL    HW131967   2.851   0.333   8.697  2.1203  0.3524 -2.2878
 6777SOL    HW231968   2.932   0.221   8.731  0.1909 -0.1876 -0.3110
 6778SOL     OW31969   1.329   2.901   1.348  0.3717 -0.7545 -0.2590
 6778SOL    HW131970   1.237   2.927   1.351  0.5285 -0.2271  0.0190
 6778SOL    HW231971   1.344   2.937   1.436  1.0914  0.8832 -1.0577
 6779SOL     OW31972   3.707   2.958   7.646  0.6742 -0.3351 -0.6035
 6779SOL    HW131973   3.700   2.952   7.741 -1.3163  2.7063 -0.5594
 6779SOL    HW231974   3.682   2.868   7.623 -2.7596  0.5427 -0.3236
 6780SOL     OW31975   2.651   3.379   4.025  0.1029 -0.1717 -0.0841
 6780SOL    HW131976   2.618   3.378   3.935  0.7539  1.7220 -0.3416
 6780SOL    HW231977   2.581   3.346   4.080 -0.5441  1.3978  0.0235
 6781SOL     OW31978   4.004   2.329   4.800  0.6431 -0.1063  0.1845
 6781SOL    HW131979   4.012   2.401   4.863 -1.9096  1.5943 -1.4143
 6781SOL    HW231980   4.008   2.372   4.715 -0.1861 -1.1868 -0.4005
 6782SOL     OW31981   1.107   3.400  17.568 -0.2619  0.0586  0.8477
 6782SOL    HW131982   1.141   3.332  17.509 -1.0747  1.3676 -1.1491
 6782SOL    HW231983   1.143   3.371  17.652 -1.1455 -1.3315  0.7380
 6783SOL     OW31984   2.043   3.187   8.936  0.3011  0.2499 -0.3171
 6783SOL    HW131985   2.073   3.227   9.017 -2.3521 -0.4231  0.9706
 6783SOL    HW231986   2.104   3.227   8.874 -0.5735 -1.5729 -2.3778
 6784SOL     OW31987   2.053   0.596   6.659  0.2234 -0.4789  0.1845
 6784SOL    HW131988   2.011   0.518   6.694  0.1504 -0.1937  0.7372
 6784SOL    HW231989   1.995   0.665   6.691  0.1914  0.0656 -1.0334
 6785SOL     OW31990   0.701   0.987   2.694 -0.1974 -0.0939  0.1118
 6785SOL    HW131991   0.654   0.912   2.729 -0.3704  0.0017  0.0842
 6785SOL    HW231992   0.734   1.024   2.776 -1.9547 -0.2605  0.8742
 6786SOL     OW31993   4.278   2.937   7.594  0.4340 -0.2531 -0.4311
 6786SOL    HW131994   4.371   2.954   7.581  0.4865  0.9743  1.5600
 6786SOL    HW231995   4.235   2.952   7.509 -0.2830  0.4122  0.0440
 6787SOL     OW31996   0.732   4.063   6.291  0.9625  0.2660  0.2764
 6787SOL    HW131997   0.682   4.005   6.348  1.9336 -0.4852  0.3581
 6787SOL    HW231998   0.795   4.001   6.254 -0.9885 -1.3597 -0.2930
 6788SOL     OW31999   1.935   3.527   8.065 -0.0826 -0.5258 -0.2027
 6788SOL    HW132000   2.025   3.502   8.042  0.2684 -0.7616  1.3447
 6788SOL    HW232001   1.929   3.599   8.003 -2.3684 -0.5774 -0.0375
 6789SOL     OW32002   2.969   0.656   9.602 -0.0969  0.3111  0.4115
 6789SOL    HW132003   2.919   0.581   9.637 -1.2127 -0.3627 -2.6022
 6789SOL    HW232004   2.936   0.646   9.513 -1.3496  0.5755  0.8435
 6790SOL     OW32005   0.493   1.107  13.417  0.5795  0.1251  0.3217
 6790SOL    HW132006   0.577   1.120  13.461  0.0029 -0.2153  1.5174
 6790SOL    HW232007   0.438   1.163  13.471 -2.5677 -2.1892 -0.4513
 6791SOL     OW32008   1.188   4.013   5.204  0.4576 -0.3182 -0.1850
 6791SOL    HW132009   1.196   4.077   5.275 -1.2712 -0.6307  0.2982
 6791SOL    HW232010   1.113   4.058   5.165  0.6534  0.1841  0.0160
 6792SOL     OW32011   1.584   3.741  12.780  0.0277  0.2406  0.2681
 6792SOL    HW132012   1.637   3.799  12.835  0.8255 -0.4035  0.1799
 6792SOL    HW232013   1.650   3.687  12.736  0.3336  2.7709 -2.3988
 6793SOL     OW32014   1.022   2.646   5.178 -0.6720 -0.0412  0.6292
 6793SOL    HW132015   0.957   2.707   5.211  0.2936  0.4513  1.6071
 6793SOL    HW232016   1.099   2.700   5.193 -0.0422 -0.6438 -0.4179
 6794SOL     OW32017   3.379   1.404   2.028 -0.8647  0.5742  0.6761
 6794SOL    HW132018   3.297   1.417   2.075 -2.6254 -0.1568 -2.2281
 6794SOL    HW232019   3.353   1.341   1.961  0.6059  0.9138 -0.2226
 6795SOL     OW32020   0.863   1.624   4.904 -0.3381 -0.3292 -0.3675
 6795SOL    HW132021   0.811   1.615   4.984 -1.3516  0.8124 -0.8977
 6795SOL    HW232022   0.885   1.533   4.884  1.8219  0.0429  0.2596
 6796SOL     OW32023   2.590   2.116   3.202 -0.4482  0.2024  0.2361
 6796SOL    HW132024   2.574   2.161   3.285 -1.0896 -0.5680  0.5303
 6796SOL    HW232025   2.593   2.023   3.225  1.6003 -0.5385 -2.9756
 6797SOL     OW32026   0.650   2.323   7.061 -0.5031 -0.0060  0.1053
 6797SOL    HW132027   0.633   2.389   6.993 -2.1665  1.6993  2.1776
 6797SOL    HW232028   0.572   2.269   7.050 -1.4172  1.2313  0.4352
 6798SOL     OW32029   2.473   3.958  14.944  1.1393 -0.5207  0.2348
 6798SOL    HW132030   2.429   3.880  14.910 -1.5864  1.1779 -0.1842
 6798SOL    HW232031   2.566   3.945  14.926  0.4771 -3.8346 -0.8196
 6799SOL     OW32032   0.352   2.616  13.913  0.2918 -0.0400 -0.7605
 6799SOL    HW132033   0.264   2.641  13.940  1.8102  2.3889  1.9839
 6799SOL    HW232034   0.379   2.540  13.964 -2.1940 -0.7911 -0.5635
 6800SOL     OW32035   4.233   1.860   3.988 -0.0691 -0.2487  0.0343
 6800SOL    HW132036   4.322   1.836   3.963  0.7077  0.6240  1.9768
 6800SOL    HW232037   4.205   1.781   4.033  2.0753 -0.7162  0.5496
 6801SOL     OW32038   3.843   2.566   6.196  0.7554  0.1082 -0.0745
 6801SOL    HW132039   3.779   2.637   6.191  0.9642  0.2957 -0.1142
 6801SOL    HW232040   3.843   2.550   6.290 -0.9744  0.0195 -0.1031
 6802SOL     OW32041   0.935   0.278   7.235  0.6729  0.3143 -0.1142
 6802SOL    HW132042   0.854   0.259   7.187  0.3360 -0.7164  0.8493
 6802SOL    HW232043   0.916   0.372   7.240 -0.9197 -0.0178  0.0482
 6803SOL     OW32044   1.898   3.634   6.401  0.1920 -0.1388 -0.2790
 6803SOL    HW132045   1.974   3.642   6.343  1.9114  0.8988  2.1449
 6803SOL    HW232046   1.909   3.555   6.453  1.4448  0.3955  0.2486
 6804SOL     OW32047   1.048   2.570   6.242  0.0211  0.7132  0.2360
 6804SOL    HW132048   1.111   2.634   6.274  2.6189 -0.3994 -2.7004
 6804SOL    HW232049   1.106   2.506   6.201  1.4186  2.2989 -0.2782
 6805SOL     OW32050   0.577   1.431  13.343 -0.2215  0.3333 -0.2053
 6805SOL    HW132051   0.606   1.353  13.295  0.5600 -0.8977  2.2694
 6805SOL    HW232052   0.580   1.494  13.272  1.7990 -1.7669 -1.9888
 6806SOL     OW32053   0.617   1.920   7.136 -0.7964 -0.0605  0.1761
 6806SOL    HW132054   0.545   1.981   7.147  0.1019  1.0576 -0.2021
 6806SOL    HW232055   0.688   1.976   7.107 -0.4170 -0.7078 -0.1555
 6807SOL     OW32056   0.165   3.351  16.816 -0.4879 -0.0667 -0.2394
 6807SOL    HW132057   0.130   3.282  16.759  2.8603 -2.5608  0.6988
 6807SOL    HW232058   0.081   3.375  16.854  0.0962  1.1458  0.2704
 6808SOL     OW32059   4.135   2.468   7.889 -0.0675  0.1910  0.2405
 6808SOL    HW132060   4.230   2.460   7.891 -0.2950 -1.6477  3.4257
 6808SOL    HW232061   4.125   2.561   7.867  0.4162  0.7999  2.5167
 6809SOL     OW32062   3.104   2.548   4.855  0.3534  0.0520 -0.4349
 6809SOL    HW132063   3.049   2.576   4.781 -1.1186 -0.6541  0.3774
 6809SOL    HW232064   3.053   2.565   4.934  0.7861 -0.0048 -0.1447
 6810SOL     OW32065   4.716   0.500   6.544  0.2522 -0.3915  0.0139
 6810SOL    HW132066   0.053   0.512   6.483  0.6265 -0.0258  0.5355
 6810SOL    HW232067   4.662   0.427   6.514  0.9257 -0.8788 -0.0097
 6811SOL     OW32068   1.454   2.672   5.269 -0.3800  0.0129  0.1661
 6811SOL    HW132069   1.513   2.600   5.245  0.5220  0.1266  2.0686
 6811SOL    HW232070   1.431   2.659   5.361  0.8037 -2.7497  0.0660
 6812SOL     OW32071   4.244   0.098   8.641 -0.0913 -0.5732 -0.3181
 6812SOL    HW132072   4.205   0.152   8.710  2.2927  1.4478 -0.5619
 6812SOL    HW232073   4.217   0.007   8.657  0.0098 -0.4960  0.2900
 6813SOL     OW32074   2.561   4.674   9.937  0.0712  0.0256 -0.4577
 6813SOL    HW132075   2.596   4.602   9.990  1.6310  0.0677 -1.4384
 6813SOL    HW232076   2.497   4.704  10.002 -0.6217 -3.7317  0.6091
 6814SOL     OW32077   1.778   2.772  10.488  0.5756  0.4163 -0.1933
 6814SOL    HW132078   1.855   2.795  10.540  0.6146 -1.6313  0.6294
 6814SOL    HW232079   1.771   2.844  10.426  1.6272  2.4520  2.0219
 6815SOL     OW32080   1.224   0.238   2.600 -0.2425  0.6856  0.3147
 6815SOL    HW132081   1.290   0.285   2.547 -0.2702 -0.6483 -0.9039
 6815SOL    HW232082   1.257   0.149   2.608 -1.8003  0.0672 -0.2634
 6816SOL     OW32083   3.218   1.218   1.878  0.1411  0.2949  0.6430
 6816SOL    HW132084   3.160   1.217   1.802 -0.1476 -4.0825  0.9128
 6816SOL    HW232085   3.163   1.202   1.954 -0.5478  1.3542  0.3712
 6817SOL     OW32086   2.216   4.584   8.887  0.1708 -0.4055 -0.0013
 6817SOL    HW132087   2.261   4.621   8.962  0.3889  0.8878 -0.7728
 6817SOL    HW232088   2.156   4.651   8.853  1.2371  0.4397 -0.2253
 6818SOL     OW32089   1.687   2.018   2.640 -0.2905  0.0663 -0.7893
 6818SOL    HW132090   1.609   1.994   2.690  1.4680 -2.4249  0.7571
 6818SOL    HW232091   1.649   2.046   2.557 -0.6897 -0.7640 -0.8857
 6819SOL     OW32092   3.090   2.274  13.452  0.3543 -0.1122 -0.0171
 6819SOL    HW132093   3.143   2.311  13.522 -0.5406 -1.0212  1.1431
 6819SOL    HW232094   3.059   2.354  13.409  0.4772 -0.6500 -1.0966
 6820SOL     OW32095   2.901   1.901  13.641 -0.5347 -0.1258 -0.9022
 6820SOL    HW132096   2.918   1.973  13.702 -0.7776  0.2535 -1.2792
 6820SOL    HW232097   2.908   1.948  13.558  0.5693 -0.1308 -0.8077
 6821SOL     OW32098   1.278   2.170  13.313 -0.2538 -0.8336 -0.4950
 6821SOL    HW132099   1.325   2.167  13.396 -2.7860 -0.8517  0.9630
 6821SOL    HW232100   1.271   2.081  13.279 -1.4419 -0.5467 -1.0184
 6822SOL     OW32101   1.722   4.499   3.740  0.5312  0.5228  0.2702
 6822SOL    HW132102   1.681   4.442   3.675 -0.1191  0.6132  0.6009
 6822SOL    HW232103   1.650   4.513   3.801  0.2120  1.7123 -0.3660
 6823SOL     OW32104   3.896   0.554   2.621  0.1373 -0.5129  0.5813
 6823SOL    HW132105   3.886   0.460   2.638 -0.8809 -0.5304 -0.0740
 6823SOL    HW232106   3.851   0.566   2.537 -2.0441  0.5542  1.9133
 6824SOL     OW32107   3.473   3.147   6.601  0.0292  0.2900 -0.2715
 6824SOL    HW132108   3.431   3.095   6.532  1.1070 -1.1834  0.1837
 6824SOL    HW232109   3.516   3.206   6.539  0.6837 -0.6598 -0.7239
 6825SOL     OW32110   0.990   1.584   4.381 -0.0846 -0.0252  0.1172
 6825SOL    HW132111   0.945   1.571   4.297  0.8113 -1.4109 -0.1561
 6825SOL    HW232112   0.915   1.597   4.439 -0.6132 -0.8795 -0.3717
 6826SOL     OW32113   1.620   3.403   7.928  0.1741 -0.2634  0.4322
 6826SOL    HW132114   1.567   3.407   7.848  1.1628  1.5791 -0.1442
 6826SOL    HW232115   1.566   3.461   7.983 -0.9883  0.5188 -1.5374
 6827SOL     OW32116   4.305   0.257   9.173 -0.4940  0.0200  0.1943
 6827SOL    HW132117   4.397   0.279   9.158  0.1155 -2.9902 -0.5837
 6827SOL    HW232118   4.309   0.171   9.215  1.0007  0.3215  0.6876
 6828SOL     OW32119   2.896   2.391  13.909 -0.3280 -0.6548 -0.4578
 6828SOL    HW132120   2.946   2.460  13.866 -0.1721 -0.2603  0.3474
 6828SOL    HW232121   2.929   2.400  13.999  1.4422 -0.6637 -1.1085
 6829SOL     OW32122   1.937   2.929   6.809 -0.1936 -0.1595 -0.2989
 6829SOL    HW132123   1.847   2.898   6.814 -0.4925  0.9422  1.2749
 6829SOL    HW232124   1.954   2.954   6.718  1.9705  0.3082  0.2287
 6830SOL     OW32125   2.685   4.040   3.197  0.1268  0.1375  0.3919
 6830SOL    HW132126   2.717   4.086   3.275  1.0580  1.2553 -0.6513
 6830SOL    HW232127   2.601   4.083   3.182  0.6277  1.6867  1.9667
 6831SOL     OW32128   2.006   2.407  16.526 -0.0074 -0.3682  0.3642
 6831SOL    HW132129   1.933   2.422  16.586 -0.4712  0.6626 -0.4644
 6831SOL    HW232130   1.967   2.351  16.459  2.0728 -0.9347 -0.3831
 6832SOL     OW32131   0.954   1.470   9.491  0.4632  0.7347 -0.1540
 6832SOL    HW132132   0.868   1.461   9.531  1.1044 -2.0786  0.5825
 6832SOL    HW232133   1.012   1.469   9.566 -0.1833  0.6778  0.3429
 6833SOL     OW32134   2.347   3.232   8.805 -0.0995 -0.4236 -0.2385
 6833SOL    HW132135   2.310   3.154   8.764  1.1415 -0.9034 -0.4511
 6833SOL    HW232136   2.408   3.250   8.733  1.1251  1.1821  1.2078
 6834SOL     OW32137   4.024   2.216   1.277  0.2599  0.3324 -0.4276
 6834SOL    HW132138   3.942   2.255   1.250 -0.2237  0.7778  1.6544
 6834SOL    HW232139   4.072   2.298   1.268  2.6370 -0.8391  1.3802
 6835SOL     OW32140   0.826   4.681   9.625  0.5101  0.3777  0.4043
 6835SOL    HW132141   0.804   4.650   9.713  2.1659  0.1591  0.7546
 6835SOL    HW232142   0.920   4.664   9.617  0.4120 -0.2836  0.7029
 6836SOL     OW32143   0.415   1.470   7.052  0.0736 -0.0896 -0.2609
 6836SOL    HW132144   0.425   1.487   6.959  1.1249  1.4217  0.1180
 6836SOL    HW232145   0.332   1.516   7.061  0.8401  0.9485  1.5795
 6837SOL     OW32146   3.714   0.775   2.736  0.4569 -0.3677 -0.7539
 6837SOL    HW132147   3.752   0.687   2.739  0.9418 -0.1654 -0.9528
 6837SOL    HW232148   3.754   0.817   2.812  0.0244 -0.6925 -0.3454
 6838SOL     OW32149   0.127   1.782   5.778  0.6147  0.3413 -0.2713
 6838SOL    HW132150   0.175   1.864   5.789  2.3822 -0.8192  0.7511
 6838SOL    HW232151   0.097   1.792   5.688  2.1048  0.4756 -0.7629
 6839SOL     OW32152   2.308   4.571   3.078 -0.8230  0.5044  0.2412
 6839SOL    HW132153   2.345   4.486   3.053 -1.6662 -0.4028  2.0687
 6839SOL    HW232154   2.382   4.630   3.062  0.0572 -0.6519 -0.0248
 6840SOL     OW32155   3.045   4.606  15.839 -0.2906 -0.2731 -0.2604
 6840SOL    HW132156   3.000   4.546  15.780 -2.2110  1.7865 -0.9233
 6840SOL    HW232157   3.039   4.684  15.784  0.8736  0.3351  0.4638
 6841SOL     OW32158   1.953   0.867   7.218 -0.0392 -0.0121 -0.4277
 6841SOL    HW132159   2.016   0.864   7.290  0.9342 -1.8817 -1.3510
 6841SOL    HW232160   2.021   0.863   7.151  0.7093  1.0025  0.2679
 6842SOL     OW32161   3.289   2.373  17.556  0.7139  0.4520 -0.8101
 6842SOL    HW132162   3.355   2.317  17.516 -1.0704 -0.7399 -2.0750
 6842SOL    HW232163   3.327   2.395  17.641  0.3032 -2.0656  0.0248
 6843SOL     OW32164   1.309   3.238   3.616 -0.2583 -0.6298 -0.4042
 6843SOL    HW132165   1.302   3.224   3.711 -0.9825  1.4204 -0.1568
 6843SOL    HW232166   1.290   3.331   3.606  0.7778 -0.5055 -1.1762
 6844SOL     OW32167   1.128   4.506   2.047  0.2744  0.3639  0.4421
 6844SOL    HW132168   1.117   4.565   2.121  2.9809  1.3312  0.0427
 6844SOL    HW232169   1.203   4.461   2.085  0.2119 -0.4029 -0.3396
 6845SOL     OW32170   2.288   0.640  11.252  0.3323  0.4678 -0.0939
 6845SOL    HW132171   2.285   0.552  11.290 -0.6841  0.7983  0.5980
 6845SOL    HW232172   2.318   0.698  11.322  0.1010  1.1411 -0.5567
 6846SOL     OW32173   0.040   3.838   5.414 -0.2416 -0.2115 -0.1271
 6846SOL    HW132174   4.682   3.845   5.396  0.0113 -0.7454 -1.6276
 6846SOL    HW232175   0.084   3.897   5.354  1.2839 -0.2480  0.9460
 6847SOL     OW32176   2.510   4.076   2.279  0.0570  0.0528 -0.3446
 6847SOL    HW132177   2.583   4.085   2.217  0.9095 -0.8538  0.5299
 6847SOL    HW232178   2.562   4.050   2.355  1.2223  1.7068 -0.5561
 6848SOL     OW32179   3.958   1.716   5.336 -0.5257  0.6162  0.8542
 6848SOL    HW132180   4.045   1.728   5.374 -0.3002 -0.4516  0.6770
 6848SOL    HW232181   3.905   1.729   5.415  0.2710  2.5234  1.0533
 6849SOL     OW32182   1.413   2.576  10.900 -0.0892  0.7807  0.0202
 6849SOL    HW132183   1.461   2.518  10.959 -0.0434 -1.2313 -1.9906
 6849SOL    HW232184   1.376   2.512  10.840 -1.2288  1.2803  0.1848
 6850SOL     OW32185   4.117   3.046   5.399  0.4740 -0.0741  0.6843
 6850SOL    HW132186   4.130   3.083   5.312 -0.7454  0.7734  0.8729
 6850SOL    HW232187   4.051   3.109   5.426  0.0658  0.3671 -1.3563
 6851SOL     OW32188   4.225   1.359   4.808  0.0263  0.3029 -0.1447
 6851SOL    HW132189   4.259   1.281   4.851 -1.8103 -0.3844  0.0425
 6851SOL    HW232190   4.195   1.331   4.722 -2.6298 -0.5731  1.0933
 6852SOL     OW32191   2.723   3.934   4.311  0.5177  0.5099  0.0995
 6852SOL    HW132192   2.708   3.984   4.391  0.0269 -0.2175  0.4593
 6852SOL    HW232193   2.784   3.866   4.339 -2.5836 -2.7600 -1.1551
 6853SOL     OW32194   1.716   3.631   5.765  0.0666  0.4471 -0.4044
 6853SOL    HW132195   1.750   3.555   5.718 -0.3206  0.2654 -0.3949
 6853SOL    HW232196   1.745   3.707   5.714 -2.2247  0.5421 -1.5493
 6854SOL     OW32197   3.398   4.286   2.985  0.3116 -0.4217 -0.3319
 6854SOL    HW132198   3.420   4.363   2.932 -1.0024 -0.0069 -0.2695
 6854SOL    HW232199   3.477   4.286   3.040 -0.3952  2.3519  0.6893
 6855SOL     OW32200   2.410   3.424   7.822  0.3688  0.1993  0.1678
 6855SOL    HW132201   2.501   3.396   7.826 -0.4015 -2.2862  0.5078
 6855SOL    HW232202   2.411   3.450   7.730 -0.4817 -1.0889 -0.1945
 6856SOL     OW32203   3.163   4.524   8.573  0.3207 -0.3951  0.2933
 6856SOL    HW132204   3.219   4.568   8.509  0.3668  0.1566  0.7253
 6856SOL    HW232205   3.228   4.511   8.642  0.4153  1.4855  0.5452
 6857SOL     OW32206   4.583   0.097  14.688  0.2356  0.3826 -0.1908
 6857SOL    HW132207   4.493   0.065  14.684  0.7361 -0.9602 -0.6453
 6857SOL    HW232208   4.569   0.189  14.711  1.7827  0.9175 -1.3903
 6858SOL     OW32209   1.461   1.794   3.060  0.1662 -0.1504  0.2292
 6858SOL    HW132210   1.425   1.711   3.094 -2.4986  1.7224  2.0221
 6858SOL    HW232211   1.382   1.846   3.048  0.7884  1.3343  2.5788
 6859SOL     OW32212   0.967   2.431   7.872 -0.0658  0.4498 -0.1723
 6859SOL    HW132213   1.006   2.467   7.791 -1.3052  1.7628 -0.1851
 6859SOL    HW232214   1.046   2.384   7.898  0.7373  2.5344  1.1118
 6860SOL     OW32215   3.766   3.375  14.137  0.4426  0.3862 -0.2271
 6860SOL    HW132216   3.712   3.448  14.166  0.1871 -0.3251  1.1079
 6860SOL    HW232217   3.692   3.314  14.146  1.5703 -0.6732  1.8873
 6861SOL     OW32218   0.317   0.924   6.941 -0.4308  0.3223 -0.4096
 6861SOL    HW132219   0.228   0.893   6.928 -0.2241 -0.7352  0.7201
 6861SOL    HW232220   0.362   0.877   6.870  2.2122  0.5579  1.1222
 6862SOL     OW32221   4.378   3.945  14.311 -0.4920  0.3322  0.9490
 6862SOL    HW132222   4.388   3.996  14.392  0.5337  0.0167  1.0222
 6862SOL    HW232223   4.307   3.987  14.263 -1.3526 -0.8016  1.2431
 6863SOL     OW32224   1.093   3.584   7.562 -0.0294 -0.5078 -0.3099
 6863SOL    HW132225   1.160   3.653   7.570 -2.9628  2.5052 -1.6763
 6863SOL    HW232226   1.122   3.532   7.486 -1.0676 -1.4964 -0.0167
 6864SOL     OW32227   0.387   2.013   8.363 -0.1672  0.0947  0.3940
 6864SOL    HW132228   0.302   1.999   8.405  0.2929 -2.1056  0.5669
 6864SOL    HW232229   0.381   1.980   8.274 -2.3464 -1.7326  1.2092
 6865SOL     OW32230   2.129   0.012   1.402 -0.1268  0.3547  0.1083
 6865SOL    HW132231   2.221   4.722   1.413 -0.6934 -0.8313  2.2861
 6865SOL    HW232232   2.088   4.667   1.369  0.6438 -0.3732  0.8801
 6866SOL     OW32233   4.295   1.449   3.955 -0.0556  0.9550 -0.5957
 6866SOL    HW132234   4.253   1.508   3.892 -0.8771 -0.3776 -1.3019
 6866SOL    HW232235   4.368   1.418   3.902 -1.4103 -1.5589 -1.0123
 6867SOL     OW32236   3.635   3.978  10.332  0.8118 -0.0420 -0.0064
 6867SOL    HW132237   3.578   3.919  10.281  0.2301 -0.5617  1.2334
 6867SOL    HW232238   3.563   4.027  10.372  2.0721  1.2499  0.6795
 6868SOL     OW32239   2.496   0.856  16.336  0.1040 -0.1204  0.7987
 6868SOL    HW132240   2.504   0.879  16.244  1.5613 -0.0460  0.9534
 6868SOL    HW232241   2.454   0.935  16.371  0.2613  0.8121 -1.1056
 6869SOL     OW32242   3.661   2.175   1.365 -0.0451  0.0148 -0.1014
 6869SOL    HW132243   3.585   2.134   1.323  1.6052 -0.8350 -2.2756
 6869SOL    HW232244   3.708   2.208   1.288  1.1242 -1.9145 -0.1978
 6870SOL     OW32245   1.232   1.241   6.628 -0.7054  0.2375 -0.2837
 6870SOL    HW132246   1.144   1.267   6.601 -0.0955 -0.4914 -2.9529
 6870SOL    HW232247   1.229   1.248   6.724 -0.4972 -0.5370 -0.2147
 6871SOL     OW32248   0.040   1.704  13.178  0.1026  0.4069 -0.3444
 6871SOL    HW132249   0.025   1.797  13.157  0.4859  0.0639 -2.1049
 6871SOL    HW232250   4.725   1.656  13.113 -0.9046  0.5504  0.3170
 6872SOL     OW32251   3.020   2.829   8.139  0.1711 -0.2983 -0.1882
 6872SOL    HW132252   3.099   2.795   8.181 -1.0257 -1.2711  1.2736
 6872SOL    HW232253   3.044   2.919   8.119  0.5549  0.1110  2.1607
 6873SOL     OW32254   3.930   0.125   1.775  0.3544 -0.0870 -0.2632
 6873SOL    HW132255   3.906   0.148   1.865  1.2725 -2.0823  0.5113
 6873SOL    HW232256   3.857   0.174   1.738 -0.3589 -0.2753  0.8732
 6874SOL     OW32257   3.686   1.779   1.856  0.6940 -0.7333  0.5243
 6874SOL    HW132258   3.613   1.721   1.836 -0.6992  1.1037  0.3132
 6874SOL    HW232259   3.688   1.837   1.779 -1.1757  1.1986  1.9495
 6875SOL     OW32260   3.531   2.376   1.752 -0.0092 -0.3050  0.0009
 6875SOL    HW132261   3.547   2.282   1.751  1.8748  0.0190 -1.3193
 6875SOL    HW232262   3.441   2.388   1.782 -0.2415 -0.0247 -0.7994
 6876SOL     OW32263   2.142   2.910   2.940  0.0215 -0.0830 -0.4361
 6876SOL    HW132264   2.188   2.978   2.989  3.0907 -2.5052  0.0131
 6876SOL    HW232265   2.088   2.861   3.001  0.6607 -0.1786  0.0539
 6877SOL     OW32266   3.031   2.332  14.138  0.3867  0.1298 -0.5628
 6877SOL    HW132267   3.106   2.310  14.082  0.8058  3.2095 -1.2099
 6877SOL    HW232268   3.066   2.368  14.220 -2.8881 -1.2422  1.4166
 6878SOL     OW32269   1.950   0.340   7.601  0.4029  0.5400 -0.0403
 6878SOL    HW132270   1.998   0.417   7.570  1.4276 -0.3585 -0.6451
 6878SOL    HW232271   1.863   0.376   7.584  0.2078 -0.3549 -0.9379
 6879SOL     OW32272   0.773   0.087   8.728 -0.7267 -0.3504 -0.7357
 6879SOL    HW132273   0.704   0.059   8.788  0.1198 -0.8263  0.0226
 6879SOL    HW232274   0.771   0.006   8.677  0.8277  0.8172 -2.6640
 6880SOL     OW32275   4.512   2.749   4.271 -0.2647  0.0798  0.3074
 6880SOL    HW132276   4.570   2.712   4.204  0.7693  0.0871  1.2023
 6880SOL    HW232277   4.527   2.687   4.342 -0.2153 -0.7053 -0.3832
 6881SOL     OW32278   2.132   3.034   9.232 -0.0332 -0.4961 -0.2496
 6881SOL    HW132279   2.214   3.079   9.250  1.1535 -2.0475 -1.8794
 6881SOL    HW232280   2.075   3.099   9.191 -1.2959  0.1286  2.4322
 6882SOL     OW32281   1.176   4.499   4.342 -0.0743  0.0165 -1.0468
 6882SOL    HW132282   1.221   4.442   4.404 -1.3624  1.3969  1.1587
 6882SOL    HW232283   1.091   4.454   4.335  0.0830 -0.0706 -2.3936
 6883SOL     OW32284   2.101   1.685   5.886 -0.4391  0.8969  0.1128
 6883SOL    HW132285   2.053   1.760   5.852 -0.4710  0.5413 -0.6283
 6883SOL    HW232286   2.138   1.653   5.804 -1.4604 -0.9330  0.3402
 6884SOL     OW32287   0.259   3.931  16.060 -0.0164 -0.1469  0.0421
 6884SOL    HW132288   0.285   3.962  15.973  0.5816 -1.3354 -0.2026
 6884SOL    HW232289   0.346   3.923  16.098 -0.7191  0.6767  1.8557
 6885SOL     OW32290   0.833   4.473   0.415 -0.0766 -0.2344 -0.0680
 6885SOL    HW132291   0.830   4.417   0.492 -1.5675 -0.2219 -0.1104
 6885SOL    HW232292   0.743   4.480   0.384 -0.6301 -0.5973  1.4542
 6886SOL     OW32293   3.631   1.118   9.631 -0.1004  0.2443 -0.3928
 6886SOL    HW132294   3.617   1.196   9.578 -2.3983  1.3865  1.8913
 6886SOL    HW232295   3.724   1.100   9.616 -0.0716 -0.1172  0.2229
 6887SOL     OW32296   0.428   0.213   5.170 -0.2651 -0.4944 -0.2783
 6887SOL    HW132297   0.519   0.226   5.197  0.0799 -2.3066 -0.5638
 6887SOL    HW232298   0.432   0.252   5.083  3.0906 -0.2401 -0.0023
 6888SOL     OW32299   3.140   3.857   6.936  0.2327 -0.1665  0.1599
 6888SOL    HW132300   3.151   3.884   6.845  2.1005  2.5533  1.2219
 6888SOL    HW232301   3.179   3.930   6.985 -0.1486  0.4765 -0.4968
 6889SOL     OW32302   0.020   3.428   5.909  0.1628  0.0161  0.5282
 6889SOL    HW132303   0.112   3.451   5.924 -0.0141 -0.5058  2.4893
 6889SOL    HW232304   0.003   3.478   5.830  0.5666  1.8470  1.6011
 6890SOL     OW32305   1.050   4.635   8.696 -0.3716  0.4202 -0.0354
 6890SOL    HW132306   1.018   4.681   8.618 -0.4705  1.4965  0.6402
 6890SOL    HW232307   1.129   4.598   8.656  0.0800  1.3940 -0.0406
 6891SOL     OW32308   3.606   2.709   9.812  0.1264 -0.0437 -0.0749
 6891SOL    HW132309   3.554   2.629   9.819 -1.0886  0.7576  0.0514
 6891SOL    HW232310   3.689   2.668   9.787 -0.3109 -0.4368 -0.8912
 6892SOL     OW32311   2.789   0.701  12.264  0.4413  0.1459 -0.5609
 6892SOL    HW132312   2.875   0.732  12.291 -0.1158  0.2853  1.0353
 6892SOL    HW232313   2.789   0.614  12.302 -2.4591 -0.2705 -1.5153
 6893SOL     OW32314   1.215   1.731   4.396  0.4633  0.0808  0.3453
 6893SOL    HW132315   1.125   1.704   4.417  0.1801  1.8616  1.3548
 6893SOL    HW232316   1.247   1.669   4.331 -1.9392  0.9940 -1.6746
 6894SOL     OW32317   4.415   1.454   6.413 -0.3734  0.1019 -0.3336
 6894SOL    HW132318   4.452   1.464   6.501  1.1660 -0.6876 -0.8862
 6894SOL    HW232319   4.495   1.421   6.372 -1.4477 -0.5990 -1.8468
 6895SOL     OW32320   4.469   1.862   4.384 -0.1036  0.0293  0.1869
 6895SOL    HW132321   4.515   1.918   4.446 -0.7322  0.8269 -0.0591
 6895SOL    HW232322   4.500   1.902   4.302 -0.1331 -0.1038  0.1108
 6896SOL     OW32323   2.680   2.019   5.778  0.3580  0.1515  0.5606
 6896SOL    HW132324   2.684   1.929   5.812  2.2812  0.3102  0.7558
 6896SOL    HW232325   2.586   2.031   5.792  0.0038 -2.3879  0.3554
 6897SOL     OW32326   2.145   3.228   5.191 -0.5633 -0.8303 -0.3092
 6897SOL    HW132327   2.108   3.145   5.161 -0.0824 -0.3269 -2.2704
 6897SOL    HW232328   2.128   3.283   5.115 -1.3535  0.8809  1.0978
 6898SOL     OW32329   2.353   4.516   2.440  0.4116  0.3571 -0.1888
 6898SOL    HW132330   2.323   4.527   2.530 -1.9276  1.4063 -1.0925
 6898SOL    HW232331   2.301   4.578   2.389 -0.2535 -0.7959 -0.9358
 6899SOL     OW32332   4.287   2.352   8.206 -0.1929  0.6841  0.1663
 6899SOL    HW132333   4.308   2.313   8.121  1.0691  1.9983 -0.1361
 6899SOL    HW232334   4.327   2.290   8.267 -1.4893  1.4543  1.7959
 6900SOL     OW32335   4.360   0.193  12.434 -0.0311  0.0088 -0.0505
 6900SOL    HW132336   4.312   0.269  12.402 -0.0929 -0.0868 -0.1858
 6900SOL    HW232337   4.432   0.207  12.372  0.4712  1.5766  0.8792
 6901SOL     OW32338   2.582   2.265   3.436 -0.0813  0.6788 -0.2846
 6901SOL    HW132339   2.575   2.346   3.385 -0.0747  0.8037 -0.0861
 6901SOL    HW232340   2.512   2.278   3.500  0.5990  2.4618  0.1034
 6902SOL     OW32341   2.790   3.587  15.111  0.3721 -0.2147  0.0194
 6902SOL    HW132342   2.783   3.657  15.046  0.8916 -1.2777 -1.1761
 6902SOL    HW232343   2.696   3.594  15.132  0.9415  1.3948  2.0279
 6903SOL     OW32344   2.172   1.797   2.824 -0.4598 -0.3923  0.5106
 6903SOL    HW132345   2.254   1.763   2.790  0.3623  0.1100  1.9872
 6903SOL    HW232346   2.155   1.867   2.760  1.8482 -0.6739 -0.3858
 6904SOL     OW32347   2.604   3.717   3.419  0.1374  0.0128  0.1318
 6904SOL    HW132348   2.531   3.766   3.381  0.9345 -1.4552 -3.3157
 6904SOL    HW232349   2.654   3.773   3.479 -1.1493 -1.4163  2.5166
 6905SOL     OW32350   1.108   0.144   9.784 -0.2702 -0.6642 -0.0067
 6905SOL    HW132351   1.090   0.157   9.690 -1.5019  0.5492  0.3966
 6905SOL    HW232352   1.155   0.227   9.799 -2.7504  0.5707  0.8662
 6906SOL     OW32353   4.537   3.795   5.083  0.1757  0.8131  0.2447
 6906SOL    HW132354   4.529   3.710   5.127 -2.3415  1.6521  1.4025
 6906SOL    HW232355   4.550   3.854   5.156 -2.5139 -1.3793  2.4987
 6907SOL     OW32356   4.655   1.634   1.473 -0.6274 -0.2301  0.1763
 6907SOL    HW132357   4.560   1.642   1.486 -0.5957 -0.0156  0.2781
 6907SOL    HW232358   4.660   1.568   1.404 -1.4685 -1.0131  0.8429
 6908SOL     OW32359   1.346   2.515   5.064  0.2336 -0.6893 -0.5640
 6908SOL    HW132360   1.372   2.509   5.156 -2.3139  2.7410  0.3913
 6908SOL    HW232361   1.407   2.456   5.020 -1.1478 -1.3580 -1.5923
 6909SOL     OW32362   4.621   2.919  16.324 -0.2168  0.5651  0.0883
 6909SOL    HW132363   4.600   2.997  16.272  0.5736  0.6189 -0.1497
 6909SOL    HW232364   4.716   2.908  16.316 -0.5180  0.4965 -3.8232
 6910SOL     OW32365   2.758   0.465   8.859  0.3102 -0.0588  0.5750
 6910SOL    HW132366   2.769   0.533   8.926 -2.2526  0.2162  0.7524
 6910SOL    HW232367   2.730   0.392   8.914  0.4511  0.8108  1.7933
 6911SOL     OW32368   0.139   4.030   5.872 -0.1657 -0.5447 -0.0637
 6911SOL    HW132369   0.059   4.020   5.820 -2.0526  0.5354  2.6465
 6911SOL    HW232370   0.132   4.123   5.896 -0.7781 -0.3589 -0.9537
 6912SOL     OW32371   0.743   1.349   0.730  0.3876 -0.2031  0.2802
 6912SOL    HW132372   0.652   1.342   0.762  0.8777  3.3234  2.4571
 6912SOL    HW232373   0.777   1.262   0.749  1.9509  0.3327 -0.1408
 6913SOL     OW32374   1.956   0.563   6.416  0.0023  0.1634 -0.0553
 6913SOL    HW132375   1.888   0.512   6.460  1.1997 -1.1611  0.2885
 6913SOL    HW232376   2.002   0.592   6.495  1.0144  0.2105 -0.6616
 6914SOL     OW32377   1.148   3.477   7.317 -0.4394  0.7701  0.1220
 6914SOL    HW132378   1.188   3.554   7.276  0.8083 -0.6942 -1.3767
 6914SOL    HW232379   1.161   3.417   7.244 -0.5401  1.2304 -0.2819
 6915SOL     OW32380   4.346   3.875   1.093 -0.2433  0.3290 -0.3851
 6915SOL    HW132381   4.318   3.928   1.168 -1.7621 -1.5743  0.3594
 6915SOL    HW232382   4.357   3.787   1.129 -0.1162  0.6968  0.4689
 6916SOL     OW32383   4.024   2.234   5.560  0.3127 -0.3708 -0.4008
 6916SOL    HW132384   4.037   2.154   5.611  0.5507 -0.8915 -1.2823
 6916SOL    HW232385   3.954   2.272   5.614  2.2883  1.2443  1.0175
 6917SOL     OW32386   4.330   0.801   3.908 -0.2310 -0.3392 -0.4669
 6917SOL    HW132387   4.302   0.771   3.994 -0.3092  1.0279 -0.0038
 6917SOL    HW232388   4.349   0.892   3.932 -0.0336 -0.4034 -0.3788
 6918SOL     OW32389   0.318   0.888  15.149 -0.4600 -0.4495 -0.5289
 6918SOL    HW132390   0.329   0.926  15.236  1.3919  0.0181 -0.9672
 6918SOL    HW232391   0.318   0.793  15.160 -0.2701 -0.5301 -1.1964
 6919SOL     OW32392   4.357   0.096   9.679  0.3637  0.4494  0.1415
 6919SOL    HW132393   4.378   0.114   9.771 -1.4773  4.4751 -0.2069
 6919SOL    HW232394   4.332   0.185   9.652 -1.1934 -0.0325  0.0042
 6920SOL     OW32395   4.384   2.793  15.476 -0.1622  0.2679  0.0837
 6920SOL    HW132396   4.384   2.808  15.381  0.0786  0.5198  0.1231
 6920SOL    HW232397   4.429   2.872  15.506  2.0030 -0.3219 -1.5494
 6921SOL     OW32398   2.286   1.959   3.208  0.4259 -0.1757 -0.2840
 6921SOL    HW132399   2.295   1.983   3.300  1.2940  0.0327 -0.4233
 6921SOL    HW232400   2.276   2.046   3.169  0.9514  0.5596  1.2138
 6922SOL     OW32401   2.435   3.226   8.082 -0.4350 -0.0401 -0.0980
 6922SOL    HW132402   2.471   3.246   7.996 -0.5949  1.0266  0.0911
 6922SOL    HW232403   2.490   3.271   8.147  0.6227 -0.9660 -0.3561
 6923SOL     OW32404   0.053   2.916  17.588 -0.3625  0.3467  1.0179
 6923SOL    HW132405   0.120   2.851  17.608  1.4052  1.2146 -2.2771
 6923SOL    HW232406   0.111   2.985  17.558 -0.3337 -0.0773  0.1063
 6924SOL     OW32407   3.902   4.209   3.888  0.2669  0.2035 -0.0744
 6924SOL    HW132408   3.914   4.153   3.965  0.7554  0.9261  0.3767
 6924SOL    HW232409   3.984   4.257   3.901  0.5399 -0.2251 -0.2164
 6925SOL     OW32410   4.165   4.217   5.095  0.3228 -0.5436  0.3141
 6925SOL    HW132411   4.228   4.258   5.035 -1.5389  0.1725 -1.1327
 6925SOL    HW232412   4.223   4.179   5.161 -1.3075 -2.0239  0.8831
 6926SOL     OW32413   2.436   0.989   7.003  0.3472 -0.1070  0.4252
 6926SOL    HW132414   2.458   1.082   7.009 -0.0740 -0.0189  0.6634
 6926SOL    HW232415   2.489   0.976   6.925 -2.3684  0.5491 -1.5137
 6927SOL     OW32416   0.739   2.578   5.365 -0.8816 -0.4261  0.1913
 6927SOL    HW132417   0.784   2.528   5.297  0.3539 -0.6154  1.1403
 6927SOL    HW232418   0.648   2.559   5.345 -0.4244 -1.1496 -1.1549
 6928SOL     OW32419   4.389   2.785   2.799  0.0666  0.0262 -0.0014
 6928SOL    HW132420   4.357   2.829   2.878  0.5188 -2.1006  1.3699
 6928SOL    HW232421   4.483   2.795   2.818  0.1215 -0.0785 -0.2171
 6929SOL     OW32422   2.470   3.725   8.997 -0.3851  0.0285 -0.3317
 6929SOL    HW132423   2.411   3.779   8.944  1.2548  1.7992 -0.3550
 6929SOL    HW232424   2.435   3.638   8.976 -1.1539 -0.9083  4.9150
 6930SOL     OW32425   2.761   4.243   2.201 -0.4382  0.1384 -0.1885
 6930SOL    HW132426   2.698   4.249   2.129 -0.3739  2.8807  0.0068
 6930SOL    HW232427   2.825   4.184   2.160  1.2447  1.5267  0.4465
 6931SOL     OW32428   2.916   1.995   6.542  0.1968  0.0664  0.7546
 6931SOL    HW132429   2.853   2.023   6.609 -0.4526 -0.8600  0.5299
 6931SOL    HW232430   2.879   1.908   6.529 -0.5513  0.3559  0.9520
 6932SOL     OW32431   2.348   0.461  11.798 -0.3006  0.7574  0.0794
 6932SOL    HW132432   2.403   0.486  11.723 -0.7238 -2.3435 -1.2551
 6932SOL    HW232433   2.390   0.507  11.871 -1.3551  0.7183  0.7114
 6933SOL     OW32434   3.141   2.584   7.789 -0.6478 -0.4680 -0.3680
 6933SOL    HW132435   3.154   2.636   7.710 -0.1696 -2.2841 -1.4844
 6933SOL    HW232436   3.165   2.498   7.754 -0.8672  0.5471 -2.9786
 6934SOL     OW32437   1.981   4.470   1.697  0.3033 -0.0378 -0.3698
 6934SOL    HW132438   2.002   4.563   1.705 -0.4317 -0.1226  2.2225
 6934SOL    HW232439   1.977   4.450   1.790 -0.0827  0.8558 -0.1970
 6935SOL     OW32440   2.897   3.962   5.631  0.0197 -0.1072 -0.0345
 6935SOL    HW132441   2.866   4.043   5.590 -0.4745  0.2491  1.0508
 6935SOL    HW232442   2.838   3.900   5.589  3.1203 -1.6081 -2.1097
 6936SOL     OW32443   2.490   2.156  11.961  0.1853 -0.2241  0.3004
 6936SOL    HW132444   2.501   2.244  11.998  4.4223 -0.7442  0.2450
 6936SOL    HW232445   2.451   2.114  12.038  0.0527 -0.3801  0.1486
 6937SOL     OW32446   4.009   0.210   3.332  0.0149  0.9026  0.3261
 6937SOL    HW132447   4.016   0.293   3.285  0.0555 -1.0166 -3.0995
 6937SOL    HW232448   4.093   0.175   3.302 -1.0550 -1.8135  0.5270
 6938SOL     OW32449   4.654   4.432   2.115  0.0768  0.3534  0.5073
 6938SOL    HW132450   4.706   4.412   2.193  1.6321  1.8642 -0.1274
 6938SOL    HW232451   4.570   4.405   2.151 -0.5190  2.2163  0.5539
 6939SOL     OW32452   0.337   2.551   1.286  0.1607 -0.0249 -0.3010
 6939SOL    HW132453   0.341   2.553   1.382  0.0170 -0.8931 -0.2735
 6939SOL    HW232454   0.368   2.639   1.265 -3.3191  1.2990  0.0697
 6940SOL     OW32455   4.357   3.156   7.232 -0.4776  0.3380 -0.1255
 6940SOL    HW132456   4.360   3.225   7.299 -1.3111 -1.9084  2.2173
 6940SOL    HW232457   4.297   3.096   7.275  0.0855  1.0605  1.6766
 6941SOL     OW32458   2.552   4.266   4.393  0.5837 -0.4012  0.4645
 6941SOL    HW132459   2.544   4.359   4.374  0.0859 -0.7672 -1.0467
 6941SOL    HW232460   2.465   4.236   4.419  1.3545 -1.5908  1.6845
 6942SOL     OW32461   2.199   1.259   2.424 -0.4325  0.1654 -0.5472
 6942SOL    HW132462   2.116   1.214   2.407  1.1773 -1.9212 -2.7875
 6942SOL    HW232463   2.189   1.287   2.515 -1.5193  0.0708 -0.6435
 6943SOL     OW32464   1.612   2.657   4.172  0.0461 -0.4156  0.0225
 6943SOL    HW132465   1.673   2.678   4.102 -1.5248  2.6035 -0.4425
 6943SOL    HW232466   1.676   2.667   4.242 -0.0321  1.9237 -0.2383
 6944SOL     OW32467   2.401   2.610   4.543  0.8279 -0.1213 -0.1581
 6944SOL    HW132468   2.311   2.597   4.513  0.3757  0.6206  0.8710
 6944SOL    HW232469   2.385   2.633   4.635  2.1317  0.8881 -0.1813
 6945SOL     OW32470   2.832   4.678   0.445  0.0216  0.7804 -0.0119
 6945SOL    HW132471   2.812   4.656   0.354 -3.0474  0.4620  0.7234
 6945SOL    HW232472   2.769   4.631   0.501  1.2541  0.5509  1.1785
 6946SOL     OW32473   0.026   3.156   1.931 -0.0223 -0.2931 -0.0128
 6946SOL    HW132474   4.684   3.184   1.881  0.4365 -0.2546 -0.7032
 6946SOL    HW232475   4.727   3.134   2.018  2.2028 -0.4399  0.8254
 6947SOL     OW32476   4.083   0.638   0.957 -0.7459  0.2787  0.0105
 6947SOL    HW132477   4.166   0.593   0.945  0.0203  1.2681  1.6724
 6947SOL    HW232478   4.055   0.621   0.867  0.4423 -1.2080 -0.0685
 6948SOL     OW32479   2.987   3.935  14.209  0.2642 -0.1064  0.7878
 6948SOL    HW132480   3.039   3.945  14.129  0.3483 -0.2658  0.8226
 6948SOL    HW232481   3.053   3.932  14.279 -0.8447  1.1410  1.8882
 6949SOL     OW32482   3.653   0.358   4.570  0.2853 -0.1502 -0.2597
 6949SOL    HW132483   3.629   0.266   4.578  1.4638 -0.4285  0.1154
 6949SOL    HW232484   3.661   0.372   4.664 -1.6481 -2.5394  0.2690
 6950SOL     OW32485   3.462   1.025   8.113 -0.1137 -0.1114  0.4159
 6950SOL    HW132486   3.548   1.060   8.136  0.4108 -1.9758  1.3247
 6950SOL    HW232487   3.411   1.100   8.083  0.0363  0.1770  0.8738
 6951SOL     OW32488   3.051   1.168   5.632 -0.3060 -0.0787 -0.4800
 6951SOL    HW132489   3.104   1.093   5.658  1.6824  1.4764 -0.1114
 6951SOL    HW232490   3.116   1.238   5.627 -0.4661  0.0540 -0.7657
 6952SOL     OW32491   0.922   0.655  11.763  0.0309  0.3519 -0.6547
 6952SOL    HW132492   0.949   0.744  11.784  1.3318 -0.0066 -0.8017
 6952SOL    HW232493   0.997   0.601  11.736  0.2208 -0.1246  0.8057
 6953SOL     OW32494   0.687   1.926   7.630  0.4762  0.7340 -0.5409
 6953SOL    HW132495   0.740   1.906   7.707 -0.9397  1.1208  0.5103
 6953SOL    HW232496   0.759   1.904   7.571  1.7829  1.4732  0.7845
 6954SOL     OW32497   0.316   0.510   0.569 -0.0522 -0.0334  0.4452
 6954SOL    HW132498   0.406   0.544   0.575 -0.0860  0.3247 -0.9535
 6954SOL    HW232499   0.305   0.454   0.645  2.0113 -0.5011  0.4067
 6955SOL     OW32500   1.566   1.817  13.461 -0.0782  0.1124  0.7010
 6955SOL    HW132501   1.658   1.799  13.444  0.1993  2.3753 -0.2608
 6955SOL    HW232502   1.540   1.780  13.377 -2.4044  1.4146  0.8473
 6956SOL     OW32503   0.575   4.436   7.659  0.0333 -0.0776  0.5127
 6956SOL    HW132504   0.635   4.390   7.600  0.2450  1.9053 -0.8056
 6956SOL    HW232505   0.639   4.501   7.690 -1.1101  1.1760  0.2246
 6957SOL     OW32506   3.760   3.566   7.477 -0.4304 -0.0455 -0.1091
 6957SOL    HW132507   3.772   3.495   7.414 -2.5676 -0.8795  0.4184
 6957SOL    HW232508   3.840   3.618   7.468  0.6079 -1.7152 -0.5813
 6958SOL     OW32509   0.766   1.111   2.928 -0.4364 -0.2458 -1.0874
 6958SOL    HW132510   0.853   1.149   2.918 -0.5135  0.5625  1.3535
 6958SOL    HW232511   0.737   1.151   3.010  1.3742  0.4506 -0.7986
 6959SOL     OW32512   1.105   3.882   4.213 -0.5328 -0.4581  0.0137
 6959SOL    HW132513   1.028   3.935   4.235 -0.9736 -0.3555 -1.7892
 6959SOL    HW232514   1.131   3.910   4.125  0.6371 -1.0114  0.1786
 6960SOL     OW32515   3.534   3.665  15.411 -0.1226 -0.3462  0.1425
 6960SOL    HW132516   3.440   3.684  15.411 -0.1244 -0.3542  0.2292
 6960SOL    HW232517   3.567   3.739  15.359 -1.0146 -1.1873 -1.6160
 6961SOL     OW32518   3.489   3.882   6.907  0.6598  0.4916  0.0091
 6961SOL    HW132519   3.548   3.907   6.836 -0.9706  0.3421 -1.4085
 6961SOL    HW232520   3.438   3.960   6.930  1.5829  0.0044  3.7595
 6962SOL     OW32521   2.765   1.926   4.037  0.1771  0.0174 -0.6952
 6962SOL    HW132522   2.767   1.842   4.083  1.8932  1.2605  1.4634
 6962SOL    HW232523   2.803   1.979   4.107  0.4854 -0.9122 -0.1510
 6963SOL     OW32524   3.436   3.433  15.257 -0.5538  0.2439  0.8135
 6963SOL    HW132525   3.418   3.406  15.347  0.9616  2.2102  1.7009
 6963SOL    HW232526   3.430   3.527  15.273  0.0886  0.0026  2.4702
 6964SOL     OW32527   3.451   3.812   9.912 -1.0758  0.1253  0.1340
 6964SOL    HW132528   3.499   3.852   9.840 -2.1595  0.7312 -0.2439
 6964SOL    HW232529   3.366   3.855   9.901 -1.5190 -0.8778 -0.3615
 6965SOL     OW32530   4.035   2.178   6.919  0.1690  0.4100 -0.1929
 6965SOL    HW132531   4.078   2.204   6.837  1.3689  3.1997  1.3120
 6965SOL    HW232532   3.957   2.232   6.906  1.3634  2.0219 -0.6143
 6966SOL     OW32533   4.355   3.588   3.427  0.2037  0.2614 -0.1957
 6966SOL    HW132534   4.417   3.578   3.500 -0.4949 -2.5412  0.0412
 6966SOL    HW232535   4.303   3.511   3.450 -0.3271 -0.0476 -2.4967
 6967SOL     OW32536   2.175   2.061   5.311  0.0077 -0.2719  0.0960
 6967SOL    HW132537   2.212   2.023   5.231 -0.5223  1.7061 -1.0920
 6967SOL    HW232538   2.124   1.989   5.350 -2.3576  0.0547 -2.3431
 6968SOL     OW32539   0.940   0.359  10.055  0.5635  0.5692 -0.2287
 6968SOL    HW132540   0.927   0.267  10.074  0.0224  0.7694  0.3504
 6968SOL    HW232541   0.871   0.377   9.992 -1.9966  1.8223  2.9346
 6969SOL     OW32542   2.940   2.556   1.031 -0.6282 -0.4468  0.4127
 6969SOL    HW132543   2.859   2.604   1.042  1.3845  2.3604  3.0304
 6969SOL    HW232544   2.894   2.472   1.025  0.2150 -0.7494 -2.1575
 6970SOL     OW32545   0.576   0.047   2.512  0.0757  0.0336 -0.0501
 6970SOL    HW132546   0.627   0.007   2.441  0.7587 -0.3725  0.6768
 6970SOL    HW232547   0.596   4.717   2.579  0.1816 -0.4603 -0.5564
 6971SOL     OW32548   1.441   2.627   6.349  0.3776  0.0033 -0.5224
 6971SOL    HW132549   1.467   2.554   6.405  2.9197  0.9949 -0.4411
 6971SOL    HW232550   1.377   2.581   6.294  0.7272 -0.7706 -0.2865
 6972SOL     OW32551   2.150   2.538   4.455 -0.1065 -0.0987  0.7379
 6972SOL    HW132552   2.143   2.446   4.430 -2.0435  0.3332 -0.3597
 6972SOL    HW232553   2.071   2.574   4.414 -0.3554  0.2663  1.5466
 6973SOL     OW32554   3.901   2.175   8.778  0.5517 -0.4539  0.5989
 6973SOL    HW132555   3.837   2.235   8.816  2.1382  0.5008  1.7581
 6973SOL    HW232556   3.924   2.236   8.707 -0.5823 -2.1579 -1.2417
 6974SOL     OW32557   0.215   0.678   4.050 -0.5291 -0.6334 -0.5577
 6974SOL    HW132558   0.249   0.722   3.972 -1.1251 -0.5533 -0.7720
 6974SOL    HW232559   0.207   0.762   4.096 -0.1745 -1.2984  0.7202
 6975SOL     OW32560   4.592   1.614  11.753  0.2755 -0.4771 -0.3219
 6975SOL    HW132561   4.664   1.551  11.754  3.0653  2.8091  3.6006
 6975SOL    HW232562   4.573   1.626  11.659 -0.7003 -1.4704 -0.2530
 6976SOL     OW32563   1.891   0.797   6.754  0.2004 -0.5491 -0.9315
 6976SOL    HW132564   1.858   0.788   6.843  0.8828  2.3754 -0.3955
 6976SOL    HW232565   1.895   0.891   6.733  1.5894 -0.6436 -1.0694
 6977SOL     OW32566   1.846   0.515  11.056  0.1640  0.5281 -0.0395
 6977SOL    HW132567   1.781   0.580  11.031  0.0784  0.3203 -0.3567
 6977SOL    HW232568   1.878   0.540  11.143 -1.2839 -0.0057  0.6345
 6978SOL     OW32569   3.842   2.156   1.595  0.1697 -0.1539 -0.5243
 6978SOL    HW132570   3.800   2.190   1.516 -0.9554  1.9497  0.9996
 6978SOL    HW232571   3.897   2.228   1.625  1.2725  0.1138 -3.1257
 6979SOL     OW32572   0.084   3.542   1.476 -0.3242  0.4703  0.1495
 6979SOL    HW132573   0.016   3.493   1.524 -0.6095 -0.7479 -1.4969
 6979SOL    HW232574   0.048   3.526   1.389 -0.5832 -1.3850  0.5858
 6980SOL     OW32575   2.425   0.966   7.284  0.6973 -0.2544 -0.2888
 6980SOL    HW132576   2.490   1.032   7.306  0.1272  1.1004 -2.6609
 6980SOL    HW232577   2.440   0.957   7.189  1.3630  2.2278 -0.4071
 6981SOL     OW32578   1.691   2.769   5.482 -0.2477 -0.1953 -0.3007
 6981SOL    HW132579   1.648   2.720   5.553  0.8868  0.2003  0.6720
 6981SOL    HW232580   1.768   2.718   5.455  0.0633 -1.4119  2.8535
 6982SOL     OW32581   3.099   0.846  17.469  0.1020 -1.5514 -1.1202
 6982SOL    HW132582   3.158   0.772  17.485  1.7959  0.0083 -0.0136
 6982SOL    HW232583   3.108   0.852  17.374  0.5924 -0.0536 -0.9832
 6983SOL     OW32584   4.021   4.625   7.927 -0.1441  0.4041 -0.0591
 6983SOL    HW132585   4.016   4.686   7.854  0.2436 -1.0016 -1.2630
 6983SOL    HW232586   3.935   4.583   7.919 -0.9837  2.0811  0.1726
 6984SOL     OW32587   1.038   2.046   1.712  0.2954  0.1430  0.0078
 6984SOL    HW132588   1.052   2.040   1.618 -0.3242 -4.5077  0.1973
 6984SOL    HW232589   1.113   2.097   1.743  1.7502 -1.6833 -0.4934
 6985SOL     OW32590   4.060   3.058  10.734 -0.1463 -0.5145  0.4425
 6985SOL    HW132591   3.990   3.120  10.713  0.2802 -1.1136 -2.7236
 6985SOL    HW232592   4.120   3.121  10.774 -0.2044 -1.0152  1.3224
 6986SOL     OW32593   0.366   4.198   6.483 -0.5566 -0.4311 -0.4574
 6986SOL    HW132594   0.292   4.208   6.423 -1.7770 -1.6184  0.8571
 6986SOL    HW232595   0.434   4.194   6.416 -0.7620  1.5807 -0.7806
 6987SOL     OW32596   3.900   4.155   5.108  0.2337  0.1077  0.5134
 6987SOL    HW132597   3.994   4.171   5.103  0.3165 -0.1605  1.1814
 6987SOL    HW232598   3.888   4.131   5.016  0.4825  2.0066 -0.0217
 6988SOL     OW32599   3.541   3.352   2.341 -0.7670 -0.7040 -0.1456
 6988SOL    HW132600   3.601   3.285   2.310  0.9132  1.0810 -0.7373
 6988SOL    HW232601   3.593   3.415   2.391  0.2539 -1.0170 -0.8354
 6989SOL     OW32602   2.242   1.129   6.009  0.0254  0.3107 -0.1875
 6989SOL    HW132603   2.219   1.110   5.918  2.1763 -1.1451 -0.4445
 6989SOL    HW232604   2.252   1.042   6.048  2.1019  0.5030 -0.2772
 6990SOL     OW32605   2.679   2.127   8.363 -0.0343  0.8668  0.3410
 6990SOL    HW132606   2.664   2.221   8.365 -1.2664  0.6131  3.5727
 6990SOL    HW232607   2.611   2.099   8.301  1.1702  0.9127 -0.9721
 6991SOL     OW32608   0.804   2.611   2.929 -0.1900 -0.0387 -0.1847
 6991SOL    HW132609   0.769   2.672   2.864 -2.3433 -0.1840  0.8476
 6991SOL    HW232610   0.852   2.667   2.991  1.1838  0.0877 -1.3551
 6992SOL     OW32611   2.830   1.756   4.598 -0.2090 -0.3242  0.2244
 6992SOL    HW132612   2.886   1.680   4.583 -0.1506 -0.2413  0.0302
 6992SOL    HW232613   2.839   1.765   4.693  1.7288  0.1970 -0.0238
 6993SOL     OW32614   4.495   0.195   7.257 -0.2657 -0.2209 -0.2630
 6993SOL    HW132615   4.472   0.162   7.345 -0.0283 -0.2321 -0.2049
 6993SOL    HW232616   4.425   0.250   7.223 -0.9538 -0.4930  0.6794
 6994SOL     OW32617   2.656   2.873  14.385 -0.2516  0.3544  0.4567
 6994SOL    HW132618   2.671   2.949  14.329  0.7234 -2.0197 -2.4824
 6994SOL    HW232619   2.594   2.828  14.328 -0.4402 -0.7631  1.5415
 6995SOL     OW32620   2.172   0.136   8.526 -0.3765  0.1974 -0.5699
 6995SOL    HW132621   2.265   0.122   8.542 -0.0927  3.4179  0.7069
 6995SOL    HW232622   2.178   0.119   8.432  0.2146  1.7022 -0.8099
 6996SOL     OW32623   1.333   4.266   6.678 -0.3349 -0.1655  0.3368
 6996SOL    HW132624   1.393   4.339   6.692  0.5606 -0.8714  0.1856
 6996SOL    HW232625   1.320   4.267   6.584  2.0035 -1.2342  0.0073
 6997SOL     OW32626   1.513   1.403  13.727  0.1131 -0.0191  0.2973
 6997SOL    HW132627   1.515   1.377  13.819 -0.6844 -2.4659 -0.3727
 6997SOL    HW232628   1.552   1.326  13.685  1.0031  1.5325 -1.7378
 6998SOL     OW32629   0.134   2.149   3.897 -0.2771  0.3191  0.0608
 6998SOL    HW132630   0.084   2.093   3.956 -2.6485  1.7804 -0.5665
 6998SOL    HW232631   0.181   2.081   3.848 -0.4364  0.7277 -0.6570
 6999SOL     OW32632   0.630   1.669   3.210 -0.1927  0.2897  0.4706
 6999SOL    HW132633   0.590   1.706   3.289 -0.4567  1.6395 -0.2916
 6999SOL    HW232634   0.716   1.711   3.217 -0.1341  0.0786  1.0900
 7000SOL     OW32635   3.787   1.661   2.265 -0.0654 -0.3367  0.1372
 7000SOL    HW132636   3.738   1.603   2.323 -1.0576 -0.6232 -0.9996
 7000SOL    HW232637   3.870   1.675   2.311  1.3303  0.0582 -2.4891
 7001SOL     OW32638   0.305   2.492   8.498 -0.2681 -0.2091 -0.6939
 7001SOL    HW132639   0.232   2.551   8.478 -0.1325 -0.0661 -0.7587
 7001SOL    HW232640   0.342   2.467   8.413  2.0042  0.1816  0.2065
 7002SOL     OW32641   3.158   2.889   3.870 -0.2840  0.3252 -0.4795
 7002SOL    HW132642   3.229   2.836   3.833 -0.5462  1.9771 -3.2684
 7002SOL    HW232643   3.185   2.885   3.962  0.4928  1.5079 -0.6584
 7003SOL     OW32644   1.152   4.562   6.692  0.5872 -0.1486  0.0606
 7003SOL    HW132645   1.067   4.589   6.726  0.5194 -0.0453 -0.1862
 7003SOL    HW232646   1.119   4.530   6.608 -0.7040 -0.4760  0.6983
 7004SOL     OW32647   1.607   0.224   2.192  0.7235  0.0941  0.3644
 7004SOL    HW132648   1.585   0.224   2.099  0.7788 -0.3103  0.3482
 7004SOL    HW232649   1.561   0.147   2.228 -0.5626 -0.6587 -2.8527
 7005SOL     OW32650   3.391   1.635  17.400  0.0760  0.5899  0.3624
 7005SOL    HW132651   3.363   1.547  17.375  1.6139  0.1609  0.1959
 7005SOL    HW232652   3.314   1.682  17.366  1.8581  2.9428 -0.3668
 7006SOL     OW32653   1.971   1.575   7.255  0.1915 -0.0340  0.4942
 7006SOL    HW132654   2.044   1.519   7.280 -0.6804 -1.8070 -0.8697
 7006SOL    HW232655   1.912   1.501   7.240  2.2000 -1.3948 -0.8256
 7007SOL     OW32656   1.286   0.438   7.803 -0.4519 -0.6001 -0.1048
 7007SOL    HW132657   1.253   0.358   7.763 -0.5547 -1.3139  1.3935
 7007SOL    HW232658   1.364   0.399   7.844  0.2113  1.1664  0.3434
 7008SOL     OW32659   4.440   2.475   2.711  0.2902  0.0115 -0.6497
 7008SOL    HW132660   4.411   2.479   2.620 -0.9115 -1.8032 -0.3446
 7008SOL    HW232661   4.477   2.561   2.731 -1.2335 -0.1433  2.6638
 7009SOL     OW32662   2.933   1.005   3.077  0.2299  0.3017  0.2837
 7009SOL    HW132663   2.847   1.043   3.056  0.7450  0.5832 -1.3497
 7009SOL    HW232664   2.956   0.958   2.997 -0.7925  1.4191 -0.6624
 7010SOL     OW32665   4.438   3.400  11.867 -0.1207  0.2315 -0.0473
 7010SOL    HW132666   4.424   3.396  11.772 -2.3656  0.5697  0.2581
 7010SOL    HW232667   4.520   3.352  11.875 -0.2878  0.0084  0.3157
 7011SOL     OW32668   2.035   1.830   8.703 -0.1705  0.1793  0.1581
 7011SOL    HW132669   2.074   1.743   8.697  1.4229  0.8743  0.3573
 7011SOL    HW232670   2.016   1.839   8.609  2.9443 -2.2432 -0.7168
 7012SOL     OW32671   1.498   0.922   3.003  0.1921  0.4695  0.6509
 7012SOL    HW132672   1.537   0.918   3.090  0.3143  1.9844  0.6656
 7012SOL    HW232673   1.577   0.917   2.950 -0.0110 -0.5891  0.4506
 7013SOL     OW32674   2.582   3.252   4.909 -0.1439 -0.1970 -0.0926
 7013SOL    HW132675   2.667   3.296   4.918  1.0508 -2.5615  0.2727
 7013SOL    HW232676   2.552   3.230   4.997 -0.1516  1.4881  0.3163
 7014SOL     OW32677   3.767   0.729  17.690  0.1905  0.2995 -0.3575
 7014SOL    HW132678   3.719   0.689  17.618 -1.1035  1.6055 -0.2150
 7014SOL    HW232679   3.709   0.790  17.735  1.6533  1.5680 -0.1734
 7015SOL     OW32680   0.368   2.861   9.520 -0.3606 -0.3040 -0.4715
 7015SOL    HW132681   0.428   2.871   9.594 -1.3775 -0.7374  0.4239
 7015SOL    HW232682   0.427   2.812   9.463 -0.3059  3.1143 -3.3156
 7016SOL     OW32683   2.853   2.533   2.632 -0.2138  0.1053  0.1067
 7016SOL    HW132684   2.813   2.479   2.700 -2.4115 -0.2437 -1.4733
 7016SOL    HW232685   2.811   2.493   2.556  1.1750 -0.4818 -0.3587
 7017SOL     OW32686   1.176   1.416   0.583 -0.5458  0.4553 -0.4000
 7017SOL    HW132687   1.098   1.374   0.548 -0.1051 -1.6278  1.1513
 7017SOL    HW232688   1.150   1.508   0.580 -1.1450  0.3320  1.5540
 7018SOL     OW32689   0.901   3.808   2.838 -0.0226  0.6450 -0.5329
 7018SOL    HW132690   0.940   3.779   2.756  0.3463  2.3295 -0.9708
 7018SOL    HW232691   0.897   3.725   2.886  1.1251  0.3894 -0.8994
 7019SOL     OW32692   3.056   1.311   3.928  0.2720 -0.1673  0.6078
 7019SOL    HW132693   2.981   1.251   3.928  1.5863 -1.8258 -2.0277
 7019SOL    HW232694   3.069   1.310   4.023  0.4293  0.5945  0.5921
 7020SOL     OW32695   2.846   3.423   6.673 -0.3031 -0.4553 -0.0122
 7020SOL    HW132696   2.937   3.395   6.660 -0.5657 -1.3391  0.0729
 7020SOL    HW232697   2.838   3.392   6.764  1.7744  0.5710  0.5322
 7021SOL     OW32698   2.986   0.975   5.327  0.3471 -0.3645 -0.3950
 7021SOL    HW132699   3.078   0.998   5.316  0.6351 -1.9297 -1.3284
 7021SOL    HW232700   2.986   0.910   5.256  0.1799 -0.4686 -0.2988
 7022SOL     OW32701   2.579   0.817   4.802 -0.0839 -0.4844  0.0487
 7022SOL    HW132702   2.596   0.885   4.737 -0.6881 -0.6990 -0.3288
 7022SOL    HW232703   2.648   0.843   4.863  0.0461 -1.8829  0.4947
 7023SOL     OW32704   0.040   4.523  17.450 -0.5548 -0.1690  0.1065
 7023SOL    HW132705   0.135   4.528  17.437 -0.7037  0.1205 -0.8162
 7023SOL    HW232706   0.031   4.467  17.528  1.0026  0.0009  0.4137
 7024SOL     OW32707   2.517   0.344   3.157 -0.7492 -0.0879  0.3767
 7024SOL    HW132708   2.598   0.303   3.187 -0.3277  1.2574  1.0470
 7024SOL    HW232709   2.556   0.426   3.126  0.8765 -0.6205  1.0126
 7025SOL     OW32710   1.312   0.557   9.272  0.0288 -0.7200  0.3652
 7025SOL    HW132711   1.308   0.486   9.336  0.1959 -2.7621 -1.8852
 7025SOL    HW232712   1.315   0.507   9.191  0.2357  0.8230 -0.5815
 7026SOL     OW32713   2.921   0.471   0.468  0.7138 -0.2081 -0.0042
 7026SOL    HW132714   2.875   0.426   0.397 -0.5000  1.0712 -0.0368
 7026SOL    HW232715   2.899   0.425   0.549  1.2896 -1.3458 -0.4946
 7027SOL     OW32716   0.760   1.875   1.236  0.5142 -0.1456 -0.2095
 7027SOL    HW132717   0.803   1.795   1.205 -1.9693 -0.1986 -3.4615
 7027SOL    HW232718   0.788   1.936   1.168 -2.5961  1.5696  0.0489
 7028SOL     OW32719   0.355   0.315  11.717 -0.5422  0.0600  0.2409
 7028SOL    HW132720   0.382   0.280  11.802  3.0213  0.6088 -0.6768
 7028SOL    HW232721   0.323   0.240  11.666 -2.6549  1.2771 -0.2489
 7029SOL     OW32722   0.170   0.178  13.945 -0.2987 -0.4144 -0.0216
 7029SOL    HW132723   0.222   0.120  14.000 -0.2075 -0.3393 -0.0280
 7029SOL    HW232724   0.239   0.202  13.884  0.1261  0.2851  0.7325
 7030SOL     OW32725   1.144   4.004  12.633  0.1904  0.7922  0.8943
 7030SOL    HW132726   1.194   4.070  12.585 -0.7250  0.8227 -0.0153
 7030SOL    HW232727   1.205   3.930  12.631  1.8956  2.1495  2.3874
 7031SOL     OW32728   4.693   0.550   9.826  0.0305 -0.7995  0.4258
 7031SOL    HW132729   4.717   0.576   9.737 -1.5737 -0.5265  0.0657
 7031SOL    HW232730   4.697   0.635   9.870  0.2765 -1.4796  1.7017
 7032SOL     OW32731   3.547   2.089   4.710  0.0014 -0.3428  0.5476
 7032SOL    HW132732   3.592   2.039   4.641  0.5699  0.8130  0.0918
 7032SOL    HW232733   3.557   2.178   4.678 -2.0522  0.6031  2.5896
 7033SOL     OW32734   4.163   1.618   5.871  0.3199  0.5526 -0.2958
 7033SOL    HW132735   4.088   1.645   5.924 -0.0274 -0.3475 -0.3145
 7033SOL    HW232736   4.155   1.523   5.886 -0.0732  0.4783 -0.9883
 7034SOL     OW32737   2.132   2.945   8.151  0.3865 -0.3298  0.4921
 7034SOL    HW132738   2.227   2.935   8.150  0.5049  0.6648  1.6509
 7034SOL    HW232739   2.121   3.040   8.159  3.6143 -0.1574  3.1167
 7035SOL     OW32740   0.267   0.043   9.218 -0.5427  0.0874 -0.1921
 7035SOL    HW132741   0.258   0.102   9.143 -1.9141  2.0427  1.4993
 7035SOL    HW232742   0.230   0.100   9.286  0.0422 -1.2437  1.2476
 7036SOL     OW32743   0.757   1.205   8.574  0.0167 -0.0093 -0.4717
 7036SOL    HW132744   0.766   1.110   8.574 -1.6431 -0.1689  2.3129
 7036SOL    HW232745   0.691   1.217   8.506  0.4705 -0.1595 -0.9409
 7037SOL     OW32746   3.392   2.364  10.221  0.1319 -0.2317  0.3818
 7037SOL    HW132747   3.419   2.450  10.254 -1.1314  0.3281 -0.0367
 7037SOL    HW232748   3.398   2.372  10.126 -0.6752 -2.3378  0.1611
 7038SOL     OW32749   2.272   1.681   2.145 -0.5435 -0.1278 -0.3039
 7038SOL    HW132750   2.255   1.663   2.238  2.1153  1.0062  0.3787
 7038SOL    HW232751   2.365   1.700   2.143 -0.3371 -1.1571 -0.5570
 7039SOL     OW32752   2.825   1.089   6.851 -0.3493  0.4737 -0.5359
 7039SOL    HW132753   2.916   1.061   6.842 -0.7453 -0.3674 -2.0052
 7039SOL    HW232754   2.837   1.153   6.921 -1.3585 -0.0525  0.1160
 7040SOL     OW32755   1.883   2.063   8.405 -0.6583 -0.4413  0.6210
 7040SOL    HW132756   1.886   2.148   8.360 -0.8567  0.3675  2.1152
 7040SOL    HW232757   1.799   2.072   8.450 -0.6083  0.8635  0.4677
 7041SOL     OW32758   1.610   4.036   4.476  0.2339  0.1028  0.4086
 7041SOL    HW132759   1.641   4.122   4.448 -0.1634 -0.3317 -1.3585
 7041SOL    HW232760   1.694   3.991   4.465 -0.0457 -0.2791 -0.1387
 7042SOL     OW32761   4.152   3.228   7.630  0.0421 -0.0847 -0.1611
 7042SOL    HW132762   4.134   3.167   7.702 -1.3737  0.0761 -0.3707
 7042SOL    HW232763   4.069   3.231   7.582 -0.9834 -2.0272  1.4920
 7043SOL     OW32764   1.031   2.518   7.612 -0.0605  0.2244 -0.3907
 7043SOL    HW132765   1.062   2.464   7.539  2.5898  1.1115  0.0678
 7043SOL    HW232766   1.110   2.568   7.633  1.0860 -1.9709  0.4713
 7044SOL     OW32767   3.639   2.838  12.466  0.2971  0.0055  0.0399
 7044SOL    HW132768   3.720   2.787  12.459  0.5327  0.2596  0.9620
 7044SOL    HW232769   3.615   2.845  12.558 -1.3871 -0.1354 -0.3796
 7045SOL     OW32770   1.582   0.111   2.665  0.2545 -0.3704 -0.3755
 7045SOL    HW132771   1.514   0.052   2.631 -0.8295 -0.2351  1.5351
 7045SOL    HW232772   1.554   0.112   2.757  1.3642 -1.4654 -0.0138
 7046SOL     OW32773   0.572   4.131   2.189  0.0824 -0.3160  0.3266
 7046SOL    HW132774   0.626   4.103   2.116 -1.1699  0.6636 -0.9832
 7046SOL    HW232775   0.517   4.055   2.207 -1.1115  1.0031  2.2976
 7047SOL     OW32776   3.375   0.697   7.144  0.2060 -0.4193  0.1607
 7047SOL    HW132777   3.433   0.767   7.114  2.0320 -1.4300  1.3463
 7047SOL    HW232778   3.401   0.687   7.236 -0.3547 -0.5962  0.3001
 7048SOL     OW32779   0.320   1.149   5.373 -0.1866  0.3680 -0.4713
 7048SOL    HW132780   0.289   1.215   5.311 -3.4207 -1.5782 -0.9519
 7048SOL    HW232781   0.331   1.195   5.456  1.4215 -1.2252  0.1908
 7049SOL     OW32782   3.459   0.617   8.869  0.5244  0.1371  0.7289
 7049SOL    HW132783   3.477   0.576   8.953 -0.2396 -3.3327 -0.7955
 7049SOL    HW232784   3.464   0.707   8.900  1.1752  0.1501  0.5802
 7050SOL     OW32785   4.528   0.629   0.376  0.8201  0.0223  0.2504
 7050SOL    HW132786   4.581   0.666   0.447  4.0467 -0.1287 -2.0770
 7050SOL    HW232787   4.597   0.585   0.327 -1.4249 -1.8030 -1.2767
 7051SOL     OW32788   0.978   1.404   8.551  0.2634  0.8532  0.2827
 7051SOL    HW132789   0.957   1.428   8.641 -1.0604 -1.8402  0.6892
 7051SOL    HW232790   0.919   1.331   8.533 -1.2783  1.7499  1.6786
 7052SOL     OW32791   3.625   0.022   4.934  0.1778 -0.4466  0.5673
 7052SOL    HW132792   3.715   0.041   4.960  0.1734 -0.5842  0.6835
 7052SOL    HW232793   3.616   4.664   4.953 -0.3178 -0.5058  0.0512
 7053SOL     OW32794   4.470   3.257  16.843  0.4064 -0.5956  0.2240
 7053SOL    HW132795   4.400   3.192  16.842 -1.0432  0.9443  1.9128
 7053SOL    HW232796   4.540   3.216  16.793  0.8898 -0.8987  1.1412
 7054SOL     OW32797   1.025   2.267   1.036 -0.7038 -0.5109 -0.8932
 7054SOL    HW132798   0.960   2.282   1.104 -0.3584 -0.7268 -0.5180
 7054SOL    HW232799   1.055   2.358   1.033 -2.4960  0.0507 -1.8416
 7055SOL     OW32800   4.682   1.818   1.683  0.2057 -0.7378 -0.1728
 7055SOL    HW132801   4.674   1.754   1.613  2.8347 -2.8703  1.4619
 7055SOL    HW232802   4.592   1.849   1.694  0.0278 -1.3486  0.0542
 7056SOL     OW32803   0.714   0.278  13.062 -0.3038  0.4040 -0.8048
 7056SOL    HW132804   0.677   0.211  13.118 -1.5942  0.9877 -0.9589
 7056SOL    HW232805   0.725   0.227  12.982  0.0973 -2.6777  1.2273
 7057SOL     OW32806   4.490   0.122  15.584 -0.4203  0.1509 -0.0124
 7057SOL    HW132807   4.400   0.104  15.613  0.9401 -2.7890  2.4075
 7057SOL    HW232808   4.470   0.198  15.530  2.5819  1.2376  0.4662
 7058SOL     OW32809   1.071   4.222  10.877  0.3799 -0.6174  0.5024
 7058SOL    HW132810   1.058   4.238  10.783  0.4294  0.1292  0.6289
 7058SOL    HW232811   1.157   4.181  10.883  1.5963  2.0847  1.0923
 7059SOL     OW32812   0.084   4.507   1.185  0.4021 -0.6708  0.4361
 7059SOL    HW132813   4.727   4.531   1.184  0.1623 -1.5999  0.6784
 7059SOL    HW232814   0.119   4.587   1.225  1.2112 -0.2310 -1.1397
 7060SOL     OW32815   4.195   4.220  14.464 -0.4654 -0.0553 -0.3321
 7060SOL    HW132816   4.172   4.152  14.401  1.8841  0.1369 -1.4300
 7060SOL    HW232817   4.253   4.177  14.527 -1.8707 -0.8114  0.4387
 7061SOL     OW32818   3.262   1.762   2.858 -0.0087  0.0090 -0.4401
 7061SOL    HW132819   3.296   1.675   2.879 -0.0448  0.3275  0.9628
 7061SOL    HW232820   3.287   1.772   2.766 -1.2286  2.1831 -0.5461
 7062SOL     OW32821   2.884   3.039   9.499  0.4159 -0.2939  0.0075
 7062SOL    HW132822   2.894   2.989   9.580 -1.1100  1.9247  1.5460
 7062SOL    HW232823   2.790   3.044   9.483  0.4385  1.2298  0.3606
 7063SOL     OW32824   3.342   0.607   3.365  0.1069 -0.6418  0.0701
 7063SOL    HW132825   3.252   0.639   3.362  0.0812 -0.8815 -1.6300
 7063SOL    HW232826   3.346   0.557   3.283  0.6762 -1.5374  0.6449
 7064SOL     OW32827   0.480   0.387  17.592  0.3068  0.1990 -0.1196
 7064SOL    HW132828   0.444   0.418  17.509 -1.5035 -0.8497  0.2744
 7064SOL    HW232829   0.512   0.303  17.560 -1.2443 -0.2055 -0.5966
 7065SOL     OW32830   3.755   1.053  10.422  0.0744  0.1558 -0.1711
 7065SOL    HW132831   3.727   1.023  10.509 -1.3000  1.0391 -0.3083
 7065SOL    HW232832   3.789   1.141  10.437  1.8362 -0.9584  2.3698
 7066SOL     OW32833   1.835   3.194   0.774  0.7308  0.4889  0.3002
 7066SOL    HW132834   1.920   3.237   0.780  1.6922 -1.0826 -2.0259
 7066SOL    HW232835   1.779   3.261   0.735  2.7810  1.5675 -0.7794
 7067SOL     OW32836   4.502   1.632   8.856  0.2276 -0.1288  0.6081
 7067SOL    HW132837   4.435   1.615   8.789  2.1401 -0.6935 -1.1643
 7067SOL    HW232838   4.554   1.553   8.842  0.5940  0.2314 -0.0682
 7068SOL     OW32839   4.026   2.369   4.032 -0.3728  0.3340  0.4435
 7068SOL    HW132840   4.081   2.433   3.987 -0.5178  0.4102  0.3729
 7068SOL    HW232841   4.083   2.292   4.026  1.0071  1.4325 -0.5760
 7069SOL     OW32842   4.009   3.812  13.675 -0.2510 -0.1301 -0.3919
 7069SOL    HW132843   3.943   3.747  13.699  0.4777 -0.5398  0.4804
 7069SOL    HW232844   4.064   3.820  13.752  0.8358  1.1150 -1.2851
 7070SOL     OW32845   4.591   4.651   8.819 -0.3835  0.2815  0.0268
 7070SOL    HW132846   4.664   4.667   8.759 -2.3940  4.3905 -1.3554
 7070SOL    HW232847   4.554   0.003   8.828 -0.8245  0.0071  0.7876
 7071SOL     OW32848   1.587   2.524   8.363  0.3340 -0.2037 -0.6868
 7071SOL    HW132849   1.531   2.601   8.373 -0.0556 -0.8450  1.9940
 7071SOL    HW232850   1.569   2.468   8.439 -0.1349  0.8425 -0.0233
 7072SOL     OW32851   3.188   4.305   9.690  0.1815  0.0564  0.0432
 7072SOL    HW132852   3.211   4.230   9.635  0.1851 -1.1346  1.6682
 7072SOL    HW232853   3.260   4.301   9.753 -1.1823 -0.7073  1.5525
 7073SOL     OW32854   4.334   0.888   7.645 -0.4031 -0.9806  0.1503
 7073SOL    HW132855   4.324   0.815   7.707  1.0423  0.3907  1.9837
 7073SOL    HW232856   4.424   0.913   7.666  0.2859 -0.5427 -3.3840
 7074SOL     OW32857   0.080   2.017   5.155 -0.3942  0.1913  0.9069
 7074SOL    HW132858   0.044   1.983   5.238 -2.6155  2.1277  0.7251
 7074SOL    HW232859   0.058   2.110   5.155  2.1373  0.7682 -0.8677
 7075SOL     OW32860   4.037   1.424   7.355 -0.0246 -0.0974 -0.0186
 7075SOL    HW132861   3.943   1.404   7.354 -0.2311  0.7215  1.9604
 7075SOL    HW232862   4.054   1.461   7.442 -1.6377  1.6561 -0.4465
 7076SOL     OW32863   1.385   1.408  15.307  0.2507  0.4872  0.2885
 7076SOL    HW132864   1.478   1.416  15.329  0.4437 -1.2998  0.1214
 7076SOL    HW232865   1.362   1.414  15.400 -1.6873 -0.8771 -0.1004
 7077SOL     OW32866   0.255   4.636   4.231  0.2276  0.4296 -0.0365
 7077SOL    HW132867   0.186   4.614   4.169  0.9255  0.7495 -0.9336
 7077SOL    HW232868   0.328   4.591   4.188 -2.4801 -0.7342 -3.4200
 7078SOL     OW32869   3.466   4.470   0.544 -0.1914 -0.2675  0.1782
 7078SOL    HW132870   3.412   4.398   0.578 -0.4062  0.0742  0.5627
 7078SOL    HW232871   3.453   4.533   0.615 -1.4394  2.3929 -2.4166
 7079SOL     OW32872   2.368   3.576  15.688 -0.7129  0.1681 -0.0930
 7079SOL    HW132873   2.332   3.488  15.674 -2.6961  1.2453 -1.7400
 7079SOL    HW232874   2.293   3.629  15.664 -0.7195 -0.3578 -1.2738
 7080SOL     OW32875   4.673   3.409   9.294  0.0628 -0.0349  0.3199
 7080SOL    HW132876   4.600   3.349   9.280 -1.5980  2.4872 -1.9057
 7080SOL    HW232877   4.681   3.442   9.204 -2.7801  0.6016  0.2981
 7081SOL     OW32878   4.637   0.580  11.791 -0.2575  0.4042  0.3595
 7081SOL    HW132879   4.728   0.550  11.788 -0.0767  1.1064 -1.1304
 7081SOL    HW232880   4.629   0.591  11.886  0.0705 -1.2236  0.5832
 7082SOL     OW32881   3.484   3.776   8.336  0.5354  0.1632 -0.8605
 7082SOL    HW132882   3.497   3.869   8.355 -0.4936  0.4405 -1.5081
 7082SOL    HW232883   3.429   3.751   8.411 -0.4338 -0.1863 -1.6838
 7083SOL     OW32884   1.344   0.457  11.142 -0.2430  0.5594  0.1066
 7083SOL    HW132885   1.372   0.405  11.066  0.5473 -0.3924  1.0448
 7083SOL    HW232886   1.317   0.537  11.096 -1.5807  1.6126  2.7728
 7084SOL     OW32887   4.382   2.958   8.418 -0.3038  0.6789  0.1066
 7084SOL    HW132888   4.318   2.940   8.348  0.5568 -0.8531 -0.3013
 7084SOL    HW232889   4.320   3.008   8.471 -1.8267 -0.2891 -0.7580
 7085SOL     OW32890   2.484   0.329   9.480 -0.2504  0.5233 -0.4161
 7085SOL    HW132891   2.406   0.367   9.520  0.0773 -0.5054  1.1829
 7085SOL    HW232892   2.529   0.301   9.559 -0.9867  0.8027  0.1071
 7086SOL     OW32893   3.694   2.668   7.596  0.1296  0.6210 -0.0130
 7086SOL    HW132894   3.738   2.592   7.558  1.1590  2.3124 -2.2647
 7086SOL    HW232895   3.612   2.626   7.620  0.2319  0.1889 -0.4235
 7087SOL     OW32896   3.256   0.632   6.531  0.5986 -0.0621 -0.3095
 7087SOL    HW132897   3.333   0.687   6.545 -0.0707  0.7185  0.3478
 7087SOL    HW232898   3.245   0.610   6.624 -1.5649  0.5566 -0.4206
 7088SOL     OW32899   1.788   3.195   7.955 -0.3608  0.2103  0.0107
 7088SOL    HW132900   1.747   3.281   7.942  1.6465  0.7656 -2.7000
 7088SOL    HW232901   1.733   3.166   8.027 -2.6638  0.4642 -1.6426
 7089SOL     OW32902   0.273   1.475   1.358 -1.3179 -0.5226 -0.6675
 7089SOL    HW132903   0.332   1.462   1.285 -0.2089 -1.0864  0.3407
 7089SOL    HW232904   0.188   1.453   1.319 -1.3737 -3.8395  1.3302
 7090SOL     OW32905   1.918   0.902   0.433  0.1101 -0.0596 -0.2078
 7090SOL    HW132906   1.826   0.877   0.423  0.4877 -1.9891  1.2846
 7090SOL    HW232907   1.937   0.866   0.520  2.2993  0.4111 -0.4907
 7091SOL     OW32908   3.746   0.122   6.990  0.0168 -0.2645  0.0237
 7091SOL    HW132909   3.701   0.045   6.954 -0.5960  0.2762 -0.3784
 7091SOL    HW232910   3.740   0.120   7.085  1.8361 -2.8232  0.0730
 7092SOL     OW32911   0.893   1.985  16.082  0.0745 -0.7420 -0.0575
 7092SOL    HW132912   0.912   2.050  16.014  0.7322 -1.2728 -0.3883
 7092SOL    HW232913   0.970   2.000  16.137  0.9285 -2.0675 -0.8873
 7093SOL     OW32914   0.408   3.954   5.544  0.1005 -0.4405 -0.2640
 7093SOL    HW132915   0.398   4.047   5.522  0.9165 -0.6897 -1.6928
 7093SOL    HW232916   0.413   3.941   5.638  0.2071  1.6495  0.0335
 7094SOL     OW32917   1.804   3.086  12.060 -0.1586  0.1336 -0.5232
 7094SOL    HW132918   1.743   3.081  11.986 -1.5353  1.1758  0.5353
 7094SOL    HW232919   1.884   3.077  12.009  0.2139 -0.7329  0.2035
 7095SOL     OW32920   4.459   2.626  10.251  0.2360  0.3522 -0.2197
 7095SOL    HW132921   4.365   2.634  10.262  0.2770  0.5082  0.0230
 7095SOL    HW232922   4.483   2.712  10.287  1.0380  0.4030 -0.8757
 7096SOL     OW32923   1.192   3.370  10.466 -0.1486 -0.0533  0.3045
 7096SOL    HW132924   1.174   3.375  10.560  2.1921 -1.4493  0.8186
 7096SOL    HW232925   1.275   3.323  10.459 -0.8620 -1.5504  1.8570
 7097SOL     OW32926   2.851   2.380  11.131 -0.2168 -0.2164  0.2425
 7097SOL    HW132927   2.917   2.409  11.069  0.2433 -0.7787  0.4712
 7097SOL    HW232928   2.795   2.458  11.142 -0.0288 -0.0579  0.0712
 7098SOL     OW32929   4.538   0.294   2.882 -0.1078  0.1650  0.3142
 7098SOL    HW132930   4.591   0.318   2.806 -0.4998  1.4203  0.4303
 7098SOL    HW232931   4.494   0.377   2.900  1.8849  0.9734  1.4943
 7099SOL     OW32932   0.888   0.194   3.990  0.1185 -0.0454 -0.2553
 7099SOL    HW132933   0.834   0.165   3.916 -0.7119 -0.8941  0.6748
 7099SOL    HW232934   0.911   0.282   3.962 -1.2173  0.0173 -1.1331
 7100SOL     OW32935   2.780   1.742   9.270 -0.2580  0.0097  0.3190
 7100SOL    HW132936   2.841   1.742   9.197  0.0426  1.1943  0.5780
 7100SOL    HW232937   2.778   1.647   9.281  2.1236 -0.1952 -1.2543
 7101SOL     OW32938   1.621   0.734   8.337  0.1522  0.5612 -0.1001
 7101SOL    HW132939   1.636   0.734   8.243 -1.7274 -2.2880 -0.3847
 7101SOL    HW232940   1.526   0.746   8.339  0.0521 -0.1249 -1.1636
 7102SOL     OW32941   4.661   1.783   3.507 -0.2519 -0.0806  0.0047
 7102SOL    HW132942   4.714   1.848   3.460 -0.4395  0.3190  0.3409
 7102SOL    HW232943   4.601   1.763   3.435  0.4127  1.0270 -0.8756
 7103SOL     OW32944   4.054   4.690  13.081  0.3029  0.3559 -0.2859
 7103SOL    HW132945   4.066   4.671  13.174 -1.6526  2.0774  0.3323
 7103SOL    HW232946   4.048   0.050  13.089  2.6313  0.3910  0.8519
 7104SOL     OW32947   0.261   0.131   4.879  0.8990 -0.1686 -0.5581
 7104SOL    HW132948   0.206   0.112   4.803 -0.6224  0.1565  0.4673
 7104SOL    HW232949   0.216   0.083   4.949 -1.8135  0.2512 -2.0588
 7105SOL     OW32950   0.643   3.427   7.887  0.0759 -0.1739 -0.2563
 7105SOL    HW132951   0.623   3.514   7.921  2.2225 -1.2198  3.6269
 7105SOL    HW232952   0.572   3.408   7.825  2.0145  0.1998 -2.5886
 7106SOL     OW32953   0.238   3.054   7.191  0.5582 -0.2725 -0.0635
 7106SOL    HW132954   0.284   3.138   7.183  0.3518 -0.3903 -2.7823
 7106SOL    HW232955   0.311   2.995   7.207  0.8139 -0.6082 -2.3639
 7107SOL     OW32956   0.554   1.238   6.947 -0.7254 -0.5548  0.4554
 7107SOL    HW132957   0.565   1.324   6.905 -0.5161 -2.4179 -3.2788
 7107SOL    HW232958   0.641   1.204   6.927 -0.4109  0.2984  0.3344
 7108SOL     OW32959   1.484   1.868   5.667  0.0094 -0.2796  0.4656
 7108SOL    HW132960   1.480   1.884   5.761 -2.5931 -0.6781  0.4032
 7108SOL    HW232961   1.522   1.780   5.663  0.5048 -0.0434 -0.0747
 7109SOL     OW32962   1.743   2.772   2.210 -0.0550  0.7207 -0.2060
 7109SOL    HW132963   1.800   2.797   2.137  0.4752 -1.2645 -0.4717
 7109SOL    HW232964   1.725   2.689   2.165 -2.7195  2.7410 -2.8623
 7110SOL     OW32965   2.509   2.056   1.338  0.1022 -0.0938  0.2463
 7110SOL    HW132966   2.573   1.986   1.352 -1.3830 -1.1195  1.9245
 7110SOL    HW232967   2.427   2.006   1.331 -0.4757  0.8090  0.4957
 7111SOL     OW32968   1.006   1.949   6.243  0.1123 -0.3269 -0.2637
 7111SOL    HW132969   0.916   1.919   6.252  0.3311 -1.0554 -0.5709
 7111SOL    HW232970   1.014   2.011   6.316  3.1197  1.2058 -1.9057
 7112SOL     OW32971   0.087   1.105  15.194  0.2073  0.1405  0.0294
 7112SOL    HW132972   0.140   1.056  15.256  0.9929  0.4438 -0.4074
 7112SOL    HW232973   0.155   1.126  15.130 -0.4121 -0.6712 -0.8843
 7113SOL     OW32974   1.590   0.042   3.417 -0.4816 -0.2284  0.0053
 7113SOL    HW132975   1.548   0.046   3.331 -1.6531  2.3860  0.6852
 7113SOL    HW232976   1.637   0.125   3.425  1.5256 -1.2876 -0.9682
 7114SOL     OW32977   1.878   2.869   2.441  0.0703  0.2838  0.0759
 7114SOL    HW132978   1.822   2.922   2.498 -2.5137  0.5723 -2.7350
 7114SOL    HW232979   1.847   2.890   2.354  1.6045 -1.1052 -0.8059
 7115SOL     OW32980   3.048   3.003   4.424  0.3092 -0.1100  0.1094
 7115SOL    HW132981   2.991   2.997   4.501  1.4397  0.4257  0.9882
 7115SOL    HW232982   3.031   3.088   4.382 -2.2589 -0.3567  0.6355
 7116SOL     OW32983   4.572   2.433   1.946 -0.7683  0.1182  0.0887
 7116SOL    HW132984   4.613   2.456   1.863  1.9002  0.1648  1.4202
 7116SOL    HW232985   4.625   2.355   1.964 -2.2062 -0.8063  0.3184
 7117SOL     OW32986   0.882   2.116   5.087  0.1123 -0.2775 -0.2802
 7117SOL    HW132987   0.919   2.195   5.127  0.8920 -0.1576 -1.2372
 7117SOL    HW232988   0.945   2.102   5.016  0.4676 -1.2948  0.2307
 7118SOL     OW32989   0.269   3.664   1.619  0.0734  0.0176  0.0269
 7118SOL    HW132990   0.225   3.649   1.535  0.6628  2.5830 -0.7186
 7118SOL    HW232991   0.251   3.580   1.662 -3.9888  1.3262  0.8739
 7119SOL     OW32992   0.478   3.272  16.435 -0.3666 -0.3863  0.5575
 7119SOL    HW132993   0.558   3.324  16.423 -1.3279  1.4985  2.2899
 7119SOL    HW232994   0.511   3.198  16.384  1.8008  1.6406 -0.9382
 7120SOL     OW32995   3.142   4.262   7.068 -0.4246  0.3484  0.2653
 7120SOL    HW132996   3.187   4.315   7.134 -0.5965 -0.5116  1.0684
 7120SOL    HW232997   3.048   4.258   7.084 -0.1525  3.0154  2.4734
 7121SOL     OW32998   3.034   4.010   5.153  0.3962  0.2500  0.1086
 7121SOL    HW132999   3.092   3.938   5.177 -0.7017 -1.2416 -1.7841
 7121SOL    HW233000   2.980   3.982   5.079 -0.3745  1.6489  0.1324
 7122SOL     OW33001   2.752   4.081  16.097  0.1473 -0.0535 -0.1942
 7122SOL    HW133002   2.696   4.009  16.127  1.1486 -0.9814 -0.5426
 7122SOL    HW233003   2.839   4.044  16.107  0.0825  0.0839  0.8963
 7123SOL     OW33004   0.316   4.193  11.701 -0.3176  0.5461 -0.5264
 7123SOL    HW133005   0.249   4.135  11.737  0.9403 -1.8779 -2.1317
 7123SOL    HW233006   0.279   4.205  11.614 -3.6635 -2.0447  0.5452
 7124SOL     OW33007   2.509   3.158   6.160 -0.6195  0.1643  0.0143
 7124SOL    HW133008   2.525   3.071   6.196 -2.1066 -1.0004 -2.0854
 7124SOL    HW233009   2.417   3.171   6.182 -0.4726 -0.8453  1.2411
 7125SOL     OW33010   2.536   0.737  14.927 -0.1972  0.2483  0.3865
 7125SOL    HW133011   2.447   0.761  14.952  0.3726  1.9390  0.7856
 7125SOL    HW233012   2.561   0.795  14.855 -0.1042  0.1629  0.3492
 7126SOL     OW33013   0.137   2.639   3.096  0.6824  0.0011  0.3040
 7126SOL    HW133014   0.121   2.552   3.060 -0.0303  0.3387 -0.2125
 7126SOL    HW233015   0.171   2.625   3.184  1.5565 -0.8079 -0.1659
 7127SOL     OW33016   1.264   4.654  17.513  0.0305 -0.0613 -0.5190
 7127SOL    HW133017   1.336   4.617  17.563 -1.3545  1.2670  2.4662
 7127SOL    HW233018   1.309   4.729  17.474 -0.7243  1.4324  1.4559
 7128SOL     OW33019   4.009   3.657   7.426 -0.2254  0.7774  0.3925
 7128SOL    HW133020   4.033   3.597   7.355 -0.2804  0.0930  0.9410
 7128SOL    HW233021   4.075   3.726   7.420  0.2454  0.1564 -1.4785
 7129SOL     OW33022   1.445   2.127   4.460 -0.2602 -0.0374 -0.4073
 7129SOL    HW133023   1.499   2.051   4.438  0.3126  1.4527 -4.0428
 7129SOL    HW233024   1.406   2.148   4.375  0.1061  0.1485 -0.5259
 7130SOL     OW33025   0.024   4.069   8.081  0.1201  0.4002 -0.2079
 7130SOL    HW133026   4.687   4.056   8.143 -0.7584  0.7842 -1.1370
 7130SOL    HW233027   4.730   4.031   7.998  0.7738 -2.0413  0.6735
 7131SOL     OW33028   0.009   4.718   2.166 -0.3492  0.0012 -0.5200
 7131SOL    HW133029   4.698   4.643   2.203  0.7781 -1.4698 -2.0966
 7131SOL    HW233030   0.062   4.688   2.092  0.8873 -0.3467  0.5018
 7132SOL     OW33031   2.048   0.030   6.076 -0.9000 -0.2858 -0.0725
 7132SOL    HW133032   2.113   0.100   6.073 -1.7156  0.4504 -0.6430
 7132SOL    HW233033   1.969   0.077   6.105 -1.9588 -2.3117  0.3157
 7133SOL     OW33034   3.719   2.372   7.835 -0.4797  0.0370  0.4369
 7133SOL    HW133035   3.746   2.293   7.787 -0.8330  0.4913 -0.5170
 7133SOL    HW233036   3.658   2.398   7.766  0.9608 -2.8612 -1.8979
 7134SOL     OW33037   2.417   1.904  13.460 -0.1438  0.5192  0.1801
 7134SOL    HW133038   2.438   1.951  13.541 -0.0651 -1.1748  1.1546
 7134SOL    HW233039   2.504   1.890  13.423 -0.6682 -4.1805  0.6229
 7135SOL     OW33040   2.927   2.628   6.938  0.2797 -0.3549  0.0035
 7135SOL    HW133041   2.953   2.598   6.851 -1.4438 -2.0778  0.1006
 7135SOL    HW233042   2.911   2.543   6.979  1.4038  0.6635  2.5520
 7136SOL     OW33043   4.639   3.686   7.994 -0.3790 -0.5868 -0.0552
 7136SOL    HW133044   4.667   3.768   7.954 -0.7410 -0.7721 -0.6790
 7136SOL    HW233045   4.567   3.717   8.050  0.4600  0.5599  0.4022
 7137SOL     OW33046   3.155   4.703  10.776 -0.6497  0.0388  0.1696
 7137SOL    HW133047   3.084   4.707  10.840 -1.7411 -1.3653 -0.9591
 7137SOL    HW233048   3.150   4.609  10.759  3.6835  0.0070 -0.8987
 7138SOL     OW33049   2.967   3.903   5.994  0.1512  0.5011 -0.0293
 7138SOL    HW133050   3.042   3.945   6.036  0.4774  0.2282 -0.3376
 7138SOL    HW233051   2.975   3.809   6.010  3.0508  0.4874 -1.5946
 7139SOL     OW33052   2.477   3.910   3.681 -0.0821 -0.2130  0.9783
 7139SOL    HW133053   2.518   3.940   3.600  0.1283 -1.8897  0.4639
 7139SOL    HW233054   2.466   3.984   3.741 -0.1282  1.6856 -1.3879
 7140SOL     OW33055   3.272   4.563   9.639  0.2061 -0.3524  0.1777
 7140SOL    HW133056   3.203   4.497   9.644  0.2968 -0.5074 -0.7321
 7140SOL    HW233057   3.342   4.503   9.611 -1.3686 -1.9946 -0.2177
 7141SOL     OW33058   3.747   1.128   2.378 -0.1128 -0.0933  0.0287
 7141SOL    HW133059   3.655   1.141   2.352  0.0107  0.9804  0.1539
 7141SOL    HW233060   3.780   1.213   2.349  0.9854 -1.4125 -2.5308
 7142SOL     OW33061   1.576   2.915  15.748  0.2932  0.2451 -0.5847
 7142SOL    HW133062   1.655   2.966  15.764 -0.5069  1.3397 -0.1084
 7142SOL    HW233063   1.514   2.943  15.815 -0.1668  0.6842 -1.1876
 7143SOL     OW33064   1.851   2.291   7.878 -0.2991 -0.0001  0.0240
 7143SOL    HW133065   1.909   2.365   7.896  1.4871 -1.3562 -0.1505
 7143SOL    HW233066   1.919   2.227   7.859  1.1015  1.1943  0.9925
 7144SOL     OW33067   0.985   3.696  17.560  0.2263  0.1096  0.1722
 7144SOL    HW133068   1.003   3.618  17.613 -1.0003 -1.2320 -1.3591
 7144SOL    HW233069   0.920   3.734  17.618 -1.1686  0.1913 -1.4290
 7145SOL     OW33070   1.161   0.241  11.490 -0.3247  0.6438 -0.7047
 7145SOL    HW133071   1.234   0.252  11.551 -1.3151  0.3843  0.5242
 7145SOL    HW233072   1.192   0.162  11.445  0.4314  0.8769 -0.6014
 7146SOL     OW33073   2.091   3.000  16.603 -0.0298 -1.0253  0.5696
 7146SOL    HW133074   2.151   2.944  16.652  1.2751  0.4381  0.6444
 7146SOL    HW233075   2.144   3.067  16.560 -1.2229  0.4100  1.3216
 7147SOL     OW33076   3.885   4.714   6.317  0.2991  0.5005 -0.0140
 7147SOL    HW133077   3.975   4.704   6.284  0.4447 -0.2758  0.6153
 7147SOL    HW233078   3.837   4.659   6.255  1.0277  0.0242 -0.1517
 7148SOL     OW33079   2.649   1.591  12.102  0.0635  0.0813 -0.1760
 7148SOL    HW133080   2.616   1.650  12.034  1.6066  0.5843 -0.4965
 7148SOL    HW233081   2.701   1.652  12.154 -0.1122 -0.9378  1.1846
 7149SOL     OW33082   0.919   1.793  11.627 -0.3955 -0.1237  0.4087
 7149SOL    HW133083   0.914   1.857  11.556  1.3860 -0.5897 -0.1536
 7149SOL    HW233084   0.855   1.834  11.684  1.4323  0.0285  2.3479
 7150SOL     OW33085   3.257   2.999   0.988  0.4748  0.2377  0.2989
 7150SOL    HW133086   3.334   3.012   0.933 -0.3677  1.0014 -0.7068
 7150SOL    HW233087   3.249   3.088   1.024 -0.9040 -0.1300  0.8988
 7151SOL     OW33088   1.711   3.104   6.402  0.6976  0.3852  0.2103
 7151SOL    HW133089   1.784   3.045   6.422 -0.1644 -0.1056  1.9442
 7151SOL    HW233090   1.662   3.050   6.340 -0.6900  1.0240  0.7672
 7152SOL     OW33091   1.481   3.937   7.975 -0.0076 -0.2270  0.2291
 7152SOL    HW133092   1.419   3.974   8.037 -0.0176  0.0339  0.0612
 7152SOL    HW233093   1.431   3.940   7.894 -2.0517  1.8496  1.5718
 7153SOL     OW33094   3.645   3.120   2.538 -0.1092 -0.2282 -0.2219
 7153SOL    HW133095   3.700   3.068   2.479  1.0869  1.4308 -0.5748
 7153SOL    HW233096   3.718   3.161   2.585  0.1305 -0.2128 -0.6087
 7154SOL     OW33097   2.580   0.019   8.813 -0.0072  0.0939  0.3073
 7154SOL    HW133098   2.582   0.050   8.723 -4.7874  0.7591  0.4607
 7154SOL    HW233099   2.543   0.099   8.850  0.0774  0.8127 -1.1589
 7155SOL     OW33100   3.897   2.728  12.528 -0.5584 -0.5325  0.4758
 7155SOL    HW133101   3.965   2.667  12.501  0.2946  0.8923 -0.5834
 7155SOL    HW233102   3.940   2.769  12.603 -0.2360  2.3588 -1.2789
 7156SOL     OW33103   3.446   0.159   6.015  0.0246 -0.6478 -0.4331
 7156SOL    HW133104   3.443   0.212   6.095 -2.3080  0.7853 -1.4336
 7156SOL    HW233105   3.354   0.131   6.006 -0.1532  0.1452 -1.0780
 7157SOL     OW33106   4.649   3.350  13.209 -0.1688 -0.2776  0.4587
 7157SOL    HW133107   4.664   3.353  13.304 -0.0873 -0.4155  0.4503
 7157SOL    HW233108   4.558   3.323  13.213  0.3994 -2.2386  0.3859
 7158SOL     OW33109   4.260   2.215   4.656  0.2664 -0.0768 -0.0752
 7158SOL    HW133110   4.288   2.124   4.663 -1.4253 -0.6339 -0.4547
 7158SOL    HW233111   4.175   2.202   4.699  0.3625 -1.5444 -0.3126
 7159SOL     OW33112   0.187   3.161  15.083  0.5197 -0.1282  0.0782
 7159SOL    HW133113   0.202   3.217  15.007 -1.0722  0.3669  0.1284
 7159SOL    HW233114   0.173   3.074  15.045 -1.3180 -1.2695  3.4108
 7160SOL     OW33115   1.782   2.431   1.485 -0.0665 -0.0260 -0.0552
 7160SOL    HW133116   1.829   2.500   1.532  1.4903 -1.4002  0.3943
 7160SOL    HW233117   1.810   2.446   1.395 -1.1251 -1.1325 -0.5600
 7161SOL     OW33118   2.186   3.678   3.057 -0.0010 -0.1723  0.0638
 7161SOL    HW133119   2.178   3.701   2.964  1.4942  1.1944  0.2655
 7161SOL    HW233120   2.271   3.722   3.069  0.2056 -0.7462  0.6981
 7162SOL     OW33121   2.613   3.948  13.080 -0.1480  0.0672  0.2833
 7162SOL    HW133122   2.601   3.991  13.165 -0.0754 -1.3638  1.0241
 7162SOL    HW233123   2.605   4.015  13.013  1.4402 -2.2348 -2.1690
 7163SOL     OW33124   0.726   1.562  12.835 -0.3002 -0.1861  0.4310
 7163SOL    HW133125   0.681   1.491  12.881  0.7022 -0.8842  0.3095
 7163SOL    HW233126   0.658   1.625  12.863 -0.0591  0.6310 -0.8200
 7164SOL     OW33127   0.296   0.784   5.770 -0.2709  0.9875 -0.3934
 7164SOL    HW133128   0.331   0.695   5.768 -0.6389  0.8414 -0.3081
 7164SOL    HW233129   0.375   0.827   5.738 -0.0926 -0.3266 -1.7437
 7165SOL     OW33130   3.742   4.511   3.952  0.1354 -0.0896 -0.1848
 7165SOL    HW133131   3.691   4.448   3.902  0.4677 -1.3917  1.0974
 7165SOL    HW233132   3.782   4.472   4.030 -1.0766  0.8657  0.9337
 7166SOL     OW33133   2.888   4.204  10.206  0.1962  0.1754 -0.2611
 7166SOL    HW133134   2.940   4.192  10.285 -0.7755 -1.8054  0.0835
 7166SOL    HW233135   2.942   4.271  10.164  1.1027 -1.2147 -1.3064
 7167SOL     OW33136   3.351   3.445  10.697 -0.1915  0.3750  0.0952
 7167SOL    HW133137   3.375   3.353  10.713 -1.1112  0.2660  0.8185
 7167SOL    HW233138   3.258   3.429  10.680 -0.5449  2.1263  0.4124
 7168SOL     OW33139   1.135   4.212  15.825  0.0560  0.2439  0.6418
 7168SOL    HW133140   1.043   4.189  15.834  0.3041 -1.3340 -0.9769
 7168SOL    HW233141   1.133   4.288  15.766  0.7725  1.0251  1.6133
 7169SOL     OW33142   2.692   2.199   2.117  0.0373  0.1811 -0.6202
 7169SOL    HW133143   2.681   2.291   2.142  0.9160  0.3814 -0.9659
 7169SOL    HW233144   2.761   2.215   2.053 -0.3970  4.2150 -0.0860
 7170SOL     OW33145   3.690   3.894   0.907  0.5177 -0.0242 -0.3163
 7170SOL    HW133146   3.739   3.848   0.975  2.2217  2.8664  0.3875
 7170SOL    HW233147   3.763   3.947   0.875  0.2037  0.6508  0.0774
 7171SOL     OW33148   0.271   0.242   7.877 -0.2877  0.0220 -0.4382
 7171SOL    HW133149   0.195   0.267   7.930 -1.2657  1.2811 -2.4596
 7171SOL    HW233150   0.272   0.146   7.872  1.8782 -0.0511  1.2389
 7172SOL     OW33151   2.640   3.036   7.102 -0.1686 -0.1193 -0.0169
 7172SOL    HW133152   2.647   2.955   7.052 -1.0469 -1.0225  1.3311
 7172SOL    HW233153   2.600   3.097   7.039  0.0505  1.6698  1.5861
 7173SOL     OW33154   1.248   2.696   1.612  0.1801 -0.0072 -0.6567
 7173SOL    HW133155   1.197   2.655   1.681 -2.2879  1.1898 -1.7616
 7173SOL    HW233156   1.246   2.788   1.636  0.7388 -0.2110  0.1543
 7174SOL     OW33157   3.200   4.207   8.162  0.5801  0.4212 -0.1550
 7174SOL    HW133158   3.291   4.234   8.175  0.8359 -0.2191 -0.5751
 7174SOL    HW233159   3.213   4.133   8.103  0.6124 -1.6671  2.4576
 7175SOL     OW33160   3.674   3.578   5.233 -0.3025 -0.5468 -0.2170
 7175SOL    HW133161   3.725   3.643   5.186  1.2509 -0.3142  1.7987
 7175SOL    HW233162   3.695   3.584   5.326  0.2663 -0.4490 -0.3563
 7176SOL     OW33163   1.029   2.674   3.711 -0.2798 -0.5046  0.0936
 7176SOL    HW133164   1.026   2.579   3.702 -0.2057 -0.3740 -1.3324
 7176SOL    HW233165   1.007   2.706   3.624 -1.0453 -0.5202  0.2833
 7177SOL     OW33166   2.018   3.403   6.905 -0.3077  0.1426 -0.4530
 7177SOL    HW133167   1.996   3.312   6.925 -1.5839  0.9523  1.8058
 7177SOL    HW233168   2.031   3.404   6.810 -1.1259  0.0965 -0.5652
 7178SOL     OW33169   2.241   3.089   4.904 -1.0178 -0.1532  0.0909
 7178SOL    HW133170   2.310   3.100   4.838 -0.5805  2.7775  1.0357
 7178SOL    HW233171   2.159   3.115   4.863 -0.6375  0.7338 -0.1168
 7179SOL     OW33172   0.325   1.978   4.538 -0.3545 -0.0459 -0.0693
 7179SOL    HW133173   0.231   1.976   4.554 -0.6995  0.1150 -2.0979
 7179SOL    HW233174   0.335   1.890   4.501 -0.2227  0.0570 -0.2830
 7180SOL     OW33175   1.908   2.935   6.524 -0.0557  0.1567  0.0012
 7180SOL    HW133176   1.870   2.848   6.527  0.2578 -0.0467 -1.7229
 7180SOL    HW233177   2.001   2.918   6.505  0.0883  0.2433  0.6204
 7181SOL     OW33178   3.684   1.613  17.120  0.5079  0.5115  0.1333
 7181SOL    HW133179   3.650   1.698  17.149 -1.9262  0.1973 -1.8521
 7181SOL    HW233180   3.610   1.557  17.098  0.1985  1.3349 -0.8977
 7182SOL     OW33181   2.798   1.307  11.955 -0.3860 -0.6030  0.2601
 7182SOL    HW133182   2.753   1.312  12.039  1.7204 -1.3022  1.4158
 7182SOL    HW233183   2.851   1.386  11.967 -0.8505 -0.4699  1.4678
 7183SOL     OW33184   0.714   3.205   1.540  0.8123 -0.2260 -0.5178
 7183SOL    HW133185   0.739   3.201   1.632 -2.4199  0.7120  0.4088
 7183SOL    HW233186   0.698   3.298   1.521 -1.7872 -0.3605  0.9686
 7184SOL     OW33187   0.830   2.557   3.446  0.4355 -0.0702 -0.0884
 7184SOL    HW133188   0.902   2.590   3.391 -0.7440 -0.1081 -1.6337
 7184SOL    HW233189   0.756   2.616   3.434  1.3686  1.3060  0.8574
 7185SOL     OW33190   0.530   3.906  14.496  0.0457  0.1461 -0.1000
 7185SOL    HW133191   0.573   3.897  14.581  0.8825  1.3239 -0.4045
 7185SOL    HW233192   0.512   3.819  14.461  0.5391 -1.0412  2.5987
 7186SOL     OW33193   0.263   4.311   7.997  0.0402  0.0396  0.4203
 7186SOL    HW133194   0.173   4.335   7.975  0.2986 -1.6930 -2.4951
 7186SOL    HW233195   0.277   4.235   7.941 -0.5114  0.7410 -0.6608
 7187SOL     OW33196   1.317   3.223   3.940 -0.2490  0.2373  0.2860
 7187SOL    HW133197   1.346   3.176   4.018 -1.9441 -0.9178  0.1986
 7187SOL    HW233198   1.375   3.298   3.955 -0.1973  0.5573 -1.5533
 7188SOL     OW33199   2.981   3.475   3.548  0.0019 -0.3665 -0.3435
 7188SOL    HW133200   3.009   3.386   3.526  1.0247 -0.6320  1.9640
 7188SOL    HW233201   3.057   3.524   3.515 -0.4451 -0.8182 -2.0327
 7189SOL     OW33202   1.787   2.828   8.863 -0.2813  0.0668  0.0984
 7189SOL    HW133203   1.865   2.849   8.812 -0.2667 -0.7247 -0.1934
 7189SOL    HW233204   1.804   2.897   8.928 -1.4526  1.2846 -0.8943
 7190SOL     OW33205   2.819   4.267   8.935  0.3893  1.0118  0.3486
 7190SOL    HW133206   2.872   4.205   8.985  1.0137  0.5728 -0.8567
 7190SOL    HW233207   2.823   4.248   8.841  1.0926 -2.1519  1.0046
 7191SOL     OW33208   2.906   4.423   6.695  0.1431 -0.4558 -0.0807
 7191SOL    HW133209   2.960   4.491   6.654  0.7253 -0.3607  0.8419
 7191SOL    HW233210   2.823   4.444   6.653 -0.7842 -2.7373  0.6065
 7192SOL     OW33211   2.316   4.389   0.047 -0.1250 -0.3774 -0.4173
 7192SOL    HW133212   2.255   4.334   0.096  0.1920 -0.5324 -0.1970
 7192SOL    HW233213   2.283   4.368  17.699 -1.8318 -2.2251  0.6672
 7193SOL     OW33214   1.828   1.119   5.678 -0.1035 -0.0994  0.7611
 7193SOL    HW133215   1.843   1.101   5.771  2.1884  2.3144  0.8475
 7193SOL    HW233216   1.747   1.070   5.664  1.8793 -2.8769 -1.0652
 7194SOL     OW33217   4.022   0.995   5.546  0.0759 -0.6012  0.4660
 7194SOL    HW133218   4.100   1.031   5.589 -1.0344  0.1708  1.8390
 7194SOL    HW233219   3.959   1.065   5.563 -0.2336 -0.5375 -0.9455
 7195SOL     OW33220   2.699   2.835  14.639 -0.1848  0.3324  0.0714
 7195SOL    HW133221   2.618   2.786  14.657 -0.6191 -0.0202 -2.8612
 7195SOL    HW233222   2.684   2.855  14.547  0.2078 -0.0581 -0.0761
 7196SOL     OW33223   4.669   3.704   3.860  0.3170 -0.9782  0.2800
 7196SOL    HW133224   4.637   3.634   3.916 -1.4916 -3.0670 -3.3609
 7196SOL    HW233225   4.714   3.751   3.931  0.5398 -0.8886  0.0791
 7197SOL     OW33226   3.505   1.721  13.373  0.3551 -0.1012  0.0040
 7197SOL    HW133227   3.543   1.697  13.288 -0.1478  1.1213 -0.5664
 7197SOL    HW233228   3.541   1.810  13.377 -1.7370  0.6721  1.3383
 7198SOL     OW33229   3.940   0.815   7.182  0.0305 -0.2403  0.3293
 7198SOL    HW133230   3.917   0.883   7.245  0.1874 -2.4367  2.7855
 7198SOL    HW233231   4.019   0.852   7.142  0.0650  1.5127  2.0238
 7199SOL     OW33232   2.676   1.130  17.466  0.2599 -0.5197 -0.2207
 7199SOL    HW133233   2.713   1.099  17.548 -1.4666  0.7249  1.0588
 7199SOL    HW233234   2.634   1.049  17.439  0.9906 -0.2783 -2.1067
 7200SOL     OW33235   2.014   2.875   6.089 -0.0132 -0.0866  0.6674
 7200SOL    HW133236   1.994   2.781   6.083 -0.7947  0.1590 -0.4959
 7200SOL    HW233237   2.057   2.883   6.004 -1.9965 -0.9645 -0.4191
 7201SOL     OW33238   1.667   3.442   0.447 -0.1143  0.1688 -0.2024
 7201SOL    HW133239   1.752   3.483   0.465 -0.0163 -0.0023 -0.2661
 7201SOL    HW233240   1.643   3.424   0.538 -1.7996  0.7843 -0.5371
 7202SOL     OW33241   0.251   0.269   2.927  0.9208  0.3191 -0.0788
 7202SOL    HW133242   0.183   0.313   2.978  2.3779  0.4889  1.7214
 7202SOL    HW233243   0.210   0.226   2.852 -2.7335 -0.8569  2.5653
 7203SOL     OW33244   4.522   0.314  11.688 -0.0831 -0.0657  0.2064
 7203SOL    HW133245   4.544   0.228  11.723  1.8822  0.3443  0.0068
 7203SOL    HW233246   4.427   0.317  11.702 -0.1884  0.9170 -0.7044
 7204SOL     OW33247   0.358   4.307  14.857 -0.4238 -0.0330 -0.1377
 7204SOL    HW133248   0.416   4.293  14.781  1.0865 -0.2134  1.0355
 7204SOL    HW233249   0.277   4.273  14.819  0.4393 -2.3494  0.1031
 7205SOL     OW33250   2.836   0.969   8.867 -0.2833 -0.1801  0.5314
 7205SOL    HW133251   2.855   1.045   8.812  0.7154 -1.6677 -1.1927
 7205SOL    HW233252   2.758   1.001   8.911 -0.3824  1.2759 -0.6668
 7206SOL     OW33253   3.845   1.376   9.257 -0.4510  0.4216  0.1678
 7206SOL    HW133254   3.920   1.355   9.313 -1.1851 -0.6714  0.7323
 7206SOL    HW233255   3.893   1.436   9.200  2.1627 -1.0952  0.7713
 7207SOL     OW33256   0.088   4.627   0.257  1.0182 -0.5431 -0.3008
 7207SOL    HW133257   0.077   4.688   0.184  0.1211  0.4027  0.6246
 7207SOL    HW233258   0.173   4.584   0.259  0.5969 -1.3950 -0.9775
 7208SOL     OW33259   4.392   0.911   8.584  0.3345  0.1206 -0.4085
 7208SOL    HW133260   4.432   0.885   8.667  0.4020 -0.1094 -0.5129
 7208SOL    HW233261   4.383   0.822   8.550 -3.2060 -0.4170  1.9929
 7209SOL     OW33262   4.477   1.249   4.544 -0.1664  0.0695 -0.9504
 7209SOL    HW133263   4.414   1.180   4.525 -2.6421  1.6410  1.6448
 7209SOL    HW233264   4.560   1.204   4.560 -0.0168  1.8396  3.4506
 7210SOL     OW33265   1.572   2.482  11.659  0.0112  0.1038 -0.3196
 7210SOL    HW133266   1.539   2.536  11.731 -1.8100 -0.8529 -0.4456
 7210SOL    HW233267   1.589   2.553  11.597 -0.0236 -0.4781 -1.0029
 7211SOL     OW33268   0.225   1.092  16.361  0.0424 -0.1608 -0.0306
 7211SOL    HW133269   0.180   1.176  16.370  1.1358  0.6803 -2.3365
 7211SOL    HW233270   0.177   1.048  16.431  1.5123  2.0333  2.3051
 7212SOL     OW33271   1.518   3.163   5.972 -0.2467 -0.4848  0.2091
 7212SOL    HW133272   1.485   3.252   5.963 -0.9600 -0.6891  0.7429
 7212SOL    HW233273   1.541   3.144   5.882 -0.1922  1.1798 -0.1209
 7213SOL     OW33274   0.410   2.553   4.440  0.2236  0.5012 -0.0449
 7213SOL    HW133275   0.490   2.581   4.483  0.4681  0.0842 -0.2306
 7213SOL    HW233276   0.447   2.521   4.357  0.4324  2.6377 -0.7797
 7214SOL     OW33277   1.907   2.220   7.086  0.1841 -0.0406 -0.1043
 7214SOL    HW133278   1.907   2.142   7.030 -1.3987 -1.3154  1.6381
 7214SOL    HW233279   1.907   2.181   7.173 -0.3048  2.0454  0.8134
 7215SOL     OW33280   1.146   0.205   2.050  0.2068 -0.4422  0.4563
 7215SOL    HW133281   1.158   0.174   1.960 -0.8590 -0.1309  0.2029
 7215SOL    HW233282   1.059   0.243   2.035  1.2005  1.1030 -1.3989
 7216SOL     OW33283   2.461   2.348   2.350 -0.0340 -0.2545 -0.6133
 7216SOL    HW133284   2.551   2.363   2.378  0.3470 -1.1833 -1.3292
 7216SOL    HW233285   2.452   2.257   2.377  0.8317  0.1640  1.0619
 7217SOL     OW33286   1.856   3.616   0.529 -0.0211  0.2671  0.0257
 7217SOL    HW133287   1.934   3.582   0.486 -1.5367 -0.0621 -2.4559
 7217SOL    HW233288   1.891   3.670   0.600 -0.7123  0.5107  0.1879
 7218SOL     OW33289   3.253   2.467   8.539 -0.4193  0.5483  0.4426
 7218SOL    HW133290   3.235   2.387   8.490  2.4600  1.9054 -2.8581
 7218SOL    HW233291   3.201   2.457   8.619 -0.6233 -0.8212  0.1413
 7219SOL     OW33292   0.659   0.039   9.007 -0.0180 -0.3914 -0.5930
 7219SOL    HW133293   0.621   0.096   9.074 -0.0801 -2.2726  0.9630
 7219SOL    HW233294   0.752   0.022   9.021  0.2158  0.2107 -1.4383
 7220SOL     OW33295   4.301   2.082  11.359 -0.0291 -0.0614  0.2645
 7220SOL    HW133296   4.351   2.137  11.419  0.2146 -1.0789  0.9976
 7220SOL    HW233297   4.306   2.119  11.271 -1.8080  1.1592  0.6964
 7221SOL     OW33298   3.730   2.585   0.729 -0.1241  0.0750  0.2318
 7221SOL    HW133299   3.672   2.646   0.684 -1.5451 -1.1238  0.4522
 7221SOL    HW233300   3.812   2.631   0.745 -2.1357  2.9709  2.1627
 7222SOL     OW33301   2.518   4.155   8.961 -0.2666 -0.4687  0.3582
 7222SOL    HW133302   2.506   4.250   8.958 -1.6419 -0.6047  1.4581
 7222SOL    HW233303   2.534   4.150   9.055  0.5010  0.2042  0.2650
 7223SOL     OW33304   1.689   0.675   6.590 -0.1472  0.2843 -0.2870
 7223SOL    HW133305   1.768   0.683   6.643 -0.2558 -0.1969 -0.0550
 7223SOL    HW233306   1.647   0.596   6.624  2.0669 -0.4725  0.6985
 7224SOL     OW33307   0.544   4.442  15.027  0.1911 -0.0044 -0.1218
 7224SOL    HW133308   0.621   4.398  14.991 -2.0605 -1.0490 -3.5803
 7224SOL    HW233309   0.475   4.392  14.985 -1.6080  1.7000  0.8230
 7225SOL     OW33310   3.533   4.361   6.814 -0.5921 -0.1722 -0.3565
 7225SOL    HW133311   3.511   4.267   6.818 -2.4353  0.3405  1.7955
 7225SOL    HW233312   3.486   4.389   6.736 -0.8985  1.6184  0.4756
 7226SOL     OW33313   2.603   1.018   2.047  0.2127 -0.7444 -0.2079
 7226SOL    HW133314   2.641   1.016   2.135 -0.4092 -0.6706  0.0605
 7226SOL    HW233315   2.510   1.000   2.056  0.5157 -2.1980 -0.0811
 7227SOL     OW33316   3.517   2.710  10.912  0.7823 -0.6115 -0.7152
 7227SOL    HW133317   3.502   2.642  10.978 -0.9277 -0.2210 -0.6957
 7227SOL    HW233318   3.423   2.727  10.911  0.7000 -0.8609  1.8439
 7228SOL     OW33319   3.416   3.753   1.255 -0.0080  0.3350  0.5027
 7228SOL    HW133320   3.328   3.792   1.262  0.3247  0.6296  3.2236
 7228SOL    HW233321   3.413   3.702   1.335 -0.4650  0.9231  0.8656
 7229SOL     OW33322   0.832   1.554   2.824  0.2547 -0.0791 -0.5228
 7229SOL    HW133323   0.914   1.602   2.823 -0.1693  0.5764 -2.6263
 7229SOL    HW233324   0.810   1.559   2.731 -0.6068 -0.4407 -0.3404
 7230SOL     OW33325   2.467   1.983   1.747  0.3614  0.3876  0.0316
 7230SOL    HW133326   2.471   2.029   1.831  0.6236  1.8007 -0.7607
 7230SOL    HW233327   2.468   2.064   1.696 -0.0599  0.4847  0.1736
 7231SOL     OW33328   0.347   3.158   1.302 -0.4939  0.0789  0.1097
 7231SOL    HW133329   0.334   3.094   1.232  0.0589  0.7569 -0.5956
 7231SOL    HW233330   0.415   3.111   1.350  0.3164  2.0846  0.9240
 7232SOL     OW33331   1.709   2.735   4.635  0.2207 -0.0742 -0.2701
 7232SOL    HW133332   1.797   2.769   4.652  0.0090 -0.4715  1.6096
 7232SOL    HW233333   1.696   2.669   4.703 -0.3944  1.4664  1.1168
 7233SOL     OW33334   2.935   0.579  17.420  0.4300 -0.3130 -0.2550
 7233SOL    HW133335   3.030   0.577  17.431  0.2341 -2.8067  0.9923
 7233SOL    HW233336   2.916   0.506  17.361 -1.2315 -0.9590  1.0732
 7234SOL     OW33337   4.375   1.178  12.719  0.4526 -0.5272  0.0387
 7234SOL    HW133338   4.386   1.100  12.664 -0.7820 -1.0915  0.5876
 7234SOL    HW233339   4.390   1.131  12.802  1.6637  1.5125  0.9695
 7235SOL     OW33340   0.870   2.258   2.033 -0.2331  0.4585  0.3058
 7235SOL    HW133341   0.862   2.339   1.984  0.5903 -0.2707 -1.0504
 7235SOL    HW233342   0.779   2.230   2.044 -0.6342  2.0907  1.1829
 7236SOL     OW33343   1.194   4.501   0.410  0.1963  0.2960 -0.0113
 7236SOL    HW133344   1.239   4.444   0.472  2.4653  1.0057 -0.9789
 7236SOL    HW233345   1.111   4.513   0.456  0.3285 -0.8166  0.5319
 7237SOL     OW33346   3.744   0.665   5.356 -0.0727 -0.1294 -0.0377
 7237SOL    HW133347   3.772   0.671   5.447 -0.3475 -3.4982  0.2696
 7237SOL    HW233348   3.671   0.605   5.369  1.2095 -1.9686 -1.2815
 7238SOL     OW33349   3.935   1.009  10.146  0.1823 -0.3639  0.3928
 7238SOL    HW133350   3.857   1.023  10.199  0.2262 -1.2082  0.6736
 7238SOL    HW233351   3.997   0.986  10.215 -1.3376 -5.8131 -0.0882
 7239SOL     OW33352   2.027   3.082  13.444  0.3537 -0.1425  0.2051
 7239SOL    HW133353   2.076   3.163  13.437  1.2884 -0.5887  1.5635
 7239SOL    HW233354   2.046   3.058  13.534  2.9103 -1.0305 -0.5954
 7240SOL     OW33355   3.630   0.315   8.412 -0.5352 -0.1047  0.8285
 7240SOL    HW133356   3.685   0.238   8.424  2.0179  1.6190  0.2952
 7240SOL    HW233357   3.691   0.381   8.378  2.0199 -2.4303  0.8393
 7241SOL     OW33358   0.480   0.409   7.857  0.3887 -0.3346  0.0721
 7241SOL    HW133359   0.472   0.462   7.778 -1.2973 -1.8114 -0.7380
 7241SOL    HW233360   0.402   0.354   7.854 -0.1405  0.3739  0.8354
 7242SOL     OW33361   3.793   2.848   1.686 -0.0033  0.2579 -0.3274
 7242SOL    HW133362   3.775   2.891   1.770 -0.5245 -1.2653  0.3362
 7242SOL    HW233363   3.725   2.781   1.688 -2.0231  2.2803 -1.5637
 7243SOL     OW33364   0.670   3.685   5.498 -0.5498 -0.2005 -0.1147
 7243SOL    HW133365   0.662   3.652   5.587  1.4291  2.5676  1.0686
 7243SOL    HW233366   0.728   3.760   5.509  0.7151 -0.9327 -1.5635
 7244SOL     OW33367   4.357   0.273   5.354  0.2130  0.1166 -0.1073
 7244SOL    HW133368   4.326   0.364   5.358  1.8462  0.7161 -0.9168
 7244SOL    HW233369   4.334   0.267   5.261  0.3354 -1.5370 -0.0303
 7245SOL     OW33370   4.338   4.510   0.702 -0.2071  0.3055  0.3177
 7245SOL    HW133371   4.376   4.576   0.761  1.9446 -0.5636 -0.0981
 7245SOL    HW233372   4.346   4.547   0.614  1.7461 -0.0638  0.3396
 7246SOL     OW33373   2.970   2.429   7.971 -0.3154  0.2105 -0.9477
 7246SOL    HW133374   2.984   2.371   7.896 -0.2964 -2.0127  0.7854
 7246SOL    HW233375   2.973   2.518   7.937  0.1929  0.3326 -0.5931
 7247SOL     OW33376   4.229   3.534   8.285  1.0786 -0.2825 -0.0039
 7247SOL    HW133377   4.224   3.445   8.251  2.4576 -0.0575 -0.7665
 7247SOL    HW233378   4.173   3.519   8.361 -2.4119  3.2567 -1.9037
 7248SOL     OW33379   0.317   2.749   0.350 -0.2896 -0.0859 -0.0666
 7248SOL    HW133380   0.250   2.787   0.294 -0.1909  1.3259  0.7837
 7248SOL    HW233381   0.264   2.729   0.428  1.3488 -3.8670  0.0966
 7249SOL     OW33382   2.554   1.181   4.935  0.3098  0.7764  0.0216
 7249SOL    HW133383   2.485   1.236   4.972 -1.5972 -0.1746 -2.1628
 7249SOL    HW233384   2.616   1.209   5.003  1.0448 -0.8706  0.0449
 7250SOL     OW33385   4.189   2.351   6.676 -0.0202  0.3914  0.6670
 7250SOL    HW133386   4.099   2.335   6.646  0.1896  1.2147 -0.3792
 7250SOL    HW233387   4.231   2.357   6.590 -0.3140 -0.6288  0.4486
 7251SOL     OW33388   1.520   1.828   5.949  0.0290 -0.0628  0.5377
 7251SOL    HW133389   1.550   1.745   5.910  2.2004  0.9958 -0.0418
 7251SOL    HW233390   1.548   1.806   6.038  0.4919 -0.9766  0.1677
 7252SOL     OW33391   3.849   0.895   2.950 -0.5176  0.3836  0.2816
 7252SOL    HW133392   3.783   0.904   3.018  0.1838  0.5221  0.9454
 7252SOL    HW233393   3.880   0.984   2.933  1.8461 -0.0273  2.4527
 7253SOL     OW33394   1.267   0.029   4.766  0.0466  0.2751  0.5645
 7253SOL    HW133395   1.228   4.677   4.759  0.2719  0.0865  1.6690
 7253SOL    HW233396   1.352   0.010   4.726 -1.7586 -2.6414 -1.8917
 7254SOL     OW33397   4.042   3.150   7.225 -0.5933  0.5361  0.0934
 7254SOL    HW133398   3.962   3.156   7.173  0.5664  1.0825 -1.6290
 7254SOL    HW233399   4.006   3.209   7.292  0.6902  2.3048 -0.7725
 7255SOL     OW33400   0.876   1.723   8.211 -0.1426 -0.7279  0.3896
 7255SOL    HW133401   0.860   1.740   8.303  0.1018  0.2487  0.2484
 7255SOL    HW233402   0.883   1.627   8.214 -0.3987 -0.7025  1.5828
 7256SOL     OW33403   2.518   1.044  14.171  0.0124  0.2603  0.2219
 7256SOL    HW133404   2.474   1.120  14.209 -0.5446 -0.3853  0.8717
 7256SOL    HW233405   2.449   0.998  14.124  1.1188 -0.1035 -1.0383
 7257SOL     OW33406   0.437   1.715   6.372 -0.1238  0.0081 -0.2153
 7257SOL    HW133407   0.353   1.758   6.359  0.3488  1.1672  0.4996
 7257SOL    HW233408   0.450   1.652   6.301  2.0880  1.0872 -0.7915
 7258SOL     OW33409   0.957   0.152   3.508  0.1636  0.6731  0.6736
 7258SOL    HW133410   1.042   0.155   3.553  0.0695  1.2605  0.8063
 7258SOL    HW233411   0.910   0.219   3.557 -2.0986 -0.9282  0.7042
 7259SOL     OW33412   3.381   0.119   4.932 -0.9767 -0.5272  0.2901
 7259SOL    HW133413   3.399   0.213   4.927 -0.1659 -0.7207 -0.3755
 7259SOL    HW233414   3.468   0.082   4.942  0.0058  1.4977 -0.7883
 7260SOL     OW33415   2.075   3.042  12.685  0.1359 -0.6845  0.2344
 7260SOL    HW133416   2.025   3.066  12.763 -1.9908 -0.2049 -1.2774
 7260SOL    HW233417   2.065   2.947  12.686 -1.1891 -0.5694 -2.3239
 7261SOL     OW33418   3.773   1.114   5.965  0.1739  0.0615 -0.1387
 7261SOL    HW133419   3.860   1.076   5.979  0.3968  0.2215 -1.1359
 7261SOL    HW233420   3.752   1.146   6.053 -3.2328 -2.9682  0.1270
 7262SOL     OW33421   1.094   3.257   3.414 -0.0416  0.2411  0.6748
 7262SOL    HW133422   1.032   3.220   3.477  0.6222 -0.3464  0.9865
 7262SOL    HW233423   1.177   3.242   3.459  0.6944 -0.6134 -0.9549
 7263SOL     OW33424   2.427   0.750   8.579  0.2569  0.6223 -0.4900
 7263SOL    HW133425   2.448   0.771   8.488 -1.0284 -1.7984 -1.3494
 7263SOL    HW233426   2.337   0.724   8.563  1.0982 -1.8179 -1.2663
 7264SOL     OW33427   0.164   1.402   2.692 -0.3066  0.1163  0.3465
 7264SOL    HW133428   0.260   1.408   2.692 -0.3576  0.9334  1.8821
 7264SOL    HW233429   0.131   1.489   2.668  1.5111  0.3546 -1.3071
 7265SOL     OW33430   4.282   2.834   9.088 -0.1443  0.5636 -0.0920
 7265SOL    HW133431   4.215   2.804   9.026  1.1135 -0.4439 -0.9721
 7265SOL    HW233432   4.236   2.897   9.143  0.6789 -0.7015  2.0223
 7266SOL     OW33433   2.291   3.688   1.692 -0.4155  0.4106 -0.3052
 7266SOL    HW133434   2.342   3.733   1.760  2.6754  0.4073 -2.6624
 7266SOL    HW233435   2.349   3.623   1.654  0.5155  0.1084  1.6496
 7267SOL     OW33436   0.655   3.008  13.714 -0.0640 -0.1038 -0.0966
 7267SOL    HW133437   0.591   2.938  13.698  0.8794 -1.3514  1.5778
 7267SOL    HW233438   0.714   3.006  13.639 -0.7196 -2.1725 -0.5784
 7268SOL     OW33439   3.539   1.718  15.096  0.4710 -0.2463 -0.3068
 7268SOL    HW133440   3.630   1.690  15.106  0.3754 -0.5954 -0.4215
 7268SOL    HW233441   3.535   1.726  15.000 -1.4889 -1.2582 -0.3154
 7269SOL     OW33442   0.561   3.016   1.408 -0.0289 -0.3424  0.1199
 7269SOL    HW133443   0.636   2.990   1.354  0.0908  1.1136 -0.4222
 7269SOL    HW233444   0.608   3.085   1.455 -0.0966 -0.4347  0.3210
 7270SOL     OW33445   0.618   4.393   6.974 -0.3055  0.3743  0.0228
 7270SOL    HW133446   0.696   4.339   6.985  0.3244  1.3237  0.1896
 7270SOL    HW233447   0.571   4.374   7.055 -0.6096  0.0921 -0.2199
 7271SOL     OW33448   3.929   1.939   4.879 -0.2376  0.3233 -0.2034
 7271SOL    HW133449   3.856   2.000   4.870 -0.0795  0.5839  0.2223
 7271SOL    HW233450   3.885   1.896   4.953  0.0084  0.9353  0.3007
 7272SOL     OW33451   1.875   3.292   4.373 -0.4441 -0.1840  0.0006
 7272SOL    HW133452   1.815   3.367   4.371 -0.0213  0.0970 -2.2532
 7272SOL    HW233453   1.830   3.235   4.311  1.7493 -1.6457 -0.2335
 7273SOL     OW33454   0.461   2.485  12.520  0.2087  0.0429 -0.2092
 7273SOL    HW133455   0.515   2.548  12.568 -1.7244  0.0643  1.9415
 7273SOL    HW233456   0.423   2.546  12.457  2.6349 -0.1174 -1.8371
 7274SOL     OW33457   1.350   1.692   5.417  0.0574 -0.0698 -0.2750
 7274SOL    HW133458   1.388   1.665   5.501 -0.9098  1.3952  0.6255
 7274SOL    HW233459   1.361   1.607   5.374  1.1951 -1.1640  2.1518
 7275SOL     OW33460   2.078   1.535   8.528 -0.1594 -0.8372 -0.5605
 7275SOL    HW133461   2.014   1.605   8.521 -0.6188 -1.1184  0.8004
 7275SOL    HW233462   2.039   1.477   8.462 -2.4079 -0.0824  0.1319
 7276SOL     OW33463   4.544   0.756   7.223  0.3427 -0.4549 -0.1826
 7276SOL    HW133464   4.536   0.776   7.130 -0.1516 -1.6162 -0.3949
 7276SOL    HW233465   4.452   0.751   7.252 -0.0691  0.4776 -1.3527
 7277SOL     OW33466   3.159   2.155   4.196  0.2584  0.4252 -0.9043
 7277SOL    HW133467   3.174   2.108   4.278  3.3382  0.0624 -1.6713
 7277SOL    HW233468   3.214   2.102   4.138  0.9705  0.3690 -0.1786
 7278SOL     OW33469   2.535   1.603   3.095 -0.4450  0.8924 -0.2496
 7278SOL    HW133470   2.625   1.573   3.082 -0.2909  0.9023  0.7798
 7278SOL    HW233471   2.501   1.577   3.010 -0.4821  0.5409 -0.1288
 7279SOL     OW33472   1.830   1.442  17.357 -0.4319  0.2507 -0.2363
 7279SOL    HW133473   1.885   1.458  17.434 -1.0288  1.5098 -0.0653
 7279SOL    HW233474   1.761   1.385  17.390 -0.9680  2.0250  1.7326
 7280SOL     OW33475   3.891   3.116   1.626 -0.3065  0.3098  0.4079
 7280SOL    HW133476   3.836   3.185   1.663  2.3540  0.9661  3.2079
 7280SOL    HW233477   3.860   3.041   1.677 -0.0471  2.1701  3.2913
 7281SOL     OW33478   0.669   1.779   8.048  0.4252  0.0854 -0.0594
 7281SOL    HW133479   0.751   1.753   8.089 -0.5911 -1.4070  1.0331
 7281SOL    HW233480   0.612   1.812   8.118  1.9878  0.6263  0.9498
 7282SOL     OW33481   0.201   1.339  15.368 -0.3449 -0.3003 -0.0480
 7282SOL    HW133482   0.160   1.280  15.431 -1.8727  0.3849 -0.4016
 7282SOL    HW233483   0.133   1.401  15.344 -2.0573 -2.8338 -1.6366
 7283SOL     OW33484   0.098   1.223   3.009  0.6094  0.0654  0.2937
 7283SOL    HW133485   0.090   1.205   3.103 -0.2526  0.6985  0.3438
 7283SOL    HW233486   0.124   1.315   3.005  0.4535  0.1811  1.7441
 7284SOL     OW33487   2.112   1.262   0.703 -0.3282  0.2911  0.0082
 7284SOL    HW133488   2.042   1.244   0.767 -0.4453  1.9965  0.3543
 7284SOL    HW233489   2.165   1.183   0.717  0.9505  1.8789  3.9367
 7285SOL     OW33490   1.036   1.591  14.159 -0.1068  0.2159  0.0072
 7285SOL    HW133491   0.972   1.561  14.094 -0.3204 -0.7630  0.6671
 7285SOL    HW233492   1.097   1.518  14.148  1.4966  1.9736 -2.6287
 7286SOL     OW33493   4.313   4.299  11.371  0.2105 -0.3362  0.1331
 7286SOL    HW133494   4.278   4.377  11.327  3.0664  0.3042 -0.9643
 7286SOL    HW233495   4.391   4.272  11.323  0.0761 -1.0690  0.3305
 7287SOL     OW33496   2.466   4.689   4.430 -0.4986  0.2324 -0.1844
 7287SOL    HW133497   2.438   4.645   4.510  1.1731  0.9698  0.8094
 7287SOL    HW233498   2.528   0.018   4.466  0.0466 -1.1702  1.3879
 7288SOL     OW33499   3.628   1.989   7.955 -0.0396 -0.1635  0.1849
 7288SOL    HW133500   3.666   1.908   7.924  1.0785  0.6434 -0.5262
 7288SOL    HW233501   3.681   2.052   7.907  0.3488 -0.6795 -0.0588
 7289SOL     OW33502   3.017   3.104   3.734  0.1841  0.0430 -0.0063
 7289SOL    HW133503   3.048   3.014   3.739 -0.1634 -0.0226  1.0055
 7289SOL    HW233504   2.956   3.109   3.808 -0.7114 -0.1820 -0.7225
 7290SOL     OW33505   1.628   1.413   3.581 -0.7556 -0.2869 -0.8997
 7290SOL    HW133506   1.705   1.357   3.591 -1.4079 -0.9476  0.5254
 7290SOL    HW233507   1.552   1.355   3.587 -0.7049 -0.1028  1.5911
 7291SOL     OW33508   4.281   3.707   9.445  0.0676  0.1511  0.0024
 7291SOL    HW133509   4.345   3.757   9.395  1.1118 -0.8844  0.3165
 7291SOL    HW233510   4.257   3.776   9.507 -0.5038 -1.2262  1.3174
 7292SOL     OW33511   0.144   1.766  17.051  0.3862  0.0193 -0.0984
 7292SOL    HW133512   0.118   1.803  17.135  0.9704  1.0255 -0.3566
 7292SOL    HW233513   0.173   1.683  17.088  1.7379  0.4150 -0.2688
 7293SOL     OW33514   4.235   3.505   4.372  0.5793  0.4885  0.2299
 7293SOL    HW133515   4.146   3.500   4.337  0.4350 -1.4422  0.8969
 7293SOL    HW233516   4.239   3.600   4.358 -1.6319  0.2157 -2.3866
 7294SOL     OW33517   4.432   3.446   6.013  0.3816 -0.3593  0.2652
 7294SOL    HW133518   4.338   3.431   6.013  0.2068  0.6939  1.2251
 7294SOL    HW233519   4.452   3.387   5.940  0.3987  1.5041 -1.2555
 7295SOL     OW33520   2.368   3.393   7.140  0.5704  0.1049 -0.0210
 7295SOL    HW133521   2.338   3.331   7.207  1.2277  0.5806  0.7139
 7295SOL    HW233522   2.449   3.423   7.181  0.9528  0.1401 -0.8047
 7296SOL     OW33523   2.601   0.894  12.265  0.0585 -0.1358  0.2253
 7296SOL    HW133524   2.666   0.826  12.251  0.0891 -0.0382 -0.1166
 7296SOL    HW233525   2.592   0.882  12.360  0.9946  0.0374  0.3367
 7297SOL     OW33526   2.247   3.293  16.819  0.0490  0.4945  1.0721
 7297SOL    HW133527   2.155   3.287  16.796  0.2871 -2.1437  0.8374
 7297SOL    HW233528   2.226   3.346  16.896 -0.8853  0.6788  0.6876
 7298SOL     OW33529   1.017   0.742  13.392  0.4691  0.4424 -0.0664
 7298SOL    HW133530   1.067   0.740  13.473 -0.6863  0.3241  0.6477
 7298SOL    HW233531   0.952   0.672  13.393  0.0916  0.7867 -0.6261
 7299SOL     OW33532   3.702   0.752   0.647  0.5762 -0.8869 -0.0212
 7299SOL    HW133533   3.777   0.721   0.596  0.1618  0.6066 -1.5468
 7299SOL    HW233534   3.739   0.826   0.696 -1.4794  1.4284 -1.9371
 7300SOL     OW33535   3.612   3.530   7.162 -0.4562 -0.6394  0.2145
 7300SOL    HW133536   3.639   3.612   7.121 -1.9231 -0.6033 -0.6611
 7300SOL    HW233537   3.555   3.553   7.235  0.2439  0.0014  0.5587
 7301SOL     OW33538   3.939   4.057  10.337 -0.3066  0.3441 -0.4886
 7301SOL    HW133539   3.947   4.150  10.359 -0.3544  0.0837  0.6490
 7301SOL    HW233540   3.860   4.057  10.284 -0.6935 -0.9489  0.0899
 7302SOL     OW33541   2.715   3.284   3.118 -0.4245  0.4067  0.1492
 7302SOL    HW133542   2.659   3.269   3.193 -0.8533 -0.2607 -0.2997
 7302SOL    HW233543   2.713   3.196   3.081  2.2721  0.2383  0.4127
 7303SOL     OW33544   3.630   0.534   8.664  0.1561 -0.2915 -0.2109
 7303SOL    HW133545   3.609   0.603   8.600  1.1181  1.5636  1.4829
 7303SOL    HW233546   3.579   0.561   8.740 -0.3315  3.1084 -1.7105
 7304SOL     OW33547   0.533   0.945  12.812  0.3995 -0.2620 -0.1323
 7304SOL    HW133548   0.463   0.967  12.750 -1.1756 -1.4755  1.2340
 7304SOL    HW233549   0.612   0.963  12.761  0.9277  2.7945  1.8097
 7305SOL     OW33550   0.073   1.983   3.422  0.4171  0.0374  0.3652
 7305SOL    HW133551   0.149   1.930   3.446 -0.4853 -1.5474 -0.3146
 7305SOL    HW233552   0.121   2.036   3.358 -0.1044 -0.6816 -0.6242
 7306SOL     OW33553   2.735   2.613   7.371 -0.6451  0.5653  0.4640
 7306SOL    HW133554   2.777   2.602   7.456  0.2021 -2.2839 -0.3345
 7306SOL    HW233555   2.699   2.529   7.343 -5.1076  2.5596  0.1003
 7307SOL     OW33556   0.293   0.576  16.962 -0.1057  0.6871 -0.1181
 7307SOL    HW133557   0.344   0.542  17.036 -0.5491 -1.6851 -0.9102
 7307SOL    HW233558   0.280   0.496  16.911 -2.7460  1.2769 -0.3391
 7308SOL     OW33559   3.907   0.082   1.449  0.5935  0.5418  0.1824
 7308SOL    HW133560   3.827   0.124   1.418  0.2747 -1.8476 -2.2632
 7308SOL    HW233561   3.967   0.157   1.441  0.2133  1.1097  2.9213
 7309SOL     OW33562   1.949   1.397   8.315  1.0934 -0.0692 -0.8137
 7309SOL    HW133563   1.881   1.415   8.380  2.8481  2.1550  0.4077
 7309SOL    HW233564   1.945   1.302   8.301  1.5335 -0.2120 -0.0114
 7310SOL     OW33565   2.949   1.361   5.031  0.2742  0.0901  0.5503
 7310SOL    HW133566   2.927   1.451   5.056 -0.2885  1.0441 -3.4972
 7310SOL    HW233567   2.862   1.322   5.032  0.3429 -0.0456  1.4980
 7311SOL     OW33568   1.335   3.097   5.110 -0.2710  0.1591 -0.7454
 7311SOL    HW133569   1.420   3.120   5.072  0.9166  0.8064  2.2982
 7311SOL    HW233570   1.291   3.046   5.043  1.4670  0.1603 -1.8989
 7312SOL     OW33571   0.320   4.529   1.842  0.1882  0.4806 -0.4605
 7312SOL    HW133572   0.301   4.497   1.930  0.6759  1.8867  0.1375
 7312SOL    HW233573   0.356   4.447   1.806  0.5645  0.2128  0.5295
 7313SOL     OW33574   3.033   3.065   6.919 -0.4465  0.1970  0.6795
 7313SOL    HW133575   3.100   3.046   6.854  0.7984  1.8242  1.4746
 7313SOL    HW233576   2.996   3.148   6.887 -0.3954 -0.3716 -0.8353
 7314SOL     OW33577   4.428   0.840   4.602  0.3609 -0.6140  0.0905
 7314SOL    HW133578   4.475   0.815   4.682  1.6346 -0.2540 -0.5492
 7314SOL    HW233579   4.386   0.756   4.586  1.0431 -0.6887 -1.2644
 7315SOL     OW33580   2.482   2.676  10.609  0.5228 -0.0259  0.3183
 7315SOL    HW133581   2.437   2.716  10.683 -0.3540 -1.0046  0.3021
 7315SOL    HW233582   2.549   2.626  10.657  0.8495 -0.9451 -1.0979
 7316SOL     OW33583   4.707   1.114   7.237  0.3449  0.7694  0.1491
 7316SOL    HW133584   4.688   1.111   7.143 -2.1359 -2.8617  0.7760
 7316SOL    HW233585   4.684   1.206   7.249 -2.4138  0.1069 -0.1216
 7317SOL     OW33586   4.392   0.730   9.529  0.8827 -0.6224  0.0649
 7317SOL    HW133587   4.450   0.744   9.454 -0.1875  0.7328 -0.5118
 7317SOL    HW233588   4.318   0.778   9.491  2.6556 -0.4432 -3.2075
 7318SOL     OW33589   4.614   2.467   6.539 -0.3621  0.4607 -0.5417
 7318SOL    HW133590   4.644   2.553   6.509  0.5899  0.2732 -0.1261
 7318SOL    HW233591   4.681   2.404   6.510  0.2165  1.6730 -1.8621
 7319SOL     OW33592   0.515   4.028   9.558  0.5899 -0.1974  0.1695
 7319SOL    HW133593   0.485   4.059   9.643 -0.4670 -1.5193  0.2847
 7319SOL    HW233594   0.506   4.108   9.506  1.9004  0.0157  0.2680
 7320SOL     OW33595   2.950   1.054   7.769 -0.0240  0.6928 -0.3704
 7320SOL    HW133596   3.010   1.128   7.766  0.3281  0.3320 -2.2791
 7320SOL    HW233597   3.005   0.990   7.815 -1.7000  1.2457  2.4067
 7321SOL     OW33598   2.025   4.292   6.775  0.3396 -0.7668 -0.5543
 7321SOL    HW133599   2.106   4.340   6.791  1.1120 -1.5713 -2.1056
 7321SOL    HW233600   2.061   4.204   6.763 -2.5958 -1.9963 -0.3975
 7322SOL     OW33601   2.954   1.881   9.456 -0.5476  0.0024 -0.1521
 7322SOL    HW133602   2.875   1.861   9.405 -0.8527 -2.8752  1.4234
 7322SOL    HW233603   2.984   1.795   9.486 -1.1583 -1.0697 -2.5900
 7323SOL     OW33604   2.580   3.989   2.539  0.0861  0.2123  0.1168
 7323SOL    HW133605   2.656   4.018   2.590  1.4385 -0.0089 -1.7467
 7323SOL    HW233606   2.595   3.895   2.545  2.3887  0.5290 -0.5018
 7324SOL     OW33607   3.684   0.123   6.663  0.7441 -0.1972 -0.1625
 7324SOL    HW133608   3.625   0.192   6.692  1.9281 -0.2922  2.4674
 7324SOL    HW233609   3.760   0.174   6.633 -0.1722  2.2490  1.6559
 7325SOL     OW33610   1.461   2.386   2.607  0.2104  0.2131  0.3710
 7325SOL    HW133611   1.475   2.367   2.699  0.5410 -2.9902 -0.3496
 7325SOL    HW233612   1.378   2.433   2.610 -0.8884 -1.6477 -0.5530
 7326SOL     OW33613   3.092   1.329   1.186  0.0277 -0.6848  0.6397
 7326SOL    HW133614   3.157   1.379   1.137 -0.4209  1.0291  1.7871
 7326SOL    HW233615   3.073   1.253   1.131  0.3649 -0.2422 -0.0909
 7327SOL     OW33616   4.500   1.306  15.694  0.3031  0.1199  0.3557
 7327SOL    HW133617   4.523   1.323  15.603  0.5883  1.7962  0.7300
 7327SOL    HW233618   4.437   1.235  15.686  0.1184 -0.1022  3.9771
 7328SOL     OW33619   1.232   0.993   7.237 -0.5310  0.1075  0.2724
 7328SOL    HW133620   1.283   0.949   7.169  0.8301  0.3407  1.1527
 7328SOL    HW233621   1.204   0.926   7.299  1.2742 -1.4572 -0.5987
 7329SOL     OW33622   2.183   3.645   4.371 -0.7792  0.3201 -0.4324
 7329SOL    HW133623   2.205   3.723   4.422 -0.6142 -0.3796  0.5681
 7329SOL    HW233624   2.270   3.605   4.368 -0.7205  0.4623 -0.6355
 7330SOL     OW33625   4.726   1.080  11.539  0.3530  0.5829 -0.3062
 7330SOL    HW133626   4.637   1.101  11.569 -0.0097  0.8850 -1.5966
 7330SOL    HW233627   0.010   1.011  11.603  0.0533  0.0216 -0.8230
 7331SOL     OW33628   0.846   0.385   7.548  0.3311  0.5460 -1.0284
 7331SOL    HW133629   0.764   0.392   7.499  0.4945 -1.1816 -1.5447
 7331SOL    HW233630   0.907   0.447   7.508  0.2388  0.2098 -1.6801
 7332SOL     OW33631   4.047   2.359   7.636  0.5096  0.0464  0.3168
 7332SOL    HW133632   4.127   2.370   7.584  0.2947  2.3136  0.5027
 7332SOL    HW233633   4.094   2.363   7.720 -1.2396  0.3035  1.2703
 7333SOL     OW33634   1.794   0.864   1.721 -0.8711 -0.8921  0.4909
 7333SOL    HW133635   1.784   0.941   1.777 -1.6499  0.5149 -1.5715
 7333SOL    HW233636   1.768   0.898   1.636  0.7133  0.3919  0.5278
 7334SOL     OW33637   1.618   3.958   2.176 -0.1496 -0.1741  0.3182
 7334SOL    HW133638   1.695   3.901   2.172 -0.0363  0.1036 -1.6198
 7334SOL    HW233639   1.558   3.929   2.107  1.2707  2.4400 -2.0301
 7335SOL     OW33640   1.807   3.506   7.085 -0.5152  0.0505  0.1982
 7335SOL    HW133641   1.878   3.443   7.074  1.2657  2.2777 -1.1453
 7335SOL    HW233642   1.833   3.573   7.021  0.3172  0.4783  0.9785
 7336SOL     OW33643   0.600   2.506   6.057  0.5310  0.0169  0.0852
 7336SOL    HW133644   0.629   2.566   5.988 -0.9670  2.5159  1.6291
 7336SOL    HW233645   0.508   2.529   6.064  0.4306 -0.6317  0.8199
 7337SOL     OW33646   2.352   2.099   2.445  0.4427  0.5678  0.2722
 7337SOL    HW133647   2.292   2.090   2.519  1.6741 -0.4978  1.1495
 7337SOL    HW233648   2.292   2.057   2.383 -0.2847  2.0385 -0.0216
 7338SOL     OW33649   2.464   1.699   9.489 -0.3648  0.3708  0.1540
 7338SOL    HW133650   2.464   1.607   9.461  0.2410  1.0756 -2.1235
 7338SOL    HW233651   2.469   1.741   9.403 -1.1872  0.2634  0.0513
 7339SOL     OW33652   3.155   1.063   4.369  0.3564  0.2108  0.2549
 7339SOL    HW133653   3.114   1.021   4.293 -0.2560 -1.7493  1.6829
 7339SOL    HW233654   3.132   0.999   4.436 -0.6845  2.0847  1.6857
 7340SOL     OW33655   0.412   4.357   7.209 -0.2484  0.4951 -0.3356
 7340SOL    HW133656   0.382   4.439   7.246 -0.8223  0.0194  0.2551
 7340SOL    HW233657   0.416   4.389   7.118 -0.2759  0.2081 -0.4381
 7341SOL     OW33658   2.316   1.637   2.618  0.1285  0.2809 -0.5397
 7341SOL    HW133659   2.259   1.702   2.578 -1.6067  0.2534  1.9279
 7341SOL    HW233660   2.347   1.584   2.544  0.8873  1.1205 -0.8258
 7342SOL     OW33661   0.092   2.951   8.347  0.0788  0.3927  0.1142
 7342SOL    HW133662   0.135   3.035   8.359  1.9322 -0.1334 -2.8420
 7342SOL    HW233663   0.027   2.940   8.417 -1.6368 -3.4280 -2.0258
 7343SOL     OW33664   0.394   2.344   8.720 -0.4685 -0.3740 -0.0053
 7343SOL    HW133665   0.373   2.410   8.654  0.9601  0.6601  0.5647
 7343SOL    HW233666   0.485   2.319   8.704 -0.5301  0.0972 -1.0748
 7344SOL     OW33667   3.266   2.819  15.439  0.3688 -0.2940  0.0868
 7344SOL    HW133668   3.248   2.753  15.506 -2.6903 -0.6376 -1.0649
 7344SOL    HW233669   3.350   2.786  15.405  1.2872  2.2744 -0.0947
 7345SOL     OW33670   1.342   3.956   0.830 -0.6782 -0.0604  0.0057
 7345SOL    HW133671   1.276   3.907   0.879  0.3715 -1.2318  0.2287
 7345SOL    HW233672   1.417   3.939   0.887 -0.3889 -0.0034 -0.3550
 7346SOL     OW33673   3.856   0.556   0.144  0.1348  0.4965 -0.2145
 7346SOL    HW133674   3.768   0.518   0.148 -1.0289  3.2608  0.7270
 7346SOL    HW233675   3.834   0.616   0.072  2.1319  2.6011  0.9703
 7347SOL     OW33676   3.654   0.754   5.809 -0.5363 -0.7001  0.2395
 7347SOL    HW133677   3.614   0.670   5.833  0.0572 -1.1382 -0.3007
 7347SOL    HW233678   3.599   0.782   5.736 -2.1720 -1.0115  1.3382
 7348SOL     OW33679   2.539   1.385   9.414  0.2944 -0.1559  0.3070
 7348SOL    HW133680   2.468   1.377   9.350  2.2169  0.2431 -1.9073
 7348SOL    HW233681   2.540   1.299   9.456 -2.2615 -1.2014 -1.7091
 7349SOL     OW33682   4.353   0.690   8.380  0.4377  0.0731  0.0208
 7349SOL    HW133683   4.275   0.641   8.353  0.8262 -0.2183 -0.5610
 7349SOL    HW233684   4.420   0.642   8.330 -0.0459 -2.0456  1.4059
 7350SOL     OW33685   1.228   3.086   8.305  0.8409  0.4130 -0.0194
 7350SOL    HW133686   1.251   3.174   8.275 -0.7785  0.4431 -1.1463
 7350SOL    HW233687   1.314   3.064   8.342  0.5132  0.8828  1.0445
 7351SOL     OW33688   0.710   0.717  10.110  0.4467  0.2868 -0.5321
 7351SOL    HW133689   0.720   0.741  10.018 -0.0119 -1.3773 -1.0228
 7351SOL    HW233690   0.617   0.698  10.121  0.4813 -0.3316 -1.3114
 7352SOL     OW33691   2.155   2.060   4.217 -0.3547 -0.3555 -0.0096
 7352SOL    HW133692   2.155   1.981   4.161  1.7677  0.7436 -1.5648
 7352SOL    HW233693   2.244   2.093   4.207 -0.7181  0.3682 -0.8731
 7353SOL     OW33694   0.593   1.178   4.356 -0.4209  0.1912 -0.3598
 7353SOL    HW133695   0.560   1.222   4.434 -1.7695 -0.6494 -0.4550
 7353SOL    HW233696   0.559   1.241   4.292 -0.8805 -0.8183 -1.0996
 7354SOL     OW33697   2.043   2.745   3.858 -0.3873 -0.1169 -0.0389
 7354SOL    HW133698   2.058   2.683   3.786 -4.4160 -2.0404  0.7636
 7354SOL    HW233699   2.112   2.807   3.837  0.5337 -1.2192 -0.2684
 7355SOL     OW33700   1.454   1.497  15.934  0.9852 -0.7804 -0.4424
 7355SOL    HW133701   1.363   1.476  15.913  0.2338  0.0404  2.0572
 7355SOL    HW233702   1.459   1.582  15.890 -0.5154  0.0149  0.9188
 7356SOL     OW33703   2.049   0.523   5.384 -0.3591  0.2099 -0.4077
 7356SOL    HW133704   2.001   0.601   5.356  0.1573 -0.1008 -2.1608
 7356SOL    HW233705   2.137   0.555   5.364 -0.2204 -1.5021 -2.5744
 7357SOL     OW33706   0.602   1.617  13.137  0.1834  0.2963 -0.4314
 7357SOL    HW133707   0.560   1.645  13.055  1.4155 -0.0321 -1.1664
 7357SOL    HW233708   0.594   1.703  13.179  1.6976  0.9691 -1.5209
 7358SOL     OW33709   3.128   1.076   7.263  0.3994 -0.3717 -0.4076
 7358SOL    HW133710   3.036   1.103   7.258  0.0115 -1.5615  0.5528
 7358SOL    HW233711   3.124   0.999   7.206 -0.3842 -0.9574  0.4444
 7359SOL     OW33712   2.702   1.175   6.566 -0.1125  0.4738 -0.0162
 7359SOL    HW133713   2.673   1.108   6.628  1.0742 -1.1160 -1.1916
 7359SOL    HW233714   2.646   1.147   6.493  0.9250 -0.6182 -0.3946
 7360SOL     OW33715   1.887   2.018   2.967 -0.1096  0.4409 -0.2236
 7360SOL    HW133716   1.878   2.059   3.054  0.3893 -0.1561  0.1100
 7360SOL    HW233717   1.850   1.931   2.983  1.8075 -0.1033  1.3049
 7361SOL     OW33718   1.998   2.679   7.597  0.1689  0.6979 -0.7361
 7361SOL    HW133719   2.071   2.710   7.544 -0.4666  0.0042 -2.0183
 7361SOL    HW233720   2.050   2.637   7.666  0.0055  0.8123 -0.5400
 7362SOL     OW33721   2.582   1.696   1.758  0.0233  0.5651 -0.0110
 7362SOL    HW133722   2.544   1.784   1.767 -0.8725  0.2258 -0.4942
 7362SOL    HW233723   2.656   1.709   1.698  0.5093 -2.6914 -0.1190
 7363SOL     OW33724   2.254   4.531   4.135 -0.1442 -0.0630 -0.5675
 7363SOL    HW133725   2.214   4.553   4.051  0.1456  0.2024 -0.6343
 7363SOL    HW233726   2.248   4.616   4.179  1.3749  0.2885 -1.0358
 7364SOL     OW33727   3.939   2.406   3.661  0.1594  0.2538  0.3228
 7364SOL    HW133728   3.920   2.492   3.698  1.2720  1.0737 -1.0355
 7364SOL    HW233729   3.930   2.419   3.567  0.7917  0.7424  0.3342
 7365SOL     OW33730   1.790   2.235  16.415  0.1352 -1.2904 -0.5852
 7365SOL    HW133731   1.784   2.160  16.356  0.2238 -2.9300  1.5097
 7365SOL    HW233732   1.714   2.285  16.384 -0.7674 -1.5435  1.2351
 7366SOL     OW33733   3.098   0.915   4.595 -0.2067 -0.2215 -0.4906
 7366SOL    HW133734   3.084   0.936   4.687  0.4775 -1.6051 -0.0786
 7366SOL    HW233735   3.011   0.934   4.561 -0.5478 -0.8867  0.0030
 7367SOL     OW33736   4.520   4.610   8.242 -0.0424 -0.5604 -0.5149
 7367SOL    HW133737   4.443   4.624   8.188 -0.6690 -1.1330  0.2285
 7367SOL    HW233738   4.490   4.631   8.330  0.1292 -1.1856 -0.3061
 7368SOL     OW33739   0.655   4.688   7.016 -0.0331 -0.3607  0.1895
 7368SOL    HW133740   0.676   4.647   7.100 -1.3368 -0.4330  0.4863
 7368SOL    HW233741   0.559   4.692   7.016  0.0741  2.1266 -0.9334
 7369SOL     OW33742   4.200   1.604   8.863  0.1764  0.4749  0.6716
 7369SOL    HW133743   4.195   1.622   8.769  0.6082 -0.4968  0.4623
 7369SOL    HW233744   4.147   1.672   8.905  0.2446  0.1253  1.3149
 7370SOL     OW33745   4.485   1.420  11.980 -0.4465  0.2193 -1.0564
 7370SOL    HW133746   4.508   1.368  11.903  1.6508  0.4410 -0.5542
 7370SOL    HW233747   4.486   1.344  12.038  1.9983  1.3437  0.3641
 7371SOL     OW33748   3.795   1.902   3.349  0.2417  0.3407 -0.3158
 7371SOL    HW133749   3.795   1.869   3.259  0.0314  0.0621 -0.2162
 7371SOL    HW233750   3.886   1.931   3.346  1.8750 -4.5315  0.7082
 7372SOL     OW33751   4.141   2.430   2.520 -0.5575  0.4126 -0.3045
 7372SOL    HW133752   4.222   2.451   2.472  0.0039 -1.6359 -0.2623
 7372SOL    HW233753   4.096   2.363   2.468  0.2317 -0.6832  0.4065
 7373SOL     OW33754   2.167   3.779   8.877 -0.0198 -0.8323 -0.2442
 7373SOL    HW133755   2.100   3.825   8.826 -1.0434 -0.1370  1.7307
 7373SOL    HW233756   2.205   3.857   8.916 -1.4899  0.4634 -1.3641
 7374SOL     OW33757   4.161   3.019  15.564 -0.4485 -0.3737  0.1225
 7374SOL    HW133758   4.077   3.008  15.609 -0.9165  0.1163 -0.6256
 7374SOL    HW233759   4.148   3.103  15.519 -2.2693 -0.7165 -0.0234
 7375SOL     OW33760   1.566   2.300   7.151 -0.0998  0.2417 -0.2788
 7375SOL    HW133761   1.628   2.257   7.209 -2.5980 -0.9321  1.5520
 7375SOL    HW233762   1.544   2.377   7.204 -0.9531 -0.5371  0.5179
 7376SOL     OW33763   2.755   3.421   7.534  0.3576 -0.1837  0.0227
 7376SOL    HW133764   2.814   3.495   7.521 -0.3294  0.9158  3.0005
 7376SOL    HW233765   2.722   3.407   7.446  0.2423 -1.7124  0.3117
 7377SOL     OW33766   3.175   2.676   8.365  0.2532  0.2312  0.0317
 7377SOL    HW133767   3.154   2.601   8.309  0.0538  0.9423 -0.8396
 7377SOL    HW233768   3.244   2.638   8.419  0.9832 -0.3886 -1.3286
 7378SOL     OW33769   3.937   0.225   9.052  0.5311  0.0819  0.1105
 7378SOL    HW133770   4.032   0.228   9.057  0.5755  0.3869 -1.0885
 7378SOL    HW233771   3.913   0.266   9.136 -2.2386 -0.3094 -0.4762
 7379SOL     OW33772   1.369   3.076  14.025  0.2176 -0.1719  0.5390
 7379SOL    HW133773   1.372   3.072  13.929  0.9993  1.1159  0.5215
 7379SOL    HW233774   1.419   3.152  14.051  2.7903 -1.4482 -0.7004
 7380SOL     OW33775   0.542   4.316   8.642 -0.2554 -0.3527 -0.4366
 7380SOL    HW133776   0.520   4.273   8.559 -1.9689  0.8928 -0.6344
 7380SOL    HW233777   0.635   4.313   8.621  0.1685  0.7628  1.3965
 7381SOL     OW33778   1.411   2.816   7.824 -0.3400 -0.3917 -0.0137
 7381SOL    HW133779   1.468   2.870   7.769  0.3783 -0.9789  0.1436
 7381SOL    HW233780   1.386   2.882   7.888 -0.0388 -2.0435  1.7983
 7382SOL     OW33781   0.726   3.083   7.169  0.3450  0.0471 -0.1745
 7382SOL    HW133782   0.733   3.102   7.075 -1.0170 -0.4209 -0.3770
 7382SOL    HW233783   0.792   3.015   7.157  1.9675  1.6546 -0.3660
 7383SOL     OW33784   1.659   1.897   7.665  0.1905  0.0702 -0.1568
 7383SOL    HW133785   1.698   1.899   7.752 -2.5690  0.9436  1.0512
 7383SOL    HW233786   1.742   1.872   7.624  0.2813 -0.4053  0.3132
 7384SOL     OW33787   2.352   0.996   2.842 -0.9397  0.5238  0.4735
 7384SOL    HW133788   2.324   0.993   2.751 -0.4321  1.0894  0.2962
 7384SOL    HW233789   2.424   1.058   2.826 -0.5323  0.6745  2.9406
 7385SOL     OW33790   3.464   0.190   3.840  0.4459 -0.1189  0.3921
 7385SOL    HW133791   3.430   0.277   3.862 -0.3172 -0.8166  1.9837
 7385SOL    HW233792   3.546   0.222   3.802 -0.2185 -0.0783 -0.9930
 7386SOL     OW33793   2.331   1.867   1.470 -0.6574 -0.2553  0.1868
 7386SOL    HW133794   2.337   1.916   1.551 -0.4663 -0.6367  0.4014
 7386SOL    HW233795   2.413   1.821   1.454  0.0191  1.2672 -0.7608
 7387SOL     OW33796   1.586   2.965   2.363  0.1143  0.1591 -0.1239
 7387SOL    HW133797   1.510   2.912   2.387  1.1937 -0.0385  2.8397
 7387SOL    HW233798   1.636   2.904   2.309 -0.3623 -1.3508  1.1666
 7388SOL     OW33799   0.471   1.007   9.778  0.8230  0.4082  0.1199
 7388SOL    HW133800   0.522   1.027   9.856  0.5524  0.2790  0.3292
 7388SOL    HW233801   0.449   0.915   9.792 -0.9252  0.5398 -1.7141
 7389SOL     OW33802   2.759   1.427   5.901  0.0406  0.0609  0.6107
 7389SOL    HW133803   2.771   1.332   5.899 -0.5975 -0.0267  0.8644
 7389SOL    HW233804   2.747   1.441   5.995  1.2680  0.0548  0.7762
 7390SOL     OW33805   0.100   0.282   7.316 -0.9119 -0.1357 -0.3204
 7390SOL    HW133806   0.087   0.253   7.407 -0.3001  0.4385 -0.0481
 7390SOL    HW233807   0.014   0.321   7.304 -1.7868 -1.9727 -0.1226
 7391SOL     OW33808   2.389   4.308  11.169  0.3047 -0.1972  0.6856
 7391SOL    HW133809   2.428   4.237  11.220  0.2856 -0.1506  0.7632
 7391SOL    HW233810   2.337   4.263  11.102 -1.5030  0.3536  1.7380
 7392SOL     OW33811   0.441   1.731   4.671 -0.3227 -1.2677 -0.1678
 7392SOL    HW133812   0.480   1.716   4.585  2.0275 -0.0211  0.6744
 7392SOL    HW233813   0.497   1.799   4.709 -1.0421 -1.3060  0.9657
 7393SOL     OW33814   2.580   4.328   5.241  0.4484 -0.2353 -0.6253
 7393SOL    HW133815   2.644   4.262   5.266  1.7380  1.0605 -0.4694
 7393SOL    HW233816   2.531   4.336   5.323  0.5457  0.1823 -0.6073
 7394SOL     OW33817   1.942   4.407   6.523 -0.8207 -0.1956  0.5361
 7394SOL    HW133818   1.862   4.356   6.528 -0.0624 -1.2960  1.3060
 7394SOL    HW233819   1.968   4.395   6.614  2.0032 -1.8186 -0.4873
 7395SOL     OW33820   3.273   3.310   5.368 -0.6390  0.0156 -0.3349
 7395SOL    HW133821   3.246   3.393   5.408 -0.8695 -0.0358 -0.3898
 7395SOL    HW233822   3.340   3.342   5.307 -0.2096 -0.2250  0.0022
 7396SOL     OW33823   4.381   0.394   3.369  0.2896 -0.0596  0.0958
 7396SOL    HW133824   4.432   0.360   3.296 -0.1847 -1.6329  0.4981
 7396SOL    HW233825   4.443   0.388   3.441  0.3516  1.3109  0.1666
 7397SOL     OW33826   1.576   1.772  11.892 -0.4121  0.2906 -0.1254
 7397SOL    HW133827   1.621   1.747  11.811  2.9711 -0.8477  2.1012
 7397SOL    HW233828   1.650   1.821  11.927  0.2581  0.0841 -1.2792
 7398SOL     OW33829   0.862   4.134   6.535  0.2832  0.1058 -0.2169
 7398SOL    HW133830   0.954   4.114   6.522  0.7491  2.4546 -0.6306
 7398SOL    HW233831   0.824   4.147   6.448 -1.4015  2.9383  0.9101
 7399SOL     OW33832   3.785   2.533   3.214  0.0357  0.4357 -0.5089
 7399SOL    HW133833   3.868   2.544   3.167 -0.6828  2.1180 -1.3617
 7399SOL    HW233834   3.730   2.577   3.149 -0.1770  0.7381 -0.1236
 7400SOL     OW33835   1.017   4.528   9.193 -0.2638 -0.2377  0.3388
 7400SOL    HW133836   0.924   4.523   9.218 -0.4074  0.7429 -0.0038
 7400SOL    HW233837   1.014   4.494   9.103 -0.2135  0.5950  0.0249
 7401SOL     OW33838   4.685   4.338   3.901 -0.6149  0.3635  0.5606
 7401SOL    HW133839   4.633   4.265   3.865 -0.6939  1.5857 -1.7804
 7401SOL    HW233840   4.708   4.386   3.822 -1.2079  0.4095  0.4140
 7402SOL     OW33841   2.832   1.192   9.776 -0.6518 -0.1189 -0.3955
 7402SOL    HW133842   2.854   1.107   9.814  3.1626  0.4089 -1.4127
 7402SOL    HW233843   2.803   1.245   9.849  1.5206  1.8489 -0.9775
 7403SOL     OW33844   3.770   0.219   6.307  0.3070  0.0810 -0.4551
 7403SOL    HW133845   3.709   0.208   6.379  2.4329 -0.0210  1.3340
 7403SOL    HW233846   3.806   0.130   6.311  1.7331  0.6771  0.1924
 7404SOL     OW33847   3.092   4.576  11.612  0.4393 -0.3214  0.4745
 7404SOL    HW133848   3.148   4.651  11.631 -0.3597  0.1901  0.7518
 7404SOL    HW233849   3.075   4.561  11.705 -1.3777  0.8321  0.3040
 7405SOL     OW33850   0.755   2.513  12.643  0.0614 -0.3545 -0.3676
 7405SOL    HW133851   0.760   2.557  12.728 -1.8404 -1.8344  0.5116
 7405SOL    HW233852   0.706   2.436  12.672  3.5208 -2.4569 -0.0012
 7406SOL     OW33853   1.833   4.160   3.712 -0.2580 -0.8080  0.0387
 7406SOL    HW133854   1.864   4.075   3.742 -1.7133 -1.4158 -0.1625
 7406SOL    HW233855   1.759   4.173   3.772 -0.6209  1.7338 -0.9312
 7407SOL     OW33856   2.359   2.594   6.169 -0.2701  0.2218  0.0351
 7407SOL    HW133857   2.326   2.509   6.197  0.6791 -1.2556 -3.3460
 7407SOL    HW233858   2.445   2.589   6.128 -1.1349 -0.5994 -1.6494
 7408SOL     OW33859   3.446   3.850   7.702 -0.2048 -0.2942 -0.3990
 7408SOL    HW133860   3.378   3.888   7.646 -1.2247 -0.2847  0.8430
 7408SOL    HW233861   3.511   3.850   7.632  0.3803 -2.4625  0.1604
 7409SOL     OW33862   2.098   1.797  14.925  0.4212  0.1106  0.0335
 7409SOL    HW133863   2.176   1.853  14.924  0.9811 -0.6520  0.7330
 7409SOL    HW233864   2.034   1.855  14.965 -0.0455  0.0058 -0.5701
 7410SOL     OW33865   3.516   2.385   3.452 -0.2240  0.0843  0.0542
 7410SOL    HW133866   3.492   2.394   3.360 -0.5954  0.6036  0.1984
 7410SOL    HW233867   3.445   2.329   3.483 -0.6091  0.7082  0.2936
 7411SOL     OW33868   2.000   2.273   3.349  0.3554 -0.3936  0.1083
 7411SOL    HW133869   2.090   2.243   3.367  0.8404  0.3841 -1.0301
 7411SOL    HW233870   1.950   2.276   3.430 -2.0836  1.6074 -1.5025
 7412SOL     OW33871   2.558   0.571   3.956  0.6555  0.6157  0.7046
 7412SOL    HW133872   2.493   0.641   3.948  1.5251  1.0963 -2.1734
 7412SOL    HW233873   2.561   0.543   4.047  1.3895 -2.6817 -0.3119
 7413SOL     OW33874   2.310   2.768   7.053 -0.3190 -0.1686 -0.4036
 7413SOL    HW133875   2.284   2.756   6.962 -0.1182  0.4944 -0.5480
 7413SOL    HW233876   2.260   2.839   7.094 -0.4539 -1.2991  1.3834
 7414SOL     OW33877   1.111   4.096   5.484 -0.3953  0.5191  0.0345
 7414SOL    HW133878   1.142   4.008   5.509  1.0110  0.4903 -1.8199
 7414SOL    HW233879   1.189   4.148   5.502 -0.6361  0.2059  2.0815
 7415SOL     OW33880   3.579   4.495   8.622  0.6260  0.3410  0.6030
 7415SOL    HW133881   3.648   4.558   8.642  1.9857 -0.0361 -2.8887
 7415SOL    HW233882   3.517   4.531   8.686  0.3491  2.6128 -0.9154
 7416SOL     OW33883   3.953   4.717   3.793 -0.0174  0.5425 -0.1932
 7416SOL    HW133884   3.932   4.624   3.787  0.1398  0.6855 -3.1815
 7416SOL    HW233885   3.991   4.729   3.706 -0.0353  2.2289  0.0385
 7417SOL     OW33886   2.604   0.197   9.274  0.3979  0.5504  0.4787
 7417SOL    HW133887   2.567   0.247   9.347 -2.1450  0.3307 -0.6289
 7417SOL    HW233888   2.650   0.137   9.332  0.8606  0.6498  0.2113
 7418SOL     OW33889   1.923   1.144   5.205  0.6994  0.0962 -0.7831
 7418SOL    HW133890   1.931   1.141   5.110 -1.4259  1.5828 -1.0137
 7418SOL    HW233891   1.840   1.104   5.231  0.6133  0.4168 -0.5650
 7419SOL     OW33892   2.432   2.420   5.772 -0.4821 -0.1129  0.0676
 7419SOL    HW133893   2.456   2.387   5.686 -3.6128  0.2159 -0.9168
 7419SOL    HW233894   2.419   2.514   5.767  2.1845  0.2371 -0.1087
 7420SOL     OW33895   0.862   4.489  16.414  0.0863  0.0828  0.5340
 7420SOL    HW133896   0.827   4.514  16.499  0.6242  0.2705  0.6996
 7420SOL    HW233897   0.817   4.406  16.395 -3.4093  1.7373  1.6858
 7421SOL     OW33898   2.296   4.191   3.252 -0.4099 -0.8820 -0.2678
 7421SOL    HW133899   2.266   4.139   3.327  0.2969 -0.3232  0.4133
 7421SOL    HW233900   2.267   4.278   3.282 -0.2357 -0.9610  0.1313
 7422SOL     OW33901   1.745   1.441   8.483  0.2218 -0.6060  0.1400
 7422SOL    HW133902   1.750   1.451   8.578  1.8680  2.0898 -0.2252
 7422SOL    HW233903   1.674   1.377   8.485  1.1362 -1.6356 -0.0629
 7423SOL     OW33904   4.130   4.148   0.726 -0.2752 -0.3612  0.2208
 7423SOL    HW133905   4.170   4.065   0.751  2.1702  1.7660  3.3878
 7423SOL    HW233906   4.187   4.161   0.650 -0.8879  0.0563 -0.1686
 7424SOL     OW33907   4.612   0.788   3.678 -0.1960 -0.0935  0.3793
 7424SOL    HW133908   4.526   0.811   3.642 -0.2047  0.2518  0.6170
 7424SOL    HW233909   4.626   0.874   3.718 -1.2573 -0.0053  0.5860
 7425SOL     OW33910   4.413   1.061   7.012 -0.4290 -0.1540  0.4687
 7425SOL    HW133911   4.340   1.123   7.004 -1.0933 -1.3088 -2.4247
 7425SOL    HW233912   4.484   1.111   6.971 -0.9025 -0.9641 -1.3273
 7426SOL     OW33913   3.195   1.173   6.861 -0.2949 -0.2425  0.0785
 7426SOL    HW133914   3.214   1.216   6.945  0.4646  1.5998 -1.0304
 7426SOL    HW233915   3.140   1.234   6.811 -0.5499 -0.2229  0.3841
 7427SOL     OW33916   2.181   4.687   7.560  0.0980 -0.3653 -0.1516
 7427SOL    HW133917   2.116   4.662   7.626  1.3015 -0.9812  0.8126
 7427SOL    HW233918   2.254   4.647   7.607 -1.2073 -0.0312  2.1861
 7428SOL     OW33919   2.297   4.548   6.681  0.1507  0.8177 -0.0434
 7428SOL    HW133920   2.232   4.577   6.745 -1.4245  2.5305 -2.4170
 7428SOL    HW233921   2.365   4.507   6.735 -0.2789 -1.7239 -1.4432
 7429SOL     OW33922   3.091   0.133   2.315 -0.3418  0.3943 -0.4671
 7429SOL    HW133923   3.009   0.166   2.352 -0.3679 -0.4476  0.2184
 7429SOL    HW233924   3.053   0.054   2.279  1.4617  0.6669 -2.9592
 7430SOL     OW33925   2.302   1.277   5.301  0.1934 -0.0278 -0.0823
 7430SOL    HW133926   2.371   1.220   5.333  0.2754 -0.5549 -1.1869
 7430SOL    HW233927   2.263   1.207   5.248  2.7084 -1.2368 -0.2957
 7431SOL     OW33928   1.827   3.378   8.262 -0.3652  0.4317  0.3846
 7431SOL    HW133929   1.911   3.334   8.276 -1.1218 -1.7403 -1.8388
 7431SOL    HW233930   1.846   3.427   8.182  0.7709  0.1792  0.5002
 7432SOL     OW33931   2.007   2.775  12.736  0.1497  0.5965  0.2574
 7432SOL    HW133932   1.937   2.717  12.708  0.7907 -1.2659  2.5305
 7432SOL    HW233933   2.053   2.710  12.789  0.0813  0.9409  0.7414
 7433SOL     OW33934   1.641   4.034  15.108 -0.1133 -0.1618 -0.3378
 7433SOL    HW133935   1.550   4.005  15.108  0.0266 -0.6055  0.9297
 7433SOL    HW233936   1.629   4.111  15.053 -0.7625 -1.2865 -1.7560
 7434SOL     OW33937   1.905   1.451   6.550  0.1156  0.0034  0.7204
 7434SOL    HW133938   1.955   1.435   6.630  0.8533  0.2724  0.3037
 7434SOL    HW233939   1.866   1.365   6.534  2.1011 -0.5105 -1.2272
 7435SOL     OW33940   2.239   0.519   5.681 -0.3359  0.2332 -0.5971
 7435SOL    HW133941   2.248   0.483   5.593  2.9649 -0.1294 -0.1255
 7435SOL    HW233942   2.303   0.458   5.718 -0.6094  1.2414  1.5306
 7436SOL     OW33943   4.459   3.378   4.288  0.1641 -0.2336 -0.4614
 7436SOL    HW133944   4.418   3.307   4.239  0.2562 -0.3479 -0.3717
 7436SOL    HW233945   4.386   3.424   4.330  0.9221  1.3244 -0.8482
 7437SOL     OW33946   1.816   4.514  15.187 -0.6176  0.1550  0.1601
 7437SOL    HW133947   1.797   4.420  15.181  3.2239 -0.6265  0.5258
 7437SOL    HW233948   1.810   4.543  15.096 -1.4900  0.5441  0.3378
 7438SOL     OW33949   2.749   3.412   7.242  0.2098 -0.2591  0.4749
 7438SOL    HW133950   2.678   3.476   7.249  1.2578  1.1498 -1.8679
 7438SOL    HW233951   2.712   3.327   7.263 -0.1011 -0.0686  0.7095
 7439SOL     OW33952   2.831   1.002  11.643 -0.9055 -1.0739  0.1602
 7439SOL    HW133953   2.783   0.981  11.562  0.1047  0.4139 -0.8192
 7439SOL    HW233954   2.768   1.065  11.678  0.8987 -0.3874  2.1715
 7440SOL     OW33955   3.825   0.554   3.850 -0.1633  0.4698  0.1599
 7440SOL    HW133956   3.800   0.646   3.840  0.6177  0.2618 -3.8031
 7440SOL    HW233957   3.889   0.565   3.920 -0.5196 -0.9975  0.7098
 7441SOL     OW33958   0.602   1.382   5.211  0.4591 -0.1630  0.9280
 7441SOL    HW133959   0.690   1.349   5.231  1.2201  0.6047 -1.1053
 7441SOL    HW233960   0.550   1.344   5.281  0.4656  0.1569  1.1024
 7442SOL     OW33961   4.188   2.750  11.474  0.2912  0.1946 -0.6567
 7442SOL    HW133962   4.113   2.749  11.533 -0.5309 -2.3638 -1.7765
 7442SOL    HW233963   4.183   2.667  11.427 -1.5142 -1.4179  2.4385
 7443SOL     OW33964   0.829   3.174   6.009  0.2722  0.4508  0.0714
 7443SOL    HW133965   0.858   3.085   5.987  1.1815  0.4048  1.4139
 7443SOL    HW233966   0.887   3.190   6.083  0.8014  2.1044 -0.6984
 7444SOL     OW33967   0.762   3.778   9.886 -0.3981  0.1757  0.1841
 7444SOL    HW133968   0.682   3.779   9.938 -0.6492 -0.7320 -0.1866
 7444SOL    HW233969   0.743   3.703   9.830 -0.3419  0.7143 -0.5569
 7445SOL     OW33970   2.098   3.548   0.382 -0.1109 -0.2302 -0.6005
 7445SOL    HW133971   2.148   3.470   0.356 -0.3705 -1.4222  2.4616
 7445SOL    HW233972   2.169   3.610   0.396 -2.0944  1.5455  1.5929
 7446SOL     OW33973   1.157   0.977   8.556  0.4486 -0.4711  1.0443
 7446SOL    HW133974   1.214   0.902   8.540 -2.4966 -2.5502  0.0920
 7446SOL    HW233975   1.107   0.944   8.631  1.4279 -2.4345  0.8278
 7447SOL     OW33976   3.215   3.311   3.496 -0.3974  0.2707 -0.3967
 7447SOL    HW133977   3.225   3.305   3.591  0.8244 -0.7476 -0.5868
 7447SOL    HW233978   3.234   3.224   3.461 -1.4186  0.9230 -2.5509
 7448SOL     OW33979   1.201   3.290   8.712 -0.1628  0.9856 -0.1543
 7448SOL    HW133980   1.213   3.351   8.785  0.7908 -0.4742  0.9001
 7448SOL    HW233981   1.290   3.282   8.677 -0.0551  1.1719  0.0802
 7449SOL     OW33982   3.165   2.488  12.008  0.0315 -0.0379  0.1961
 7449SOL    HW133983   3.228   2.478  12.080 -0.1041  0.4551  0.3787
 7449SOL    HW233984   3.212   2.437  11.941  0.7433  1.5735 -0.5304
 7450SOL     OW33985   4.023   1.612  12.960  0.2743 -0.2859  0.6686
 7450SOL    HW133986   3.990   1.554  13.028  2.4352  2.2056  3.8498
 7450SOL    HW233987   3.992   1.567  12.881  1.0778 -0.1536  0.2758
 7451SOL     OW33988   3.330   3.566   2.550 -0.6853  0.1897 -0.0391
 7451SOL    HW133989   3.396   3.516   2.502  0.9481  0.6274  1.7267
 7451SOL    HW233990   3.367   3.653   2.563  0.7039 -0.6878  2.0027
 7452SOL     OW33991   4.624   1.937   1.982  0.2633  0.0330 -0.5186
 7452SOL    HW133992   4.540   1.907   2.017  0.2138  1.5227  0.6560
 7452SOL    HW233993   4.642   1.869   1.917  0.3560 -0.7099  0.2950
 7453SOL     OW33994   0.277   1.844   3.522 -0.4757 -0.0048  0.2439
 7453SOL    HW133995   0.343   1.833   3.453  0.4530 -1.3477  1.3565
 7453SOL    HW233996   0.302   1.779   3.588 -2.5082 -1.9779 -0.9375
 7454SOL     OW33997   3.209   1.717  16.889 -0.1216 -0.0986 -0.4998
 7454SOL    HW133998   3.218   1.678  16.802  1.4244  0.6183 -0.6646
 7454SOL    HW233999   3.119   1.749  16.895  0.3896  1.3778 -0.8176
 7455SOL     OW34000   2.359   3.244  11.331  0.1609 -0.3580 -1.2462
 7455SOL    HW134001   2.298   3.297  11.383  0.8388 -2.0788  1.2529
 7455SOL    HW234002   2.437   3.298  11.333  0.0726 -0.3025  0.5981
 7456SOL     OW34003   1.865   3.310  17.014 -0.0268  0.0775  0.5232
 7456SOL    HW134004   1.803   3.367  16.968 -0.1246 -0.2152  0.2882
 7456SOL    HW234005   1.915   3.286  16.935  0.8508 -0.5192  1.2642
 7457SOL     OW34006   2.953   3.208  15.234 -0.2345  0.1901 -0.3656
 7457SOL    HW134007   3.044   3.182  15.245 -0.2177 -0.3558 -1.8279
 7457SOL    HW234008   2.912   3.123  15.219 -1.5338  0.4751  1.5863
 7458SOL     OW34009   1.934   2.177   5.243 -0.3530  0.0661  0.1428
 7458SOL    HW134010   2.026   2.151   5.254 -0.5012 -0.8925 -0.9584
 7458SOL    HW234011   1.944   2.265   5.207 -2.6122 -0.1346 -0.9813
 7459SOL     OW34012   1.477   1.046   8.334 -0.4061 -0.0084  0.1976
 7459SOL    HW134013   1.386   1.018   8.336 -0.2263 -0.4653  1.3953
 7459SOL    HW234014   1.467   1.136   8.301  0.7438  1.0915  2.8566
 7460SOL     OW34015   0.008   2.237   1.964 -0.4187 -0.4437 -0.2368
 7460SOL    HW134016   0.100   2.217   1.950 -0.7819 -0.6245 -2.3749
 7460SOL    HW234017   4.712   2.147   1.974 -1.0950  0.0146  1.9173
 7461SOL     OW34018   3.311   3.833   5.849 -0.0568  0.2597  0.0032
 7461SOL    HW134019   3.309   3.823   5.944  1.3440 -0.3740 -0.0315
 7461SOL    HW234020   3.405   3.827   5.834  0.2697 -1.4580  2.7617
 7462SOL     OW34021   0.927   0.886   5.452 -0.6905 -0.2761 -0.4016
 7462SOL    HW134022   0.860   0.819   5.437 -0.0749 -1.2995  1.5311
 7462SOL    HW234023   0.937   0.905   5.545  0.6951 -0.4853 -0.5164
 7463SOL     OW34024   2.833   3.942   8.131  0.0120  0.2397 -0.1190
 7463SOL    HW134025   2.797   3.867   8.178 -0.8171  0.2644 -0.7113
 7463SOL    HW234026   2.898   3.970   8.195 -0.5079 -0.6284  0.7798
 7464SOL     OW34027   3.408   2.443   3.005  0.4678  0.0605  0.0942
 7464SOL    HW134028   3.487   2.497   2.998  0.2903  0.1763 -1.0643
 7464SOL    HW234029   3.366   2.484   3.081  2.9143  0.7459  1.1004
 7465SOL     OW34030   3.750   4.043   6.250 -0.1114 -0.6510 -0.0767
 7465SOL    HW134031   3.829   4.085   6.285 -2.0453  1.0607  2.2275
 7465SOL    HW234032   3.723   4.108   6.185  3.3115 -0.4655 -1.3133
 7466SOL     OW34033   1.070   0.607   5.478 -0.4937 -0.3329 -0.3091
 7466SOL    HW134034   0.980   0.638   5.490  0.3648  1.4184  1.4967
 7466SOL    HW234035   1.053   0.519   5.442 -0.5781 -1.0351  1.4218
 7467SOL     OW34036   2.353   2.745   3.827  0.8455 -0.4832  0.3182
 7467SOL    HW134037   2.363   2.810   3.898 -1.0237  1.8666 -1.5625
 7467SOL    HW234038   2.334   2.673   3.887  1.7175  0.7176  2.0332
 7468SOL     OW34039   4.346   1.535   7.610 -0.1478 -0.7495  0.7223
 7468SOL    HW134040   4.252   1.550   7.623 -0.4489 -1.5249 -0.5704
 7468SOL    HW234041   4.361   1.575   7.525 -1.6121  0.5354  1.0733
 7469SOL     OW34042   0.801   0.126   2.948 -0.0707 -0.0857 -0.0078
 7469SOL    HW134043   0.794   0.220   2.933  2.2430 -0.0481 -0.9400
 7469SOL    HW234044   0.795   0.109   3.042  0.5586 -1.3815 -0.1930
 7470SOL     OW34045   3.140   1.588   1.382 -0.2347  0.6610 -0.2505
 7470SOL    HW134046   3.174   1.588   1.472  0.1827 -0.4549 -0.4062
 7470SOL    HW234047   3.180   1.508   1.349 -4.4220 -1.0553 -1.1392
 7471SOL     OW34048   3.141   2.561   2.702  0.0999 -0.1952  0.5283
 7471SOL    HW134049   3.049   2.544   2.680  0.5167  1.2202 -2.2024
 7471SOL    HW234050   3.161   2.642   2.655  0.4980 -0.4097  0.3355
 7472SOL     OW34051   3.657   2.812   2.715  0.6220 -0.1769  0.1540
 7472SOL    HW134052   3.710   2.889   2.695  0.6926 -0.2767 -0.0386
 7472SOL    HW234053   3.684   2.782   2.802  2.9542  0.5686 -0.3196
 7473SOL     OW34054   2.967   4.644   6.540  0.2439 -0.1773 -0.3580
 7473SOL    HW134055   3.026   4.719   6.548 -0.9879  0.7933 -0.3756
 7473SOL    HW234056   2.970   4.643   6.444 -1.2354 -0.7041 -0.3989
 7474SOL     OW34057   3.608   1.486   5.693  0.0136  0.1223  0.0255
 7474SOL    HW134058   3.599   1.497   5.598 -1.2160  1.1498  0.2500
 7474SOL    HW234059   3.635   1.577   5.710 -0.7455 -0.2241  2.9280
 7475SOL     OW34060   0.892   1.230  16.063 -0.2756  0.9664  0.3985
 7475SOL    HW134061   0.891   1.319  16.028 -0.1174  0.5967 -0.5514
 7475SOL    HW234062   0.968   1.192  16.019 -0.1660  2.1932 -0.4449
 7476SOL     OW34063   1.498   3.476   4.967  0.1653  0.1311  0.1538
 7476SOL    HW134064   1.489   3.571   4.978 -2.5345 -0.1562  0.3422
 7476SOL    HW234065   1.406   3.452   4.979  0.3272  0.5733  2.2706
 7477SOL     OW34066   1.324   4.243   1.495  0.1893 -0.1178  0.2726
 7477SOL    HW134067   1.379   4.211   1.567  1.9683  1.8917 -0.1586
 7477SOL    HW234068   1.253   4.181   1.505  0.1184 -0.0151  0.3984
 7478SOL     OW34069   2.737   2.514   1.835 -0.2696  0.2441  0.4243
 7478SOL    HW134070   2.741   2.536   1.928  0.5639  0.6057  0.3038
 7478SOL    HW234071   2.642   2.521   1.825 -0.3168 -2.9910 -1.3168
 7479SOL     OW34072   2.581   4.714   7.689 -0.0331 -0.4700 -0.0142
 7479SOL    HW134073   2.504   4.675   7.646  1.8040 -1.4856 -2.4169
 7479SOL    HW234074   2.609   0.049   7.630  2.2473 -1.5296 -0.2061
 7480SOL     OW34075   0.665   0.038   0.649  0.2470  0.0850 -0.0481
 7480SOL    HW134076   0.669   0.075   0.737 -1.0786  0.1929 -0.0298
 7480SOL    HW234077   0.700   4.689   0.678 -1.4375  0.7828  4.0803
 7481SOL     OW34078   3.040   0.839   8.704  0.3042 -0.2365  0.0418
 7481SOL    HW134079   3.030   0.932   8.723  0.7650 -0.4304  1.1979
 7481SOL    HW234080   3.085   0.812   8.784 -0.8513  0.3459  0.8777
 7482SOL     OW34081   3.998   2.528   8.706 -0.0278  0.0088 -0.3205
 7482SOL    HW134082   3.920   2.547   8.758  0.2739  1.5354 -0.4130
 7482SOL    HW234083   4.033   2.617   8.700  2.1427 -0.7696  0.6761
 7483SOL     OW34084   2.813   4.109   7.083  0.1919  0.0090 -0.0326
 7483SOL    HW134085   2.770   4.048   7.023 -0.5467 -1.5243  2.0688
 7483SOL    HW234086   2.901   4.073   7.073  0.3770  0.4296  0.0740
 7484SOL     OW34087   1.514   1.881   5.257  0.0413 -0.0241  0.6474
 7484SOL    HW134088   1.505   1.957   5.314 -0.7589 -0.7272  1.4666
 7484SOL    HW234089   1.445   1.822   5.289  0.0671 -0.0272  0.6976
 7485SOL     OW34090   4.133   1.465   7.099  0.2282 -0.2760  0.3339
 7485SOL    HW134091   4.076   1.536   7.067 -0.5601 -0.9251  0.2919
 7485SOL    HW234092   4.092   1.437   7.180  1.6288 -1.5440  0.6093
 7486SOL     OW34093   1.572   2.257   3.757 -0.5564 -0.0390 -0.4339
 7486SOL    HW134094   1.479   2.275   3.742 -1.0807 -0.9189  1.7078
 7486SOL    HW234095   1.586   2.198   3.683 -2.8083  0.3003 -1.1351
 7487SOL     OW34096   0.962   4.180  15.142 -0.1104 -0.1203  0.4347
 7487SOL    HW134097   1.048   4.220  15.157 -1.2305  1.4942  2.4991
 7487SOL    HW234098   0.985   4.095  15.106  1.4059 -0.7068  2.7928
 7488SOL     OW34099   4.488   2.097   6.717  0.2303  0.3693  0.3767
 7488SOL    HW134100   4.582   2.082   6.726  0.1089 -0.1738  0.7699
 7488SOL    HW234101   4.456   2.108   6.807  1.4947  1.2496  0.7189
 7489SOL     OW34102   2.321   0.928  14.019 -0.1318 -0.2346 -0.5486
 7489SOL    HW134103   2.262   0.868  14.065  0.5420 -0.5412 -0.0795
 7489SOL    HW234104   2.277   0.933  13.934  0.3599 -2.9299 -0.9516
 7490SOL     OW34105   1.444   0.138   3.222 -0.3329  0.1307 -0.3067
 7490SOL    HW134106   1.415   0.161   3.134 -2.1993  2.2533  0.8307
 7490SOL    HW234107   1.457   0.230   3.246 -1.6655  0.3891 -0.5846
 7491SOL     OW34108   4.433   4.271   8.811  0.5038 -0.4120  0.2806
 7491SOL    HW134109   4.410   4.183   8.841  2.0499  0.0170  2.6928
 7491SOL    HW234110   4.393   4.270   8.724  0.5663  2.6006  0.1986
 7492SOL     OW34111   1.541   3.660   8.532 -0.8429  0.0818  0.4209
 7492SOL    HW134112   1.509   3.697   8.450  0.6793  1.9407  0.6800
 7492SOL    HW234113   1.605   3.595   8.502 -0.3899  0.7445 -0.0452
 7493SOL     OW34114   2.870   1.883  11.866 -0.5992 -1.0471 -0.1636
 7493SOL    HW134115   2.852   1.950  11.932  0.3829 -0.2955 -0.6500
 7493SOL    HW234116   2.950   1.844  11.899  0.3583  1.7960  0.8895
 7494SOL     OW34117   2.608   3.180   3.735  0.5939 -0.0223 -0.3514
 7494SOL    HW134118   2.629   3.257   3.683  0.7505 -1.7676 -2.8886
 7494SOL    HW234119   2.663   3.118   3.687 -0.8682 -1.7691  0.2293
 7495SOL     OW34120   0.352   3.020  14.746  0.1906  0.1036 -0.5847
 7495SOL    HW134121   0.328   2.930  14.725  1.5545 -0.4105  0.0349
 7495SOL    HW234122   0.436   3.021  14.699  0.6050  0.4856  0.1656
 7496SOL     OW34123   4.448   3.016  14.408  0.4915  0.3440  0.2456
 7496SOL    HW134124   4.366   3.019  14.360  1.4215 -0.6644 -1.3925
 7496SOL    HW234125   4.486   2.930  14.390 -2.0995 -1.0373  1.3756
 7497SOL     OW34126   3.262   4.363   5.018 -0.1212 -0.3689 -0.1294
 7497SOL    HW134127   3.167   4.360   5.025 -0.1904  1.3056 -0.3411
 7497SOL    HW234128   3.278   4.441   4.965 -0.4022  1.0670  1.9212
 7498SOL     OW34129   2.241   1.170  17.391  0.5958 -0.5154 -0.5560
 7498SOL    HW134130   2.270   1.176  17.482 -3.0579 -1.3842  0.6330
 7498SOL    HW234131   2.150   1.199  17.389  0.1207 -1.9658  0.1917
 7499SOL     OW34132   4.180   1.774   6.653 -0.1967 -0.0108 -0.0874
 7499SOL    HW134133   4.130   1.765   6.573  1.0391 -1.3914 -0.6997
 7499SOL    HW234134   4.251   1.834   6.630  0.8488 -1.8811 -1.7354
 7500SOL     OW34135   4.466   2.679   4.855  0.2983 -0.0622 -0.6545
 7500SOL    HW134136   4.425   2.593   4.854 -0.1310  0.1102  1.0208
 7500SOL    HW234137   4.541   2.673   4.796  1.6219  1.9431  0.8037
 7501SOL     OW34138   3.237   2.653   1.625  0.2227  0.0163  0.0773
 7501SOL    HW134139   3.163   2.599   1.597 -0.0229  1.3298 -1.7514
 7501SOL    HW234140   3.219   2.657   1.719 -0.7128 -2.0695 -0.0028
 7502SOL     OW34141   0.511   4.458   4.382 -0.3438  0.2101  0.1041
 7502SOL    HW134142   0.527   4.509   4.302 -0.5099 -1.2155 -0.8310
 7502SOL    HW234143   0.601   4.466   4.415 -0.9741  0.3450  1.8273
 7503SOL     OW34144   2.044   4.262   3.563  0.1686  0.0620  0.2112
 7503SOL    HW134145   1.964   4.226   3.602  0.3051 -1.8434 -1.2621
 7503SOL    HW234146   2.045   4.348   3.605 -0.3415  0.3484 -0.3526
 7504SOL     OW34147   1.738   3.664   7.640 -0.2705  0.0669  0.1453
 7504SOL    HW134148   1.778   3.750   7.652 -0.1944  0.3701 -2.2789
 7504SOL    HW234149   1.681   3.668   7.716 -0.5896  0.4864 -0.1129
 7505SOL     OW34150   0.531   1.060   0.247 -0.6125 -0.2657 -0.0307
 7505SOL    HW134151   0.474   1.094   0.316 -0.7751 -2.1654  0.7716
 7505SOL    HW234152   0.481   0.997   0.195  1.5172 -0.2401 -2.0534
 7506SOL     OW34153   1.772   1.894  16.747  0.5177  0.5083 -0.3928
 7506SOL    HW134154   1.703   1.843  16.705  0.1875  0.5474  0.0972
 7506SOL    HW234155   1.795   1.840  16.823 -0.6484 -0.2167 -0.5581
 7507SOL     OW34156   2.300   0.550   2.990 -0.1843  0.2754 -0.1332
 7507SOL    HW134157   2.213   0.568   3.024  0.6975  5.1054 -0.3951
 7507SOL    HW234158   2.354   0.587   3.060 -3.0350 -1.3084  2.8904
 7508SOL     OW34159   4.459   0.917   8.253  0.1210  0.0198  0.5825
 7508SOL    HW134160   4.504   0.840   8.219 -0.1850  0.0593  0.0895
 7508SOL    HW234161   4.396   0.873   8.310 -0.2589  1.1345  1.0250
 7509SOL     OW34162   0.215   3.323  14.648 -0.5318 -0.0061  0.4649
 7509SOL    HW134163   0.246   3.297  14.734 -0.7044 -2.1618 -0.1051
 7509SOL    HW234164   0.295   3.299  14.602 -1.1654 -2.5797  0.7056
 7510SOL     OW34165   2.752   3.899   6.895 -0.2262 -0.2313 -0.0039
 7510SOL    HW134166   2.795   3.820   6.862  0.7406 -0.4744  1.8121
 7510SOL    HW234167   2.756   3.952   6.815 -0.8606 -0.3025 -0.0773
 7511SOL     OW34168   1.025   4.615   2.461 -0.1108 -0.1602  0.6892
 7511SOL    HW134169   1.079   4.536   2.458 -0.7149 -0.5533  0.1599
 7511SOL    HW234170   1.074   4.686   2.420 -0.3567  0.1870  0.9901
 7512SOL     OW34171   3.013   2.216  12.186 -0.4862 -0.0452 -0.8401
 7512SOL    HW134172   3.076   2.231  12.257 -0.2420  1.6480 -1.4169
 7512SOL    HW234173   2.938   2.272  12.209  2.0275  2.4158  1.3291
 7513SOL     OW34174   3.056   0.536   5.695 -0.6960  0.1869  0.2630
 7513SOL    HW134175   2.977   0.485   5.675  0.2410 -1.0111 -0.3348
 7513SOL    HW234176   3.114   0.463   5.716 -0.5466  0.1651 -0.2233
 7514SOL     OW34177   1.701   0.931   6.503  0.3146 -0.2975  0.1142
 7514SOL    HW134178   1.695   0.916   6.409 -1.7317 -0.7589  0.2959
 7514SOL    HW234179   1.688   0.841   6.535 -0.6053 -0.3619 -0.4334
 7515SOL     OW34180   1.286   0.620   3.905  0.1281  0.6285  0.0295
 7515SOL    HW134181   1.346   0.693   3.889  0.0848  0.2674 -1.7087
 7515SOL    HW234182   1.223   0.670   3.957 -2.5838 -0.8642 -1.8509
 7516SOL     OW34183   3.566   4.320   1.583  0.2541 -0.0083  0.8443
 7516SOL    HW134184   3.551   4.296   1.675  1.6850 -0.5224  0.9523
 7516SOL    HW234185   3.498   4.274   1.534  1.5012  0.0801 -0.9740
 7517SOL     OW34186   3.676   1.947   5.407 -0.8760  0.0445  0.3065
 7517SOL    HW134187   3.620   1.961   5.330  0.7087 -0.9031 -1.0041
 7517SOL    HW234188   3.642   2.012   5.469  0.8835  0.5962  0.6792
 7518SOL     OW34189   4.458   4.351   4.720  0.0708 -0.2772  0.0644
 7518SOL    HW134190   4.374   4.307   4.732  1.1457 -1.9502  1.5171
 7518SOL    HW234191   4.452   4.420   4.786 -0.2862 -0.4014  0.1650
 7519SOL     OW34192   2.254   3.684   7.305  0.2475  0.2126 -0.1595
 7519SOL    HW134193   2.212   3.682   7.219  0.4620  1.9194 -0.3042
 7519SOL    HW234194   2.176   3.676   7.360  1.0875 -1.0268  0.8484
 7520SOL     OW34195   3.106   3.956   3.737 -0.0406 -0.2438  0.5955
 7520SOL    HW134196   3.086   4.022   3.803 -2.6415 -0.3946 -0.0132
 7520SOL    HW234197   3.201   3.967   3.729 -0.4847  3.6769  0.6047
 7521SOL     OW34198   1.402   3.776   6.243  0.5357 -0.0546 -0.0461
 7521SOL    HW134199   1.350   3.708   6.200  0.1756 -1.4872  2.6549
 7521SOL    HW234200   1.432   3.722   6.316  0.3292  0.4943  0.4522
 7522SOL     OW34201   0.789   2.424   9.507  0.1767 -0.3679  0.7556
 7522SOL    HW134202   0.867   2.478   9.497 -0.1095 -0.2804 -1.0522
 7522SOL    HW234203   0.810   2.358   9.574  0.5881  1.3865  2.3408
 7523SOL     OW34204   4.022   0.293   4.077  0.2309 -0.4427 -0.4685
 7523SOL    HW134205   3.932   0.262   4.085 -1.1584  3.5167 -0.7501
 7523SOL    HW234206   4.004   0.387   4.077  1.4083 -0.2215 -1.1159
 7524SOL     OW34207   3.356   0.987   1.401  0.0586 -0.5407 -0.7267
 7524SOL    HW134208   3.368   0.997   1.495 -1.0203 -1.4282 -0.4944
 7524SOL    HW234209   3.276   1.038   1.391 -0.0048 -0.0673  2.2969
 7525SOL     OW34210   2.960   2.925   9.263  0.0058  0.3857 -0.5280
 7525SOL    HW134211   2.938   2.949   9.353 -1.2865  1.4324 -1.1235
 7525SOL    HW234212   3.051   2.950   9.249 -0.2215  0.9588 -0.9386
 7526SOL     OW34213   0.231   3.100   0.290 -0.2026 -0.6197  0.2154
 7526SOL    HW134214   0.164   3.132   0.231  0.0964  0.5710  0.5219
 7526SOL    HW234215   0.212   3.007   0.274  0.1088 -0.5430 -0.5903
 7527SOL     OW34216   0.781   0.469   7.932  0.1789 -0.3395  0.1557
 7527SOL    HW134217   0.696   0.437   7.903 -0.5320  0.3986  1.4339
 7527SOL    HW234218   0.832   0.441   7.856  0.5524 -1.0749  0.6718
 7528SOL     OW34219   0.607   0.606   4.359 -0.1452 -0.4820 -0.3625
 7528SOL    HW134220   0.660   0.569   4.288 -0.7421  0.8522 -1.4978
 7528SOL    HW234221   0.648   0.690   4.381 -1.4940  0.5470 -1.7901
 7529SOL     OW34222   3.921   0.489   7.632  0.2096 -0.7887 -0.0468
 7529SOL    HW134223   3.881   0.559   7.684 -0.6501 -0.7621 -0.7619
 7529SOL    HW234224   3.952   0.545   7.561 -1.4154  0.4282  0.2043
 7530SOL     OW34225   2.442   3.736   4.775 -0.4629 -0.4212  0.5060
 7530SOL    HW134226   2.349   3.758   4.778 -0.0974  0.9993  1.1034
 7530SOL    HW234227   2.487   3.814   4.744 -0.0978 -1.0031 -0.4281
 7531SOL     OW34228   2.841   3.924   2.941 -0.2654  0.5504 -0.4752
 7531SOL    HW134229   2.867   3.845   2.988 -1.1846  0.8123  0.4655
 7531SOL    HW234230   2.769   3.966   2.988 -1.8452 -2.3171 -0.3585
 7532SOL     OW34231   4.290   0.586   0.238 -0.4588 -0.1481  0.5899
 7532SOL    HW134232   4.329   0.621   0.319 -1.9964  2.4854  0.1937
 7532SOL    HW234233   4.365   0.556   0.187  0.3835 -0.7722  2.1886
 7533SOL     OW34234   2.546   0.161   5.342 -0.0650  0.0488 -0.0397
 7533SOL    HW134235   2.465   0.138   5.299  0.9760  0.2872 -2.1171
 7533SOL    HW234236   2.590   0.076   5.343 -1.8035 -0.8504 -0.7182
 7534SOL     OW34237   0.404   1.742   3.772  0.0705 -0.1727 -0.1082
 7534SOL    HW134238   0.327   1.709   3.818 -1.2407  0.4509 -1.8734
 7534SOL    HW234239   0.470   1.691   3.818 -0.7207 -0.3855  0.7929
 7535SOL     OW34240   4.324   3.591   4.040 -0.1557  0.0620  0.5775
 7535SOL    HW134241   4.274   3.673   4.034 -2.0067 -1.1842 -1.0409
 7535SOL    HW234242   4.253   3.530   4.059 -0.4221  0.3787  0.6138
 7536SOL     OW34243   2.268   0.416  16.724 -0.2774 -0.6856 -0.0781
 7536SOL    HW134244   2.286   0.510  16.730 -0.9387 -0.5116 -1.0000
 7536SOL    HW234245   2.289   0.394  16.633 -3.5759 -1.4907 -0.6544
 7537SOL     OW34246   0.742   2.789   4.721  0.6739  0.2406 -0.5690
 7537SOL    HW134247   0.825   2.796   4.674 -0.2238  1.9313 -1.9309
 7537SOL    HW234248   0.700   2.875   4.719  0.0582 -0.0500 -0.2221
 7538SOL     OW34249   1.344   2.899   5.652  0.0812  0.2652 -0.2153
 7538SOL    HW134250   1.361   2.924   5.562 -0.3741 -0.1806 -0.4260
 7538SOL    HW234251   1.259   2.937   5.674  0.8288  1.2567  0.9288
 7539SOL     OW34252   0.218   0.212   3.359 -1.0530  0.2391  0.4208
 7539SOL    HW134253   0.225   0.238   3.451 -1.3155  2.2442 -0.1287
 7539SOL    HW234254   0.153   0.279   3.337  1.2016  1.8877 -1.3046
 7540SOL     OW34255   2.903   1.111   3.329 -0.5636 -0.3660 -1.1752
 7540SOL    HW134256   2.963   1.061   3.385 -1.6124  0.4770  0.7034
 7540SOL    HW234257   2.924   1.093   3.237 -0.2052 -4.8177 -0.2296
 7541SOL     OW34258   1.597   0.001   2.922  0.4871 -0.2760 -0.7638
 7541SOL    HW134259   1.521   4.680   2.911  1.4522 -1.7971  0.2930
 7541SOL    HW234260   1.640   4.680   2.987  0.8616 -0.2308 -0.9740
 7542SOL     OW34261   0.063   3.998   4.665  0.1540 -0.3578 -0.5493
 7542SOL    HW134262   0.006   3.971   4.737 -0.0607  1.5848 -0.0052
 7542SOL    HW234263   0.079   4.091   4.678  1.2663 -0.4387 -1.3625
 7543SOL     OW34264   0.131   1.062   4.650  0.0544 -0.3552  0.3409
 7543SOL    HW134265   0.155   1.154   4.664  1.4638 -0.8237  0.9567
 7543SOL    HW234266   0.205   1.004   4.667  0.4441 -0.1033 -0.5200
 7544SOL     OW34267   4.355   4.688  14.018  0.3215 -0.1075 -0.3933
 7544SOL    HW134268   4.334   4.625  14.087  0.7404 -1.6723 -1.6810
 7544SOL    HW234269   4.436   4.727  14.051 -0.0009 -0.9545  1.3578
 7545SOL     OW34270   4.630   4.341  11.273  0.8265  0.4012 -0.0291
 7545SOL    HW134271   4.628   4.377  11.184 -0.1615 -0.1583 -0.2258
 7545SOL    HW234272   4.653   4.249  11.258  0.6067  0.9401 -3.9100
 7546SOL     OW34273   3.099   3.107  12.124 -0.5648 -0.1393  0.0274
 7546SOL    HW134274   3.186   3.143  12.108 -1.2234  0.9638 -1.1423
 7546SOL    HW234275   3.111   3.059  12.206 -0.7275 -1.1060 -0.5106
 7547SOL     OW34276   1.219   0.414   6.932 -0.0227 -0.1589  0.0408
 7547SOL    HW134277   1.155   0.441   6.866 -0.4284 -1.7020 -0.2044
 7547SOL    HW234278   1.288   0.370   6.882  1.1719  0.0202  1.5587
 7548SOL     OW34279   3.381   4.115   8.870  0.1417 -0.2887 -0.0868
 7548SOL    HW134280   3.419   4.169   8.939 -2.0317  0.2515  0.6750
 7548SOL    HW234281   3.449   4.050   8.852  1.1961  1.0956 -1.1102
 7549SOL     OW34282   2.146   2.828   1.109 -0.2267  0.8963 -0.2051
 7549SOL    HW134283   2.063   2.794   1.143  1.4765 -2.2299  0.7877
 7549SOL    HW234284   2.133   2.923   1.106  1.7444  1.2288  1.4464
 7550SOL     OW34285   2.351   1.742   4.339 -0.2333 -0.1504  0.3454
 7550SOL    HW134286   2.440   1.769   4.363 -1.2347  0.5344  3.2471
 7550SOL    HW234287   2.356   1.749   4.244 -0.4313  2.4901  0.5279
 7551SOL     OW34288   0.631   1.003   1.305 -0.0365 -0.0956  0.2583
 7551SOL    HW134289   0.656   1.093   1.327 -1.1802  0.4256 -0.5373
 7551SOL    HW234290   0.701   0.980   1.245 -0.0359  0.7736 -0.0699
 7552SOL     OW34291   0.321   4.571   6.361 -0.3450 -0.7861 -0.0941
 7552SOL    HW134292   0.352   4.578   6.451 -0.1441 -1.9231 -0.0810
 7552SOL    HW234293   0.234   4.613   6.366 -1.1217 -2.1929 -1.8731
 7553SOL     OW34294   3.883   3.702   4.576 -0.4765 -0.6418 -0.9153
 7553SOL    HW134295   3.795   3.699   4.615 -0.4261 -0.6772 -0.8067
 7553SOL    HW234296   3.896   3.613   4.543 -1.6705 -0.1071 -2.8541
 7554SOL     OW34297   1.571   3.757   3.601 -0.0404  0.3416 -0.7378
 7554SOL    HW134298   1.482   3.756   3.565  0.3280  2.1804 -1.7467
 7554SOL    HW234299   1.619   3.742   3.520  1.9404  1.6977  0.1820
 7555SOL     OW34300   3.057   2.049   2.636  0.0686 -0.2279  0.4118
 7555SOL    HW134301   3.069   2.045   2.731  3.2584 -3.8326 -0.1529
 7555SOL    HW234302   2.966   2.022   2.625  0.3118 -0.9867  0.3001
 7556SOL     OW34303   4.419   1.049   2.836  0.5510  0.1287  0.3304
 7556SOL    HW134304   4.436   0.958   2.813  1.5555  0.5446 -0.5468
 7556SOL    HW234305   4.500   1.100   2.830 -0.3360  1.6435  1.2778
 7557SOL     OW34306   4.099   0.798   3.040  0.0422 -0.2130 -0.2233
 7557SOL    HW134307   4.044   0.787   3.118  0.4950 -0.1724  0.1041
 7557SOL    HW234308   4.039   0.843   2.980  0.7035 -0.2271 -0.8954
 7558SOL     OW34309   2.151   1.862   3.645 -0.4683  0.0782 -0.6873
 7558SOL    HW134310   2.150   1.771   3.674  1.9642 -0.4277 -2.1564
 7558SOL    HW234311   2.097   1.850   3.567  0.0776  1.6087 -1.2947
 7559SOL     OW34312   2.747   0.504   1.349 -0.0625  0.2945 -0.1618
 7559SOL    HW134313   2.709   0.437   1.406 -2.1390  0.5116 -1.2837
 7559SOL    HW234314   2.798   0.441   1.297  1.2770  0.3782  1.0590
 7560SOL     OW34315   4.355   0.397  12.082 -0.2072 -0.8805  0.2944
 7560SOL    HW134316   4.285   0.384  12.146  1.9734 -1.5886  2.4796
 7560SOL    HW234317   4.307   0.377  12.001  0.4127  0.3019 -0.3656
 7561SOL     OW34318   0.320   4.140  14.609 -0.2470 -0.4632  0.0871
 7561SOL    HW134319   0.358   4.090  14.537  0.7941 -0.2721  0.5024
 7561SOL    HW234320   0.315   4.065  14.668  0.4305 -0.4314  0.1786
 7562SOL     OW34321   4.520   4.632   1.532 -0.5941  0.4318  0.4375
 7562SOL    HW134322   4.435   4.673   1.548  0.2824  1.3747  2.7090
 7562SOL    HW234323   4.553   4.612   1.619 -0.6363  1.1241  0.6126
 7563SOL     OW34324   3.136   3.552   5.517 -0.3871  0.5955 -0.3133
 7563SOL    HW134325   3.107   3.609   5.446 -0.1993  0.6106 -0.3758
 7563SOL    HW234326   3.118   3.594   5.601 -0.1749 -1.3179  0.7014
 7564SOL     OW34327   3.651   3.156   3.991  0.2036  0.3497 -0.4600
 7564SOL    HW134328   3.566   3.179   4.029  0.0160 -2.2178  0.7125
 7564SOL    HW234329   3.702   3.103   4.053  1.1913 -0.1855 -1.7403
 7565SOL     OW34330   1.790   0.184  12.675 -0.7953  0.3032 -0.0812
 7565SOL    HW134331   1.868   0.235  12.698 -0.1561 -0.3612 -0.7720
 7565SOL    HW234332   1.826   0.101  12.644  0.1861  0.6190  0.1951
 7566SOL     OW34333   4.563   0.088   5.393 -0.1269 -0.0747  0.1649
 7566SOL    HW134334   4.478   0.117   5.359 -0.7542 -1.4181  0.6209
 7566SOL    HW234335   4.573   0.154   5.462 -0.7305 -0.5293  0.6831
 7567SOL     OW34336   3.075   2.918  17.380 -0.1568 -0.2187  0.0349
 7567SOL    HW134337   3.069   2.859  17.456  0.0323 -0.7767 -0.3819
 7567SOL    HW234338   3.027   2.870  17.313 -0.7272  1.7629 -0.9635
 7568SOL     OW34339   0.846   2.590  10.126  0.3484 -0.1852 -0.0148
 7568SOL    HW134340   0.924   2.534  10.129  0.3135 -0.1542  1.6173
 7568SOL    HW234341   0.815   2.570  10.038  0.5836 -0.5577 -0.0144
 7569SOL     OW34342   0.973   3.269   2.490 -0.1095  0.6024  0.4359
 7569SOL    HW134343   1.015   3.200   2.438 -2.1392 -0.0373 -0.3708
 7569SOL    HW234344   0.970   3.239   2.581  0.7005  2.0698  0.9438
 7570SOL     OW34345   4.715   3.426  14.680  0.3455  0.1356 -0.0500
 7570SOL    HW134346   4.682   3.361  14.618  0.8008 -0.2599  0.1193
 7570SOL    HW234347   0.066   3.384  14.682  0.4590  0.3433 -0.5284
 7571SOL     OW34348   1.308   3.494   8.891  0.7053  0.2371  0.1006
 7571SOL    HW134349   1.214   3.509   8.905  1.0215  3.4365 -1.1274
 7571SOL    HW234350   1.312   3.515   8.797 -2.0717 -0.1528 -0.1110
 7572SOL     OW34351   4.657   2.759   2.907 -0.3484  0.2354 -0.1978
 7572SOL    HW134352   4.706   2.677   2.902 -1.8725 -0.8210  2.3464
 7572SOL    HW234353   4.662   2.774   3.001  0.8520  0.5060 -0.3021
 7573SOL     OW34354   0.726   4.491   9.371  0.2271 -0.1154 -0.1316
 7573SOL    HW134355   0.801   4.433   9.361 -0.7456 -1.2830 -0.6673
 7573SOL    HW234356   0.656   4.428   9.352 -0.9393  0.8832  0.7762
 7574SOL     OW34357   4.124   4.521   3.354  1.0739  0.1415 -0.2735
 7574SOL    HW134358   4.109   4.608   3.390  0.1716 -0.5176  0.9187
 7574SOL    HW234359   4.063   4.514   3.281  3.4796 -1.6871 -2.1266
 7575SOL     OW34360   3.969   1.457   3.643  0.1683 -0.0142 -0.0953
 7575SOL    HW134361   3.941   1.525   3.703  1.4212  0.4639 -0.0597
 7575SOL    HW234362   3.989   1.499   3.559  0.3976 -0.0267 -0.0459
 7576SOL     OW34363   1.192   3.597   2.743 -0.3574 -0.2826 -0.0064
 7576SOL    HW134364   1.106   3.613   2.705 -1.9293 -2.6758  2.5454
 7576SOL    HW234365   1.198   3.506   2.771 -3.1685 -0.6394 -0.5647
 7577SOL     OW34366   4.340   1.679   6.874  0.2526  0.1570  0.0366
 7577SOL    HW134367   4.287   1.705   6.798 -1.9875  2.5828  2.4178
 7577SOL    HW234368   4.328   1.584   6.870  1.0769  0.0174  1.0250
 7578SOL     OW34369   3.491   1.164   2.283 -0.4105  0.0174  0.4197
 7578SOL    HW134370   3.420   1.106   2.313  1.5488 -2.7267 -0.2856
 7578SOL    HW234371   3.514   1.143   2.192 -1.5824 -1.5374  0.4816
 7579SOL     OW34372   1.251   4.657   5.059  0.2931 -0.4553  0.1995
 7579SOL    HW134373   1.302   4.592   5.107  0.0203 -0.6086  0.2785
 7579SOL    HW234374   1.242   4.615   4.973  0.7555  0.2972 -0.2160
 7580SOL     OW34375   0.475   0.700  14.595 -0.4307  0.2416  0.2643
 7580SOL    HW134376   0.436   0.658  14.517  0.1403 -0.1946  0.2124
 7580SOL    HW234377   0.570   0.692  14.589 -0.5001 -0.6054  0.2967
 7581SOL     OW34378   2.915   2.745   7.908 -0.4406 -0.0916  0.5757
 7581SOL    HW134379   2.923   2.774   7.999 -2.0908 -0.0997  0.7314
 7581SOL    HW234380   3.000   2.706   7.888 -1.1535 -0.5717 -1.4611
 7582SOL     OW34381   0.589   1.256  10.400 -0.5307 -0.6212 -0.2420
 7582SOL    HW134382   0.518   1.206  10.360  0.7620 -2.1283 -0.6477
 7582SOL    HW234383   0.576   1.233  10.492 -2.3522 -1.3691 -0.6874
 7583SOL     OW34384   3.855   3.034   3.124 -0.2537  0.7705 -0.2961
 7583SOL    HW134385   3.870   3.086   3.045  0.3101 -0.4120 -0.9530
 7583SOL    HW234386   3.923   2.967   3.114 -1.8007 -0.9630  0.8042
 7584SOL     OW34387   3.027   1.521   2.099  1.0722 -0.6997  0.0899
 7584SOL    HW134388   3.063   1.436   2.070  0.1696 -1.4623  1.2017
 7584SOL    HW234389   2.975   1.494   2.175 -0.7490  1.2197 -0.4953
 7585SOL     OW34390   0.233   4.025   6.760 -0.6133 -0.3162 -0.8830
 7585SOL    HW134391   0.296   4.001   6.828  0.0904  0.9578 -1.0774
 7585SOL    HW234392   0.269   3.974   6.688  1.0098  1.9022 -1.6379
 7586SOL     OW34393   4.547   3.508   1.576  0.1468  0.1097  0.3211
 7586SOL    HW134394   4.547   3.538   1.485 -0.0595 -2.8265 -0.6400
 7586SOL    HW234395   4.463   3.462   1.570  0.2460 -0.1089  0.6342
 7587SOL     OW34396   3.486   4.419   9.556 -0.2064  0.1009  0.6217
 7587SOL    HW134397   3.515   4.332   9.532  0.5813  0.1675  1.3674
 7587SOL    HW234398   3.564   4.452   9.601 -0.3658 -1.5532  2.1048
 7588SOL     OW34399   1.624   4.310   6.365 -0.3966 -0.3959  0.3058
 7588SOL    HW134400   1.649   4.357   6.286 -2.2038 -1.4270 -0.8552
 7588SOL    HW234401   1.672   4.231   6.344  2.8491  0.9666  2.5993
 7589SOL     OW34402   1.616   2.852  10.703  0.1566 -0.4555  0.6518
 7589SOL    HW134403   1.635   2.946  10.701 -0.8521 -0.2898 -2.1661
 7589SOL    HW234404   1.687   2.822  10.646 -2.0818 -3.7282 -0.4262
 7590SOL     OW34405   3.369   1.071   0.959  1.1677  0.5450 -0.4924
 7590SOL    HW134406   3.421   1.031   0.888  0.5179  0.3117 -0.8346
 7590SOL    HW234407   3.288   1.067   0.908 -0.2093  1.8309  1.6004
 7591SOL     OW34408   3.356   0.554   9.354 -0.1166 -0.0464  0.9055
 7591SOL    HW134409   3.424   0.499   9.393  0.2404 -0.1880  0.0901
 7591SOL    HW234410   3.274   0.506   9.365 -0.9683  0.3711 -3.4738
 7592SOL     OW34411   0.204   2.571   4.054  0.5796  0.1271  0.0583
 7592SOL    HW134412   0.215   2.581   4.149 -2.1719 -1.1116  0.5001
 7592SOL    HW234413   0.274   2.511   4.028  1.3113  1.1599 -0.3474
 7593SOL     OW34414   0.164   0.874   7.821  0.3827 -0.1394 -0.6030
 7593SOL    HW134415   0.137   0.845   7.909 -1.4632 -0.7870 -1.3765
 7593SOL    HW234416   0.159   0.788   7.778 -2.4423 -1.0382  1.5054
 7594SOL     OW34417   4.163   4.306   7.232 -0.3459  0.0278 -0.2309
 7594SOL    HW134418   4.213   4.387   7.220 -0.6438  0.0303 -1.4455
 7594SOL    HW234419   4.079   4.315   7.188  0.4895  0.5346 -1.7380
 7595SOL     OW34420   2.472   2.057   9.666  0.4971 -0.2164  0.0994
 7595SOL    HW134421   2.377   2.062   9.672  0.5328  1.4156 -0.6408
 7595SOL    HW234422   2.481   1.975   9.715  0.6535  0.9806  2.0394
 7596SOL     OW34423   2.980   3.208   2.265 -0.9062  0.2797  0.4065
 7596SOL    HW134424   3.011   3.297   2.285 -2.1295  0.6350  0.7244
 7596SOL    HW234425   2.887   3.226   2.253 -0.7582  1.3307  0.8160
 7597SOL     OW34426   1.350   1.598  13.571 -0.2997 -0.2841  0.1958
 7597SOL    HW134427   1.400   1.679  13.559 -1.7252  0.5211 -0.4226
 7597SOL    HW234428   1.401   1.544  13.632 -0.5556 -0.3532  0.3511
 7598SOL     OW34429   1.951   0.434   1.941  0.0137 -0.7962  0.3349
 7598SOL    HW134430   2.009   0.479   1.880  0.0809 -0.3721  0.7113
 7598SOL    HW234431   1.973   0.341   1.929 -1.2448 -1.0581 -0.0019
 7599SOL     OW34432   2.306   2.763   4.760 -0.1091 -0.6370 -0.0139
 7599SOL    HW134433   2.227   2.779   4.709 -0.3115  0.0695  0.5384
 7599SOL    HW234434   2.296   2.824   4.833  0.0140 -2.1286  1.2406
 7600SOL     OW34435   0.513   2.710   1.785 -0.7093 -0.2820 -0.0311
 7600SOL    HW134436   0.591   2.655   1.794  0.0734  0.5757 -1.5348
 7600SOL    HW234437   0.550   2.792   1.817 -2.7787  0.7381 -0.2988
 7601SOL     OW34438   4.566   1.764   7.257 -0.2967 -0.3458  0.1762
 7601SOL    HW134439   4.614   1.744   7.337  2.7151  0.6200 -1.4242
 7601SOL    HW234440   4.571   1.859   7.245  0.3740 -0.6030 -1.5009
 7602SOL     OW34441   0.310   0.527  15.787  0.1783 -0.4797  1.0481
 7602SOL    HW134442   0.265   0.577  15.855  1.0843  1.3819  0.2755
 7602SOL    HW234443   0.371   0.584  15.741  0.4210 -1.1028  0.5984
 7603SOL     OW34444   2.970   1.635  13.567  0.1538  0.1030 -0.5345
 7603SOL    HW134445   2.928   1.706  13.616  0.0106 -0.9648  0.9061
 7603SOL    HW234446   2.897   1.573  13.569  1.2640 -1.2323 -1.7176
 7604SOL     OW34447   1.286   2.388   3.876  0.0465 -0.5135 -0.1303
 7604SOL    HW134448   1.279   2.296   3.900  0.0170 -0.8578 -1.4538
 7604SOL    HW234449   1.210   2.410   3.822 -0.9855 -0.5824  1.2788
 7605SOL     OW34450   2.290   4.173   1.996 -0.1956  0.1173 -0.4359
 7605SOL    HW134451   2.280   4.252   1.942 -1.7429  1.3219  1.6447
 7605SOL    HW234452   2.265   4.109   1.929  1.8920  0.2913 -1.3824
 7606SOL     OW34453   3.562   3.276  12.378  0.2083 -0.6760  0.1255
 7606SOL    HW134454   3.489   3.215  12.368  1.4531 -1.6232 -3.2717
 7606SOL    HW234455   3.618   3.217  12.429 -1.5476 -2.1805  0.3227
 7607SOL     OW34456   4.524   3.994   6.066  0.7031 -0.0253  0.4540
 7607SOL    HW134457   4.593   3.971   6.129 -2.0675  0.6696  3.7027
 7607SOL    HW234458   4.484   3.911   6.041 -0.0801  0.6482 -0.5021
 7608SOL     OW34459   2.862   1.838   7.189  0.1650  0.8451  0.5984
 7608SOL    HW134460   2.898   1.762   7.234 -0.1453  0.4425  0.1627
 7608SOL    HW234461   2.768   1.823   7.186  0.4831 -0.7709 -1.1549
 7609SOL     OW34462   2.328   0.717   9.215  0.2609  0.1204  0.3279
 7609SOL    HW134463   2.395   0.775   9.180 -1.7827  0.6335 -2.7118
 7609SOL    HW234464   2.381   0.683   9.287 -0.3400  0.7659  1.0771
 7610SOL     OW34465   1.077   3.199   7.360  0.1384 -0.4507  0.2954
 7610SOL    HW134466   1.055   3.283   7.402 -0.4711  0.2986 -1.5155
 7610SOL    HW234467   1.091   3.160   7.446  0.6704 -2.1505 -0.5763
 7611SOL     OW34468   3.956   2.805  15.781  0.0811  0.0316 -0.4048
 7611SOL    HW134469   3.944   2.900  15.771  1.5336  0.3859  1.2333
 7611SOL    HW234470   3.947   2.789  15.874  4.8599  2.5227  0.5012
 7612SOL     OW34471   4.682   3.860   2.205  0.2194  0.2289 -0.5675
 7612SOL    HW134472   4.617   3.790   2.213 -1.5773  1.8935 -0.6348
 7612SOL    HW234473   4.735   3.829   2.131  3.3071  0.8707  1.3776
 7613SOL     OW34474   3.380   4.015   9.240 -0.1812  0.0121  0.8882
 7613SOL    HW134475   3.339   4.007   9.154  2.6344  0.5065 -0.5011
 7613SOL    HW234476   3.405   3.924   9.257  1.8924  0.6342  1.1720
 7614SOL     OW34477   2.393   0.179  16.847  0.0778  0.4589  0.3350
 7614SOL    HW134478   2.348   0.261  16.868  0.7106  1.0365 -0.5462
 7614SOL    HW234479   2.423   0.201  16.758 -1.0049  2.3271  0.4377
 7615SOL     OW34480   2.997   0.764   5.148 -0.0410  0.5071  0.4603
 7615SOL    HW134481   3.087   0.791   5.130  1.1891 -0.9628  4.2842
 7615SOL    HW234482   3.000   0.671   5.129  0.2558  0.7035 -0.4558
 7616SOL     OW34483   4.313   4.265   5.661  0.1248  0.4183  0.1506
 7616SOL    HW134484   4.328   4.359   5.647 -0.8371  0.8944  2.3892
 7616SOL    HW234485   4.225   4.265   5.697 -0.4294 -0.3258 -1.2042
 7617SOL     OW34486   3.828   0.069   7.352  0.3776  0.0520  0.4625
 7617SOL    HW134487   3.741   0.065   7.391  0.9348 -0.3910  1.6418
 7617SOL    HW234488   3.843   0.160   7.324 -2.0937 -0.4430 -2.4647
 7618SOL     OW34489   0.044   3.348   9.532 -0.0245  0.5327 -0.2345
 7618SOL    HW134490   0.110   3.280   9.531 -0.0492  0.5882 -3.5814
 7618SOL    HW234491   0.017   3.365   9.442  0.0723  3.1200  0.2112
 7619SOL     OW34492   1.873   3.953   4.540 -0.2993 -0.4286  0.2748
 7619SOL    HW134493   1.896   4.032   4.588 -0.1272  0.3794 -1.1254
 7619SOL    HW234494   1.936   3.945   4.469  0.8083 -0.5261  1.2755
 7620SOL     OW34495   0.683   3.143   2.685  0.1175 -0.5581 -0.2088
 7620SOL    HW134496   0.684   3.098   2.770 -0.8140 -2.0359 -0.9690
 7620SOL    HW234497   0.769   3.184   2.678 -0.2807  0.4590  0.9484
 7621SOL     OW34498   4.255   4.213   9.094 -0.2332  0.2155 -0.1378
 7621SOL    HW134499   4.350   4.223   9.081  0.3050 -1.9808  2.1525
 7621SOL    HW234500   4.225   4.160   9.021 -2.5791 -0.5754  1.4098
 7622SOL     OW34501   3.991   2.854  12.755  0.3535  0.4786 -0.1179
 7622SOL    HW134502   3.995   2.762  12.782  0.0628  0.4716 -0.0994
 7622SOL    HW234503   3.951   2.898  12.829 -1.9411 -0.7024 -0.6645
 7623SOL     OW34504   1.263   3.131  13.346  0.0137  0.0644  0.5919
 7623SOL    HW134505   1.349   3.091  13.363 -0.1817  0.1138  1.6859
 7623SOL    HW234506   1.274   3.185  13.268 -0.6845  0.9409  1.1097
 7624SOL     OW34507   1.212   4.349   8.934  0.4803 -0.0451  0.4617
 7624SOL    HW134508   1.277   4.357   9.004 -3.4834  1.1642  4.0035
 7624SOL    HW234509   1.135   4.383   8.980  0.0168 -1.4078  0.6981
 7625SOL     OW34510   1.584   3.209   3.193 -0.2500  0.1010  0.7391
 7625SOL    HW134511   1.623   3.226   3.279 -1.1671 -1.5438  1.4915
 7625SOL    HW234512   1.609   3.117   3.187 -0.6879  0.1268 -1.3356
 7626SOL     OW34513   0.840   3.075   2.050 -0.2203 -0.0175 -0.5711
 7626SOL    HW134514   0.879   3.009   2.108 -1.3155  0.4631  0.6966
 7626SOL    HW234515   0.837   3.150   2.109  2.1260 -0.0007 -0.4827
 7627SOL     OW34516   2.048   1.781   4.992  0.2598 -0.2229 -0.0309
 7627SOL    HW134517   2.004   1.720   4.933 -0.1415  0.4636 -0.4352
 7627SOL    HW234518   2.053   1.729   5.072 -1.1300  1.4485  1.1415
 7628SOL     OW34519   1.629   0.553   5.708  0.3117 -0.1738  0.1719
 7628SOL    HW134520   1.647   0.465   5.677  0.3995 -0.4773  1.0871
 7628SOL    HW234521   1.701   0.608   5.677  0.8306 -0.3688  1.0553
 7629SOL     OW34522   2.907   0.704   8.996 -0.1290 -0.2110 -0.5516
 7629SOL    HW134523   3.000   0.724   9.006  0.0046 -0.3152 -1.6797
 7629SOL    HW234524   2.875   0.787   8.959  1.0595  0.8005  0.6769
 7630SOL     OW34525   3.572   2.849   2.381  0.3447  0.2497  0.1194
 7630SOL    HW134526   3.609   2.761   2.392  0.7864  0.2258 -1.6360
 7630SOL    HW234527   3.653   2.897   2.398 -0.5180  1.4293  0.8294
 7631SOL     OW34528   1.541   3.590  13.790  0.2103 -0.3703  0.5400
 7631SOL    HW134529   1.447   3.578  13.804  0.1684  0.4292  0.9010
 7631SOL    HW234530   1.566   3.498  13.780 -0.1583 -0.4638  0.4468
 7632SOL     OW34531   2.325   3.696   2.521 -0.2268  0.1127 -0.3854
 7632SOL    HW134532   2.338   3.607   2.552  0.4606  0.9158  1.6601
 7632SOL    HW234533   2.260   3.667   2.457  0.7133  0.3304 -1.4489
 7633SOL     OW34534   1.147   4.341   2.358 -0.1015 -0.0198  0.2985
 7633SOL    HW134535   1.198   4.297   2.291  0.2984  0.2257  0.4374
 7633SOL    HW234536   1.061   4.300   2.349 -0.0012  0.0097 -0.7541
 7634SOL     OW34537   1.734   1.114   4.593  0.2053  0.1905  0.3883
 7634SOL    HW134538   1.745   1.051   4.664  0.6245 -0.6752 -0.4431
 7634SOL    HW234539   1.686   1.055   4.533 -0.6081  1.2011  0.0505
 7635SOL     OW34540   3.917   4.044  16.401  0.2316 -0.2108  0.0488
 7635SOL    HW134541   3.930   4.137  16.380 -3.1728  0.4450  0.8391
 7635SOL    HW234542   3.983   4.023  16.467  0.4783  4.2536  1.2311
 7636SOL     OW34543   2.166   4.235   8.704  0.4872 -0.7546 -0.5012
 7636SOL    HW134544   2.071   4.247   8.706  1.0071  3.0595  1.6671
 7636SOL    HW234545   2.181   4.247   8.797 -2.1293  0.6643 -0.2745
 7637SOL     OW34546   0.951   1.960  17.504 -0.0798 -0.0177  0.1226
 7637SOL    HW134547   0.922   1.930  17.418 -0.4940  1.5731 -0.2918
 7637SOL    HW234548   1.042   1.972  17.477  0.1523  1.1152  1.4051
 7638SOL     OW34549   0.921   0.404   3.655 -0.1404  0.6478  0.6320
 7638SOL    HW134550   1.007   0.442   3.637  0.1550 -0.3678 -0.0873
 7638SOL    HW234551   0.921   0.436   3.746  1.9834 -0.3263  0.9819
 7639SOL     OW34552   0.237   2.948   1.128 -0.1620 -0.2766  0.4371
 7639SOL    HW134553   0.191   2.912   1.052 -1.0207 -0.0620  0.8634
 7639SOL    HW234554   0.171   2.960   1.196 -0.1739  2.2297  0.0007
 7640SOL     OW34555   3.054   1.756   6.319 -0.5858  0.0414 -0.3441
 7640SOL    HW134556   3.109   1.798   6.252 -0.7862  0.6079 -0.1493
 7640SOL    HW234557   2.967   1.793   6.305 -0.9795  0.2934  2.7590
 7641SOL     OW34558   2.841   0.209   4.461  0.2079 -0.0367  0.2887
 7641SOL    HW134559   2.847   0.271   4.388 -0.8313 -0.5222 -0.2119
 7641SOL    HW234560   2.879   0.260   4.533  1.2788 -0.6385  0.1512
 7642SOL     OW34561   1.063   0.269  12.650  0.2419 -0.6207 -0.3830
 7642SOL    HW134562   1.047   0.349  12.601  0.0852  0.2686  1.1143
 7642SOL    HW234563   1.053   0.283  12.745  0.4054 -5.2482  0.3499
 7643SOL     OW34564   4.419   0.531  13.484 -0.3485 -0.2980 -0.8476
 7643SOL    HW134565   4.505   0.495  13.464 -1.0854 -3.2236  1.2499
 7643SOL    HW234566   4.360   0.470  13.439  0.2825 -1.3364 -0.2732
 7644SOL     OW34567   3.298   4.673  12.616 -0.5179  0.3040 -0.5266
 7644SOL    HW134568   3.263   4.733  12.682  0.2109  1.2188 -0.9717
 7644SOL    HW234569   3.391   4.683  12.636 -0.6444  1.1854 -0.3619
 7645SOL     OW34570   4.192   0.717  17.241  0.7137  0.2440 -0.3156
 7645SOL    HW134571   4.205   0.649  17.175 -1.3819 -1.8321  1.4251
 7645SOL    HW234572   4.138   0.671  17.305  2.6329 -1.3047  0.1963
 7646SOL     OW34573   0.160   2.185   3.210 -0.3494 -0.0348 -0.2553
 7646SOL    HW134574   0.220   2.249   3.172 -0.5081 -0.5406 -1.3546
 7646SOL    HW234575   0.138   2.140   3.128  2.4483 -1.6352 -0.1488
 7647SOL     OW34576   0.861   0.592   3.175 -0.0269  1.1077 -0.2661
 7647SOL    HW134577   0.861   0.519   3.113 -1.6524  1.7714 -1.0379
 7647SOL    HW234578   0.806   0.650   3.124 -1.5584  0.2491  0.4028
 7648SOL     OW34579   0.276   1.079   7.385  0.4798 -0.4039  0.3170
 7648SOL    HW134580   0.207   1.140   7.359  2.1283  1.5577  0.5419
 7648SOL    HW234581   0.334   1.106   7.315 -0.6513  0.7253 -0.1919
 7649SOL     OW34582   3.932   0.536   5.824  0.4345 -0.3246 -0.4821
 7649SOL    HW134583   3.882   0.499   5.751 -0.6577  0.1308  0.0353
 7649SOL    HW234584   4.013   0.569   5.784  1.3024  0.0001  1.5384
 7650SOL     OW34585   3.326   1.444   7.853 -0.5664 -0.2106 -0.0984
 7650SOL    HW134586   3.420   1.429   7.867 -0.0548  2.8744 -0.1597
 7650SOL    HW234587   3.331   1.515   7.789 -0.0485  0.8946  1.1365
 7651SOL     OW34588   0.365   1.295   7.560  0.3588 -0.5649  1.0685
 7651SOL    HW134589   0.286   1.270   7.512  0.4300  0.1653  0.5670
 7651SOL    HW234590   0.418   1.338   7.493 -1.0345 -2.7266 -1.4397
 7652SOL     OW34591   0.926   1.646   1.391  0.0182 -0.0699 -0.0983
 7652SOL    HW134592   0.984   1.574   1.415  0.9659  0.5118 -0.6485
 7652SOL    HW234593   0.863   1.650   1.463  0.6517 -1.7233  0.5461
 7653SOL     OW34594   1.110   2.801   9.067 -0.4705  0.3310  0.4513
 7653SOL    HW134595   1.174   2.869   9.047  0.3776 -1.3263 -2.3552
 7653SOL    HW234596   1.159   2.722   9.045  0.6906  1.1573  0.1042
 7654SOL     OW34597   0.840   2.395   6.400  0.0000  0.5310 -0.2082
 7654SOL    HW134598   0.911   2.405   6.337  0.2096 -1.6213 -0.3171
 7654SOL    HW234599   0.842   2.469   6.460 -0.7877  0.4152 -0.0401
 7655SOL     OW34600   2.109   1.852  17.725  0.1062  0.0334 -0.4184
 7655SOL    HW134601   2.175   1.910  17.687 -0.2744  2.0668  2.0284
 7655SOL    HW234602   2.101   1.897   0.069 -2.7615  0.5481 -0.9965
 7656SOL     OW34603   1.362   3.044   4.478 -0.1784  0.3633  0.2399
 7656SOL    HW134604   1.376   2.953   4.455  0.4451  0.6980 -0.7131
 7656SOL    HW234605   1.367   3.044   4.574  0.6301 -0.8971  0.1930
 7657SOL     OW34606   0.692   2.471   1.687  0.4891  0.3583  0.9250
 7657SOL    HW134607   0.697   2.483   1.592 -1.6271  0.3266  0.8050
 7657SOL    HW234608   0.747   2.393   1.696  0.3978  0.7028  4.2649
 7658SOL     OW34609   3.792   3.138   7.139 -0.2289 -0.5077 -0.4711
 7658SOL    HW134610   3.729   3.081   7.096 -1.1208 -0.7140  1.1233
 7658SOL    HW234611   3.776   3.116   7.231 -0.2474 -1.6753 -0.7499
 7659SOL     OW34612   4.515   2.302  12.327 -0.3078  0.1758 -0.0661
 7659SOL    HW134613   4.597   2.263  12.359  0.9632  1.1323 -2.1492
 7659SOL    HW234614   4.469   2.222  12.303 -0.6044  0.4204 -0.3116
 7660SOL     OW34615   3.479   0.340   9.460  0.0769 -0.0644  0.1894
 7660SOL    HW134616   3.411   0.295   9.409  1.7241 -1.0665 -1.1375
 7660SOL    HW234617   3.475   0.307   9.550  0.2296 -0.7680 -0.0553
 7661SOL     OW34618   3.215   0.106   3.926 -0.2779  0.4920 -0.1570
 7661SOL    HW134619   3.198   0.168   3.996 -2.1216 -1.7378  1.3577
 7661SOL    HW234620   3.309   0.089   3.938 -0.5111 -1.5885 -1.2067
 7662SOL     OW34621   3.506   2.355   4.933  0.1947  0.6576  0.8006
 7662SOL    HW134622   3.540   2.412   4.864  2.2312 -0.3992  0.9459
 7662SOL    HW234623   3.433   2.317   4.883  0.9027  0.1724  0.1385
 7663SOL     OW34624   4.502   0.354  14.488 -0.2824 -0.3222 -0.0443
 7663SOL    HW134625   4.438   0.422  14.511  0.4141  0.0100  0.8895
 7663SOL    HW234626   4.579   0.411  14.477 -0.1984 -0.4792 -0.2865
 7664SOL     OW34627   2.093   0.281   2.903 -0.7240 -0.3685 -0.8345
 7664SOL    HW134628   2.100   0.249   2.992  1.7145  2.3449 -0.0486
 7664SOL    HW234629   2.003   0.310   2.918 -0.3328  0.2000  0.4252
 7665SOL     OW34630   3.339   4.475  15.607 -0.1356  0.3701 -0.3880
 7665SOL    HW134631   3.408   4.541  15.613  0.1069  0.4140 -3.4115
 7665SOL    HW234632   3.316   4.477  15.700  1.1995 -1.8247 -0.0252
 7666SOL     OW34633   3.725   1.665  11.147 -0.3837 -0.9179  0.2665
 7666SOL    HW134634   3.751   1.710  11.227  0.3051 -1.1404  0.1701
 7666SOL    HW234635   3.657   1.605  11.177 -1.4900  0.4101  0.4082
 7667SOL     OW34636   1.431   4.081   4.180 -0.1412  0.5244  0.0117
 7667SOL    HW134637   1.507   4.031   4.209  0.5417  0.3513 -2.1150
 7667SOL    HW234638   1.445   4.162   4.229  1.0158  0.1378  0.3255
 7668SOL     OW34639   1.721   2.626   5.230 -0.8748  0.2401 -0.0756
 7668SOL    HW134640   1.709   2.713   5.269 -0.1486  0.6134 -0.6913
 7668SOL    HW234641   1.720   2.649   5.137  0.5521  3.3773  0.6625
 7669SOL     OW34642   2.382   3.518   1.140  0.2397  0.0517  0.5004
 7669SOL    HW134643   2.416   3.517   1.050 -0.3962  1.6727  0.2346
 7669SOL    HW234644   2.460   3.534   1.192  0.4620  3.2523 -0.7740
 7670SOL     OW34645   3.179   2.947   6.132 -0.1556 -0.1674 -0.1611
 7670SOL    HW134646   3.182   2.852   6.119 -0.8180 -0.0964 -0.8406
 7670SOL    HW234647   3.270   2.973   6.115  0.4537 -0.3090  2.8730
 7671SOL     OW34648   1.538   3.023   0.997  0.0033  0.4223  0.3476
 7671SOL    HW134649   1.453   3.035   0.955  0.3709 -0.5497 -0.6735
 7671SOL    HW234650   1.515   2.957   1.062 -0.8242 -0.9734 -1.3612
 7672SOL     OW34651   1.895   0.105   5.288 -0.0160 -0.0547  0.4693
 7672SOL    HW134652   1.933   0.152   5.362 -1.0329 -0.5634  1.3191
 7672SOL    HW234653   1.890   0.176   5.223  1.7417 -0.5377 -0.2011
 7673SOL     OW34654   0.433   1.682   5.200 -0.1014 -0.1197 -0.0156
 7673SOL    HW134655   0.508   1.726   5.158  0.8640 -3.5232 -1.8823
 7673SOL    HW234656   0.468   1.671   5.288  1.1943 -0.2519 -0.5346
 7674SOL     OW34657   0.869   4.635   3.524 -0.3362  0.7024 -0.7018
 7674SOL    HW134658   0.899   4.575   3.456 -1.6945 -0.5480 -0.1844
 7674SOL    HW234659   0.899   4.716   3.483  1.1374  0.2014 -0.6361
 7675SOL     OW34660   1.382   4.720  15.847  0.2549  0.2435 -0.3286
 7675SOL    HW134661   1.359   4.648  15.789  1.2123 -0.5973  0.3362
 7675SOL    HW234662   1.361   0.059  15.791 -0.2105 -0.4738 -1.1055
 7676SOL     OW34663   4.037   0.327   6.776 -0.4617 -0.1596  0.2224
 7676SOL    HW134664   4.084   0.271   6.838 -0.0300 -0.3876 -0.3040
 7676SOL    HW234665   4.016   0.272   6.700 -5.0499 -0.0325  1.3598
 7677SOL     OW34666   3.052   1.646   1.845  0.3243  0.0154  0.1541
 7677SOL    HW134667   3.052   1.739   1.822 -1.4428 -0.0525 -0.1865
 7677SOL    HW234668   3.042   1.642   1.940 -1.2980 -0.3273 -0.0298
 7678SOL     OW34669   1.469   1.097   2.361  0.5134 -0.1927 -0.3401
 7678SOL    HW134670   1.467   1.157   2.287  0.0534  1.6685  1.1703
 7678SOL    HW234671   1.496   1.015   2.320 -0.7520 -0.4858 -0.5977
 7679SOL     OW34672   3.628   4.362  10.478 -0.1633  0.1274 -0.1332
 7679SOL    HW134673   3.588   4.442  10.444  2.1968  1.4301  0.1972
 7679SOL    HW234674   3.558   4.297  10.480 -0.0164 -0.0206  0.2684
 7680SOL     OW34675   4.246   1.848   1.351 -0.2492 -0.3452  0.2952
 7680SOL    HW134676   4.193   1.878   1.425  0.6912  1.5444  0.2203
 7680SOL    HW234677   4.324   1.808   1.388 -0.9276 -0.2580  1.8189
 7681SOL     OW34678   4.129   0.014   4.468  0.4856  0.1601 -0.4772
 7681SOL    HW134679   4.124   4.678   4.404 -2.5725  0.7512 -0.8698
 7681SOL    HW234680   4.136   0.087   4.407  1.2942  0.6423  0.1911
 7682SOL     OW34681   4.305   2.666   7.327 -0.5254  0.1423 -0.7997
 7682SOL    HW134682   4.347   2.751   7.318  0.8147 -0.4567 -0.2915
 7682SOL    HW234683   4.316   2.643   7.235 -0.9066  0.1882 -0.8543
 7683SOL     OW34684   4.368   0.548   4.605  0.1520 -0.4366  0.1278
 7683SOL    HW134685   4.446   0.493   4.606  2.3699  2.6158 -1.9092
 7683SOL    HW234686   4.290   0.493   4.610  1.3950 -1.8630  3.5338
 7684SOL     OW34687   1.077   1.517   2.388  0.4561  0.2824  0.1423
 7684SOL    HW134688   1.170   1.501   2.407  0.5906 -0.8638 -1.5616
 7684SOL    HW234689   1.054   1.452   2.322 -1.4075 -0.5247  1.5777
 7685SOL     OW34690   2.958   2.672   2.223  0.1586 -0.1618  0.4233
 7685SOL    HW134691   2.968   2.760   2.261  1.7886 -0.4349  0.6492
 7685SOL    HW234692   2.884   2.689   2.165  0.4596 -1.8039 -0.4339
 7686SOL     OW34693   3.430   2.996   7.448  0.4236  0.0521 -0.2836
 7686SOL    HW134694   3.419   3.090   7.461  0.8704  0.0946 -0.2048
 7686SOL    HW234695   3.386   2.953   7.522 -0.4990 -1.7655 -1.8815
 7687SOL     OW34696   3.133   0.193   3.669 -0.1139 -0.3050 -0.2862
 7687SOL    HW134697   3.222   0.193   3.632 -0.0665  0.5913 -0.1838
 7687SOL    HW234698   3.148   0.170   3.761 -0.1936  1.2751  0.1262
 7688SOL     OW34699   4.047   2.544   5.001  0.1576  0.1494  0.3043
 7688SOL    HW134700   3.978   2.604   5.027 -1.4475 -1.2695 -0.7237
 7688SOL    HW234701   4.036   2.473   5.064  0.0490  0.5147  0.6958
 7689SOL     OW34702   1.341   3.051  12.907 -0.0033 -0.5381  0.0133
 7689SOL    HW134703   1.273   3.115  12.925 -0.5512 -0.9467 -0.6210
 7689SOL    HW234704   1.295   2.980  12.863 -1.9735  0.7481  0.0150
 7690SOL     OW34705   0.190   2.097   6.004  0.1345  0.5863 -0.4866
 7690SOL    HW134706   0.154   2.150   5.933  0.0368 -0.1248 -0.9607
 7690SOL    HW234707   0.111   2.059   6.043  0.6719  0.1054  0.1488
 7691SOL     OW34708   0.042   2.769   4.564  0.0724  0.3945 -0.1147
 7691SOL    HW134709   0.007   2.855   4.540  0.6073  0.8754  0.8061
 7691SOL    HW234710   0.127   2.792   4.602 -0.0256  1.5606 -0.5862
 7692SOL     OW34711   2.540   0.421   4.237 -0.3769 -0.0556  0.4294
 7692SOL    HW134712   2.500   0.399   4.321 -0.0248  0.2781  0.6810
 7692SOL    HW234713   2.532   0.334   4.198  0.1284  0.3638 -0.6068
 7693SOL     OW34714   4.459   3.075   9.018  0.3367 -0.0202  0.4000
 7693SOL    HW134715   4.494   2.993   8.985 -0.6008 -0.7775  1.2719
 7693SOL    HW234716   4.385   3.044   9.072 -2.2901  1.7207 -2.2063
 7694SOL     OW34717   3.152   0.330   3.140  0.0176 -0.8542  0.3685
 7694SOL    HW134718   3.218   0.400   3.138 -0.7414 -0.1491  0.1674
 7694SOL    HW234719   3.196   0.261   3.089 -3.3421 -1.0069 -2.3098
 7695SOL     OW34720   2.769   1.962   1.852  0.0476  0.4165 -0.8708
 7695SOL    HW134721   2.795   2.032   1.912 -0.0964  1.9006 -2.5293
 7695SOL    HW234722   2.709   2.014   1.798 -0.9459 -0.1378 -0.3006
 7696SOL     OW34723   1.286   0.949   2.034  0.0517 -0.4455 -0.8101
 7696SOL    HW134724   1.323   1.038   2.036  0.2403 -0.5500  0.5130
 7696SOL    HW234725   1.363   0.894   2.049  1.1633  0.6504 -2.4503
 7697SOL     OW34726   0.794   3.252  10.278 -0.1255  0.1442  0.3029
 7697SOL    HW134727   0.713   3.240  10.327 -0.7439 -0.4878 -0.8700
 7697SOL    HW234728   0.830   3.328  10.323  3.6741 -1.9185  0.7915
 7698SOL     OW34729   0.439   2.991   5.477 -0.1742 -0.2151  0.4329
 7698SOL    HW134730   0.436   3.014   5.385 -1.0614 -0.7434  0.3336
 7698SOL    HW234731   0.509   2.926   5.480  0.4525  0.5072  1.7263
 7699SOL     OW34732   0.359   1.132   8.429 -0.2534 -0.1587  0.3552
 7699SOL    HW134733   0.322   1.122   8.517 -1.0560  4.0821  0.4813
 7699SOL    HW234734   0.283   1.169   8.384 -1.8022 -1.5209  1.8359
 7700SOL     OW34735   3.598   3.945   9.711  0.2256 -0.4248  0.0471
 7700SOL    HW134736   3.669   3.951   9.647 -1.2565 -0.4094 -1.6054
 7700SOL    HW234737   3.609   4.024   9.763 -3.6409  0.5051 -0.5597
 7701SOL     OW34738   0.814   4.395   8.534  0.7498  0.3753 -0.4279
 7701SOL    HW134739   0.827   4.300   8.530 -1.7069  0.0384 -0.1098
 7701SOL    HW234740   0.904   4.422   8.518  0.8441 -0.0008 -0.5331
 7702SOL     OW34741   4.694   2.971   5.366  0.1401 -0.3319 -0.1937
 7702SOL    HW134742   4.698   2.982   5.461  0.4388  0.0109 -0.2481
 7702SOL    HW234743   4.680   3.061   5.339 -2.8857 -0.2356  1.6615
 7703SOL     OW34744   4.650   1.379   8.015 -0.4941  0.2635 -0.2622
 7703SOL    HW134745   4.666   1.465   8.052  1.6697 -0.0386 -0.4889
 7703SOL    HW234746   4.613   1.388   7.927  0.0190 -0.1653 -0.5263
 7704SOL     OW34747   1.207   3.834  12.323 -0.4752 -0.5770 -0.8062
 7704SOL    HW134748   1.281   3.861  12.269  0.0368 -0.6147 -0.1338
 7704SOL    HW234749   1.250   3.785  12.393  0.5966  1.1282 -0.2799
 7705SOL     OW34750   1.025   1.928  10.610 -0.0757 -0.0103 -0.2131
 7705SOL    HW134751   1.040   1.859  10.674  1.8748  2.4777  2.0204
 7705SOL    HW234752   1.039   1.876  10.531  2.4084  1.7420 -0.9170
 7706SOL     OW34753   2.640   3.322   8.923  0.3969 -0.2501  0.6293
 7706SOL    HW134754   2.559   3.373   8.925  1.0575  0.7683  2.0903
 7706SOL    HW234755   2.686   3.354   8.845  0.0247  2.6261  1.5842
 7707SOL     OW34756   1.525   1.672  13.214 -0.1667  0.7991 -0.1999
 7707SOL    HW134757   1.436   1.645  13.239  1.4708 -2.4473  2.1463
 7707SOL    HW234758   1.529   1.646  13.123 -0.9862  1.3700 -0.4006
 7708SOL     OW34759   3.774   1.864  11.314  0.5417 -0.2166  0.2917
 7708SOL    HW134760   3.850   1.905  11.272  1.6331 -0.9604  1.5634
 7708SOL    HW234761   3.717   1.940  11.306 -0.4482 -0.9291  0.6848
 7709SOL     OW34762   0.751   2.486   9.871 -0.2154  0.3623  0.3936
 7709SOL    HW134763   0.769   2.419   9.805  0.7147  0.9005  0.0945
 7709SOL    HW234764   0.719   2.560   9.819 -0.9203 -0.7122 -0.6962
 7710SOL     OW34765   3.612   4.009   2.783 -0.0399  1.1276 -0.0568
 7710SOL    HW134766   3.644   3.987   2.695 -0.0715  0.7127  0.0343
 7710SOL    HW234767   3.693   4.042   2.822  0.6124  0.9209 -1.2303
 7711SOL     OW34768   0.225   4.705  15.753 -0.7358  0.0199  0.3695
 7711SOL    HW134769   0.189   0.027  15.821  2.3200  0.2229  1.8218
 7711SOL    HW234770   0.190   0.007  15.673  0.8176 -0.8572 -0.7031
 7712SOL     OW34771   1.224   2.840   5.217 -0.4059 -0.2471  0.6494
 7712SOL    HW134772   1.242   2.934   5.207  0.0697 -0.4102 -0.0124
 7712SOL    HW234773   1.303   2.798   5.182  0.3829  1.6890  0.1017
 7713SOL     OW34774   1.053   2.061  12.199  0.2547 -0.3954 -0.4404
 7713SOL    HW134775   1.073   2.027  12.286 -0.6779  0.1289 -0.0164
 7713SOL    HW234776   1.109   2.139  12.205  0.3040 -0.5003  0.4244
 7714SOL     OW34777   2.996   4.154   0.739 -0.0305  0.0765 -0.2149
 7714SOL    HW134778   2.975   4.123   0.650 -1.5446 -0.2944  0.2607
 7714SOL    HW234779   3.065   4.095   0.768 -0.2513  0.4029  0.9829
 7715SOL     OW34780   4.384   4.181  13.768  0.2824  0.1313 -0.0783
 7715SOL    HW134781   4.459   4.190  13.826  0.8843 -2.2194 -0.4846
 7715SOL    HW234782   4.416   4.108  13.714  1.1168 -0.1041  0.7315
 7716SOL     OW34783   2.743   3.272   8.217  0.5228  0.3319 -0.0874
 7716SOL    HW134784   2.821   3.328   8.215  0.4782  0.3861 -0.3360
 7716SOL    HW234785   2.671   3.334   8.225 -0.8469 -1.2843 -0.1316
 7717SOL     OW34786   3.319   0.430  11.215 -0.0069 -0.6461  0.1569
 7717SOL    HW134787   3.383   0.366  11.184 -0.0415 -0.7710  0.3418
 7717SOL    HW234788   3.285   0.460  11.131  0.1756 -1.1792 -0.1083
 7718SOL     OW34789   1.694   2.016   5.520  0.5922 -0.4601 -0.1469
 7718SOL    HW134790   1.645   2.043   5.442 -0.8177 -1.3909  0.4278
 7718SOL    HW234791   1.628   1.951   5.546 -0.1171  0.8860  1.4446
 7719SOL     OW34792   0.961   0.760   3.568 -0.6317 -0.0824 -0.5053
 7719SOL    HW134793   0.987   0.790   3.481 -0.6564  0.3302 -0.3710
 7719SOL    HW234794   1.035   0.704   3.592  0.8804  0.8655 -2.8644
 7720SOL     OW34795   4.481   1.780   0.893 -0.2887 -0.7371  0.0091
 7720SOL    HW134796   4.540   1.742   0.958 -1.8263 -0.5112  1.5050
 7720SOL    HW234797   4.461   1.703   0.839 -0.8254  0.2845 -1.2668
 7721SOL     OW34798   4.174   0.644   9.739 -0.0145 -0.1593  0.1781
 7721SOL    HW134799   4.195   0.702   9.813 -2.0148  1.5126 -0.5772
 7721SOL    HW234800   4.261   0.608   9.721 -0.8511  0.7362 -5.6438
 7722SOL     OW34801   3.267   3.126   2.215 -0.5234  0.2461 -0.1300
 7722SOL    HW134802   3.200   3.194   2.207  0.7622  1.6658  1.3259
 7722SOL    HW234803   3.305   3.147   2.300  0.1642 -0.5204 -0.2528
 7723SOL     OW34804   2.308   3.154   5.403 -0.2544  0.7266 -0.1428
 7723SOL    HW134805   2.280   3.203   5.481  0.3302 -0.8381  1.0505
 7723SOL    HW234806   2.245   3.184   5.338 -2.1404 -1.9159  0.4952
 7724SOL     OW34807   4.008   2.035   7.177 -0.2921 -0.1864 -0.3959
 7724SOL    HW134808   4.009   2.126   7.207  0.3073 -0.9755  1.9488
 7724SOL    HW234809   3.977   2.046   7.087  0.7515  2.0893 -0.4899
 7725SOL     OW34810   2.160   3.833   6.536 -0.2226 -0.2866 -0.2573
 7725SOL    HW134811   2.072   3.796   6.546 -0.0574 -0.9395 -1.1653
 7725SOL    HW234812   2.148   3.893   6.462  3.2466  0.4897 -0.1930
 7726SOL     OW34813   3.189   0.352   4.079 -0.0007  0.3880  0.3266
 7726SOL    HW134814   3.255   0.410   4.041 -0.8085 -0.2954 -2.1663
 7726SOL    HW234815   3.180   0.378   4.170 -1.1973  1.7447 -0.1855
 7727SOL     OW34816   2.862   3.555   7.875  0.0753 -0.0744  0.2342
 7727SOL    HW134817   2.935   3.607   7.910 -0.1088 -0.6616  1.4691
 7727SOL    HW234818   2.833   3.621   7.812 -0.7227 -0.3192  0.3499
 7728SOL     OW34819   2.472   3.716  15.448  0.0739  0.0162  0.2050
 7728SOL    HW134820   2.411   3.644  15.463  0.8090 -0.8060 -0.7497
 7728SOL    HW234821   2.417   3.770  15.392  2.1408  1.7017 -0.2352
 7729SOL     OW34822   0.448   2.235   1.870  0.4328 -0.9706 -0.5666
 7729SOL    HW134823   0.428   2.323   1.838 -1.8604 -0.5672  1.9656
 7729SOL    HW234824   0.494   2.208   1.790  0.3187  1.2652 -1.3789
 7730SOL     OW34825   2.717   1.160  12.220  0.6049  0.0519  0.1373
 7730SOL    HW134826   2.807   1.130  12.234  0.3079 -1.1267 -0.4789
 7730SOL    HW234827   2.673   1.076  12.234 -0.3613  0.4304 -0.6263
 7731SOL     OW34828   1.898   0.837   8.087  0.4627  0.0820 -0.3387
 7731SOL    HW134829   1.826   0.773   8.094  0.8813 -0.3204  0.2972
 7731SOL    HW234830   1.853   0.918   8.111  2.3038  1.3887 -1.3322
 7732SOL     OW34831   2.619   2.562   6.082  0.1407 -0.2245  0.2132
 7732SOL    HW134832   2.650   2.539   5.994  0.7638  1.2302  0.0526
 7732SOL    HW234833   2.624   2.479   6.128  0.7085 -0.7660 -0.8325
 7733SOL     OW34834   4.304   2.191   2.589 -0.0427 -0.3540  0.2002
 7733SOL    HW134835   4.264   2.270   2.551 -1.7297 -1.0013  0.6371
 7733SOL    HW234836   4.383   2.181   2.536  1.0393 -0.0760  1.7728
 7734SOL     OW34837   2.680   1.695  13.639 -0.1278  0.3912 -0.4572
 7734SOL    HW134838   2.683   1.791  13.638 -0.4013  0.3959 -1.0503
 7734SOL    HW234839   2.692   1.678  13.732  0.2748  0.5681 -0.4760
 7735SOL     OW34840   4.052   1.988   5.757  0.0662  0.2326  0.1628
 7735SOL    HW134841   4.038   1.952   5.845  1.6676  3.3015  1.6624
 7735SOL    HW234842   4.135   1.948   5.730  0.1879  2.5623 -2.9294
 7736SOL     OW34843   4.672   0.614   9.551  0.4180 -0.2907  0.3219
 7736SOL    HW134844   4.729   0.567   9.490  0.9625  0.3012  0.3770
 7736SOL    HW234845   4.589   0.614   9.503  0.8907 -0.1009 -0.5029
 7737SOL     OW34846   4.194   0.338   2.376  0.3126  0.3836  0.4533
 7737SOL    HW134847   4.279   0.294   2.385  0.6721  0.7861 -1.0243
 7737SOL    HW234848   4.225   0.424   2.404  1.9261  0.4231 -1.4412
 7738SOL     OW34849   3.949   1.667  16.935  0.5666  0.0764 -0.6370
 7738SOL    HW134850   3.950   1.624  16.849 -0.8266 -0.1433 -0.5400
 7738SOL    HW234851   3.858   1.646  16.957  1.2233 -0.4053  1.5182
 7739SOL     OW34852   1.490   0.600   0.606  0.0525 -0.0005 -0.1183
 7739SOL    HW134853   1.450   0.681   0.575 -1.6192  0.3944  3.0071
 7739SOL    HW234854   1.410   0.557   0.638 -0.6808  0.1160 -1.8263
 7740SOL     OW34855   1.998   3.227   2.017 -0.0923 -0.5342 -0.0226
 7740SOL    HW134856   1.977   3.277   1.939 -1.9337  1.7472  1.9601
 7740SOL    HW234857   2.056   3.290   2.060  0.3804 -0.1611 -1.2062
 7741SOL     OW34858   3.194   2.666   5.700  0.6175 -0.5210 -0.0268
 7741SOL    HW134859   3.206   2.586   5.648  1.2508  0.1894 -0.9746
 7741SOL    HW234860   3.112   2.700   5.667  0.4176  0.6785  1.6975
 7742SOL     OW34861   0.012   4.275   7.279  0.1379 -0.5553  0.0659
 7742SOL    HW134862   4.655   4.269   7.304 -0.4094 -0.8540 -1.9990
 7742SOL    HW234863   0.009   4.233   7.193 -0.8459  0.3354 -0.3328
 7743SOL     OW34864   4.091   0.997   6.684  0.2079 -0.7072 -0.8254
 7743SOL    HW134865   4.049   1.050   6.616  0.7902 -2.3246 -2.4636
 7743SOL    HW234866   4.021   0.985   6.748 -0.2644  0.4263 -1.1138
 7744SOL     OW34867   2.067   4.091   2.381  0.7725 -0.4405 -0.2060
 7744SOL    HW134868   2.032   4.060   2.297  0.7478 -0.7282 -0.0902
 7744SOL    HW234869   2.157   4.058   2.378  0.7940 -0.1332 -3.6792
 7745SOL     OW34870   4.031   1.479  10.928 -0.2544 -0.4870 -0.0149
 7745SOL    HW134871   4.085   1.545  10.971  0.0789  0.9974 -2.7221
 7745SOL    HW234872   4.010   1.425  11.004  1.4812 -3.0640 -1.3171
 7746SOL     OW34873   0.060   0.402   1.651 -0.0247  0.4682 -0.6309
 7746SOL    HW134874   0.127   0.470   1.657  0.5939 -0.1160 -0.9024
 7746SOL    HW234875   0.041   0.385   1.743 -1.1951  0.5533 -0.8477
 7747SOL     OW34876   3.466   1.412   8.689  0.8075 -0.2903  0.1702
 7747SOL    HW134877   3.453   1.495   8.735 -1.6331 -0.9898  0.7190
 7747SOL    HW234878   3.540   1.362   8.724  0.2084 -1.7876 -0.6940
 7748SOL     OW34879   0.473   3.092   2.350  0.3324 -0.2688 -0.0128
 7748SOL    HW134880   0.444   3.013   2.306 -0.3440 -0.6586  1.1337
 7748SOL    HW234881   0.568   3.081   2.349  0.0260 -2.6039 -1.3557
 7749SOL     OW34882   4.056   4.056   1.122  0.2787  0.0080 -0.1704
 7749SOL    HW134883   4.142   4.084   1.155  0.3730 -0.5294  0.0569
 7749SOL    HW234884   4.007   4.063   1.203  1.4321  0.7539  0.4625
 7750SOL     OW34885   1.368   1.619  11.817  0.3577 -0.4343 -0.7543
 7750SOL    HW134886   1.432   1.683  11.847  0.0007 -0.5918  0.3615
 7750SOL    HW234887   1.291   1.668  11.790 -0.2752 -1.2694 -0.4836
 7751SOL     OW34888   2.127   4.391  16.052  0.7401 -0.2529 -0.0417
 7751SOL    HW134889   2.143   4.444  16.131 -1.1009 -0.7128  0.6389
 7751SOL    HW234890   2.176   4.309  16.058  2.4972  0.8615  0.9047
 7752SOL     OW34891   1.871   3.819   4.874  0.3315 -0.0696 -0.5435
 7752SOL    HW134892   1.838   3.827   4.964  0.1295 -0.8048 -0.5589
 7752SOL    HW234893   1.801   3.853   4.818 -0.6575  1.6450  1.6907
 7753SOL     OW34894   1.878   2.832   7.237 -0.4003  0.5455  0.8369
 7753SOL    HW134895   1.965   2.871   7.240 -0.8501  1.5923  0.3760
 7753SOL    HW234896   1.831   2.891   7.178 -0.8867  0.2785  0.9505
 7754SOL     OW34897   3.945   3.074   5.995 -0.0640 -0.2814  0.5578
 7754SOL    HW134898   3.996   3.007   5.950 -1.9746  0.3212 -2.5156
 7754SOL    HW234899   3.941   3.047   6.086 -1.5775 -2.1997 -0.0787
 7755SOL     OW34900   1.449   0.649   4.937 -0.0989  0.1477  0.2033
 7755SOL    HW134901   1.473   0.570   4.890 -1.0445  0.9701 -1.6451
 7755SOL    HW234902   1.499   0.638   5.018  0.5261 -1.4131 -0.3984
 7756SOL     OW34903   0.442   2.435  12.983  0.1440  0.1089 -0.1382
 7756SOL    HW134904   0.459   2.528  12.998 -1.2741  0.1984  0.9103
 7756SOL    HW234905   0.390   2.438  12.904  0.4902  0.9279 -0.3392
 7757SOL     OW34906   3.011   4.450  15.609 -0.1468  0.4680  0.1069
 7757SOL    HW134907   2.950   4.406  15.551  2.0612 -1.2165 -0.9520
 7757SOL    HW234908   3.040   4.521  15.551  1.6049  1.9049  2.7183
 7758SOL     OW34909   0.755   0.983   5.021 -0.1149 -0.1742 -0.2691
 7758SOL    HW134910   0.792   1.012   5.105 -0.7650 -1.0674  0.3325
 7758SOL    HW234911   0.663   1.008   5.025  0.0148  0.4394 -1.1534
 7759SOL     OW34912   2.033   1.423   1.316 -0.0296  0.0704  0.2323
 7759SOL    HW134913   2.119   1.384   1.332  0.5180  1.1850 -0.0361
 7759SOL    HW234914   2.003   1.413   1.406  0.2995 -1.4190  0.1773
 7760SOL     OW34915   3.194   1.162   0.594 -0.3218 -0.3704 -0.3695
 7760SOL    HW134916   3.100   1.178   0.584 -0.4594  1.2890  3.3391
 7760SOL    HW234917   3.213   1.249   0.630  1.0127 -1.2857  1.1021
 7761SOL     OW34918   3.093   0.440   7.136 -0.2667  0.2094  0.5019
 7761SOL    HW134919   3.096   0.345   7.128 -1.7082  0.2271 -0.1847
 7761SOL    HW234920   3.110   0.448   7.230 -1.2884  1.0750  0.6194
 7762SOL     OW34921   1.913   1.509   5.938 -0.1982  0.2871  0.5236
 7762SOL    HW134922   1.914   1.485   5.846 -0.9748  0.2235  0.5317
 7762SOL    HW234923   1.977   1.580   5.933  1.2987 -1.0871  0.4191
 7763SOL     OW34924   3.849   3.625  14.829 -0.2056  0.5643  0.0624
 7763SOL    HW134925   3.856   3.715  14.796 -0.0815  1.4477  2.4390
 7763SOL    HW234926   3.783   3.646  14.895  0.0769 -2.2099  1.2417
 7764SOL     OW34927   4.088   3.441   2.853  0.1642 -0.5299 -0.0833
 7764SOL    HW134928   4.139   3.483   2.784  1.9201 -0.4093  1.2990
 7764SOL    HW234929   4.159   3.416   2.911  0.0935 -0.5501 -0.0047
 7765SOL     OW34930   4.180   2.698  10.038 -0.2453 -0.6658 -0.1114
 7765SOL    HW134931   4.219   2.626   9.988 -1.2398 -0.7067 -0.8363
 7765SOL    HW234932   4.167   2.660  10.125 -0.4185  1.9178  0.9867
 7766SOL     OW34933   3.499   1.316  16.132  0.4561  0.4699 -0.1599
 7766SOL    HW134934   3.437   1.388  16.116  1.6779  1.1865 -1.6928
 7766SOL    HW234935   3.539   1.325  16.218  0.7508  0.0096 -0.2516
 7767SOL     OW34936   0.764   1.255   2.464  0.1537 -0.1504  0.1501
 7767SOL    HW134937   0.683   1.205   2.458 -0.3473  0.7156 -0.4074
 7767SOL    HW234938   0.735   1.346   2.463 -0.0987 -0.2281  0.8770
 7768SOL     OW34939   0.346   2.039  12.325 -0.1452 -0.2589 -0.5132
 7768SOL    HW134940   0.269   2.054  12.380 -2.6133  2.1239 -4.5857
 7768SOL    HW234941   0.409   2.102  12.360 -2.3195  0.5658  1.9506
 7769SOL     OW34942   1.179   0.593   5.153 -0.1239 -0.2417 -0.0898
 7769SOL    HW134943   1.087   0.593   5.180 -0.3434  0.1198 -0.8299
 7769SOL    HW234944   1.205   0.681   5.181  0.2445 -0.5725  0.6050
 7770SOL     OW34945   3.978   1.590  11.372  0.3943  0.4935  0.4396
 7770SOL    HW134946   3.972   1.686  11.374 -0.4747  0.3972  1.9403
 7770SOL    HW234947   4.060   1.582  11.420  2.0202 -2.2062 -2.7633
 7771SOL     OW34948   2.825   2.020  12.102 -0.2398 -0.1528 -0.0147
 7771SOL    HW134949   2.892   2.082  12.129  2.0385 -2.3313 -0.6951
 7771SOL    HW234950   2.766   2.013  12.177 -0.9763  1.2743 -0.4492
 7772SOL     OW34951   2.868   2.427   9.458  0.1954 -0.3542 -0.1497
 7772SOL    HW134952   2.842   2.338   9.481  0.4544 -0.4440 -0.1974
 7772SOL    HW234953   2.950   2.432   9.507 -0.3179  3.6614  0.2871
 7773SOL     OW34954   0.085   0.953  16.568 -0.2326 -0.5526 -0.7780
 7773SOL    HW134955   0.130   0.877  16.604 -3.2158 -1.9787 -0.1213
 7773SOL    HW234956   4.730   0.926  16.551 -1.1289  1.6441  0.3523
 7774SOL     OW34957   2.847   4.726   4.620  0.1386  0.5638  0.5954
 7774SOL    HW134958   2.829   4.639   4.585 -0.6279  0.2880  1.6769
 7774SOL    HW234959   2.838   0.050   4.546 -0.3502 -0.3269 -0.0569
 7775SOL     OW34960   0.174   0.662  15.513  0.3234 -0.6436  0.6576
 7775SOL    HW134961   0.243   0.595  15.511  0.4517 -0.4700 -1.6261
 7775SOL    HW234962   0.115   0.636  15.583  1.9176 -1.0758  1.8266
 7776SOL     OW34963   0.366   0.804  11.190 -0.5163  0.8451  0.0083
 7776SOL    HW134964   0.310   0.794  11.114 -2.3493  4.0059  0.9500
 7776SOL    HW234965   0.310   0.772  11.261  1.5085  0.0678  1.2647
 7777SOL     OW34966   2.635   2.214  16.825 -0.4624 -0.0569 -0.4313
 7777SOL    HW134967   2.652   2.302  16.791 -1.7345  0.1667 -0.4930
 7777SOL    HW234968   2.706   2.160  16.791 -1.3151 -2.2702  1.2926
 7778SOL     OW34969   2.112   0.343   3.554 -0.1655  0.2843 -0.4192
 7778SOL    HW134970   2.192   0.363   3.505 -0.8650  1.9463 -0.8712
 7778SOL    HW234971   2.142   0.261   3.594  2.7620  0.0749 -2.9706
 7779SOL     OW34972   2.701   1.466   1.542  1.0218 -0.0058  0.4224
 7779SOL    HW134973   2.789   1.451   1.577  0.3201 -0.9146  1.7807
 7779SOL    HW234974   2.716   1.538   1.480 -0.3065  0.3838  0.5600
 7780SOL     OW34975   2.923   0.140  10.898 -0.1604 -0.2829 -0.0856
 7780SOL    HW134976   2.928   0.235  10.898  4.6135 -0.5479 -1.6451
 7780SOL    HW234977   2.847   0.114  10.846  1.9122 -0.8700 -2.8213
 7781SOL     OW34978   1.210   1.597  15.225  0.6403 -0.6450 -0.4324
 7781SOL    HW134979   1.132   1.556  15.261  0.3666 -1.3285 -1.8168
 7781SOL    HW234980   1.279   1.551  15.273 -1.6093 -3.2438  0.2491
 7782SOL     OW34981   2.346   4.309   3.801  0.8962  0.3686  0.0953
 7782SOL    HW134982   2.332   4.326   3.708 -2.4665 -2.6779  0.0570
 7782SOL    HW234983   2.276   4.246   3.818  1.9053 -0.7479  0.1853
 7783SOL     OW34984   4.266   2.556   5.547 -0.3053  0.1077  0.1450
 7783SOL    HW134985   4.232   2.531   5.632 -0.8621  1.6742  0.3868
 7783SOL    HW234986   4.209   2.508   5.486 -1.4445 -1.1211  2.1866
 7784SOL     OW34987   2.794   0.039   9.393  0.1368  0.2322 -0.0898
 7784SOL    HW134988   2.850   0.066   9.320 -0.1577 -1.0022 -0.7746
 7784SOL    HW234989   2.790   4.679   9.403  0.5733  0.5514  3.2815
 7785SOL     OW34990   3.083   0.851   9.428 -0.4165  0.0015 -0.5984
 7785SOL    HW134991   3.067   0.783   9.493 -0.5919 -0.8027 -1.4776
 7785SOL    HW234992   3.172   0.835   9.397  0.0312 -0.6933  1.0560
 7786SOL     OW34993   4.625   0.962   5.025 -0.2216  0.0804 -0.2912
 7786SOL    HW134994   4.658   0.989   5.111 -0.0304 -2.6772  0.4880
 7786SOL    HW234995   4.583   1.038   4.985  0.8703  1.8543  1.9235
 7787SOL     OW34996   2.834   3.107   8.804  0.2304  0.4938 -0.9431
 7787SOL    HW134997   2.915   3.144   8.839 -1.2721 -0.3538  3.4557
 7787SOL    HW234998   2.848   3.148   8.718 -0.9012  0.9004 -0.9336
 7788SOL     OW34999   0.329   2.700   2.891 -0.3611 -0.6073  0.2226
 7788SOL    HW135000   0.382   2.653   2.956  0.6292  1.1457  0.6980
 7788SOL    HW235001   0.246   2.710   2.939 -1.9808 -2.6284 -2.2063
 7789SOL     OW35002   3.470   4.679   3.926 -0.0388  0.0872 -0.7878
 7789SOL    HW135003   3.554   4.633   3.918 -1.4500 -2.4327 -1.0795
 7789SOL    HW235004   3.483   0.021   3.871 -1.2005  0.8201 -0.0516
 7790SOL     OW35005   3.537   0.983   6.008  0.5919 -0.3411  0.5848
 7790SOL    HW135006   3.622   1.011   5.973  0.2424 -0.2049 -0.1621
 7790SOL    HW235007   3.522   0.897   5.969  0.7526  0.4452 -1.2462
 7791SOL     OW35008   4.358   0.402   6.603 -0.3872  0.5418  0.2194
 7791SOL    HW135009   4.274   0.443   6.581 -1.8583 -1.8999  1.2593
 7791SOL    HW235010   4.415   0.409   6.526 -0.7004 -1.8716 -0.2221
 7792SOL     OW35011   4.185   0.306   6.125  0.7916  0.2584  0.3208
 7792SOL    HW135012   4.174   0.239   6.192 -1.9588 -0.6222 -1.0310
 7792SOL    HW235013   4.091   0.319   6.115  1.0375  0.6489 -1.5550
 7793SOL     OW35014   1.091   3.324   1.103 -0.1695 -0.8837 -0.0002
 7793SOL    HW135015   1.029   3.385   1.063 -1.1997 -0.9332  1.5258
 7793SOL    HW235016   1.105   3.268   1.027 -0.3527  0.3863 -0.9856
 7794SOL     OW35017   2.027   2.504   3.709 -0.2933 -0.0763 -0.5051
 7794SOL    HW135018   1.992   2.543   3.629 -2.3026  2.2181  1.5172
 7794SOL    HW235019   2.035   2.410   3.695 -1.2403 -0.1305 -0.7190
 7795SOL     OW35020   0.620   4.351   3.262  0.6001  0.9242 -0.2805
 7795SOL    HW135021   0.609   4.445   3.247 -1.1137  0.7914  0.1702
 7795SOL    HW235022   0.670   4.331   3.183  0.1173  1.3555 -0.7048
 7796SOL     OW35023   3.748   0.168   8.880  0.2741  0.0816 -0.0026
 7796SOL    HW135024   3.666   0.178   8.927  0.4021  0.5970  0.1135
 7796SOL    HW235025   3.820   0.177   8.943  1.4044 -1.4021 -1.0723
 7797SOL     OW35026   3.292   2.799  17.243  0.6641 -0.0828 -0.4204
 7797SOL    HW135027   3.241   2.853  17.303  3.3149  0.9133  0.9696
 7797SOL    HW235028   3.329   2.736  17.305  0.8495  1.0320  0.5972
 7798SOL     OW35029   1.816   1.409   6.915 -0.0651 -0.1020 -0.1133
 7798SOL    HW135030   1.801   1.373   7.003  0.4921 -0.4821 -0.1770
 7798SOL    HW235031   1.909   1.434   6.915 -0.6209  1.9710 -0.8489
 7799SOL     OW35032   0.772   0.730   6.978  0.4417  0.7968  0.4552
 7799SOL    HW135033   0.734   0.690   6.900 -0.9775  0.6247  1.2225
 7799SOL    HW235034   0.838   0.788   6.940 -0.5980 -0.2357 -2.9167
 7800SOL     OW35035   0.810   3.188  12.019 -0.1660  0.3792 -0.2004
 7800SOL    HW135036   0.739   3.250  12.033 -1.1542 -0.7087 -0.3352
 7800SOL    HW235037   0.882   3.238  12.055  0.3440 -0.4080 -0.1178
 7801SOL     OW35038   1.435   3.352   7.739  0.5011  0.5121  0.0791
 7801SOL    HW135039   1.352   3.309   7.760  0.7511 -0.9845 -1.9578
 7801SOL    HW235040   1.405   3.441   7.721  0.3233  0.2106 -1.1023
 7802SOL     OW35041   1.348   4.719   2.681 -0.4819  0.2782  0.4718
 7802SOL    HW135042   1.336   4.649   2.617  0.1318 -1.8638  2.6988
 7802SOL    HW235043   1.280   4.686   2.739  0.3535 -1.3027  0.5348
 7803SOL     OW35044   2.217   3.767   3.777 -0.0385 -0.4924  0.3547
 7803SOL    HW135045   2.287   3.821   3.815 -1.6372  1.0952  1.0059
 7803SOL    HW235046   2.260   3.719   3.706 -2.6069  0.9056 -2.1184
 7804SOL     OW35047   3.423   3.644   3.443 -0.8620 -0.4793 -0.0514
 7804SOL    HW135048   3.365   3.595   3.385 -0.0675 -1.2259 -0.2157
 7804SOL    HW235049   3.429   3.728   3.399 -0.0929 -0.3582  0.2813
 7805SOL     OW35050   1.792   3.515   5.133 -0.3680 -0.3353  0.0961
 7805SOL    HW135051   1.712   3.463   5.142 -1.4802  1.5333  0.9754
 7805SOL    HW235052   1.826   3.526   5.222  2.6988 -1.6169 -0.8999
 7806SOL     OW35053   1.724   1.406   1.273  0.1285 -0.2618  0.1563
 7806SOL    HW135054   1.815   1.388   1.295  0.4540 -0.0286 -1.0363
 7806SOL    HW235055   1.683   1.423   1.358  1.1278 -0.8131  0.7421
 7807SOL     OW35056   2.977   2.519   6.182  0.1104 -0.2736 -0.1198
 7807SOL    HW135057   3.014   2.494   6.097  0.2730  0.6149 -0.3073
 7807SOL    HW235058   2.987   2.440   6.236  1.3776 -1.4728 -2.0878
 7808SOL     OW35059   1.523   3.740  16.138 -0.0688  0.3743  0.4920
 7808SOL    HW135060   1.534   3.818  16.083 -0.1313  0.5335  0.7056
 7808SOL    HW235061   1.463   3.769  16.207 -1.3043 -0.8347 -0.0586
 7809SOL     OW35062   1.686   2.894   1.404  0.4114  0.3952 -0.3354
 7809SOL    HW135063   1.637   2.827   1.451 -1.2791  1.8961  0.0458
 7809SOL    HW235064   1.775   2.884   1.440 -0.3426  0.7142  1.6611
 7810SOL     OW35065   0.050   2.055   5.515 -0.2787 -0.1947 -0.0992
 7810SOL    HW135066   0.083   1.967   5.497 -0.6816 -0.1821 -0.9213
 7810SOL    HW235067   0.054   2.102   5.432 -1.5521  0.2689  0.1129
 7811SOL     OW35068   2.114   4.480   7.086  0.4787  0.7575  0.2806
 7811SOL    HW135069   2.106   4.445   7.175 -3.1831  1.2819  0.1358
 7811SOL    HW235070   2.199   4.446   7.056  0.6197  1.3082  0.0620
 7812SOL     OW35071   2.622   2.748   9.189 -0.4734 -0.1058  0.2332
 7812SOL    HW135072   2.549   2.803   9.218  1.0529  2.2793 -0.4850
 7812SOL    HW235073   2.606   2.672   9.245  0.2317  0.5568  1.3243
 7813SOL     OW35074   3.952   2.624   5.494 -0.0326  0.3464  0.2048
 7813SOL    HW135075   3.934   2.685   5.422 -1.4942  0.3078  0.5430
 7813SOL    HW235076   3.871   2.574   5.504  0.5045 -0.2154  1.7528
 7814SOL     OW35077   2.412   1.502  12.861  0.2688  0.4223  0.0859
 7814SOL    HW135078   2.351   1.429  12.870  1.4292 -0.5512 -0.0653
 7814SOL    HW235079   2.493   1.463  12.895  0.5594 -0.1187 -1.2428
 7815SOL     OW35080   3.098   0.354   2.559  0.7721 -0.4805  0.1764
 7815SOL    HW135081   3.051   0.358   2.642  2.3298  0.4345  1.0035
 7815SOL    HW235082   3.031   0.304   2.511 -1.0095  1.0541  1.0783
 7816SOL     OW35083   0.098   4.586  16.441  0.3709 -0.5487  0.2069
 7816SOL    HW135084   0.097   4.550  16.529 -1.9618 -1.7063 -0.2883
 7816SOL    HW235085   0.155   4.663  16.446  0.8209 -0.8350 -0.4571
 7817SOL     OW35086   0.998   1.900   8.447  0.2421 -0.2384  0.0592
 7817SOL    HW135087   1.028   1.810   8.457  3.5797  0.9133  0.6070
 7817SOL    HW235088   0.991   1.921   8.540 -0.9349  1.1773 -0.3374
 7818SOL     OW35089   4.679   1.539  16.395  0.4072  0.2706  0.3412
 7818SOL    HW135090   0.019   1.588  16.430  1.2177  0.0569 -1.0568
 7818SOL    HW235091   4.638   1.603  16.336 -0.0785  1.2551  1.7617
 7819SOL     OW35092   1.040   4.547   7.795 -0.4283  0.3604  0.0654
 7819SOL    HW135093   1.050   4.509   7.708 -0.9728 -0.0061  0.1643
 7819SOL    HW235094   1.116   4.605   7.799  0.2212 -0.6775  3.1320
 7820SOL     OW35095   1.160   1.670   0.484  0.1100  0.4505 -0.0955
 7820SOL    HW135096   1.233   1.731   0.478  0.7805 -0.3654 -0.1699
 7820SOL    HW235097   1.124   1.689   0.398 -1.3271 -0.5871  0.2734
 7821SOL     OW35098   0.523   3.925   4.035  0.0352  0.2282 -0.3383
 7821SOL    HW135099   0.614   3.911   4.061  0.0170 -0.5268 -0.6728
 7821SOL    HW235100   0.525   4.020   4.024  1.6121  0.0395 -1.6745
 7822SOL     OW35101   2.901   1.756  12.124 -0.1444  0.3942  0.0569
 7822SOL    HW135102   2.987   1.796  12.135 -0.6665  1.8558 -1.1802
 7822SOL    HW235103   2.850   1.838  12.123  0.6479  0.8884  0.0168
 7823SOL     OW35104   3.793   0.107   9.698  0.2241 -0.1737  0.4613
 7823SOL    HW135105   3.727   0.103   9.628  0.3163 -2.9186  0.5494
 7823SOL    HW235106   3.743   0.119   9.779  1.1244  0.7208  0.8854
 7824SOL     OW35107   1.307   1.459  16.802  0.4472  0.3924 -0.0127
 7824SOL    HW135108   1.305   1.427  16.892  0.9957  2.1639  0.6304
 7824SOL    HW235109   1.252   1.393  16.759  1.4503 -1.3234  1.3598
 7825SOL     OW35110   3.088   4.546   0.807 -0.3315  0.0038 -0.3034
 7825SOL    HW135111   3.183   4.550   0.798 -0.4200  1.0940 -0.8087
 7825SOL    HW235112   3.066   4.639   0.800 -0.7892 -0.2624 -2.4473
 7826SOL     OW35113   4.059   1.966   2.491  0.8601  0.4243 -0.1145
 7826SOL    HW135114   4.075   1.992   2.582 -2.1652  1.4621  0.1310
 7826SOL    HW235115   4.140   1.916   2.481  0.3949 -0.3965  0.2777
 7827SOL     OW35116   2.936   3.902   4.689  0.4496  0.0652  0.2646
 7827SOL    HW135117   3.014   3.921   4.741  1.4256 -3.2003 -0.0364
 7827SOL    HW235118   2.934   3.983   4.638  0.3706  1.2853  2.2058
 7828SOL     OW35119   4.545   4.078   6.497  0.2178 -0.3144 -0.0490
 7828SOL    HW135120   4.575   3.997   6.457  1.0709  0.2950 -0.6504
 7828SOL    HW235121   4.624   4.131   6.489  0.4573 -0.6577  0.0493
 7829SOL     OW35122   3.779   0.639   2.398 -0.2098 -0.5115 -0.1156
 7829SOL    HW135123   3.838   0.708   2.369 -1.1107  1.4176  2.6627
 7829SOL    HW235124   3.758   0.595   2.315 -0.5802 -2.1404  0.8559
 7830SOL     OW35125   1.030   3.850   9.432  0.4723  0.3465  0.2508
 7830SOL    HW135126   0.954   3.907   9.443 -0.2912 -1.0355  2.0374
 7830SOL    HW235127   1.010   3.800   9.511 -1.9278 -0.5020 -0.8831
 7831SOL     OW35128   2.611   3.738  13.612  0.1682  0.0749 -0.4678
 7831SOL    HW135129   2.593   3.727  13.705 -0.3665  1.7234 -0.3797
 7831SOL    HW235130   2.699   3.775  13.617  0.6866 -0.9045 -2.0510
 7832SOL     OW35131   2.936   3.664   3.102 -0.4161 -0.0443 -0.2162
 7832SOL    HW135132   3.017   3.668   3.052  0.3387 -1.5895  0.8927
 7832SOL    HW235133   2.961   3.727   3.169 -0.7008 -2.5527  2.2400
 7833SOL     OW35134   1.505   3.980   2.849  0.3756 -0.2665  0.2060
 7833SOL    HW135135   1.538   3.917   2.786  1.7367 -2.3811  3.0587
 7833SOL    HW235136   1.414   3.979   2.818  0.5575 -0.3884 -0.3129
 7834SOL     OW35137   2.095   1.207   4.253 -0.3195 -0.2312 -0.3513
 7834SOL    HW135138   2.107   1.254   4.335  1.5915 -2.4175  0.6186
 7834SOL    HW235139   2.139   1.272   4.198 -1.6026  2.0006  1.2592
 7835SOL     OW35140   0.661   0.879  17.488 -0.0430  0.1199 -0.5119
 7835SOL    HW135141   0.669   0.800  17.541  0.6755  0.8830  0.5306
 7835SOL    HW235142   0.567   0.898  17.489 -0.0106  0.1299  2.2434
 7836SOL     OW35143   0.125   2.855   0.195 -0.1175  0.0051 -0.0206
 7836SOL    HW135144   0.170   2.810   0.122  0.0231 -0.9244  0.6311
 7836SOL    HW235145   0.037   2.830   0.167  0.3336  0.2788 -1.6932
 7837SOL     OW35146   1.721   0.777  13.472 -0.6745 -0.1354  0.2604
 7837SOL    HW135147   1.636   0.739  13.449 -0.2504 -1.0127  0.1485
 7837SOL    HW235148   1.712   0.800  13.565 -0.0845 -1.5836  0.6689
 7838SOL     OW35149   0.203   2.804   6.954  0.4858  0.4331  0.5299
 7838SOL    HW135150   0.189   2.720   6.911  1.3887  0.7557 -0.4000
 7838SOL    HW235151   0.169   2.857   6.882  0.7621 -0.7438 -0.4529
 7839SOL     OW35152   1.142   4.140  16.647  0.3406  0.0850  0.0806
 7839SOL    HW135153   1.061   4.140  16.699  0.4383 -2.9104  0.2421
 7839SOL    HW235154   1.213   4.114  16.706  0.7867 -0.4084 -0.6809
 7840SOL     OW35155   1.591   3.834   8.739  0.7021  0.6660 -0.2506
 7840SOL    HW135156   1.659   3.874   8.685 -0.4048  1.4132 -1.0947
 7840SOL    HW235157   1.549   3.785   8.668 -4.6554  1.3841  2.3941
 7841SOL     OW35158   2.318   2.007   7.843  0.4658  0.2874 -0.0105
 7841SOL    HW135159   2.342   1.987   7.753 -1.9870 -0.5239 -0.5074
 7841SOL    HW235160   2.326   1.920   7.884  1.3356 -0.7456 -2.3770
 7842SOL     OW35161   3.593   4.715   1.635 -0.4736 -0.0265 -0.5515
 7842SOL    HW135162   3.568   4.655   1.705  0.9207 -0.2631 -0.2496
 7842SOL    HW235163   3.617   0.055   1.690  2.9897  0.8028 -3.1794
 7843SOL     OW35164   4.006   4.225   8.659  0.1545  0.0715 -0.4702
 7843SOL    HW135165   3.943   4.223   8.730  2.8312 -1.2801  1.8515
 7843SOL    HW235166   3.953   4.241   8.580 -2.9584  0.7311  1.7416
 7844SOL     OW35167   2.448   0.547   7.159  0.2293 -0.1466 -0.4112
 7844SOL    HW135168   2.363   0.573   7.124 -0.4388 -0.6124  0.8460
 7844SOL    HW235169   2.456   0.454   7.134 -1.4349 -0.3443 -0.2663
 7845SOL     OW35170   1.782   1.609   8.750  0.3411  0.4225  0.4013
 7845SOL    HW135171   1.699   1.600   8.798 -0.1854  0.4607 -0.4908
 7845SOL    HW235172   1.783   1.705   8.747  0.4843  0.4027 -0.2442
 7846SOL     OW35173   0.751   4.409   6.726  0.2746  0.0865 -0.0251
 7846SOL    HW135174   0.701   4.386   6.804 -0.6806  0.2796 -0.5874
 7846SOL    HW235175   0.777   4.325   6.690  2.0767  0.1493  1.0791
 7847SOL     OW35176   4.379   3.417   4.945  0.0183 -0.4618  0.3194
 7847SOL    HW135177   4.378   3.326   4.976  0.3237 -0.5887 -0.0507
 7847SOL    HW235178   4.473   3.425   4.928 -0.0158 -0.0588  0.3087
 7848SOL     OW35179   4.492   0.554   7.609 -0.2706  0.0353  0.3817
 7848SOL    HW135180   4.553   0.619   7.574 -3.2596  2.8091  0.3100
 7848SOL    HW235181   4.466   0.595   7.691 -2.8858  0.1462 -0.5101
 7849SOL     OW35182   1.804   2.943  13.357 -0.0909 -0.7043 -0.2864
 7849SOL    HW135183   1.826   2.946  13.264 -0.8953  4.2178 -0.3238
 7849SOL    HW235184   1.884   2.984  13.390 -0.1456  0.0448 -1.1012
 7850SOL     OW35185   3.523   4.171  14.449  0.5292  0.2630  0.1068
 7850SOL    HW135186   3.618   4.173  14.437  0.5859  3.0275  0.9455
 7850SOL    HW235187   3.490   4.103  14.391  1.4506  0.3212 -0.4819
 7851SOL     OW35188   0.540   3.288  13.574 -0.3270  0.1760 -0.1806
 7851SOL    HW135189   0.586   3.372  13.566 -1.7890  1.0048 -0.1251
 7851SOL    HW235190   0.594   3.227  13.622 -1.8235 -1.3324 -0.4248
 7852SOL     OW35191   0.685   3.243  10.003  0.0228 -0.4058 -0.3141
 7852SOL    HW135192   0.721   3.241  10.092  0.0604 -2.1732 -0.3701
 7852SOL    HW235193   0.596   3.275  10.019  0.3149  1.3169 -2.1326
 7853SOL     OW35194   1.308   0.848  14.156 -0.2095 -0.5837 -0.0555
 7853SOL    HW135195   1.366   0.773  14.147 -0.2321 -0.7014  0.7859
 7853SOL    HW235196   1.347   0.905  14.089 -0.9622 -0.1732 -0.1365
 7854SOL     OW35197   1.078   0.864   8.755  1.2689  0.1629  0.1339
 7854SOL    HW135198   1.013   0.893   8.818  0.0471 -0.4057 -0.8710
 7854SOL    HW235199   1.031   0.786   8.725  0.2362  1.3841 -1.3825
 7855SOL     OW35200   0.610   0.608   0.580 -0.3243  0.1417  0.0360
 7855SOL    HW135201   0.668   0.626   0.505  1.2368  1.9663  1.6904
 7855SOL    HW235202   0.635   0.676   0.642  0.1166 -1.0421  1.1360
 7856SOL     OW35203   3.300   1.069   8.372  0.0395 -0.4093  0.3988
 7856SOL    HW135204   3.281   1.002   8.437 -1.1036  0.0907  0.5868
 7856SOL    HW235205   3.296   1.015   8.293 -0.5015  2.8297 -1.8338
 7857SOL     OW35206   0.836   3.115   9.422 -0.1339 -0.1653 -0.5494
 7857SOL    HW135207   0.854   3.178   9.492  2.0415 -0.0320 -1.2277
 7857SOL    HW235208   0.746   3.134   9.393 -0.6629 -2.4187 -0.3707
 7858SOL     OW35209   4.342   4.289   3.871  0.2306  0.2295  0.5781
 7858SOL    HW135210   4.247   4.296   3.882 -0.0036 -0.5863 -1.0630
 7858SOL    HW235211   4.378   4.373   3.900 -0.5715  1.1785 -1.2295
 7859SOL     OW35212   3.077   4.641   3.814  0.7585 -0.0416  0.8481
 7859SOL    HW135213   3.143   4.596   3.762  0.7663  1.2742 -0.2956
 7859SOL    HW235214   3.135   4.700   3.862  0.8481 -0.7325  1.5699
 7860SOL     OW35215   2.295   1.465   8.127  0.4879  0.6453  0.7778
 7860SOL    HW135216   2.356   1.392   8.133 -1.0462 -0.6905  0.0346
 7860SOL    HW235217   2.301   1.500   8.216  1.2243 -1.2826  1.4852
 7861SOL     OW35218   4.308   4.565   5.426  0.2571  0.4685  0.4495
 7861SOL    HW135219   4.332   4.518   5.506  4.1806 -0.0838 -1.0701
 7861SOL    HW235220   4.276   4.646   5.466 -1.4189  0.0943 -0.1443
 7862SOL     OW35221   0.332   3.540   2.437 -0.2574 -0.6825 -0.0972
 7862SOL    HW135222   0.427   3.539   2.433 -0.1082 -1.4220  3.5907
 7862SOL    HW235223   0.328   3.557   2.531  0.5532  0.9314 -0.3616
 7863SOL     OW35224   1.939   3.167   2.822 -0.2781 -0.2135  0.0161
 7863SOL    HW135225   1.921   3.244   2.876 -1.9703 -0.4512 -0.2047
 7863SOL    HW235226   1.960   3.101   2.887  0.7053 -0.9688 -1.0799
 7864SOL     OW35227   0.760   0.017   4.704  0.3417 -0.5208 -0.5166
 7864SOL    HW135228   0.770   0.100   4.751 -1.1700 -0.2186 -0.7321
 7864SOL    HW235229   0.758   0.037   4.611  0.9237 -0.9460 -0.6239
 7865SOL     OW35230   0.874   0.507   8.462 -0.1452  0.2393 -0.4612
 7865SOL    HW135231   0.830   0.503   8.377  0.2959  1.0133 -0.7213
 7865SOL    HW235232   0.810   0.463   8.518 -0.0548  1.7333  0.7974
 7866SOL     OW35233   2.145   2.004   2.271 -0.1271 -0.1216  0.5917
 7866SOL    HW135234   2.190   1.991   2.187  1.7128 -0.4947  1.6215
 7866SOL    HW235235   2.116   2.094   2.252  0.7165 -0.0895 -0.5753
 7867SOL     OW35236   3.214   4.240   2.165 -0.1123 -0.7559 -0.7667
 7867SOL    HW135237   3.155   4.278   2.229  1.7882  1.6947 -0.4555
 7867SOL    HW235238   3.274   4.190   2.221 -1.9818 -2.9658 -0.7271
 7868SOL     OW35239   4.643   0.871   7.632 -0.1654  0.1095  0.7171
 7868SOL    HW135240   4.671   0.882   7.540  0.7466  1.8967  1.1991
 7868SOL    HW235241   4.721   0.902   7.678 -0.4220  2.3419 -0.3121
 7869SOL     OW35242   3.363   0.344   6.188 -0.4582 -0.5720  0.1845
 7869SOL    HW135243   3.399   0.359   6.276  0.4455 -2.3184  0.1288
 7869SOL    HW235244   3.291   0.407   6.186 -1.7725 -2.1339 -1.7830
 7870SOL     OW35245   2.476   2.242   5.016  0.0480 -0.2227  0.0394
 7870SOL    HW135246   2.486   2.335   5.036 -0.6705 -0.3621  1.0300
 7870SOL    HW235247   2.432   2.239   4.931  0.3275  1.1731 -0.1425
 7871SOL     OW35248   0.844   3.523  10.088  0.1987  0.7583 -0.2419
 7871SOL    HW135249   0.821   3.437  10.053  0.0420  0.7760 -0.1840
 7871SOL    HW235250   0.926   3.497  10.130  0.0567 -0.5814 -0.7975
 7872SOL     OW35251   3.193   4.081   1.373 -0.1549  0.2274 -0.5179
 7872SOL    HW135252   3.181   3.988   1.395 -1.0689  0.7452  1.1490
 7872SOL    HW235253   3.231   4.071   1.286  0.9576 -1.1920  0.1234
 7873SOL     OW35254   2.366   4.498   7.702 -0.1002  0.7618 -0.3703
 7873SOL    HW135255   2.357   4.425   7.641 -0.0405  2.0061 -1.8708
 7873SOL    HW235256   2.372   4.453   7.786  0.1572  1.5600  0.0459
 7874SOL     OW35257   2.091   3.186  16.282 -0.2547 -0.4027  0.0078
 7874SOL    HW135258   2.118   3.231  16.362  0.8750  1.3828 -1.4117
 7874SOL    HW235259   1.996   3.200  16.282  0.0559  1.6656 -3.0839
 7875SOL     OW35260   1.672   2.891  12.332  0.0250 -0.7344  0.6518
 7875SOL    HW135261   1.588   2.919  12.370 -0.0622  0.7175 -0.6137
 7875SOL    HW235262   1.703   2.834  12.403  2.5914  0.2728  0.3260
 7876SOL     OW35263   3.484   3.010   3.708 -0.2105 -0.0189 -0.0320
 7876SOL    HW135264   3.493   3.086   3.766  0.1042  0.6752 -0.9714
 7876SOL    HW235265   3.408   3.039   3.657 -0.0631  0.4716  0.0213
 7877SOL     OW35266   0.463   4.196   0.873  0.1512 -0.3957 -0.0009
 7877SOL    HW135267   0.496   4.125   0.818  2.8085  1.4088 -0.6814
 7877SOL    HW235268   0.388   4.158   0.919  2.8229 -0.9864  3.8524
 7878SOL     OW35269   4.586   0.356  14.803  0.1464 -0.3241 -0.5672
 7878SOL    HW135270   4.576   0.411  14.881 -0.8423 -1.4487  0.0831
 7878SOL    HW235271   4.635   0.418  14.749 -1.4724  0.4724 -1.1296
 7879SOL     OW35272   3.078   0.657   3.340 -0.2045  0.0215 -0.2055
 7879SOL    HW135273   3.066   0.750   3.362 -1.4566 -0.3300  0.5694
 7879SOL    HW235274   3.018   0.617   3.404  1.3350 -3.7792 -1.1479
 7880SOL     OW35275   0.624   4.153   1.094 -0.1534 -0.3491  0.1137
 7880SOL    HW135276   0.558   4.203   1.046  1.6131  0.4154 -1.4887
 7880SOL    HW235277   0.701   4.169   1.040  1.1461 -0.0852  2.0717
 7881SOL     OW35278   0.301   0.157   5.867 -0.4192 -0.2888  0.7514
 7881SOL    HW135279   0.303   0.062   5.853  1.8788 -0.0228 -0.9294
 7881SOL    HW235280   0.319   0.162   5.960  2.2413 -0.0747  0.2280
 7882SOL     OW35281   4.373   1.584   4.879 -0.0130 -0.0695 -0.0725
 7882SOL    HW135282   4.318   1.526   4.826  1.8411 -0.9347 -1.0522
 7882SOL    HW235283   4.456   1.546   4.850  0.1810 -1.4086  2.1858
 7883SOL     OW35284   3.196   3.263   0.423  0.3381  0.2939 -0.3949
 7883SOL    HW135285   3.127   3.197   0.434 -0.5620  1.2556 -0.2506
 7883SOL    HW235286   3.208   3.312   0.504  0.8488 -1.2775  0.4649
 7884SOL     OW35287   3.577   2.482  10.724 -0.3066  0.7815  0.7014
 7884SOL    HW135288   3.572   2.554  10.787  0.8182  0.6901  0.8878
 7884SOL    HW235289   3.648   2.509  10.665  0.3477 -0.1050  1.0867
 7885SOL     OW35290   1.340   2.904   7.431 -0.3963 -0.1996  0.3986
 7885SOL    HW135291   1.361   2.979   7.376 -2.0003  0.9294  1.3233
 7885SOL    HW235292   1.430   2.889   7.462  0.4057  0.0826 -1.8103
 7886SOL     OW35293   0.568   1.045  10.020 -0.2659 -0.0233  0.1059
 7886SOL    HW135294   0.607   1.132  10.030 -1.8969  0.5915  1.0656
 7886SOL    HW235295   0.617   0.985  10.076  0.1485 -0.3013 -0.5450
 7887SOL     OW35296   4.108   2.598   3.911  0.0909 -0.5366  0.0111
 7887SOL    HW135297   4.174   2.665   3.926 -0.1806 -0.0578 -0.9034
 7887SOL    HW235298   4.048   2.634   3.845  0.8473 -1.1220 -0.9897
 7888SOL     OW35299   4.548   0.003   2.785  0.7443 -0.3309 -0.7786
 7888SOL    HW135300   4.578   4.711   2.698 -0.5210 -1.2712 -0.9315
 7888SOL    HW235301   4.618   4.697   2.836 -0.7279 -1.7336  0.1144
 7889SOL     OW35302   2.184   4.070   3.819 -0.3441  0.0883 -0.5915
 7889SOL    HW135303   2.101   4.034   3.850  0.8012  0.2356  2.7253
 7889SOL    HW235304   2.248   4.015   3.864  0.4004  0.6824 -0.9300
 7890SOL     OW35305   0.813   1.958   2.918  0.3696  0.0401  0.0298
 7890SOL    HW135306   0.869   1.948   2.841 -0.8199  2.8462 -1.2065
 7890SOL    HW235307   0.851   1.900   2.983 -0.6607  0.3937  0.9565
 7891SOL     OW35308   0.980   4.639  12.254  0.1054  0.3329 -0.3056
 7891SOL    HW135309   0.900   4.671  12.295 -0.7903 -1.4569 -0.6230
 7891SOL    HW235310   1.038   4.640  12.331 -1.0285  1.4806  0.5164
 7892SOL     OW35311   0.606   0.240   9.532  0.1002  0.1776  0.4507
 7892SOL    HW135312   0.661   0.175   9.487 -0.9479 -0.6987  0.4419
 7892SOL    HW235313   0.589   0.194   9.615  1.2754 -0.0204  0.5944
 7893SOL     OW35314   2.522   3.908   1.574  0.1249  0.3231 -0.7958
 7893SOL    HW135315   2.524   3.992   1.621  0.9843 -0.7650  1.1527
 7893SOL    HW235316   2.545   3.941   1.488  1.9708 -0.2084 -0.5151
 7894SOL     OW35317   0.843   1.148  14.443  0.3427  0.3288 -0.2129
 7894SOL    HW135318   0.819   1.079  14.382 -1.0454 -0.9958  1.8465
 7894SOL    HW235319   0.790   1.125  14.520  1.8801 -1.8900  0.1813
 7895SOL     OW35320   2.673   3.192   4.430 -0.1219  0.3133  0.4989
 7895SOL    HW135321   2.665   3.154   4.343 -0.9632  0.6608  0.4206
 7895SOL    HW235322   2.582   3.190   4.462 -0.2710  0.7704  0.1031
 7896SOL     OW35323   2.284   1.540  12.636 -0.5560 -0.3891 -0.2851
 7896SOL    HW135324   2.341   1.487  12.581  2.3837 -0.9894  3.3392
 7896SOL    HW235325   2.329   1.537  12.721  1.1512 -0.3510 -1.1846
 7897SOL     OW35326   1.313   0.130   8.830  0.5788  0.2345  0.1859
 7897SOL    HW135327   1.251   0.064   8.860  0.4148 -0.1605 -1.0501
 7897SOL    HW235328   1.377   0.134   8.901  0.0169  0.3416  0.6865
 7898SOL     OW35329   1.072   3.457  10.221 -0.2682 -0.0809  0.5948
 7898SOL    HW135330   1.126   3.469  10.299 -0.3935 -0.9486  0.8030
 7898SOL    HW235331   1.082   3.363  10.208 -1.1326 -0.2316  1.0468
 7899SOL     OW35332   3.568   1.942   3.927  0.0378  0.1030 -0.2311
 7899SOL    HW135333   3.546   1.896   4.007  1.4947  1.0665  0.7423
 7899SOL    HW235334   3.654   1.982   3.941  0.1918  0.2525 -1.6274
 7900SOL     OW35335   2.455   3.487   3.395  0.0282 -0.3755  0.2334
 7900SOL    HW135336   2.524   3.547   3.423 -2.3975  1.2347  2.7454
 7900SOL    HW235337   2.499   3.403   3.387  1.5511  0.3709  0.7232
 7901SOL     OW35338   1.462   3.495  16.361 -0.1645  0.2832  0.0485
 7901SOL    HW135339   1.518   3.445  16.302  0.7398  0.2193  0.9670
 7901SOL    HW235340   1.377   3.460  16.337  0.6532 -0.9171 -1.0532
 7902SOL     OW35341   0.122   3.763   7.530  0.1710  0.0737  0.2137
 7902SOL    HW135342   0.204   3.767   7.481 -1.0148  1.0838 -1.7222
 7902SOL    HW235343   0.077   3.696   7.478 -0.3026 -0.5548  1.4336
 7903SOL     OW35344   2.202   1.594   0.002  0.0087 -0.4819 -0.0322
 7903SOL    HW135345   2.133   1.661  17.737 -1.0093 -1.7608 -3.1202
 7903SOL    HW235346   2.248   1.588  17.658  3.2752  2.6432  1.5106
 7904SOL     OW35347   1.504   4.276   8.091 -0.0554  0.0009 -0.3774
 7904SOL    HW135348   1.436   4.256   8.027  0.1705  0.2952 -0.7155
 7904SOL    HW235349   1.557   4.339   8.040  1.2767 -1.1164 -0.3861
 7905SOL     OW35350   2.523   4.668   0.812  0.4044  0.0826 -0.2789
 7905SOL    HW135351   2.521   0.004   0.877  1.4170 -0.4110  0.2905
 7905SOL    HW235352   2.540   4.591   0.866  0.7485 -0.2408 -0.8494
 7906SOL     OW35353   4.175   0.128  12.071 -0.5009 -0.3072 -0.1462
 7906SOL    HW135354   4.239   0.103  12.004  1.2936 -0.9283  1.8026
 7906SOL    HW235355   4.172   0.051  12.128 -2.7778  0.3049  0.5722
 7907SOL     OW35356   3.632   1.384  10.764  0.0855 -0.6209 -0.5993
 7907SOL    HW135357   3.702   1.348  10.818 -0.3057 -0.0629  0.2764
 7907SOL    HW235358   3.641   1.474  10.795  1.6997  0.1337 -3.2736
 7908SOL     OW35359   4.158   0.419   7.753 -0.3034 -0.0387 -0.5121
 7908SOL    HW135360   4.233   0.413   7.694  1.2411  1.0274  1.3359
 7908SOL    HW235361   4.087   0.443   7.694 -1.3630 -1.1465  0.3000
 7909SOL     OW35362   4.239   4.316  12.466  0.1896 -0.6033  0.5496
 7909SOL    HW135363   4.188   4.342  12.543 -1.4687  2.1752 -1.4946
 7909SOL    HW235364   4.170   4.273  12.414  0.9782  1.6930 -2.3951
 7910SOL     OW35365   0.938   1.620   3.568 -0.2451  0.2171  0.3231
 7910SOL    HW135366   0.870   1.687   3.573 -0.0967  0.2538  1.9696
 7910SOL    HW235367   0.887   1.539   3.561  1.2727 -0.5778 -1.5688
 7911SOL     OW35368   0.064   4.394   6.931 -0.0562 -0.3325 -0.2269
 7911SOL    HW135369   0.078   4.437   7.015 -1.3832  0.1305 -0.2414
 7911SOL    HW235370   0.154   4.371   6.909  0.1874 -0.5577  1.0459
 7912SOL     OW35371   2.399   3.430   9.222 -0.1183 -0.0172 -0.3936
 7912SOL    HW135372   2.379   3.479   9.143 -2.5619 -0.0778  0.2050
 7912SOL    HW235373   2.384   3.499   9.286 -1.6782 -0.5403 -0.1924
 7913SOL     OW35374   0.913   4.141   4.792  0.3977  0.2405  0.6125
 7913SOL    HW135375   1.003   4.113   4.773  1.0938  2.0334  1.2495
 7913SOL    HW235376   0.866   4.116   4.713  0.2370  0.1880  0.7232
 7914SOL     OW35377   0.556   0.242   0.469 -0.1571 -0.7117 -0.2832
 7914SOL    HW135378   0.579   0.172   0.530 -0.2144 -0.4004  0.0969
 7914SOL    HW235379   0.463   0.259   0.482  0.3391  1.7138  0.0457
 7915SOL     OW35380   4.037   4.712   3.141 -0.1775  0.5939 -0.3777
 7915SOL    HW135381   4.022   0.031   3.064 -2.5938  1.0555  0.4313
 7915SOL    HW235382   4.123   0.004   3.174 -0.5854  2.0502 -0.5181
 7916SOL     OW35383   4.633   0.254   6.838  0.0439  0.0200 -1.2957
 7916SOL    HW135384   4.605   0.245   6.930 -0.6571 -3.0193 -1.8256
 7916SOL    HW235385   4.656   0.347   6.831 -0.6584  0.5227  2.7253
 7917SOL     OW35386   1.628   3.114  10.738  0.0768  0.6443 -0.4589
 7917SOL    HW135387   1.540   3.135  10.768  0.0353  0.1415 -0.2238
 7917SOL    HW235388   1.681   3.134  10.815  0.0921 -0.2963 -0.2207
 7918SOL     OW35389   1.243   1.213  12.942  0.0632 -0.1121  0.2093
 7918SOL    HW135390   1.291   1.131  12.936  2.3078  1.1624  0.7530
 7918SOL    HW235391   1.262   1.241  13.032  2.5245  0.9025 -0.6360
 7919SOL     OW35392   0.756   3.863   4.204  0.3907  0.1625 -0.1466
 7919SOL    HW135393   0.838   3.896   4.240 -0.1172 -0.4991  1.6267
 7919SOL    HW235394   0.789   3.788   4.155  1.2591 -1.5865  3.0822
 7920SOL     OW35395   0.742   3.521   1.944 -0.6743 -0.1116  0.4102
 7920SOL    HW135396   0.705   3.603   1.976  1.6838  2.0906 -2.4223
 7920SOL    HW235397   0.678   3.495   1.878 -0.4445 -0.7840  0.4492
 7921SOL     OW35398   1.471   3.915   7.587 -0.0139  0.0299  0.3813
 7921SOL    HW135399   1.405   3.923   7.656 -0.7675  0.1324 -0.3471
 7921SOL    HW235400   1.514   4.000   7.575 -0.3676  0.0072 -1.1273
 7922SOL     OW35401   0.143   4.295   7.526 -0.1009  0.3240  0.2373
 7922SOL    HW135402   0.217   4.234   7.518 -0.0384  0.1686  1.9694
 7922SOL    HW235403   0.106   4.307   7.439  0.7957 -2.1370 -0.4867
 7923SOL     OW35404   4.652   0.517   7.306 -0.3458 -0.0447 -0.0415
 7923SOL    HW135405   4.603   0.576   7.248  0.3200  1.4790  0.9799
 7923SOL    HW235406   4.594   0.518   7.382  2.0539 -0.2406  1.7620
 7924SOL     OW35407   1.797   4.684   9.008  0.1465  0.2991  0.2870
 7924SOL    HW135408   1.877   4.707   9.055  0.1683  2.0974 -0.6248
 7924SOL    HW235409   1.746   0.029   9.018 -1.2706 -0.8503  2.3543
 7925SOL     OW35410   0.625   1.899   5.762 -0.0702 -0.0716  0.1406
 7925SOL    HW135411   0.666   1.867   5.843  0.8410  0.2737 -0.1859
 7925SOL    HW235412   0.696   1.929   5.705 -0.6360  0.4476 -0.2883
 7926SOL     OW35413   2.513   1.079   6.385 -0.3480 -0.0105 -0.6190
 7926SOL    HW135414   2.430   1.031   6.393  0.9316 -2.4409 -2.0031
 7926SOL    HW235415   2.558   1.039   6.311  0.7716 -2.1328  1.2139
 7927SOL     OW35416   1.695   2.431   2.835  0.8419 -0.4251  0.1182
 7927SOL    HW135417   1.607   2.438   2.797  1.2606  0.4589 -0.6613
 7927SOL    HW235418   1.734   2.360   2.785 -3.3675 -2.8904  0.3133
 7928SOL     OW35419   2.965   1.231   7.039  0.5071  0.3662 -1.0228
 7928SOL    HW135420   2.969   1.325   7.020  1.4099  0.6496  0.5937
 7928SOL    HW235421   3.054   1.220   7.071  0.0112 -0.2970  0.1131
 7929SOL     OW35422   4.181   0.935   8.108  0.1102 -0.1643 -0.0479
 7929SOL    HW135423   4.229   1.015   8.088  3.1131 -2.0595 -0.4116
 7929SOL    HW235424   4.247   0.888   8.158  0.3020 -0.0670 -0.2116
 7930SOL     OW35425   4.609   1.841  15.197 -0.0996 -0.1607  0.0228
 7930SOL    HW135426   4.682   1.810  15.143 -1.6459 -1.4493 -1.3357
 7930SOL    HW235427   4.550   1.866  15.126  0.4176 -1.2128 -0.7778
 7931SOL     OW35428   0.871   4.238   6.939 -0.0009  0.2316  0.1274
 7931SOL    HW135429   0.890   4.149   6.971 -1.9120 -0.0953  0.3740
 7931SOL    HW235430   0.948   4.250   6.884 -1.3029 -1.0494 -2.0020
 7932SOL     OW35431   2.376   1.018   3.260  0.1314  0.2214  0.3819
 7932SOL    HW135432   2.347   1.024   3.351  0.4321 -0.0018  0.4930
 7932SOL    HW235433   2.465   1.049   3.273 -0.2756  0.9833  1.3219
 7933SOL     OW35434   2.603   2.349   7.302 -0.2394 -0.0550  0.1595
 7933SOL    HW135435   2.532   2.285   7.307 -1.6919  1.3797 -2.0397
 7933SOL    HW235436   2.640   2.304   7.226 -1.6180 -1.1017  0.1184
 7934SOL     OW35437   2.599   0.322   6.334 -0.1757  0.0500  0.3467
 7934SOL    HW135438   2.652   0.371   6.397 -0.2776 -2.5313  2.4141
 7934SOL    HW235439   2.656   0.250   6.310 -1.7572 -0.7750 -0.9199
 7935SOL     OW35440   2.379   2.843   1.236 -0.2303 -0.3344 -0.5289
 7935SOL    HW135441   2.312   2.831   1.168 -1.6015 -2.2168  1.1557
 7935SOL    HW235442   2.321   2.803   1.301  0.3924  2.2461  1.5788
 7936SOL     OW35443   0.838   0.775   4.378 -0.4135  0.4896 -0.0614
 7936SOL    HW135444   0.912   0.821   4.339 -0.6343 -0.6941 -1.8689
 7936SOL    HW235445   0.854   0.682   4.369 -0.1877  0.4352  0.9012
 7937SOL     OW35446   3.357   0.487   7.736 -0.5740  0.1866  0.1231
 7937SOL    HW135447   3.452   0.481   7.735 -0.7706 -2.5107 -2.0342
 7937SOL    HW235448   3.330   0.534   7.814 -2.7455 -0.1674 -0.4119
 7938SOL     OW35449   3.405   4.631   0.860  0.0271 -0.1919  0.0527
 7938SOL    HW135450   3.420   4.619   0.953  1.9259 -1.8010 -0.4712
 7938SOL    HW235451   3.492   4.602   0.832  0.0097 -0.9647  0.8054
 7939SOL     OW35452   1.990   4.403   3.243  0.0643  0.0355 -0.3423
 7939SOL    HW135453   1.979   4.316   3.282 -0.2349  1.0867  1.8687
 7939SOL    HW235454   1.931   4.457   3.294  1.2650  0.5596  0.4927
 7940SOL     OW35455   3.418   2.072   1.945 -0.0889  0.0054 -0.5266
 7940SOL    HW135456   3.400   1.990   1.991 -0.5694  2.1687  3.1336
 7940SOL    HW235457   3.485   2.037   1.887 -0.7292 -0.1341 -1.1952
 7941SOL     OW35458   0.911   2.329   7.074  0.2433 -0.0760 -1.0437
 7941SOL    HW135459   0.902   2.417   7.036 -0.9628  0.7511  1.1270
 7941SOL    HW235460   0.820   2.320   7.101 -0.0866  1.2474 -1.6626
 7942SOL     OW35461   4.507   3.617   7.760  0.5439  0.4304 -0.0427
 7942SOL    HW135462   4.548   3.635   7.844 -0.0929 -2.3155  0.8474
 7942SOL    HW235463   4.477   3.531   7.789 -0.1233  0.3541 -0.9566
 7943SOL     OW35464   1.015   3.024   2.388  0.0160  0.4540  0.0912
 7943SOL    HW135465   1.092   2.999   2.336 -0.6600 -0.8609 -0.2922
 7943SOL    HW235466   1.057   3.008   2.472  1.7099  1.7031 -0.5084
 7944SOL     OW35467   0.774   1.762   4.239  0.2855 -0.6736 -0.1381
 7944SOL    HW135468   0.811   1.803   4.317  1.5916  0.1761 -1.2173
 7944SOL    HW235469   0.824   1.802   4.168  0.3502  0.1849  0.3936
 7945SOL     OW35470   3.264   1.066  14.833 -0.1201 -0.1322 -0.4381
 7945SOL    HW135471   3.234   1.131  14.896 -2.2086 -1.0056 -0.5459
 7945SOL    HW235472   3.190   1.006  14.826 -2.0910  2.4729 -2.1097
 7946SOL     OW35473   2.961   1.600   3.883 -0.1280 -0.8401 -0.9581
 7946SOL    HW135474   2.980   1.506   3.889  1.0434 -0.4556  1.4729
 7946SOL    HW235475   2.900   1.621   3.813 -2.1558 -1.0182  0.7585
 7947SOL     OW35476   2.901   0.276   6.440 -0.7263  0.0846 -0.0779
 7947SOL    HW135477   2.862   0.189   6.439  0.8926 -0.6306 -0.0541
 7947SOL    HW235478   2.839   0.328   6.492 -1.6898 -0.3292 -0.8207
 7948SOL     OW35479   1.895   0.151  15.403  0.5948  0.0919  0.5138
 7948SOL    HW135480   1.965   0.101  15.445  1.0255 -0.9998 -1.5052
 7948SOL    HW235481   1.938   0.159  15.318 -2.1196 -0.5988 -0.9141
 7949SOL     OW35482   0.197   0.988   3.590 -0.9102 -0.1794 -0.0211
 7949SOL    HW135483   0.168   1.046   3.661  1.9489  1.3514 -0.0647
 7949SOL    HW235484   0.165   0.905   3.623 -2.8595  0.7264  0.3704
 7950SOL     OW35485   0.599   2.097   6.378  0.0883  0.1965 -0.3241
 7950SOL    HW135486   0.607   2.190   6.358  1.0617  0.4959  1.4717
 7950SOL    HW235487   0.545   2.081   6.300 -0.1222  0.6300 -0.2665
 7951SOL     OW35488   2.436   3.454   3.875 -0.1284 -0.0468  0.0117
 7951SOL    HW135489   2.464   3.516   3.808  1.5798 -0.3430  0.4553
 7951SOL    HW235490   2.465   3.486   3.961  0.0811 -2.8391  0.9620
 7952SOL     OW35491   2.499   1.807  11.515 -0.0588  0.2872 -0.0226
 7952SOL    HW135492   2.586   1.803  11.554 -0.1168 -1.6971 -0.1162
 7952SOL    HW235493   2.487   1.902  11.505  0.4746  0.4793  1.1818
 7953SOL     OW35494   4.363   4.625   2.573  0.2080 -0.0123  0.5674
 7953SOL    HW135495   4.373   4.718   2.554  0.1595 -0.6146 -2.4703
 7953SOL    HW235496   4.414   4.589   2.500 -0.2868 -1.7295  1.0630
 7954SOL     OW35497   1.629   1.116  12.610 -0.4019  0.3409  0.0411
 7954SOL    HW135498   1.685   1.041  12.590 -0.4755  0.2078  0.3354
 7954SOL    HW235499   1.554   1.107  12.551 -0.2736  0.7468 -0.1890
 7955SOL     OW35500   1.501   1.658  12.860 -0.8086 -0.7652 -0.1649
 7955SOL    HW135501   1.517   1.579  12.912 -1.1175 -0.6193  0.1529
 7955SOL    HW235502   1.574   1.666  12.799 -0.8356 -2.9697 -0.4854
 7956SOL     OW35503   2.992   4.196  10.463  0.1956 -0.1955  0.6147
 7956SOL    HW135504   2.927   4.130  10.486  0.7614 -1.4904 -1.5412
 7956SOL    HW235505   3.038   4.207  10.546  0.6610 -1.8221  0.5677
 7957SOL     OW35506   1.833   2.521  16.672  0.6170  0.3434 -0.8794
 7957SOL    HW135507   1.766   2.527  16.740 -0.3599  1.3787 -1.9374
 7957SOL    HW235508   1.777   2.513  16.595 -0.7566  0.6045  0.0833
 7958SOL     OW35509   1.389   1.278   3.575 -0.1619  0.2786 -0.3461
 7958SOL    HW135510   1.376   1.185   3.594  1.0897 -0.0273 -0.9856
 7958SOL    HW235511   1.392   1.287   3.480 -1.9040  0.3094 -0.3936
 7959SOL     OW35512   2.914   1.246   9.012 -0.2714 -0.2655  1.2830
 7959SOL    HW135513   2.849   1.305   8.973  0.8735  1.2763  1.6708
 7959SOL    HW235514   2.862   1.192   9.071 -2.4276  1.7601  1.2348
 7960SOL     OW35515   2.720   3.737   7.255  0.3029 -0.2813  0.8615
 7960SOL    HW135516   2.806   3.733   7.212 -0.0732  1.1701 -0.0329
 7960SOL    HW235517   2.715   3.829   7.279  0.1125 -0.3672  1.1540
 7961SOL     OW35518   1.639   0.409   0.783 -0.1892  0.0863 -0.9212
 7961SOL    HW135519   1.595   0.478   0.735  0.5505  0.8844 -0.4604
 7961SOL    HW235520   1.721   0.397   0.736  0.4944  0.6971  0.0939
 7962SOL     OW35521   0.659   2.056   4.804  0.0981  0.1967  0.1263
 7962SOL    HW135522   0.578   2.087   4.764 -0.3904  0.9415  1.7062
 7962SOL    HW235523   0.720   2.125   4.780  0.4086  0.5989  2.0744
 7963SOL     OW35524   3.861   2.463  15.970  0.2033 -0.2136 -0.4369
 7963SOL    HW135525   3.893   2.465  15.880  0.2467  1.4542 -0.3882
 7963SOL    HW235526   3.827   2.551  15.982 -1.2978 -1.1197  1.9363
 7964SOL     OW35527   0.386   4.269   1.781  0.0618 -0.5636  0.0133
 7964SOL    HW135528   0.333   4.193   1.807 -1.7794  1.0541  1.0123
 7964SOL    HW235529   0.455   4.230   1.727  0.2797 -0.0143 -0.0989
 7965SOL     OW35530   4.441   0.063   5.738  0.6736  0.1934  0.3174
 7965SOL    HW135531   4.367   0.114   5.703  0.7479  0.5888  0.7417
 7965SOL    HW235532   4.514   0.109   5.696  2.1463 -2.4124  0.0362
 7966SOL     OW35533   2.064   1.465   0.998 -0.0333 -0.3444  0.6147
 7966SOL    HW135534   2.024   1.506   1.075 -0.4113 -1.2322  0.8957
 7966SOL    HW235535   2.062   1.531   0.930  0.0100 -0.9935 -0.0188
 7967SOL     OW35536   3.115   3.917   1.070  0.2183 -0.0645  0.5467
 7967SOL    HW135537   3.077   3.861   1.002  3.1853 -2.1246  0.5694
 7967SOL    HW235538   3.041   3.968   1.102 -0.1073 -0.1657 -0.0498
 7968SOL     OW35539   2.831   1.133   5.483 -0.2489 -0.3093 -0.1057
 7968SOL    HW135540   2.902   1.132   5.548 -0.5827  2.6639  0.2815
 7968SOL    HW235541   2.882   1.087   5.417 -0.7282 -1.8127  0.5626
 7969SOL     OW35542   3.301   4.454   7.955 -0.0998  0.3142 -0.0306
 7969SOL    HW135543   3.246   4.423   7.883  0.2118  0.6652 -0.4157
 7969SOL    HW235544   3.239   4.471   8.026 -0.8787 -0.0361 -0.6244
 7970SOL     OW35545   0.865   0.170   3.217 -0.1796 -0.2854 -0.1102
 7970SOL    HW135546   0.791   0.201   3.270 -0.3698  1.8804 -1.6365
 7970SOL    HW235547   0.930   0.172   3.286 -0.1501 -1.0046 -0.1198
 7971SOL     OW35548   1.156   0.979   6.255  0.0516  0.0321  0.0264
 7971SOL    HW135549   1.136   0.972   6.161 -0.5610 -2.3077  0.3221
 7971SOL    HW235550   1.239   0.930   6.257 -0.2299 -0.2690  3.0072
 7972SOL     OW35551   0.348   1.243  16.077 -0.4119  0.0383  0.0461
 7972SOL    HW135552   0.364   1.337  16.080  1.6218 -0.3881  2.2785
 7972SOL    HW235553   0.260   1.238  16.115 -0.2217  1.2825  0.6166
 7973SOL     OW35554   2.900   1.967   5.121 -0.2079  0.1161  0.5287
 7973SOL    HW135555   2.852   2.045   5.149  0.4368  0.4858  0.5940
 7973SOL    HW235556   2.895   1.909   5.196 -2.3625  3.2599  2.8317
 7974SOL     OW35557   2.337   3.931   7.434  1.1027 -0.0799 -0.1222
 7974SOL    HW135558   2.329   3.854   7.378  2.3120  0.2548 -0.7675
 7974SOL    HW235559   2.259   3.926   7.489 -0.1072  0.8165 -1.7876
 7975SOL     OW35560   2.026   2.101  14.968  0.2400  0.2257 -0.0719
 7975SOL    HW135561   2.103   2.095  15.023  1.1332 -0.2335 -1.3618
 7975SOL    HW235562   1.966   2.058  15.029  0.6655 -0.9857 -0.5259
 7976SOL     OW35563   1.932   3.993   8.154 -0.1057 -0.3968  0.1847
 7976SOL    HW135564   1.838   3.998   8.140  0.3401  2.3480 -1.8924
 7976SOL    HW235565   1.946   3.916   8.209 -0.9933 -0.1054  0.8111
 7977SOL     OW35566   3.326   2.956   4.418  0.2591 -0.1041  0.5422
 7977SOL    HW135567   3.328   2.902   4.497 -1.9059  0.9863  1.3184
 7977SOL    HW235568   3.231   2.955   4.409  0.5195 -2.2077 -2.1465
 7978SOL     OW35569   3.024   3.356   5.954  0.0212 -1.1779 -0.7596
 7978SOL    HW135570   2.998   3.269   5.922 -0.4849 -1.2785 -0.0695
 7978SOL    HW235571   2.979   3.417   5.895 -0.0186 -1.3095 -0.8688
 7979SOL     OW35572   4.586   3.537   6.892 -0.0784  0.1377 -0.0749
 7979SOL    HW135573   4.545   3.548   6.978  2.8126 -0.2627  1.3472
 7979SOL    HW235574   4.625   3.624   6.885 -0.8584  0.5377  0.5195
 7980SOL     OW35575   0.334   0.692   4.933 -1.0735  0.2592  0.1879
 7980SOL    HW135576   0.243   0.711   4.909 -0.7665 -0.1827 -1.3217
 7980SOL    HW235577   0.379   0.756   4.879 -0.1953 -1.3074 -0.9408
 7981SOL     OW35578   1.361   3.015  13.744 -0.1368 -0.2375 -0.4500
 7981SOL    HW135579   1.446   2.985  13.714  0.0059 -0.0147 -0.2696
 7981SOL    HW235580   1.299   2.944  13.725  0.3214 -0.6504 -0.3986
 7982SOL     OW35581   4.662   1.293   5.575 -0.1911 -0.0976 -0.6119
 7982SOL    HW135582   4.653   1.199   5.592 -1.0470  0.1729  0.4454
 7982SOL    HW235583   4.639   1.301   5.482  1.0148  1.7123 -0.7424
 7983SOL     OW35584   2.737   1.794  11.644  0.9375 -0.5176 -0.6496
 7983SOL    HW135585   2.800   1.730  11.611  2.2094  0.8947 -0.9965
 7983SOL    HW235586   2.783   1.815  11.726 -0.3235 -0.7997  0.1287
 7984SOL     OW35587   2.731   4.000   7.333  0.0831 -0.0526  0.3988
 7984SOL    HW135588   2.759   4.074   7.279  0.7711  0.4762  1.4686
 7984SOL    HW235589   2.638   4.022   7.326  0.0573 -0.2559  0.1182
 7985SOL     OW35590   3.280   2.863  10.933  0.1224  0.0333 -0.2417
 7985SOL    HW135591   3.302   2.887  10.843 -1.8284  0.8284 -0.5180
 7985SOL    HW235592   3.206   2.807  10.908 -0.2146  0.0550  0.7294
 7986SOL     OW35593   1.455   3.577   8.031 -0.0922 -0.4803 -0.5701
 7986SOL    HW135594   1.372   3.530   8.036 -0.1595 -0.3725 -0.6492
 7986SOL    HW235595   1.443   3.639   8.103 -1.0658 -2.3913  0.9049
 7987SOL     OW35596   0.005   3.313   4.129 -0.4284  0.0788 -0.4996
 7987SOL    HW135597   0.087   3.320   4.177 -0.7373  0.6845 -0.0704
 7987SOL    HW235598   4.697   3.396   4.149  1.4344  0.9655 -0.1184
 7988SOL     OW35599   1.656   2.308   6.363 -0.1549 -0.0055  0.4158
 7988SOL    HW135600   1.639   2.303   6.269 -0.8283 -0.3061  0.5502
 7988SOL    HW235601   1.736   2.257   6.377 -0.6814 -0.2770  2.4471
 7989SOL     OW35602   3.042   2.718  17.576 -0.2819 -0.4390 -0.4225
 7989SOL    HW135603   2.961   2.734  17.626 -1.2650 -1.6659 -1.5997
 7989SOL    HW235604   3.052   2.626  17.600  4.4425  0.6670  1.6445
 7990SOL     OW35605   2.950   1.913  12.920 -0.7557 -0.0646 -0.1539
 7990SOL    HW135606   3.026   1.894  12.976  0.0720 -1.5935 -1.7794
 7990SOL    HW235607   2.988   1.918  12.831 -2.2111 -1.8371 -0.8663
 7991SOL     OW35608   0.438   3.980   2.597 -0.6586 -0.2079  0.2480
 7991SOL    HW135609   0.444   3.889   2.567 -1.2216 -0.0779 -0.2624
 7991SOL    HW235610   0.492   4.014   2.525  1.2238 -2.4152  0.6387
 7992SOL     OW35611   1.369   4.570   2.931 -0.1273 -0.8227  0.0077
 7992SOL    HW135612   1.291   4.573   2.986  0.0589  3.3504  0.0321
 7992SOL    HW235613   1.351   4.493   2.876  0.2032 -1.6423  1.0379
 7993SOL     OW35614   4.420   1.772   8.147  0.4382  0.1281  0.0945
 7993SOL    HW135615   4.353   1.808   8.205  0.3694 -0.4279  0.3634
 7993SOL    HW235616   4.439   1.831   8.074 -1.2352  1.5047  0.7653
 7994SOL     OW35617   3.157   3.405   2.081 -0.0999 -0.2267  0.1470
 7994SOL    HW135618   3.177   3.457   2.003  2.1943  0.6360  1.2926
 7994SOL    HW235619   3.063   3.421   2.073 -0.2271 -0.9707  0.2003
 7995SOL     OW35620   2.533   0.402   8.346  0.6933 -0.0095  0.6774
 7995SOL    HW135621   2.557   0.329   8.289 -0.4865  0.8152 -0.9004
 7995SOL    HW235622   2.592   0.396   8.421 -0.7295  2.7879  2.0454
 7996SOL     OW35623   4.520   0.452  12.507  0.4307 -0.6600 -0.4145
 7996SOL    HW135624   4.571   0.451  12.589 -2.9964 -1.7165  1.7039
 7996SOL    HW235625   4.583   0.464  12.437 -1.2781 -1.2508 -2.0446
 7997SOL     OW35626   3.136   0.957  14.339 -0.5134  0.0324 -0.4477
 7997SOL    HW135627   3.085   0.928  14.264 -2.4509  1.9108  0.1413
 7997SOL    HW235628   3.180   0.873  14.348  0.4764  0.5084 -0.9077
 7998SOL     OW35629   0.216   2.517   7.941 -0.9183  0.5957 -0.1876
 7998SOL    HW135630   0.268   2.443   7.907  0.0595  0.9190  0.5760
 7998SOL    HW235631   0.233   2.501   8.034 -2.9868 -0.3502  0.0096
 7999SOL     OW35632   1.067   2.536   4.760 -0.0681  0.1908  0.3151
 7999SOL    HW135633   0.985   2.575   4.790 -1.6439 -1.1919 -2.1792
 7999SOL    HW235634   1.075   2.465   4.823  1.3830 -1.0975 -1.3428
 8000SOL     OW35635   3.932   0.912   1.958 -0.0427 -0.0999 -0.0691
 8000SOL    HW135636   3.986   0.835   1.979  0.0994 -0.9608 -3.6636
 8000SOL    HW235637   3.987   0.965   1.900  0.7943 -0.6712  0.1886
 8001SOL     OW35638   0.159   0.240   6.217  0.3617 -0.4197  0.0037
 8001SOL    HW135639   0.066   0.216   6.208  0.8374 -1.8834 -1.0423
 8001SOL    HW235640   0.173   0.304   6.147 -0.8313 -0.2805 -0.1132
 8002SOL     OW35641   4.421   0.518   9.797 -0.5445  0.1384  0.1137
 8002SOL    HW135642   4.516   0.528   9.807 -0.3414 -1.5413 -0.1503
 8002SOL    HW235643   4.394   0.491   9.885 -0.0762  1.5300  0.6862
 8003SOL     OW35644   4.353   0.901  11.627  0.6820 -0.0573 -0.4035
 8003SOL    HW135645   4.397   0.866  11.705 -1.5170  1.0810  1.3398
 8003SOL    HW235646   4.342   0.816  11.584 -0.2517 -0.2013  0.1181
 8004SOL     OW35647   1.446   4.368   0.548 -0.1963  0.2537 -0.1849
 8004SOL    HW135648   1.439   4.353   0.642  0.9131  0.3604 -0.0845
 8004SOL    HW235649   1.541   4.366   0.532 -0.5360 -2.4054 -1.9162
 8005SOL     OW35650   3.025   3.009   0.443 -0.5380 -0.9380 -0.7084
 8005SOL    HW135651   3.017   2.943   0.375 -1.5509 -3.1222  1.5265
 8005SOL    HW235652   2.936   3.045   0.442 -0.4500 -0.5906  2.5478
 8006SOL     OW35653   3.650   2.207   4.096 -0.8357  0.3138 -0.0344
 8006SOL    HW135654   3.572   2.262   4.092 -1.8277 -1.1260 -0.6397
 8006SOL    HW235655   3.709   2.241   4.029  0.3878 -1.5938  0.0760
 8007SOL     OW35656   0.451   4.172   4.299 -0.0131  0.0619 -0.0314
 8007SOL    HW135657   0.458   4.267   4.311  0.2592 -0.1445  1.5034
 8007SOL    HW235658   0.356   4.169   4.308  0.1147  0.2816  1.4195
 8008SOL     OW35659   4.076   2.029   1.498 -0.4676 -0.2967 -0.1192
 8008SOL    HW135660   3.986   2.001   1.514 -0.2246 -0.6870  0.5625
 8008SOL    HW235661   4.070   2.096   1.430 -0.8086 -1.0292 -0.8136
 8009SOL     OW35662   0.933   4.588  15.850 -0.4564  0.0290  0.4262
 8009SOL    HW135663   0.920   4.506  15.898 -1.1506 -0.9340 -1.4013
 8009SOL    HW235664   0.956   4.654  15.915 -3.3608  1.6380 -0.1680
 8010SOL     OW35665   2.088   0.561   3.942 -0.2566 -0.2385  0.5929
 8010SOL    HW135666   2.131   0.477   3.955 -1.3664 -1.0098 -0.8558
 8010SOL    HW235667   2.046   0.552   3.857 -0.5551  1.9221  0.5087
 8011SOL     OW35668   2.027   0.499   9.782  0.0479  0.0071 -0.1728
 8011SOL    HW135669   1.967   0.561   9.824  0.6482 -0.4483  1.3424
 8011SOL    HW235670   2.108   0.548   9.793  0.0154 -0.3746  1.7709
 8012SOL     OW35671   2.506   2.625  16.974 -0.5134  0.3569 -0.2180
 8012SOL    HW135672   2.444   2.595  16.907 -0.5342  1.3837 -0.6436
 8012SOL    HW235673   2.444   2.636  17.046  0.7634  1.6792  0.6715
 8013SOL     OW35674   4.069   3.487   8.487 -0.0004  0.6799 -0.2248
 8013SOL    HW135675   4.047   3.556   8.550 -4.0494 -0.1412 -0.7355
 8013SOL    HW235676   3.983   3.451   8.467  1.9341 -3.3705 -1.1317
 8014SOL     OW35677   3.891   4.585   1.726 -0.0770 -0.0327  0.3899
 8014SOL    HW135678   3.886   4.673   1.763  1.7492 -0.2916  1.2386
 8014SOL    HW235679   3.985   4.576   1.714  0.0863  1.0933  0.8723
 8015SOL     OW35680   1.225   2.953   2.226  1.1641 -0.4463  0.4966
 8015SOL    HW135681   1.172   2.975   2.149  1.5139 -1.0582  0.0730
 8015SOL    HW235682   1.295   2.902   2.185  1.0378  1.5401 -2.2500
 8016SOL     OW35683   3.045   0.943   9.167 -0.1237 -0.1319 -0.9159
 8016SOL    HW135684   3.047   0.927   9.262 -2.3238 -0.9017 -1.0040
 8016SOL    HW235685   3.083   1.031   9.166  1.4041 -0.7940 -1.2990
 8017SOL     OW35686   0.311   3.277   5.287 -0.1640 -0.8899  0.5990
 8017SOL    HW135687   0.281   3.281   5.377  1.3740  2.5604  0.9808
 8017SOL    HW235688   0.406   3.266   5.297  0.5431  3.2465 -1.4982
 8018SOL     OW35689   3.363   0.783   9.708 -0.4014  0.2075 -0.4278
 8018SOL    HW135690   3.393   0.868   9.739  2.1344 -0.7176 -0.3887
 8018SOL    HW235691   3.340   0.792   9.615 -0.1212 -0.2462 -0.5374
 8019SOL     OW35692   0.657   4.388   4.652  0.1555 -0.0538  0.3207
 8019SOL    HW135693   0.584   4.400   4.591 -0.7398 -0.0540  1.3982
 8019SOL    HW235694   0.633   4.307   4.697  0.2631 -0.3289 -0.1172
 8020SOL     OW35695   0.381   0.427   4.083  0.1568  0.0620 -0.4771
 8020SOL    HW135696   0.347   0.516   4.075 -2.5075 -0.7245  2.0010
 8020SOL    HW235697   0.350   0.394   3.999 -2.5204  1.2449  0.0723
 8021SOL     OW35698   4.013   3.347   9.234 -0.1323 -0.1763  0.3551
 8021SOL    HW135699   3.924   3.360   9.265 -0.2905  0.7066 -0.4660
 8021SOL    HW235700   4.017   3.252   9.245 -2.3526 -0.1625  1.1691
 8022SOL     OW35701   3.696   3.134  12.713 -0.3496  1.0437  0.3711
 8022SOL    HW135702   3.677   3.043  12.739  0.1877  1.0882  0.9153
 8022SOL    HW235703   3.735   3.130  12.626  2.0678 -3.7836  1.6183
 8023SOL     OW35704   2.770   1.188   9.243 -0.5903 -0.2799 -0.1649
 8023SOL    HW135705   2.811   1.189   9.329 -0.4594 -0.4039 -0.2249
 8023SOL    HW235706   2.707   1.118   9.258 -1.7968  0.7059 -0.7205
 8024SOL     OW35707   4.295   2.197   5.872 -0.3371  0.9019 -0.0527
 8024SOL    HW135708   4.214   2.145   5.865 -1.2045  2.5353 -2.1106
 8024SOL    HW235709   4.274   2.284   5.906  0.1046  0.2367  1.9487
 8025SOL     OW35710   0.103   2.285   6.430  0.3436 -0.3288  0.2304
 8025SOL    HW135711   0.046   2.209   6.422  1.6058 -1.1660 -0.7409
 8025SOL    HW235712   0.187   2.239   6.422  0.9953  1.1533 -1.4421
 8026SOL     OW35713   3.322   3.508   2.257  0.1450 -0.6348 -0.1044
 8026SOL    HW135714   3.270   3.468   2.186  1.3249 -0.3437 -1.1264
 8026SOL    HW235715   3.403   3.458   2.250  0.8153  0.3223  0.9332
 8027SOL     OW35716   3.959   4.534  10.200  0.2299 -0.1002  0.1981
 8027SOL    HW135717   4.046   4.573  10.210 -0.9693  1.3894  5.2236
 8027SOL    HW235718   3.917   4.616  10.173  1.3022 -0.0841 -1.3958
 8028SOL     OW35719   4.220   1.224   3.467 -0.1287  0.0353  0.6160
 8028SOL    HW135720   4.147   1.208   3.408 -1.6196  0.1564  2.4071
 8028SOL    HW235721   4.210   1.316   3.493 -1.4370  0.2551 -0.6673
 8029SOL     OW35722   1.692   3.328   1.783 -0.9141  0.5083 -0.4777
 8029SOL    HW135723   1.673   3.372   1.701  0.9619 -1.5601 -2.0197
 8029SOL    HW235724   1.634   3.374   1.843 -0.7064 -1.0327  0.9148
 8030SOL     OW35725   1.641   0.875   0.378  0.6188 -0.3034 -0.1271
 8030SOL    HW135726   1.622   0.949   0.320  1.4410 -0.3908 -0.4935
 8030SOL    HW235727   1.559   0.869   0.428  1.1393 -1.0447  0.6473
 8031SOL     OW35728   2.985   4.153   2.022 -0.3852 -0.2651 -0.3367
 8031SOL    HW135729   3.061   4.196   2.060  1.1810 -2.0486 -1.5200
 8031SOL    HW235730   2.976   4.072   2.072  0.4415  0.5731  1.1567
 8032SOL     OW35731   4.153   3.283   6.370 -0.0233  0.3306 -0.3473
 8032SOL    HW135732   4.241   3.270   6.334 -0.7402  0.6892 -2.2492
 8032SOL    HW235733   4.181   3.298   6.460 -1.8447  2.6561 -0.1620
 8033SOL     OW35734   4.491   3.651  13.526  0.1696 -0.3634 -0.3888
 8033SOL    HW135735   4.404   3.631  13.493  0.7135 -1.0414 -1.4010
 8033SOL    HW235736   4.467   3.701  13.605  1.9443 -2.5148  1.5121
 8034SOL     OW35737   1.324   4.159  12.494  0.6872 -0.3360 -0.1882
 8034SOL    HW135738   1.419   4.166  12.502  0.5521  1.1381  0.2490
 8034SOL    HW235739   1.301   4.234  12.439  0.9391  0.8018  1.2395
 8035SOL     OW35740   3.016   3.506   0.011  0.3085 -0.2635 -0.3885
 8035SOL    HW135741   3.066   3.537   0.087  0.2998 -1.5364  0.1327
 8035SOL    HW235742   3.100   3.483  17.711  0.8117  1.2346 -0.2339
 8036SOL     OW35743   1.624   1.645   7.102 -0.4330  0.1939  0.0548
 8036SOL    HW135744   1.631   1.646   7.197 -1.0278 -0.0792  0.0988
 8036SOL    HW235745   1.636   1.554   7.076  1.3145  0.3297  0.3705
 8037SOL     OW35746   3.602   1.951  13.820  0.6835  0.4286  0.1138
 8037SOL    HW135747   3.548   1.934  13.743  0.5532 -3.4739  1.0588
 8037SOL    HW235748   3.687   1.922  13.789 -0.5047 -1.1598 -1.6729
 8038SOL     OW35749   0.066   2.416   5.062  0.3091  0.1041  0.3082
 8038SOL    HW135750   0.077   2.391   4.970  4.2679 -1.2933  1.1389
 8038SOL    HW235751   4.712   2.450   5.063 -0.1678 -1.1376 -0.3797
 8039SOL     OW35752   2.005   4.561   2.952  0.3165  0.2433 -0.4965
 8039SOL    HW135753   2.047   4.621   2.890  0.8679 -1.9940 -2.2922
 8039SOL    HW235754   2.067   4.562   3.025  0.2475  1.8131 -0.4521
 8040SOL     OW35755   3.351   3.784   5.117 -0.3625  0.3346 -0.1704
 8040SOL    HW135756   3.352   3.879   5.112  2.3218  0.2843 -0.5405
 8040SOL    HW235757   3.341   3.769   5.023 -0.3243 -2.5295  0.2824
 8041SOL     OW35758   4.458   3.180   2.833  0.6516 -0.2556  0.6526
 8041SOL    HW135759   4.459   3.268   2.793  1.0069 -0.6268 -0.1615
 8041SOL    HW235760   4.551   3.156   2.836  0.2762 -1.7771  0.0406
 8042SOL     OW35761   3.348   2.748  16.689  0.1161  0.4287  0.1071
 8042SOL    HW135762   3.298   2.669  16.669 -1.8145  2.1327 -1.7664
 8042SOL    HW235763   3.417   2.743  16.622  0.3977  1.0316  0.3499
 8043SOL     OW35764   4.586   4.035  10.792  0.0929 -0.5293 -0.7180
 8043SOL    HW135765   4.597   4.117  10.840 -0.2347  0.0048 -1.5623
 8043SOL    HW235766   4.593   4.061  10.700  0.9356  0.0135 -0.5006
 8044SOL     OW35767   0.757   1.295   0.130  0.0945  0.0156 -0.3882
 8044SOL    HW135768   0.763   1.259   0.041 -0.9576  2.8450 -1.6358
 8044SOL    HW235769   0.733   1.215   0.175 -1.9199  0.1371 -1.2355
 8045SOL     OW35770   1.294   2.988   9.735  0.0329 -0.1267  0.0663
 8045SOL    HW135771   1.253   3.073   9.722 -1.1327 -0.3134  2.4131
 8045SOL    HW235772   1.352   3.001   9.809  0.1339  2.6768 -0.5149
 8046SOL     OW35773   3.545   2.934   6.362  0.5236  0.0415  0.4401
 8046SOL    HW135774   3.496   2.985   6.297  0.5635  0.6475  0.8949
 8046SOL    HW235775   3.467   2.932   6.417 -1.6987  2.6237 -2.5906
 8047SOL     OW35776   0.941   3.994   3.206  0.2921 -0.0020 -0.4811
 8047SOL    HW135777   0.965   4.082   3.235 -1.1081  0.9188 -2.1381
 8047SOL    HW235778   1.002   3.990   3.133  2.7920 -2.1995  1.7375
 8048SOL     OW35779   2.415   1.552  16.634 -0.7977  0.1578 -0.2248
 8048SOL    HW135780   2.346   1.617  16.646  1.6081  2.4355  1.2266
 8048SOL    HW235781   2.369   1.470  16.615  2.0857 -2.2615  3.2973
 8049SOL     OW35782   3.375   0.260   1.270  0.1479 -0.1793 -0.4635
 8049SOL    HW135783   3.413   0.348   1.279 -1.0194  0.3288 -0.5376
 8049SOL    HW235784   3.443   0.214   1.221  4.6251  2.8746  2.8875
 8050SOL     OW35785   0.229   1.337   0.892 -0.2941  0.0761 -0.8232
 8050SOL    HW135786   0.179   1.267   0.934  1.2213  0.3744  1.5112
 8050SOL    HW235787   0.182   1.339   0.809 -2.7955 -1.1846  0.5800
 8051SOL     OW35788   0.467   0.471   8.567  0.6222  0.0009  0.0558
 8051SOL    HW135789   0.517   0.549   8.590 -0.8103  0.6456  1.0131
 8051SOL    HW235790   0.443   0.484   8.475  0.0721  0.6006  0.2827
 8052SOL     OW35791   1.120   0.721   4.579  0.0637  0.1236  0.9200
 8052SOL    HW135792   1.155   0.704   4.666  0.6260 -0.1669  0.6331
 8052SOL    HW235793   1.163   0.649   4.534 -1.0252 -0.2729  0.4953
 8053SOL     OW35794   0.384   1.481   5.428  0.3738 -0.3337  0.3258
 8053SOL    HW135795   0.451   1.431   5.473  2.1109  0.9621 -0.8129
 8053SOL    HW235796   0.428   1.564   5.448  1.6196 -1.3824  1.8870
 8054SOL     OW35797   1.798   2.089   4.635  0.3608 -0.5044  0.3126
 8054SOL    HW135798   1.775   2.001   4.606 -1.3558 -0.7571  2.5177
 8054SOL    HW235799   1.857   2.060   4.704  0.2498 -0.6198  0.3570
 8055SOL     OW35800   0.848   2.344   2.289  0.0786 -0.0899  0.1558
 8055SOL    HW135801   0.788   2.280   2.327  0.0015  1.4755  2.6443
 8055SOL    HW235802   0.861   2.305   2.202 -0.7419 -0.5945  0.2612
 8056SOL     OW35803   2.516   3.756   5.981  0.1988  0.2918  0.1076
 8056SOL    HW135804   2.454   3.757   6.054  1.7138  0.4337  1.4059
 8056SOL    HW235805   2.586   3.701   6.015  2.4804  3.5662  0.7648
 8057SOL     OW35806   2.895   0.084  16.242  0.4069  0.0296  0.4891
 8057SOL    HW135807   2.906   0.039  16.326  2.5561  0.3938  0.4244
 8057SOL    HW235808   2.909   0.012  16.181  1.8943 -0.7200  1.7210
 8058SOL     OW35809   0.554   3.782   3.362 -0.4727  0.1482 -0.0936
 8058SOL    HW135810   0.646   3.768   3.383 -0.8034 -1.8070 -0.0013
 8058SOL    HW235811   0.561   3.872   3.328 -1.7506  0.7452  1.2007
 8059SOL     OW35812   0.886   4.200   5.965  0.4378  0.1635  0.3384
 8059SOL    HW135813   0.848   4.280   6.001 -0.1392  0.9479 -2.0493
 8059SOL    HW235814   0.805   4.151   5.954  0.8074  0.1619 -2.2887
 8060SOL     OW35815   3.630   0.458   0.313  0.2240 -1.3497 -0.2973
 8060SOL    HW135816   3.577   0.533   0.341  0.5255 -1.8390  1.5685
 8060SOL    HW235817   3.597   0.439   0.225  0.1172 -0.0816 -0.5263
 8061SOL     OW35818   0.482   3.544   9.416 -0.2709  0.0066 -0.4689
 8061SOL    HW135819   0.429   3.578   9.488 -2.0152 -0.5573 -1.5058
 8061SOL    HW235820   0.416   3.518   9.352 -1.6536  1.7779  0.2557
 8062SOL     OW35821   1.539   4.498   3.227  0.1718  0.1442 -0.8947
 8062SOL    HW135822   1.526   4.454   3.143  2.2617 -1.5616 -0.3059
 8062SOL    HW235823   1.621   4.543   3.205  1.4966 -1.1877  1.3072
 8063SOL     OW35824   2.837   4.512   2.553 -0.1342  0.1828  0.4935
 8063SOL    HW135825   2.752   4.494   2.512 -1.1146 -0.7669  2.8949
 8063SOL    HW235826   2.796   4.574   2.613 -1.0630 -0.6542  0.7276
 8064SOL     OW35827   3.223   3.468   6.681  0.8112  0.1130 -0.4257
 8064SOL    HW135828   3.241   3.461   6.775 -3.6892  1.2973  0.5280
 8064SOL    HW235829   3.184   3.382   6.665 -0.3489  0.3937  0.9296
 8065SOL     OW35830   1.931   1.658   2.904 -0.6300  0.0206 -0.4201
 8065SOL    HW135831   1.987   1.701   2.968  0.7671  0.6962 -2.0901
 8065SOL    HW235832   1.933   1.730   2.841 -2.7342 -1.3862 -2.0855
 8066SOL     OW35833   4.033   0.040  17.002 -0.7885  0.0788 -0.2034
 8066SOL    HW135834   3.987   4.717  16.942  1.1395 -0.9746 -0.6517
 8066SOL    HW235835   4.122   0.016  16.977 -0.6582 -1.1383  1.3910
 8067SOL     OW35836   3.591   3.944   6.669 -0.8657 -0.5684  0.3121
 8067SOL    HW135837   3.594   4.023   6.614  1.4523 -1.6966 -1.1766
 8067SOL    HW235838   3.612   3.879   6.602  1.6958 -0.7136  1.2695
 8068SOL     OW35839   2.312   2.631   8.113  0.3052 -0.8060  0.3246
 8068SOL    HW135840   2.340   2.544   8.143 -0.5045 -1.5274 -0.9875
 8068SOL    HW235841   2.369   2.695   8.155 -0.1238  0.5206 -1.1167
 8069SOL     OW35842   0.813   3.498   7.397  0.2177 -0.2908  0.1314
 8069SOL    HW135843   0.899   3.535   7.417 -0.3676  1.8228 -1.3102
 8069SOL    HW235844   0.814   3.416   7.446 -1.8006  0.0139  0.6557
 8070SOL     OW35845   2.183   1.324   5.004 -0.3430  0.4584  0.1042
 8070SOL    HW135846   2.184   1.230   5.021 -2.3839  0.1211 -1.5806
 8070SOL    HW235847   2.260   1.353   5.053 -0.3903  1.0757 -0.1766
 8071SOL     OW35848   0.832   0.744   6.481 -0.2984  0.0911  0.2687
 8071SOL    HW135849   0.824   0.648   6.481 -1.1099  0.1602 -0.1373
 8071SOL    HW235850   0.744   0.772   6.507 -0.3313  1.2115 -1.0353
 8072SOL     OW35851   1.616   2.429   3.986 -0.0877  0.1432 -0.2107
 8072SOL    HW135852   1.696   2.386   4.017 -0.8875 -2.8207 -2.2770
 8072SOL    HW235853   1.598   2.385   3.903  0.5838  1.0932 -0.8573
 8073SOL     OW35854   1.110   2.420   3.215 -0.1444  0.6511 -0.2874
 8073SOL    HW135855   1.106   2.493   3.276  2.3070  0.6760 -0.1392
 8073SOL    HW235856   1.173   2.364   3.260 -1.1026 -0.9359 -0.9469
 8074SOL     OW35857   3.112   3.816   3.276  0.1031  0.1245  0.4622
 8074SOL    HW135858   3.092   3.865   3.356 -1.0689  0.8254 -0.2621
 8074SOL    HW235859   3.206   3.807   3.288  0.5519  3.3541 -0.6246
 8075SOL     OW35860   1.742   1.030  17.324  0.1041 -0.6036  0.1714
 8075SOL    HW135861   1.678   0.964  17.351  0.2688 -0.9139 -0.1873
 8075SOL    HW235862   1.743   0.992  17.236 -1.3085 -0.7100  0.2017
 8076SOL     OW35863   0.806   2.065   7.019  0.3738 -0.1995  0.1971
 8076SOL    HW135864   0.838   2.153   7.039 -2.1573  0.5808  0.7951
 8076SOL    HW235865   0.885   2.019   6.992 -0.1603 -1.0543  0.0944
 8077SOL     OW35866   3.034   0.352   9.846  0.4089  0.1016  0.3688
 8077SOL    HW135867   3.045   0.321   9.756 -2.0554  0.5581 -0.0812
 8077SOL    HW235868   3.096   0.289   9.883  0.7524  0.4077  0.3128
 8078SOL     OW35869   1.085   0.304  17.126  0.6016 -0.6833  0.2220
 8078SOL    HW135870   1.168   0.335  17.091  0.7605  0.3174  1.4709
 8078SOL    HW235871   1.110   0.326  17.216  0.6047 -1.0038  0.2974
 8079SOL     OW35872   0.521   3.493   1.757  0.5639  0.1969 -0.5247
 8079SOL    HW135873   0.472   3.576   1.759 -0.5311 -0.4469 -0.3516
 8079SOL    HW235874   0.472   3.439   1.819 -0.9746 -0.4122 -2.2541
 8080SOL     OW35875   1.893   1.504  15.921  0.3427 -0.0640 -0.2091
 8080SOL    HW135876   1.971   1.528  15.972 -0.5322  2.7554 -0.2455
 8080SOL    HW235877   1.937   1.499  15.836  2.4050  1.0129  0.7751
 8081SOL     OW35878   3.664   0.204   1.467 -0.2508  0.1895  0.1926
 8081SOL    HW135879   3.637   0.157   1.388 -0.7336 -0.7153  0.8984
 8081SOL    HW235880   3.651   0.133   1.529  0.0633  0.5800  0.6951
 8082SOL     OW35881   3.770   2.190  14.007  0.5840  0.0121 -0.0342
 8082SOL    HW135882   3.828   2.124  13.971  0.0742  0.1132 -1.0341
 8082SOL    HW235883   3.756   2.151  14.094  1.1862  2.4317  1.1498
 8083SOL     OW35884   2.692   1.645  16.693  0.1262  0.2568 -0.1993
 8083SOL    HW135885   2.728   1.704  16.628 -0.7096  1.6276  0.5875
 8083SOL    HW235886   2.598   1.658  16.680 -0.0235  0.8769  1.5342
 8084SOL     OW35887   0.447   2.360  15.338 -0.2821 -0.3075 -0.7343
 8084SOL    HW135888   0.449   2.420  15.412 -0.6173 -0.9367 -0.2174
 8084SOL    HW235889   0.525   2.397  15.298 -0.5267  0.8285 -0.1872
 8085SOL     OW35890   1.366   3.887   3.284 -0.0126  0.9670 -0.0327
 8085SOL    HW135891   1.372   3.793   3.301  1.2464  1.0887  0.2034
 8085SOL    HW235892   1.447   3.890   3.232  0.3551 -2.1756  0.3193
 8086SOL     OW35893   4.350   1.622   7.332  0.3492  0.0844  0.3191
 8086SOL    HW135894   4.422   1.673   7.294 -0.5177  1.2993  0.2808
 8086SOL    HW235895   4.267   1.665   7.310 -0.8562 -2.0081  0.8078
 8087SOL     OW35896   3.288   1.920  15.082  0.5143  0.3287 -0.6606
 8087SOL    HW135897   3.324   1.973  15.012 -0.3885 -0.1098 -1.4686
 8087SOL    HW235898   3.353   1.853  15.100  1.4877  0.9655 -1.8279
 8088SOL     OW35899   2.235   2.247   5.890 -0.0806  0.2572 -1.5341
 8088SOL    HW135900   2.210   2.225   5.801 -0.9151 -0.2062 -1.1921
 8088SOL    HW235901   2.321   2.287   5.884  0.6763 -1.3730 -1.6363
 8089SOL     OW35902   1.476   3.397   7.393  0.2084  0.4718 -0.7188
 8089SOL    HW135903   1.418   3.441   7.455 -0.2269 -0.7247 -0.2734
 8089SOL    HW235904   1.467   3.463   7.324  0.7004  3.4111  1.9926
 8090SOL     OW35905   2.149   3.852  12.616  0.4743  0.4724  0.8446
 8090SOL    HW135906   2.244   3.856  12.605  0.0946  2.8951 -1.7003
 8090SOL    HW235907   2.114   3.862  12.527  0.0136 -1.9860  0.7540
 8091SOL     OW35908   1.408   1.234   0.649  0.1925  0.3423 -0.0776
 8091SOL    HW135909   1.418   1.233   0.744  3.4360 -0.1584 -0.4301
 8091SOL    HW235910   1.325   1.278   0.631  1.1480  1.5183 -1.5941
 8092SOL     OW35911   2.719   1.414   7.824  0.3104 -0.2515 -0.2950
 8092SOL    HW135912   2.810   1.439   7.805 -0.0149  1.0522 -0.1693
 8092SOL    HW235913   2.689   1.505   7.829  0.2518 -0.0813 -3.7166
 8093SOL     OW35914   1.673   1.730   4.166 -0.0652  0.4468 -0.2363
 8093SOL    HW135915   1.707   1.641   4.171 -1.1206  0.0840  0.3592
 8093SOL    HW235916   1.736   1.790   4.125  0.7897 -1.0008 -1.0228
 8094SOL     OW35917   0.335   0.239   6.414 -0.0081  0.4830 -0.3489
 8094SOL    HW135918   0.270   0.246   6.345 -0.9313  0.2612  0.4985
 8094SOL    HW235919   0.307   0.158   6.457 -0.7279  1.7961  1.6430
 8095SOL     OW35920   2.111   0.013  15.490 -0.2814  0.1379  0.7408
 8095SOL    HW135921   2.199   4.715  15.510 -0.1462  0.5698  0.8578
 8095SOL    HW235922   2.066   4.665  15.473 -1.9985  1.1661  0.2547
 8096SOL     OW35923   4.723   4.358   8.937 -0.2377  0.5306  0.2894
 8096SOL    HW135924   4.702   4.428   8.875 -1.7323  0.9676  1.2900
 8096SOL    HW235925   0.066   4.394   8.979  0.9295 -0.4451 -1.0634
 8097SOL     OW35926   2.969   4.221   1.379 -0.2297  0.4659 -0.2600
 8097SOL    HW135927   3.052   4.178   1.359 -0.5825 -1.7900  3.0410
 8097SOL    HW235928   2.987   4.276   1.455 -1.8348 -0.1718  0.6024
 8098SOL     OW35929   2.560   4.493   3.778 -0.6164  0.2228  0.1025
 8098SOL    HW135930   2.487   4.431   3.778  0.9921 -1.6773  1.6964
 8098SOL    HW235931   2.598   4.473   3.693 -0.2602 -1.6448  0.6985
 8099SOL     OW35932   1.966   2.613   6.116  0.3684  0.3023 -0.6863
 8099SOL    HW135933   1.955   2.603   6.211  0.0999 -0.5449 -0.7987
 8099SOL    HW235934   1.997   2.526   6.089 -0.7788 -0.8730  1.7360
 8100SOL     OW35935   1.493   0.028  10.887 -0.1935 -0.7491  0.5001
 8100SOL    HW135936   1.487   0.013  10.793 -1.3799 -2.3827  0.8256
 8100SOL    HW235937   1.547   0.106  10.888  1.1268 -1.6579  0.1047
 8101SOL     OW35938   2.293   1.045   4.751  0.2741 -0.1535  0.2195
 8101SOL    HW135939   2.319   1.112   4.814 -2.1718  0.2758  0.7622
 8101SOL    HW235940   2.259   1.102   4.682  2.3061  0.9704  0.1123
 8102SOL     OW35941   0.828   0.999   5.707  0.1354 -0.4663 -0.3497
 8102SOL    HW135942   0.904   1.053   5.683 -1.3458  1.7325 -0.1454
 8102SOL    HW235943   0.754   1.055   5.682 -1.6748 -2.7132 -0.0537
 8103SOL     OW35944   0.249   0.177   4.138 -0.4773  0.4224 -0.3863
 8103SOL    HW135945   0.282   0.090   4.160 -3.3218 -0.1837  1.4513
 8103SOL    HW235946   0.335   0.219   4.133 -0.4104  0.0398 -2.4379
 8104SOL     OW35947   0.084   2.907  11.342  0.0243  0.4214 -0.2840
 8104SOL    HW135948   0.131   2.898  11.260 -0.5705 -1.0800 -0.4516
 8104SOL    HW235949   4.732   2.875  11.320  0.3493 -0.7910  0.1932
 8105SOL     OW35950   3.676   0.506  11.783  0.2449 -0.3559 -0.2166
 8105SOL    HW135951   3.645   0.436  11.841 -0.8820 -0.2080 -0.6335
 8105SOL    HW235952   3.604   0.516  11.721  1.1694  0.8159 -1.0804
 8106SOL     OW35953   1.978   2.940   1.404  0.5636 -0.0349 -0.1746
 8106SOL    HW135954   2.053   2.892   1.441  0.7394  0.4324  0.0783
 8106SOL    HW235955   1.945   2.988   1.480 -0.3972 -1.7732  0.5290
 8107SOL     OW35956   0.599   0.619   0.190 -0.2459 -0.1110 -0.5507
 8107SOL    HW135957   0.658   0.673   0.243  3.0915 -2.3154 -2.0550
 8107SOL    HW235958   0.614   0.527   0.207 -1.9932 -0.3221 -0.1051
 8108SOL     OW35959   0.596   2.371   6.321  0.0310  0.2141  0.0198
 8108SOL    HW135960   0.585   2.404   6.232  0.9236 -0.2185 -0.2543
 8108SOL    HW235961   0.692   2.369   6.326  0.1594 -0.8546 -2.7095
 8109SOL     OW35962   1.022   3.649   0.115 -0.0249 -0.2487  0.7516
 8109SOL    HW135963   1.043   3.694   0.033 -2.6186  0.7364  0.6177
 8109SOL    HW235964   0.927   3.638   0.118 -0.2085  0.1285 -2.8956
 8110SOL     OW35965   1.472   1.582  12.285 -0.5510  0.1158 -0.1066
 8110SOL    HW135966   1.398   1.643  12.276 -1.4554 -0.8184  0.9595
 8110SOL    HW235967   1.443   1.537  12.364  0.5789  0.2219  0.3645
 8111SOL     OW35968   0.494   1.591   0.969  0.5775  0.3937 -0.3156
 8111SOL    HW135969   0.430   1.596   0.899 -0.7501  0.4910  0.9030
 8111SOL    HW235970   0.448   1.532   1.029 -1.3385  0.5347 -1.6473
 8112SOL     OW35971   3.588   3.604   3.109 -0.4131  0.5674  0.2043
 8112SOL    HW135972   3.611   3.676   3.168 -0.3834  0.1112  0.7611
 8112SOL    HW235973   3.563   3.656   3.033 -1.6551  2.5897  1.9837
 8113SOL     OW35974   2.955   1.814   9.813  0.0826  0.5816  0.5529
 8113SOL    HW135975   2.953   1.759   9.735 -0.8281  0.6740  0.5101
 8113SOL    HW235976   2.888   1.879   9.793  0.2162  1.0895  1.7453
 8114SOL     OW35977   2.376   3.178   0.851 -0.1012 -0.6492 -0.1188
 8114SOL    HW135978   2.399   3.118   0.922  1.6323  0.8012  0.5571
 8114SOL    HW235979   2.410   3.132   0.775 -1.8301 -0.9180 -0.7349
 8115SOL     OW35980   1.967   3.688   7.838 -0.2616 -0.0890  0.3336
 8115SOL    HW135981   1.910   3.709   7.764 -1.7573  0.4970  1.6511
 8115SOL    HW235982   2.029   3.624   7.803 -1.0465 -1.5707  1.6443
 8116SOL     OW35983   2.666   0.687   6.167  0.0492  0.5737 -0.1138
 8116SOL    HW135984   2.717   0.768   6.164 -1.7810  1.6760 -1.1225
 8116SOL    HW235985   2.734   0.629   6.201 -1.0038 -1.0554 -0.7707
 8117SOL     OW35986   3.240   3.239   3.789 -0.5190  0.2785 -0.2163
 8117SOL    HW135987   3.227   3.221   3.882  1.6018  0.6087  0.1472
 8117SOL    HW235988   3.158   3.200   3.758 -0.6113 -0.1499  0.5863
 8118SOL     OW35989   4.147   3.368   5.990 -0.2161  0.3322  0.1722
 8118SOL    HW135990   4.097   3.384   5.910  2.0900  1.3979 -1.0563
 8118SOL    HW235991   4.083   3.411   6.047  0.5145 -1.2938  2.2265
 8119SOL     OW35992   2.246   2.928   2.692 -0.3349 -0.1781 -0.0132
 8119SOL    HW135993   2.276   3.018   2.682 -0.2509 -0.1482  0.5380
 8119SOL    HW235994   2.216   2.919   2.782  2.3008  2.4654  1.1245
 8120SOL     OW35995   4.517   0.122   7.528 -0.1993  0.5281  0.0083
 8120SOL    HW135996   4.605   0.159   7.537  1.0875 -2.1079 -1.6348
 8120SOL    HW235997   4.521   0.043   7.582  4.3292  1.3433  0.8869
 8121SOL     OW35998   0.686   4.359   3.914 -0.1941 -0.4833 -0.0017
 8121SOL    HW135999   0.636   4.326   3.839 -2.4920  3.0080  0.0074
 8121SOL    HW236000   0.745   4.426   3.881 -0.3279  0.2206  1.2060
 8122SOL     OW36001   0.424   3.323  12.919 -0.5434 -0.0552  0.3600
 8122SOL    HW136002   0.363   3.357  12.984 -0.3793 -0.0784  0.5279
 8122SOL    HW236003   0.499   3.322  12.979 -1.5092 -0.0406  1.5784
 8123SOL     OW36004   2.660   4.354   7.075 -0.5457 -0.7747  0.3044
 8123SOL    HW136005   2.738   4.301   7.093 -0.5747 -0.9086  0.0438
 8123SOL    HW236006   2.588   4.290   7.072 -0.9444 -0.3122 -0.0166
 8124SOL     OW36007   2.219   2.816   1.474 -0.0892  0.0504  0.1807
 8124SOL    HW136008   2.290   2.874   1.502 -0.6611  0.2604  1.1709
 8124SOL    HW236009   2.197   2.766   1.553 -1.6298 -0.6569 -0.6997
 8125SOL     OW36010   0.480   2.962   3.253  0.4464 -0.0813  0.1263
 8125SOL    HW136011   0.416   3.033   3.255  1.2328  0.6273  0.0485
 8125SOL    HW236012   0.441   2.895   3.310  1.8809 -1.6372 -0.6966
 8126SOL     OW36013   0.248   0.762  16.650 -0.2728 -0.7806 -0.1354
 8126SOL    HW136014   0.281   0.772  16.561 -1.0761 -0.2429 -0.3634
 8126SOL    HW236015   0.285   0.678  16.679  1.6416  0.9476  2.4757
 8127SOL     OW36016   4.607   1.973   4.184  0.7024  0.5618 -0.1369
 8127SOL    HW136017   4.597   1.935   4.097 -0.9340 -0.9733  0.6975
 8127SOL    HW236018   4.669   2.045   4.177  1.8056 -0.1951  1.8261
 8128SOL     OW36019   4.505   3.461   2.462  0.3719  0.3201 -0.3560
 8128SOL    HW136020   4.463   3.426   2.383 -2.3251  1.3352  0.6131
 8128SOL    HW236021   4.592   3.422   2.461  0.2918  0.1371 -0.2499
 8129SOL     OW36022   4.686   0.944   9.441 -0.4413 -0.7564 -0.1663
 8129SOL    HW136023   0.001   1.012   9.396  0.9344 -1.9594 -0.4443
 8129SOL    HW236024   4.654   0.987   9.521 -1.3545 -0.4485 -0.6987
 8130SOL     OW36025   1.018   4.426   3.016  0.3162  0.0150 -0.0622
 8130SOL    HW136026   1.062   4.386   2.941 -2.2357 -0.9845 -1.0034
 8130SOL    HW236027   1.073   4.501   3.039 -1.0304  1.1993 -0.7327
 8131SOL     OW36028   4.423   3.255   6.375  0.2750  0.3138  0.5379
 8131SOL    HW136029   4.488   3.235   6.308 -0.5369 -1.6190  0.3222
 8131SOL    HW236030   4.459   3.199   6.444  0.9015 -0.5786 -0.5179
 8132SOL     OW36031   2.506   0.765   7.789 -0.1153 -0.0901 -0.1557
 8132SOL    HW136032   2.439   0.696   7.794 -0.4900  0.2437 -0.5554
 8132SOL    HW236033   2.522   0.783   7.696  0.4639  1.1483  0.1893
 8133SOL     OW36034   2.704   3.732  11.808 -0.2761 -0.2852 -0.6805
 8133SOL    HW136035   2.746   3.661  11.758 -1.3016 -2.2363  1.2326
 8133SOL    HW236036   2.739   3.708  11.893  3.0425  1.9347 -1.4226
 8134SOL     OW36037   1.685   0.631   3.969 -0.5179 -0.1991  0.2243
 8134SOL    HW136038   1.768   0.670   3.997 -1.3082  0.6425  1.4027
 8134SOL    HW236039   1.709   0.600   3.882  1.3844 -1.3109  1.1251
 8135SOL     OW36040   0.001   1.316   2.476 -0.2822 -0.3491  0.2615
 8135SOL    HW136041   0.040   1.362   2.550 -0.4131  0.1837 -0.0077
 8135SOL    HW236042   0.019   1.224   2.496 -0.8233 -1.0665 -2.5695
 8136SOL     OW36043   3.419   1.603   2.542 -0.7930 -0.4849  0.2774
 8136SOL    HW136044   3.344   1.660   2.528  1.1674  1.9550 -0.4352
 8136SOL    HW236045   3.460   1.647   2.616 -0.1910  0.3819 -0.5628
 8137SOL     OW36046   3.050   4.572   3.167 -0.3770  0.5350  0.2089
 8137SOL    HW136047   3.072   4.480   3.155  0.0054  0.7709 -0.9679
 8137SOL    HW236048   3.078   4.621   3.089  1.4879 -0.6633  0.1367
 8138SOL     OW36049   4.574   4.131   9.764  0.2246  0.1037 -0.2147
 8138SOL    HW136050   4.532   4.190   9.701 -0.0855 -2.2204 -2.2026
 8138SOL    HW236051   4.579   4.049   9.716 -0.0451 -0.7114  1.1742
 8139SOL     OW36052   0.477   1.022   5.078 -0.3041  0.1430  0.4174
 8139SOL    HW136053   0.416   1.096   5.076 -1.0946 -0.4953  0.9497
 8139SOL    HW236054   0.419   0.950   5.054  0.5390 -0.6243  0.7048
 8140SOL     OW36055   2.506   3.592  15.175  0.0742 -0.0730  0.6230
 8140SOL    HW136056   2.490   3.638  15.257 -1.0160 -1.2265  1.0553
 8140SOL    HW236057   2.441   3.523  15.188 -1.4086  1.3975  1.1596
 8141SOL     OW36058   2.166   3.627   0.901  0.2917 -0.1249  0.5788
 8141SOL    HW136059   2.239   3.566   0.910 -0.2440 -0.8372  0.1773
 8141SOL    HW236060   2.085   3.581   0.926 -0.7719 -0.2159 -2.9143
 8142SOL     OW36061   1.353   4.058  14.712  0.4196  0.4280  0.2732
 8142SOL    HW136062   1.403   4.066  14.631  0.2037 -1.2509 -0.0382
 8142SOL    HW236063   1.330   3.965  14.706 -0.5996  0.8436 -2.1755
 8143SOL     OW36064   2.638   1.816   3.290 -0.4704 -0.1365 -0.5088
 8143SOL    HW136065   2.703   1.754   3.323  0.4729  0.9607 -0.3069
 8143SOL    HW236066   2.605   1.768   3.215 -1.9468 -1.7745  1.1937
 8144SOL     OW36067   2.267   0.639   5.230 -0.0961 -0.4281  0.2968
 8144SOL    HW136068   2.363   0.635   5.228 -0.1379 -2.5348  1.5661
 8144SOL    HW236069   2.257   0.733   5.243  2.6765 -0.9421  6.4937
 8145SOL     OW36070   3.849   3.894   3.067 -0.1415  0.4340 -0.3863
 8145SOL    HW136071   3.898   3.965   3.108 -0.9579 -0.4874  2.1185
 8145SOL    HW236072   3.830   3.947   2.989  0.8390 -1.3528 -1.8517
 8146SOL     OW36073   3.863   1.054   3.656 -0.0567 -0.0134 -0.2240
 8146SOL    HW136074   3.858   1.139   3.698  1.0014  0.1908 -0.4919
 8146SOL    HW236075   3.959   1.051   3.652 -0.0283  0.0321  0.5757
 8147SOL     OW36076   1.452   2.718  16.673 -0.0961 -0.1819  0.3897
 8147SOL    HW136077   1.361   2.697  16.651 -0.2845  0.9652  0.0664
 8147SOL    HW236078   1.451   2.688  16.764  1.6295  0.4271  0.6089
 8148SOL     OW36079   3.714   2.654   4.400  0.2966  0.0564 -0.0964
 8148SOL    HW136080   3.754   2.622   4.318  2.4790  2.4565  0.0305
 8148SOL    HW236081   3.623   2.626   4.395  0.1625  0.7031 -1.1489
 8149SOL     OW36082   2.406   4.319   6.554  0.1094 -0.1897 -0.7127
 8149SOL    HW136083   2.330   4.366   6.589  1.1070 -0.0984  1.3134
 8149SOL    HW236084   2.375   4.232   6.527  0.8333 -0.8921  0.7262
 8150SOL     OW36085   2.857   4.136   5.879  0.2731  0.0040 -0.1807
 8150SOL    HW136086   2.914   4.062   5.899 -2.5291 -2.5078 -1.6158
 8150SOL    HW236087   2.782   4.078   5.869  0.0248  0.1697  0.7524
 8151SOL     OW36088   0.621   0.164   8.332 -0.1835  0.6258 -0.0252
 8151SOL    HW136089   0.692   0.128   8.385 -0.7186 -0.5824 -0.1443
 8151SOL    HW236090   0.654   0.247   8.296  0.4917  1.0874  1.6348
 8152SOL     OW36091   1.439   1.752   4.540  0.1060  0.5068 -0.1349
 8152SOL    HW136092   1.363   1.741   4.482  0.5009  1.1826 -0.7862
 8152SOL    HW236093   1.413   1.752   4.632 -0.0065  2.7691 -0.1570
 8153SOL     OW36094   4.615   2.026   7.312 -0.1422 -0.3205  0.6202
 8153SOL    HW136095   4.666   2.031   7.231 -1.0652 -2.3205 -0.0819
 8153SOL    HW236096   4.621   2.115   7.346 -1.6632 -0.5234  1.4196
 8154SOL     OW36097   2.985   4.290  15.845  0.3047 -0.3917  0.6300
 8154SOL    HW136098   3.004   4.309  15.753  1.6311 -0.0426  0.9712
 8154SOL    HW236099   2.907   4.236  15.834  0.4157 -0.3084 -0.6514
 8155SOL     OW36100   2.332   1.410  13.675 -0.7341  0.0223  0.3889
 8155SOL    HW136101   2.382   1.449  13.747  0.1847  0.4449 -0.4916
 8155SOL    HW236102   2.243   1.423  13.710 -0.9576  1.1111 -0.5714
 8156SOL     OW36103   3.453   0.269   2.204 -0.7020 -0.2674  0.0212
 8156SOL    HW136104   3.369   0.295   2.165 -0.9781 -0.1649  0.6682
 8156SOL    HW236105   3.442   0.276   2.299  2.5540 -0.8927  0.4254
 8157SOL     OW36106   3.493   0.661   3.966 -0.1012 -0.2940  0.3114
 8157SOL    HW136107   3.586   0.668   3.986  0.2245 -1.0864 -0.9255
 8157SOL    HW236108   3.438   0.713   4.025 -1.5067  0.3980 -1.6034
 8158SOL     OW36109   4.256   3.349   1.316  0.1024 -0.0348 -0.9290
 8158SOL    HW136110   4.315   3.296   1.263  1.4835  2.7685 -2.1837
 8158SOL    HW236111   4.181   3.297   1.288  0.4422 -1.5484  0.9796
 8159SOL     OW36112   4.238   3.231  14.945  0.2915  0.1673 -0.0195
 8159SOL    HW136113   4.306   3.229  14.878  0.4602 -3.5853  0.2514
 8159SOL    HW236114   4.205   3.318  14.922  1.1716  0.5350  0.1475
 8160SOL     OW36115   0.077   0.175   3.931  0.0904  0.1188 -0.1293
 8160SOL    HW136116   0.099   0.156   4.022 -0.0188 -1.3535 -0.4037
 8160SOL    HW236117   0.157   0.225   3.916  0.7350 -1.0928 -0.7226
 8161SOL     OW36118   0.908   1.355   5.686 -0.5932  0.8550  0.1826
 8161SOL    HW136119   0.977   1.339   5.751 -1.5659 -1.3419  0.6641
 8161SOL    HW236120   0.905   1.450   5.691 -2.2289  0.7429  1.5173
 8162SOL     OW36121   1.440   2.743   2.426  0.1320 -0.0189  0.2302
 8162SOL    HW136122   1.409   2.769   2.512  0.4765 -0.6801  0.5495
 8162SOL    HW236123   1.524   2.705   2.452  1.3140  1.6092 -1.1687
 8163SOL     OW36124   0.479   4.651   2.926 -0.3809  0.3320 -0.3128
 8163SOL    HW136125   0.479   4.560   2.957  1.9956  1.4449  2.9803
 8163SOL    HW236126   0.553   4.643   2.866 -0.2613  1.4590 -0.3142
 8164SOL     OW36127   0.364   1.123  10.280 -0.3214 -0.1320  0.2840
 8164SOL    HW136128   0.280   1.168  10.287 -1.3086 -2.4928  3.3892
 8164SOL    HW236129   0.341   1.030  10.277  2.2797 -0.7130 -1.3208
 8165SOL     OW36130   4.197   0.097   5.462  0.0559 -0.2337 -0.3613
 8165SOL    HW136131   4.159   0.139   5.539  0.2333 -1.1074  0.1967
 8165SOL    HW236132   4.257   0.167   5.435  0.2056 -0.8832 -1.6960
 8166SOL     OW36133   0.075   0.831   2.330  0.3125 -0.1738 -0.1890
 8166SOL    HW136134   4.720   0.835   2.363  0.6559 -1.7075  0.9102
 8166SOL    HW236135   0.098   0.743   2.359  0.0716 -0.6144 -1.3501
 8167SOL     OW36136   1.312   0.027   5.805 -0.2135  0.2756  0.4963
 8167SOL    HW136137   1.351   0.110   5.779 -1.7533  1.8705  3.3368
 8167SOL    HW236138   1.266   0.045   5.887 -3.0868 -1.3751 -0.7393
 8168SOL     OW36139   2.961   3.626   5.023 -0.5800  0.2750  0.9691
 8168SOL    HW136140   2.937   3.546   4.977 -1.3778  1.5098 -0.7526
 8168SOL    HW236141   2.975   3.681   4.946  2.4569 -1.3461  0.3973
 8169SOL     OW36142   3.379   1.504  13.474 -0.3914  0.1575 -0.7244
 8169SOL    HW136143   3.426   1.575  13.430 -1.7500  1.5119 -0.0314
 8169SOL    HW236144   3.324   1.556  13.532  1.0782 -0.0628  0.8302
 8170SOL     OW36145   3.881   4.541  16.446 -0.3916 -0.0854 -0.1029
 8170SOL    HW136146   3.793   4.573  16.467 -1.1170 -1.2440 -1.3412
 8170SOL    HW236147   3.906   4.598  16.374 -0.9521 -1.1996 -1.1807
 8171SOL     OW36148   4.006   0.771  13.612 -0.6238 -0.7382  0.0312
 8171SOL    HW136149   4.052   0.832  13.670 -2.5488 -0.0201  0.7964
 8171SOL    HW236150   4.022   0.685  13.651 -1.9233 -0.5181  1.0368
 8172SOL     OW36151   3.433   1.347   0.586  0.2088 -0.2760  0.5211
 8172SOL    HW136152   3.461   1.298   0.509 -2.6758 -2.8057  1.1071
 8172SOL    HW236153   3.399   1.429   0.551  0.5183  0.1778  1.2802
 8173SOL     OW36154   1.010   2.546   4.113  0.3403 -0.0811 -0.4043
 8173SOL    HW136155   1.028   2.638   4.133  0.3431 -0.0331 -0.6258
 8173SOL    HW236156   1.094   2.506   4.088  0.9629  1.2638 -0.4741
 8174SOL     OW36157   2.350   1.698   3.298 -1.0362  0.1730 -0.2952
 8174SOL    HW136158   2.356   1.792   3.315 -2.5278  0.1507  0.4450
 8174SOL    HW236159   2.395   1.702   3.214  0.1141  0.0199  0.3189
 8175SOL     OW36160   4.132   4.088   4.304 -0.1250 -0.6607 -0.2742
 8175SOL    HW136161   4.217   4.131   4.314  0.0703 -1.1901  0.3630
 8175SOL    HW236162   4.130   4.065   4.397 -2.1178 -0.5553 -0.2993
 8176SOL     OW36163   2.190   0.020   2.336 -0.5066 -0.0973 -0.1220
 8176SOL    HW136164   2.111   0.025   2.390  0.2958 -0.4321  1.0742
 8176SOL    HW236165   2.172   0.107   2.301 -0.2332  1.0449  2.6367
 8177SOL     OW36166   4.125   1.068  15.278 -0.2702  1.1295  0.0917
 8177SOL    HW136167   4.065   1.040  15.348 -1.6323  2.0457 -0.7187
 8177SOL    HW236168   4.118   1.163  15.287  0.5290  1.2177 -0.2232
 8178SOL     OW36169   4.198   0.540   5.399  0.8398  0.0022  0.0303
 8178SOL    HW136170   4.141   0.567   5.327  0.5642  2.3076  1.1239
 8178SOL    HW236171   4.272   0.599   5.385 -0.1208  1.3574  0.7181
 8179SOL     OW36172   1.333   4.258   7.885 -0.2512  0.3313 -0.0736
 8179SOL    HW136173   1.373   4.320   7.825  0.6980  0.1816  0.4075
 8179SOL    HW236174   1.244   4.294   7.886 -0.1992  0.4527  0.1075
 8180SOL     OW36175   1.091   1.930  16.443 -0.1066 -0.6866 -0.5030
 8180SOL    HW136176   1.066   1.839  16.455  1.2270 -1.2483 -1.9529
 8180SOL    HW236177   1.087   1.961  16.534 -0.9123  0.2459 -0.8493
 8181SOL     OW36178   0.301   2.867  12.680  0.2765 -0.1171 -0.1337
 8181SOL    HW136179   0.386   2.825  12.694  0.5717  0.1789 -1.0029
 8181SOL    HW236180   0.324   2.959  12.676  1.9113 -0.5014  0.6337
 8182SOL     OW36181   4.411   3.960   0.204 -0.6261  0.0830  0.0570
 8182SOL    HW136182   4.497   3.946   0.244 -0.5174  1.3076  0.2770
 8182SOL    HW236183   4.406   4.054   0.223 -0.6763  0.2663 -0.8554
 8183SOL     OW36184   0.473   0.246   2.690  0.2491  0.2397  0.3501
 8183SOL    HW136185   0.524   0.202   2.621  1.2517  0.6317  0.8390
 8183SOL    HW236186   0.479   0.177   2.757  0.8043  0.6700  0.7408
 8184SOL     OW36187   1.458   2.005   6.933  0.5782 -0.0072 -0.0829
 8184SOL    HW136188   1.393   1.978   6.998  0.3557 -0.3376 -0.4416
 8184SOL    HW236189   1.407   1.998   6.852 -2.3161  1.6347  1.5790
 8185SOL     OW36190   4.520   1.127   7.486 -0.6691 -0.3171  0.0444
 8185SOL    HW136191   4.478   1.200   7.439  0.1870  0.8247  1.0322
 8185SOL    HW236192   4.526   1.058   7.421 -1.0685  1.0841 -1.4917
 8186SOL     OW36193   4.555   3.979   4.044  0.1429 -0.2174 -0.2832
 8186SOL    HW136194   4.585   4.012   3.960  1.3084 -2.2469 -0.6649
 8186SOL    HW236195   4.461   3.961   4.034 -0.0687  1.0001 -0.4485
 8187SOL     OW36196   0.302   1.023   8.669 -0.0249  0.4737 -0.3956
 8187SOL    HW136197   0.240   1.042   8.740  0.6850  0.1214  0.3161
 8187SOL    HW236198   0.358   0.966   8.721  0.1150  3.2709  2.5799
 8188SOL     OW36199   2.294   1.464   0.781  0.1812  0.3838 -0.3642
 8188SOL    HW136200   2.234   1.538   0.794 -1.4528 -1.0342  0.2321
 8188SOL    HW236201   2.238   1.401   0.735  1.3509  0.5656 -2.0256
 8189SOL     OW36202   2.346   3.275  15.686  0.4026  0.5255  0.1547
 8189SOL    HW136203   2.394   3.248  15.608 -0.3035  0.5188 -0.2798
 8189SOL    HW236204   2.418   3.285  15.748  1.1681  0.9136 -0.7922
 8190SOL     OW36205   1.108   4.183   7.263 -0.3056  0.4669  0.3416
 8190SOL    HW136206   1.169   4.112   7.282 -0.6176  0.1722  0.2543
 8190SOL    HW236207   1.059   4.191   7.345 -2.3585  0.1203 -0.8450
 8191SOL     OW36208   4.388   3.757   7.224  0.1362  0.4128  0.7616
 8191SOL    HW136209   4.397   3.663   7.238  1.5282  0.7189  1.9719
 8191SOL    HW236210   4.400   3.761   7.129 -1.4914 -0.2949  0.5295
 8192SOL     OW36211   0.128   0.224   9.416  0.7038 -0.8552 -0.2750
 8192SOL    HW136212   0.085   0.187   9.493 -0.5005 -0.8634 -0.9602
 8192SOL    HW236213   0.065   0.284   9.377  0.3585 -0.3058  1.1343
 8193SOL     OW36214   2.176   1.453   1.989 -0.3427  0.2020  0.1058
 8193SOL    HW136215   2.231   1.532   1.995 -0.6689  0.3891  0.6479
 8193SOL    HW236216   2.230   1.378   2.015 -0.0639  0.5193  0.4533
 8194SOL     OW36217   0.382   4.568   8.635  0.1712 -0.0664  0.1502
 8194SOL    HW136218   0.434   4.487   8.640  0.5419  0.2085  0.7930
 8194SOL    HW236219   0.439   4.621   8.691  0.5274 -2.6818  2.2415
 8195SOL     OW36220   2.641   1.336   5.424 -0.3170  0.0078  0.5564
 8195SOL    HW136221   2.598   1.335   5.509  2.9953 -4.2400  2.1616
 8195SOL    HW236222   2.719   1.299   5.465  0.7688  1.4007 -0.2372
 8196SOL     OW36223   1.281   2.576   8.289 -0.7682  0.4942  0.0074
 8196SOL    HW136224   1.288   2.481   8.299  3.2009  0.6362 -1.6525
 8196SOL    HW236225   1.362   2.597   8.244 -1.1147 -1.2613 -1.4307
 8197SOL     OW36226   4.323   2.198   7.243 -0.0347  0.5879  0.1527
 8197SOL    HW136227   4.359   2.247   7.317  0.2219 -1.2469  1.2144
 8197SOL    HW236228   4.256   2.265   7.228 -1.7560 -1.3250 -0.5207
 8198SOL     OW36229   1.833   3.597  11.208  0.8894 -0.0082 -0.1396
 8198SOL    HW136230   1.825   3.692  11.196  0.9283  0.0975  0.7185
 8198SOL    HW236231   1.907   3.582  11.267 -0.4072  1.3501  1.8200
 8199SOL     OW36232   0.390   1.096  17.396 -0.2667  0.1103  0.1107
 8199SOL    HW136233   0.419   1.090  17.487 -1.2246 -0.1478  0.3963
 8199SOL    HW236234   0.452   1.158  17.357 -0.2393 -1.8140 -2.9595
 8200SOL     OW36235   2.316   4.400   7.998 -0.2343 -0.3994  0.0643
 8200SOL    HW136236   2.327   4.359   8.084  2.6402 -0.0544 -0.1177
 8200SOL    HW236237   2.351   4.488   8.013 -1.6782  0.0046  1.0763
 8201SOL     OW36238   3.727   4.369   6.608 -0.0294 -0.5867 -0.0498
 8201SOL    HW136239   3.801   4.336   6.658  0.2769 -0.8111 -0.6511
 8201SOL    HW236240   3.676   4.411   6.677  2.1681 -0.1079  1.2729
 8202SOL     OW36241   1.351   2.982   3.216  0.1008  0.1760 -0.2834
 8202SOL    HW136242   1.342   2.890   3.242  0.8923 -0.3511 -1.9202
 8202SOL    HW236243   1.407   3.024   3.281 -0.3583 -0.8129  0.7483
 8203SOL     OW36244   4.702   2.020   6.103 -0.2871 -0.1947  0.3568
 8203SOL    HW136245   4.660   2.035   6.018 -2.7476  0.7324  1.7215
 8203SOL    HW236246   4.621   2.002   6.152  0.2618  0.1319  1.3753
 8204SOL     OW36247   3.754   4.724  10.785  0.3865 -0.2617  0.3681
 8204SOL    HW136248   3.840   4.683  10.783  0.1848 -0.5561 -2.8013
 8204SOL    HW236249   3.707   4.642  10.773 -0.5400  0.1639  1.0713
 8205SOL     OW36250   2.220   3.989  10.808 -0.2480  0.2888  0.1607
 8205SOL    HW136251   2.139   3.938  10.801  0.4028 -0.9398  1.5786
 8205SOL    HW236252   2.279   3.922  10.775  2.0005  2.8252 -0.9041
 8206SOL     OW36253   3.687   2.976  10.920 -0.5765 -0.4340  0.4891
 8206SOL    HW136254   3.640   2.895  10.900  0.4513 -1.1769  1.0395
 8206SOL    HW236255   3.777   2.946  10.936 -0.7105 -0.1971  1.6567
 8207SOL     OW36256   3.976   1.625   3.878  0.2503  0.4917  0.3751
 8207SOL    HW136257   3.952   1.716   3.894  1.4736  0.9769 -0.5092
 8207SOL    HW236258   4.061   1.639   3.836 -0.3721  1.8573 -0.4435
 8208SOL     OW36259   3.749   1.063  15.337 -0.0080 -0.4975 -0.3121
 8208SOL    HW136260   3.832   1.031  15.374  0.7790  0.1047 -1.5320
 8208SOL    HW236261   3.704   1.107  15.409  1.7040 -0.8275  0.9875
 8209SOL     OW36262   3.674   0.356   3.727 -0.3417 -0.7725  0.2320
 8209SOL    HW136263   3.619   0.408   3.668 -1.1052 -1.9008 -0.0305
 8209SOL    HW236264   3.737   0.423   3.754 -2.0584 -0.2249  2.9442
 8210SOL     OW36265   1.639   2.738   3.631 -0.2529  0.2897 -0.1882
 8210SOL    HW136266   1.601   2.823   3.654 -2.8554 -1.3526  1.6377
 8210SOL    HW236267   1.620   2.687   3.710 -1.4926 -1.4477 -1.6132
 8211SOL     OW36268   3.295   3.432  15.522 -0.4465  0.5667 -0.5018
 8211SOL    HW136269   3.319   3.506  15.579 -0.6113  0.8671 -0.8209
 8211SOL    HW236270   3.285   3.364  15.589 -0.4872  1.1006  0.0382
 8212SOL     OW36271   1.367   2.310   9.032  0.2857 -0.2991  0.3203
 8212SOL    HW136272   1.299   2.356   8.984 -0.4498 -0.9171  0.7698
 8212SOL    HW236273   1.320   2.229   9.053  0.0709 -0.5008 -0.9551
 8213SOL     OW36274   1.615   1.222   8.626  0.0382  0.3091 -0.2635
 8213SOL    HW136275   1.627   1.204   8.719  2.0217 -1.9997 -0.9900
 8213SOL    HW236276   1.633   1.139   8.582 -0.0749 -0.3750  0.9852
 8214SOL     OW36277   4.325   4.106   5.270 -0.2799 -0.6474  0.3672
 8214SOL    HW136278   4.394   4.044   5.289 -1.1191 -1.6921 -0.0085
 8214SOL    HW236279   4.370   4.191   5.270 -1.1648 -0.1730 -2.0365
 8215SOL     OW36280   2.137   1.808   4.083  0.3977 -0.0935  0.3124
 8215SOL    HW136281   2.043   1.825   4.072  0.4394  0.0821  0.2305
 8215SOL    HW236282   2.126   1.749   4.158  2.6193 -1.3243 -0.3295
 8216SOL     OW36283   0.070   3.708   9.262  0.4575  0.4145 -0.2706
 8216SOL    HW136284   0.023   3.732   9.182  0.2887  0.1851 -0.2401
 8216SOL    HW236285   0.028   3.779   9.311  1.3414  0.2299  0.7596
 8217SOL     OW36286   2.402   0.481   8.129 -0.7148  0.2493  0.8457
 8217SOL    HW136287   2.389   0.569   8.165 -1.7441 -0.6912  2.7856
 8217SOL    HW236288   2.451   0.458   8.208  1.7639  0.3966 -0.6554
 8218SOL     OW36289   1.970   1.645   1.177 -0.5604  0.1030 -0.6803
 8218SOL    HW136290   2.008   1.701   1.244 -1.4240 -1.0977  0.8070
 8218SOL    HW236291   1.938   1.574   1.233 -0.6584  0.4464 -0.3097
 8219SOL     OW36292   1.652   1.249  12.837  0.1251 -0.3766 -0.1905
 8219SOL    HW136293   1.641   1.175  12.897 -2.4864  0.5845  0.5388
 8219SOL    HW236294   1.646   1.215  12.748  0.0961 -0.5916 -0.1069
 8220SOL     OW36295   4.084   0.121   7.021  0.3704  0.1450  0.5664
 8220SOL    HW136296   4.004   0.159   7.057  1.5352  1.9630  1.2041
 8220SOL    HW236297   4.116   0.073   7.097  0.4690 -0.3661  0.1981
 8221SOL     OW36298   3.995   3.337   0.908 -0.1825  0.2472  0.1421
 8221SOL    HW136299   4.023   3.271   0.971  1.8095  0.0538 -0.9442
 8221SOL    HW236300   3.970   3.413   0.961  1.3578  2.0186 -1.6428
 8222SOL     OW36301   1.769   3.400   3.954  0.1882  0.1510  0.9222
 8222SOL    HW136302   1.755   3.484   3.998  1.8442 -0.2981  2.2815
 8222SOL    HW236303   1.743   3.431   3.868  0.0789 -0.3478  0.7759
 8223SOL     OW36304   0.433   1.111  14.015  0.4103  0.1817 -0.9223
 8223SOL    HW136305   0.384   1.044  13.967 -0.0656 -0.3180  0.2536
 8223SOL    HW236306   0.379   1.188  13.996  0.9295  0.4965 -1.1277
 8224SOL     OW36307   0.863   2.241   4.741 -0.5606  0.6549  0.4896
 8224SOL    HW136308   0.936   2.214   4.797 -1.3032  0.9691  1.6181
 8224SOL    HW236309   0.895   2.231   4.651 -1.5431 -1.7679  0.4292
 8225SOL     OW36310   1.345   3.832  13.208  0.4201 -0.3281  0.0217
 8225SOL    HW136311   1.296   3.808  13.129  1.3937 -2.3404  0.0381
 8225SOL    HW236312   1.325   3.751  13.254  1.4282  1.2415  3.2317
 8226SOL     OW36313   0.149   4.504   7.181  0.0800  0.6533  0.6687
 8226SOL    HW136314   0.128   4.412   7.197  0.4494  0.5592  0.6079
 8226SOL    HW236315   0.127   4.545   7.264  2.2433  2.5596  0.2668
 8227SOL     OW36316   0.065   2.615  12.267  0.2851 -0.4158  0.6022
 8227SOL    HW136317   0.136   2.648  12.321  1.0953  0.8384 -1.2116
 8227SOL    HW236318   0.083   2.523  12.249  1.2292  0.2850 -2.0624
 8228SOL     OW36319   0.243   4.275  11.404 -0.0308  0.3880 -0.6266
 8228SOL    HW136320   0.220   4.366  11.422 -0.3292  0.1479  0.2055
 8228SOL    HW236321   0.311   4.289  11.338  1.3968 -0.1623  0.7423
 8229SOL     OW36322   0.285   0.446   7.217  0.3466  0.0293 -0.9163
 8229SOL    HW136323   0.215   0.406   7.269 -0.2825  2.7650  0.3720
 8229SOL    HW236324   0.353   0.444   7.284 -0.8441 -0.2140  0.2749
 8230SOL     OW36325   0.622   4.287   2.410  0.2441  0.8290 -0.4524
 8230SOL    HW136326   0.549   4.328   2.456  1.2275  1.0822  0.8829
 8230SOL    HW236327   0.585   4.271   2.324 -1.5535 -2.7694  0.9958
 8231SOL     OW36328   3.209   1.326  17.028 -0.1339 -0.4937  0.0701
 8231SOL    HW136329   3.126   1.368  17.053 -0.4684 -2.9221  3.0154
 8231SOL    HW236330   3.180   1.259  16.965  1.3414 -0.0898 -1.0285
 8232SOL     OW36331   0.229   3.121   9.517 -0.4583  0.2209  0.3648
 8232SOL    HW136332   0.255   3.148   9.429 -2.8668  1.3176 -0.0283
 8232SOL    HW236333   0.268   3.034   9.527  1.9940  1.3182  0.3648
 8233SOL     OW36334   0.849   2.595  15.080 -0.2817 -0.1536  0.0777
 8233SOL    HW136335   0.791   2.664  15.048  2.1662  2.1832  0.6450
 8233SOL    HW236336   0.931   2.645  15.077  0.3540 -1.2747 -1.5101
 8234SOL     OW36337   1.581   2.636  10.294 -0.3990  0.3177 -0.4341
 8234SOL    HW136338   1.631   2.612  10.216 -0.8841 -1.9603 -0.0523
 8234SOL    HW236339   1.651   2.651  10.358  0.6856 -0.9312 -1.3201
 8235SOL     OW36340   1.275   2.924   4.840 -0.4021 -0.1189 -0.4103
 8235SOL    HW136341   1.267   3.000   4.783 -1.0958  0.2656  0.2020
 8235SOL    HW236342   1.185   2.915   4.872 -0.8557  0.9320 -1.4312
 8236SOL     OW36343   1.906   1.383   8.831 -0.0889  0.2191  0.6369
 8236SOL    HW136344   1.848   1.451   8.797 -0.1657 -1.0394 -1.7624
 8236SOL    HW236345   1.898   1.312   8.767  1.1552 -0.7049  1.5117
 8237SOL     OW36346   3.293   0.933   6.880 -0.1957  0.2663 -0.1496
 8237SOL    HW136347   3.327   0.906   6.795  0.8659 -1.1761  0.7466
 8237SOL    HW236348   3.261   1.020   6.854 -0.8684 -0.0267 -0.3175
 8238SOL     OW36349   1.416   4.228   2.910  0.4438  0.2647  0.4230
 8238SOL    HW136350   1.400   4.138   2.937 -0.7377  1.0160  2.2077
 8238SOL    HW236351   1.504   4.221   2.872 -0.3867 -3.4320 -0.8134
 8239SOL     OW36352   4.532   1.167  12.453  0.6591  0.1662 -0.5521
 8239SOL    HW136353   4.538   1.073  12.433  0.6332 -0.0438  0.4185
 8239SOL    HW236354   4.496   1.158  12.541  0.2575  0.2992 -0.7017
 8240SOL     OW36355   0.555   2.472   6.851 -0.2039  0.2519  0.0533
 8240SOL    HW136356   0.569   2.566   6.836 -1.6318  0.4993  0.2223
 8240SOL    HW236357   0.551   2.443   6.760  1.7214 -0.6192  0.2495
 8241SOL     OW36358   2.692   1.495  14.608  0.8608  0.0292  0.4629
 8241SOL    HW136359   2.671   1.586  14.590  1.5951  0.2374  0.6379
 8241SOL    HW236360   2.720   1.458  14.524  1.1033  0.3648  0.3946
 8242SOL     OW36361   2.569   3.470   8.269  0.3941 -0.3903  0.6947
 8242SOL    HW136362   2.635   3.534   8.242  1.3688 -1.5156  0.4179
 8242SOL    HW236363   2.524   3.535   8.324 -0.9561 -0.3388 -0.4917
 8243SOL     OW36364   1.030   0.714   6.706  0.2834  0.1213 -0.4893
 8243SOL    HW136365   0.963   0.732   6.641 -1.0894  2.8074  1.6853
 8243SOL    HW236366   1.042   0.804   6.735 -0.5405 -0.0778  0.4365
 8244SOL     OW36367   2.819   0.813  11.838 -0.3842 -0.0080 -0.2211
 8244SOL    HW136368   2.748   0.844  11.894 -0.5710 -0.9016  0.0339
 8244SOL    HW236369   2.847   0.891  11.789 -0.5701  0.5731  0.6052
 8245SOL     OW36370   3.362   3.969  11.216  0.0890  0.1648  0.0223
 8245SOL    HW136371   3.399   3.928  11.137 -3.0602 -2.0885 -0.3060
 8245SOL    HW236372   3.378   3.899  11.280  1.3088 -1.0035 -1.5647
 8246SOL     OW36373   1.673   1.392   5.022 -0.4384  0.0491  0.1035
 8246SOL    HW136374   1.680   1.484   5.048  0.0707  0.3504 -1.0756
 8246SOL    HW236375   1.689   1.392   4.927 -0.5333 -0.1364  0.0877
 8247SOL     OW36376   3.012   1.611   7.262  0.1990  0.0482 -0.3357
 8247SOL    HW136377   3.094   1.661   7.271  0.7004 -0.9777  0.8285
 8247SOL    HW236378   3.017   1.561   7.344 -0.0536 -1.6959 -1.3884
 8248SOL     OW36379   1.649   1.657   2.002  0.3851  0.1365  0.3850
 8248SOL    HW136380   1.692   1.614   1.928 -1.2779 -1.1773  0.1617
 8248SOL    HW236381   1.705   1.632   2.075 -0.3885 -1.5502  0.4210
 8249SOL     OW36382   2.228   4.088   5.423  0.0131  0.1098 -0.1006
 8249SOL    HW136383   2.278   4.139   5.487 -1.0837  0.1147  0.7561
 8249SOL    HW236384   2.273   4.003   5.420 -0.6544 -0.2657  0.5661
 8250SOL     OW36385   0.099   4.491   4.483  0.2339  0.0842  0.0300
 8250SOL    HW136386   0.018   4.447   4.455 -0.1216  0.0796  1.0705
 8250SOL    HW236387   0.117   4.530   4.397  1.0055 -3.3292 -1.3396
 8251SOL     OW36388   0.382   4.009   7.004  0.1415 -0.0127 -0.5197
 8251SOL    HW136389   0.377   3.913   7.005 -1.5563  0.0684 -1.1977
 8251SOL    HW236390   0.451   4.027   7.068  0.5549 -4.1607  0.2064
 8252SOL     OW36391   3.832   3.417   3.169  0.6506 -0.1040  0.6203
 8252SOL    HW136392   3.883   3.498   3.165  0.5026 -0.1179 -1.6718
 8252SOL    HW236393   3.752   3.436   3.119  1.0364 -1.9102 -0.6784
 8253SOL     OW36394   2.162   3.247   8.145  0.2274  0.3493 -0.0586
 8253SOL    HW136395   2.114   3.255   8.063 -0.1320 -3.4316 -0.1827
 8253SOL    HW236396   2.254   3.260   8.124 -0.1070  0.4095 -1.4329
 8254SOL     OW36397   0.211   3.873  11.916  0.7072 -0.4624  0.2695
 8254SOL    HW136398   0.302   3.846  11.927  1.8544  3.2094 -0.0756
 8254SOL    HW236399   0.212   3.955  11.967 -0.1160  0.2865 -0.9216
 8255SOL     OW36400   4.656   2.011   2.620  0.9935  0.4555  0.0925
 8255SOL    HW136401   4.664   2.005   2.524  0.3458 -0.8136  0.1198
 8255SOL    HW236402   4.586   2.074   2.633  1.7664  1.1709  0.7583
 8256SOL     OW36403   0.382   3.528   7.852  0.8565 -0.5159  0.6918
 8256SOL    HW136404   0.319   3.593   7.883 -0.6246 -0.8738 -1.5301
 8256SOL    HW236405   0.340   3.449   7.885  0.3991  0.3004  2.0460
 8257SOL     OW36406   3.382   2.832   6.577  0.8095  0.0052 -0.1916
 8257SOL    HW136407   3.334   2.874   6.648  2.0910  0.2390  0.5481
 8257SOL    HW236408   3.350   2.742   6.581 -0.4289  0.4968  0.9164
 8258SOL     OW36409   1.611   0.327   3.979  0.2460  0.2199 -0.2483
 8258SOL    HW136410   1.545   0.291   4.038  2.0831 -0.7521  1.1880
 8258SOL    HW236411   1.628   0.417   4.006  4.1420 -0.4075 -0.6472
 8259SOL     OW36412   1.530   1.447  13.004 -0.3682 -0.2682 -0.2726
 8259SOL    HW136413   1.461   1.402  13.053 -1.2174  1.9419  0.5646
 8259SOL    HW236414   1.576   1.372  12.967 -1.5940 -1.4559  0.5920
 8260SOL     OW36415   3.199   1.730   3.869 -0.0395  0.3143  0.1764
 8260SOL    HW136416   3.187   1.796   3.801 -0.6072 -2.9818 -2.9713
 8260SOL    HW236417   3.114   1.686   3.869  0.5008 -0.7314 -0.1094
 8261SOL     OW36418   0.937   4.092   4.270 -0.3091 -1.0083  0.4372
 8261SOL    HW136419   0.864   4.109   4.209 -0.2322 -1.8772  0.1078
 8261SOL    HW236420   0.937   4.178   4.312 -0.1626 -0.0123 -1.6049
 8262SOL     OW36421   2.171   2.886  12.437 -0.0035  0.3288  0.1863
 8262SOL    HW136422   2.078   2.884  12.413  0.1870  0.9506 -0.6075
 8262SOL    HW236423   2.165   2.936  12.518  0.9483  0.2072  0.3339
 8263SOL     OW36424   3.226   0.176   7.751 -0.0765 -0.1010 -0.1115
 8263SOL    HW136425   3.254   0.142   7.836 -2.2066  0.4891  0.8355
 8263SOL    HW236426   3.256   0.103   7.697 -0.6961 -2.8478  3.2023
 8264SOL     OW36427   0.598   2.175   5.138  0.0994 -0.1027  0.0682
 8264SOL    HW136428   0.551   2.200   5.059  1.6077  3.1392  0.2011
 8264SOL    HW236429   0.678   2.225   5.129 -0.9817  1.6806  0.4220
 8265SOL     OW36430   3.205   1.980   9.046  0.0913 -0.5047  0.3284
 8265SOL    HW136431   3.113   2.007   9.040 -0.1554 -1.4171  0.0101
 8265SOL    HW236432   3.239   2.063   9.012 -0.6549  0.6748  2.4627
 8266SOL     OW36433   1.638   1.174   3.188  0.6081 -0.1819  0.0547
 8266SOL    HW136434   1.704   1.235   3.223 -0.0708  2.5515 -3.4359
 8266SOL    HW236435   1.639   1.223   3.106 -1.2309 -0.9881 -0.4346
 8267SOL     OW36436   4.544   4.287  15.148  0.5452  0.5501  0.2436
 8267SOL    HW136437   4.509   4.270  15.060 -0.3252 -0.5330  0.7915
 8267SOL    HW236438   4.632   4.250  15.146  0.1994 -0.3219  0.9007
 8268SOL     OW36439   0.914   1.831   3.119  0.6409  0.0694  0.0216
 8268SOL    HW136440   0.959   1.909   3.153  0.5811  0.6371 -1.2043
 8268SOL    HW236441   0.985   1.766   3.115  0.5098 -0.0150 -0.8833
 8269SOL     OW36442   1.008   1.578   6.187 -0.0819  0.3294  0.4262
 8269SOL    HW136443   0.952   1.520   6.134 -1.6068  1.5418  0.7083
 8269SOL    HW236444   1.019   1.532   6.270  0.4199 -1.8178 -0.8333
 8270SOL     OW36445   3.346   4.099   4.637 -0.4296 -0.0523  0.2354
 8270SOL    HW136446   3.267   4.046   4.625 -0.9710  0.3048  2.2233
 8270SOL    HW236447   3.375   4.110   4.546 -1.0227 -1.2686 -0.1006
 8271SOL     OW36448   4.091   3.181   4.793 -0.0737  0.9165 -1.5063
 8271SOL    HW136449   4.175   3.137   4.776 -1.6070 -1.8398 -2.0479
 8271SOL    HW236450   4.106   3.222   4.878 -0.6796  1.0348 -1.4581
 8272SOL     OW36451   4.352   0.704   2.144 -0.5735 -0.7511 -0.4798
 8272SOL    HW136452   4.325   0.766   2.077 -1.4454  1.6967  2.0922
 8272SOL    HW236453   4.436   0.670   2.114  0.1794 -0.0027  0.7691
 8273SOL     OW36454   3.121   1.159   1.396  0.3159  0.4399  0.0703
 8273SOL    HW136455   3.055   1.091   1.381  1.3144 -0.1208 -1.7847
 8273SOL    HW236456   3.099   1.216   1.323 -2.6668 -2.0193 -0.9647
 8274SOL     OW36457   1.623   2.088   7.474  0.9669 -0.5386  0.3692
 8274SOL    HW136458   1.628   2.023   7.544  1.6323 -1.5073 -0.5689
 8274SOL    HW236459   1.606   2.173   7.513  0.4702 -0.0524 -0.9021
 8275SOL     OW36460   4.416   0.713   6.438 -0.3395 -0.1924 -0.5377
 8275SOL    HW136461   4.344   0.751   6.387  0.5465  1.0831 -0.8376
 8275SOL    HW236462   4.372   0.692   6.520  4.0568 -2.6173  1.1976
 8276SOL     OW36463   2.741   2.483   8.742 -0.6731  0.2849 -0.3896
 8276SOL    HW136464   2.715   2.565   8.783 -0.5203  0.0907  0.0990
 8276SOL    HW236465   2.725   2.503   8.650 -0.6120  1.9897 -0.0204
 8277SOL     OW36466   3.539   4.392  11.756  0.0723  0.0678 -0.1063
 8277SOL    HW136467   3.472   4.421  11.694  1.0065  1.6901 -0.3503
 8277SOL    HW236468   3.575   4.322  11.701 -2.1641  1.6716 -3.5941
 8278SOL     OW36469   1.519   2.693   1.905  0.1352  0.0495  0.2517
 8278SOL    HW136470   1.474   2.664   1.984 -1.6109 -1.6358 -1.3542
 8278SOL    HW236471   1.451   2.751   1.871 -0.3456 -1.0460 -0.6616
 8279SOL     OW36472   2.551   3.008   8.569 -0.4626 -0.5767  0.2732
 8279SOL    HW136473   2.584   3.095   8.594  0.7565 -0.9235 -0.1375
 8279SOL    HW236474   2.505   3.027   8.487  1.0539  1.0333 -0.2137
 8280SOL     OW36475   1.667   2.741   7.353  0.3111  0.2370 -0.5288
 8280SOL    HW136476   1.748   2.751   7.303  0.8565  3.4007  0.9802
 8280SOL    HW236477   1.650   2.832   7.378  0.1656  0.0018  0.2193
 8281SOL     OW36478   4.012   2.073   8.417 -0.3810 -0.4870  0.4522
 8281SOL    HW136479   3.950   2.094   8.348 -1.3636 -1.6565  0.9886
 8281SOL    HW236480   4.031   2.162   8.446  0.2863 -1.2429  2.3825
 8282SOL     OW36481   0.852   3.524   9.644  0.5115 -0.3370 -0.1375
 8282SOL    HW136482   0.824   3.615   9.634 -2.1437 -1.4171 -2.4791
 8282SOL    HW236483   0.788   3.476   9.592 -0.2229  1.7721 -1.1699
 8283SOL     OW36484   2.727   2.742   2.076 -1.1053 -0.3351 -0.1395
 8283SOL    HW136485   2.632   2.758   2.070 -0.6508  2.4964  0.3022
 8283SOL    HW236486   2.754   2.825   2.037 -0.5345  0.2262  1.4542
 8284SOL     OW36487   0.843   1.890  12.625  0.2968 -0.4701 -0.0606
 8284SOL    HW136488   0.881   1.834  12.692 -0.0478 -2.3690 -1.4497
 8284SOL    HW236489   0.871   1.979  12.649 -1.6130  1.2535 -4.2264
 8285SOL     OW36490   3.206   1.925   4.393 -0.1661 -0.4136 -0.3420
 8285SOL    HW136491   3.214   1.916   4.488 -1.9817  0.9081 -0.0731
 8285SOL    HW236492   3.111   1.934   4.388 -0.1549 -0.9906 -1.7006
 8286SOL     OW36493   2.927   2.167   9.540  0.1581 -0.2447  0.0775
 8286SOL    HW136494   2.957   2.093   9.488 -0.3314 -1.0184  0.9078
 8286SOL    HW236495   3.000   2.176   9.601 -0.6844 -1.1008  1.1998
 8287SOL     OW36496   3.224   3.441   7.824 -0.5676 -0.1237  0.2933
 8287SOL    HW136497   3.207   3.433   7.730 -3.6365  0.6760  0.7884
 8287SOL    HW236498   3.303   3.496   7.821 -1.0553  0.5363 -0.5652
 8288SOL     OW36499   2.937   0.610   7.764 -0.3545 -0.1729 -0.3021
 8288SOL    HW136500   3.013   0.592   7.819 -1.8226 -0.8235  1.5183
 8288SOL    HW236501   2.862   0.612   7.823 -0.2614  2.4096 -0.2640
 8289SOL     OW36502   1.413   3.616   3.346  0.6312  0.4024  0.4798
 8289SOL    HW136503   1.392   3.560   3.271 -0.1721 -0.0625  1.0423
 8289SOL    HW236504   1.451   3.543   3.396  0.6933  0.3186  0.3114
 8290SOL     OW36505   1.627   0.299  10.968 -0.0626  0.1736 -0.1080
 8290SOL    HW136506   1.599   0.325  11.056 -0.4363  0.5328 -0.3346
 8290SOL    HW236507   1.721   0.315  10.984  0.1819 -1.6854  0.2960
 8291SOL     OW36508   3.839   0.368   5.593  0.3724  0.1311  0.0741
 8291SOL    HW136509   3.906   0.396   5.529 -1.1493  2.6986 -0.3826
 8291SOL    HW236510   3.882   0.303   5.648  1.2014 -1.9423 -2.9820
 8292SOL     OW36511   4.432   2.369   0.414  0.1246  0.8876 -0.0642
 8292SOL    HW136512   4.485   2.426   0.469  3.1664 -0.9704 -1.0977
 8292SOL    HW236513   4.343   2.390   0.443 -1.3935 -1.1906 -3.1577
 8293SOL     OW36514   0.953   4.310  13.154 -0.0094  0.6627  0.2036
 8293SOL    HW136515   1.043   4.312  13.120  0.6846  0.1498  1.9757
 8293SOL    HW236516   0.951   4.397  13.194  2.1975  1.3087 -1.1106
 8294SOL     OW36517   3.225   2.737   2.161 -0.3203 -0.0276 -0.0178
 8294SOL    HW136518   3.130   2.748   2.169 -0.4632 -0.3436 -1.2826
 8294SOL    HW236519   3.246   2.698   2.246  0.5265 -0.6491 -0.5088
 8295SOL     OW36520   2.406   4.514   0.548  0.0441  0.4026 -0.2676
 8295SOL    HW136521   2.399   4.604   0.580  1.1958  1.2976 -2.5380
 8295SOL    HW236522   2.494   4.493   0.580  0.2356  2.5670  0.6256
 8296SOL     OW36523   4.390   1.693   1.561  0.2858  0.0907 -0.2016
 8296SOL    HW136524   4.359   1.606   1.585 -1.9342  0.3829 -1.9842
 8296SOL    HW236525   4.400   1.745   1.640 -0.0098 -1.0162  0.5557
 8297SOL     OW36526   4.551   0.367   3.570  0.1632 -0.6217  0.0296
 8297SOL    HW136527   4.561   0.282   3.613 -1.6267 -0.7913  0.1099
 8297SOL    HW236528   4.530   0.427   3.641  1.2163 -0.1242 -0.0739
 8298SOL     OW36529   0.258   2.343   4.556 -0.0627  0.4657 -0.0994
 8298SOL    HW136530   0.314   2.271   4.585 -0.0240  0.4319 -0.2636
 8298SOL    HW236531   0.325   2.409   4.536  1.0228 -1.2801 -2.1805
 8299SOL     OW36532   3.751   4.428   1.906  0.0329 -0.5780 -0.4097
 8299SOL    HW136533   3.818   4.463   1.847 -2.1648  3.1046 -0.7412
 8299SOL    HW236534   3.713   4.511   1.933  1.0291 -0.7400  1.4758
 8300SOL     OW36535   2.526   4.656   9.670 -0.4029 -1.2454  0.1839
 8300SOL    HW136536   2.526   4.669   9.765  0.3086  1.2456 -0.1521
 8300SOL    HW236537   2.620   4.642   9.657 -0.6835 -0.7366 -2.3351
 8301SOL     OW36538   0.843   2.769   9.188 -0.0882 -0.0362  0.0991
 8301SOL    HW136539   0.882   2.682   9.185 -1.3160 -0.5597 -0.4211
 8301SOL    HW236540   0.919   2.824   9.169  0.1125 -0.9304 -1.6262
 8302SOL     OW36541   2.894   0.702  15.792 -0.3473  0.0421  0.2387
 8302SOL    HW136542   2.960   0.658  15.846  0.7169  0.8213 -0.4399
 8302SOL    HW236543   2.934   0.703  15.705  0.5801 -0.0300  0.6609
 8303SOL     OW36544   4.697   3.088   2.192 -0.0023 -0.4634  0.0981
 8303SOL    HW136545   4.714   2.997   2.167 -1.3285 -0.9193  0.8082
 8303SOL    HW236546   4.730   3.081   2.282 -0.1050 -1.9024  0.0311
 8304SOL     OW36547   1.932   2.213  15.760 -0.1832 -0.1090  0.2113
 8304SOL    HW136548   1.917   2.259  15.843  3.2169 -1.5508  1.6461
 8304SOL    HW236549   1.977   2.280  15.709  1.2502 -1.6602 -0.5574
 8305SOL     OW36550   0.347   1.894   3.028  0.4363 -0.1727 -0.2368
 8305SOL    HW136551   0.401   1.825   2.990  1.0141  0.0200  0.2409
 8305SOL    HW236552   0.360   1.972   2.973  0.7786 -0.8053 -1.0428
 8306SOL     OW36553   2.831   1.457  16.811 -0.0357  0.2312 -0.0529
 8306SOL    HW136554   2.873   1.419  16.734  0.3768 -1.1832  0.8798
 8306SOL    HW236555   2.762   1.515  16.777 -1.0951 -1.4886 -0.8404
 8307SOL     OW36556   3.580   1.020  11.649  0.0729  0.1162 -0.1122
 8307SOL    HW136557   3.656   0.962  11.645 -0.0886  0.0184 -1.8107
 8307SOL    HW236558   3.568   1.024  11.744  1.5445 -1.0577  0.1244
 8308SOL     OW36559   2.661   0.274   9.662  0.2009 -0.6153 -0.2315
 8308SOL    HW136560   2.719   0.349   9.647 -0.6035 -0.0229 -0.3872
 8308SOL    HW236561   2.714   0.211   9.710  0.6600 -0.7583 -0.9116
 8309SOL     OW36562   0.548   2.559   3.032  0.3336 -0.4075  0.1382
 8309SOL    HW136563   0.626   2.583   2.983 -0.7440 -1.8251 -2.2439
 8309SOL    HW236564   0.586   2.487   3.082  1.3378 -1.5882 -2.3509
 8310SOL     OW36565   3.280   2.113  16.140 -0.0484 -0.1642 -0.0455
 8310SOL    HW136566   3.271   2.191  16.196  3.7286 -0.1679  0.5667
 8310SOL    HW236567   3.261   2.041  16.199 -0.4203  1.0541  1.3311
 8311SOL     OW36568   3.452   3.624  10.513 -0.2300 -0.3141  0.5977
 8311SOL    HW136569   3.511   3.565  10.467 -0.0376  0.7042 -0.4552
 8311SOL    HW236570   3.408   3.562  10.573  0.2649 -2.2412 -1.0514
 8312SOL     OW36571   0.228   1.795   1.716  0.0373  0.0124 -0.5503
 8312SOL    HW136572   0.233   1.890   1.706  1.0528  0.0062 -0.1446
 8312SOL    HW236573   0.135   1.786   1.699 -0.3443 -1.3192  2.1915
 8313SOL     OW36574   0.766   0.774   8.154  0.1473 -0.2341  0.0505
 8313SOL    HW136575   0.765   0.840   8.086 -0.6608  1.9845  2.2140
 8313SOL    HW236576   0.746   0.824   8.233  1.0870 -0.1573  0.2378
 8314SOL     OW36577   0.832   2.311   0.357 -0.3807 -0.4849  0.0472
 8314SOL    HW136578   0.807   2.386   0.302  0.3672 -1.1477 -1.2031
 8314SOL    HW236579   0.746   2.296   0.396 -0.0582 -0.1826  0.8628
 8315SOL     OW36580   3.895   0.893  10.752 -0.4417 -0.4698  0.1826
 8315SOL    HW136581   3.921   0.964  10.694 -0.5437 -0.4621  0.1466
 8315SOL    HW236582   3.859   0.944  10.825  1.2216 -1.8155  1.9710
 8316SOL     OW36583   1.986   3.567  11.763  0.2113  0.4353 -0.3247
 8316SOL    HW136584   1.909   3.603  11.807  1.3591  0.9658  1.2424
 8316SOL    HW236585   1.990   3.613  11.679  0.4753  2.6406  0.8904
 8317SOL     OW36586   2.995   1.365   6.733 -0.5714  0.1885 -0.2422
 8317SOL    HW136587   2.931   1.294   6.730  2.2133 -2.4283  1.9891
 8317SOL    HW236588   2.943   1.439   6.704 -3.3729 -1.1653  1.3029
 8318SOL     OW36589   4.333   3.046   2.375 -0.7833 -0.1433  0.0905
 8318SOL    HW136590   4.392   2.992   2.427 -0.0071  2.9555  2.3840
 8318SOL    HW236591   4.307   3.113   2.437  0.2869  0.5455 -0.2008
 8319SOL     OW36592   3.151   0.680  10.125 -0.1838  0.0720 -0.2155
 8319SOL    HW136593   3.190   0.617  10.186 -1.3786 -3.6196 -3.3027
 8319SOL    HW236594   3.181   0.634  10.047  1.2611  0.0080  0.3723
 8320SOL     OW36595   2.494   3.673   4.096  0.7249 -1.0176 -0.0222
 8320SOL    HW136596   2.463   3.729   4.167 -0.5938  0.2979 -1.6398
 8320SOL    HW236597   2.533   3.741   4.041  2.2964 -1.7522  0.2021
 8321SOL     OW36598   1.922   0.412   8.190  0.1564 -0.2410  0.5386
 8321SOL    HW136599   1.854   0.423   8.257 -1.1197  1.8134 -1.1050
 8321SOL    HW236600   1.999   0.394   8.243 -0.3337 -1.1628  0.9426
 8322SOL     OW36601   3.224   4.486   6.869  0.0333  0.1682 -0.4194
 8322SOL    HW136602   3.260   4.489   6.780 -0.0110 -2.9994 -0.5530
 8322SOL    HW236603   3.292   4.431   6.909  0.5456  1.2033  0.1362
 8323SOL     OW36604   2.688   2.844   3.742  0.1882  0.4189  0.3168
 8323SOL    HW136605   2.769   2.793   3.732  0.0093  0.0735  0.6376
 8323SOL    HW236606   2.662   2.859   3.651 -1.2095 -4.4356 -0.0923
 8324SOL     OW36607   1.684   2.006   5.044  0.0313 -0.0003  0.1455
 8324SOL    HW136608   1.664   2.011   5.137  0.2156  1.9798  0.0754
 8324SOL    HW236609   1.611   1.953   5.012  0.1240 -0.4121  0.6192
 8325SOL     OW36610   0.524   0.279   5.689 -0.4676  0.0306  0.3848
 8325SOL    HW136611   0.514   0.226   5.610  0.3141 -0.0429  0.3353
 8325SOL    HW236612   0.457   0.244   5.747 -2.2438 -1.4165 -2.5359
 8326SOL     OW36613   3.556   2.424  17.303  0.4211  0.7511  0.3758
 8326SOL    HW136614   3.526   2.363  17.371 -0.1409  1.5363  0.8363
 8326SOL    HW236615   3.544   2.362  17.231 -0.2261  0.4828  0.7081
 8327SOL     OW36616   2.406   3.477   2.354  0.2402 -0.0153 -0.0391
 8327SOL    HW136617   2.455   3.447   2.278  1.4706  2.1022 -0.0726
 8327SOL    HW236618   2.338   3.534   2.318 -1.1849 -1.3511  0.4929
 8328SOL     OW36619   3.097   4.051  10.859  0.1606  0.4398 -0.7401
 8328SOL    HW136620   3.146   4.116  10.910  0.6101 -1.1366  0.8304
 8328SOL    HW236621   3.046   4.113  10.807 -1.4623 -1.8141 -1.8063
 8329SOL     OW36622   4.444   1.012   6.449 -0.5747  0.1337  0.1468
 8329SOL    HW136623   4.361   0.988   6.407 -0.6337  1.5983 -0.6076
 8329SOL    HW236624   4.470   1.068   6.375 -0.3942  1.2383  1.0409
 8330SOL     OW36625   0.015   0.241   7.570 -0.3447  0.1106 -0.2034
 8330SOL    HW136626   0.046   0.161   7.612 -2.2832  0.0843  1.1921
 8330SOL    HW236627   4.732   0.299   7.644 -2.0692  0.0126 -0.5382
 8331SOL     OW36628   2.694   1.656  12.383  0.5326 -0.3630 -0.2040
 8331SOL    HW136629   2.771   1.677  12.436  1.7881 -1.7743 -1.4924
 8331SOL    HW236630   2.710   1.564  12.362  1.7394 -0.5194  1.4056
 8332SOL     OW36631   1.078   1.292   7.904  0.0281 -0.5902 -0.7359
 8332SOL    HW136632   1.130   1.220   7.940 -1.5519 -1.7182 -0.7457
 8332SOL    HW236633   0.993   1.250   7.907 -0.3582  0.2002 -0.6317
 8333SOL     OW36634   4.104   0.266  14.663  0.3137 -0.1797 -0.1419
 8333SOL    HW136635   4.053   0.332  14.616  0.0577 -0.3029 -0.0316
 8333SOL    HW236636   4.145   0.238  14.581 -0.4746  3.5616 -1.8082
 8334SOL     OW36637   3.788   2.318   8.542  0.4769  0.5690 -0.1657
 8334SOL    HW136638   3.760   2.355   8.626 -0.5447 -1.0236  0.2068
 8334SOL    HW236639   3.712   2.265   8.519  0.6954  1.4059 -2.7993
 8335SOL     OW36640   3.209   1.175   9.235  0.0735 -0.5332 -0.3877
 8335SOL    HW136641   3.281   1.206   9.181 -1.3570  0.9890 -1.4241
 8335SOL    HW236642   3.194   1.238   9.306 -0.6319  0.1922 -1.1778
 8336SOL     OW36643   4.604   2.734  14.439 -0.5485 -0.0595 -0.2238
 8336SOL    HW136644   4.669   2.703  14.376  0.6552  2.6460 -0.3165
 8336SOL    HW236645   4.567   2.650  14.467 -1.5515  0.7456  0.8751
 8337SOL     OW36646   1.595   0.637   3.691  0.1708 -0.4909 -0.2777
 8337SOL    HW136647   1.586   0.546   3.718 -0.0915 -0.3591  0.0785
 8337SOL    HW236648   1.507   0.665   3.663  0.6211  2.2063  1.0592
 8338SOL     OW36649   0.378   1.140   7.139  0.0900 -0.1029  0.1726
 8338SOL    HW136650   0.441   1.193   7.090 -1.5171  0.9387 -0.7714
 8338SOL    HW236651   0.378   1.058   7.089  0.0120 -0.3584  0.5919
 8339SOL     OW36652   0.584   2.620   8.341  0.9306 -0.1076  0.5139
 8339SOL    HW136653   0.675   2.645   8.361  0.5240  0.8415  1.2038
 8339SOL    HW236654   0.597   2.561   8.268 -0.1811  0.8405 -0.4437
 8340SOL     OW36655   4.700   4.261   5.694  0.4436 -0.0340 -0.6821
 8340SOL    HW136656   4.687   4.266   5.789 -0.6928  2.0570 -0.9412
 8340SOL    HW236657   0.045   4.314   5.694  1.1119 -1.0520  0.1910
 8341SOL     OW36658   0.300   1.221   4.981  0.1648  0.0769 -0.3880
 8341SOL    HW136659   0.225   1.206   4.923 -1.3761 -2.8272  2.3350
 8341SOL    HW236660   0.288   1.316   4.986 -1.0512 -0.2606  2.9789
 8342SOL     OW36661   2.887   2.244   1.948 -0.3847  0.5068 -0.4298
 8342SOL    HW136662   2.981   2.230   1.939 -0.2958  1.5588 -1.1603
 8342SOL    HW236663   2.872   2.337   1.929  0.6502  0.8157  0.2585
 8343SOL     OW36664   2.718   0.230   0.945 -0.4808 -0.3709 -0.3031
 8343SOL    HW136665   2.642   0.183   0.979 -1.4400  0.4609 -1.3014
 8343SOL    HW236666   2.769   0.264   1.019  0.8299 -0.0375 -1.3481
 8344SOL     OW36667   1.355   0.840   4.175  1.1246  0.2796 -0.0374
 8344SOL    HW136668   1.364   0.880   4.088  0.8742  0.0916 -0.1511
 8344SOL    HW236669   1.341   0.918   4.228 -1.9299  0.2894 -0.8454
 8345SOL     OW36670   0.095   0.651   3.749  0.1125  0.0524 -0.3998
 8345SOL    HW136671   0.059   0.592   3.815 -1.0452  0.1213 -0.9750
 8345SOL    HW236672   0.015   0.703   3.739 -0.2269 -0.1114  1.5033
 8346SOL     OW36673   3.492   2.514   9.668  0.1585 -0.2787  0.6087
 8346SOL    HW136674   3.569   2.468   9.635  1.6361  2.3081  0.4564
 8346SOL    HW236675   3.412   2.473   9.633  0.3189  0.2555 -0.4002
 8347SOL     OW36676   0.111   2.850   3.934 -0.1485 -0.1461 -1.0071
 8347SOL    HW136677   0.080   2.913   3.999  1.3628 -0.1525 -0.3016
 8347SOL    HW236678   0.075   2.766   3.963 -0.1747  0.2244  0.0314
 8348SOL     OW36679   2.854   1.972   8.807 -0.1336 -0.2813  0.6358
 8348SOL    HW136680   2.795   1.897   8.813 -0.2743 -0.0597  2.0443
 8348SOL    HW236681   2.861   1.984   8.713 -0.9147 -1.4665  0.4283
 8349SOL     OW36682   0.716   0.751   9.802  0.0784  0.0332  0.2403
 8349SOL    HW136683   0.754   0.666   9.781 -2.4856 -1.2049  0.6417
 8349SOL    HW236684   0.628   0.734   9.769  0.1002  2.0176 -0.8867
 8350SOL     OW36685   3.535   3.813   1.716 -0.1692  0.0905  0.3057
 8350SOL    HW136686   3.598   3.796   1.786 -1.0009  0.5073  1.1581
 8350SOL    HW236687   3.477   3.878   1.756 -0.3707 -0.9425  1.6885
 8351SOL     OW36688   1.826   2.091   6.393 -0.4488  0.3557 -0.1146
 8351SOL    HW136689   1.851   2.047   6.474  0.0517 -2.1235 -1.6162
 8351SOL    HW236690   1.806   2.016   6.338  0.5407  0.8750 -1.1897
 8352SOL     OW36691   1.135   2.263   4.284 -0.7632 -0.2849  0.1424
 8352SOL    HW136692   1.204   2.201   4.305 -0.8191 -0.3542  0.1221
 8352SOL    HW236693   1.114   2.215   4.204  2.4230  1.0958 -1.5157
 8353SOL     OW36694   2.980   2.819  12.971 -0.3587 -0.7890  0.1986
 8353SOL    HW136695   2.960   2.843  12.881  3.0242  1.1074 -0.0159
 8353SOL    HW236696   3.057   2.874  12.981 -0.5398 -0.3735 -0.7338
 8354SOL     OW36697   3.236   2.655   2.412 -0.0034  0.0333 -0.4287
 8354SOL    HW136698   3.265   2.570   2.378  0.6911 -0.3304  1.0811
 8354SOL    HW236699   3.293   2.680   2.485  2.3154  0.8922 -2.5327
 8355SOL     OW36700   0.279   0.491   3.619  0.4660 -0.1064 -0.4029
 8355SOL    HW136701   0.268   0.491   3.524  0.9946  0.4543 -0.4667
 8355SOL    HW236702   0.213   0.549   3.656 -3.1011 -3.5510 -1.3398
 8356SOL     OW36703   2.886   1.602  15.406 -0.2050  0.3562  0.0268
 8356SOL    HW136704   2.809   1.613  15.462 -0.5159 -0.3661 -0.2606
 8356SOL    HW236705   2.959   1.580  15.465 -0.0873 -0.0391 -0.2648
 8357SOL     OW36706   0.673   3.042  11.792  0.2183 -0.1262  0.5955
 8357SOL    HW136707   0.633   2.976  11.735 -1.0506  2.2527 -1.2442
 8357SOL    HW236708   0.589   3.084  11.812 -0.3701 -0.7409 -0.5841
 8358SOL     OW36709   3.428   4.186  10.471 -0.6618  0.6080 -0.3307
 8358SOL    HW136710   3.352   4.199  10.415 -0.0367 -0.4300 -1.4451
 8358SOL    HW236711   3.410   4.095  10.495  0.3783 -0.2454 -2.6893
 8359SOL     OW36712   4.338   2.819   1.620  0.4722 -0.3565  0.1355
 8359SOL    HW136713   4.385   2.772   1.689 -2.5398 -0.3699  2.2194
 8359SOL    HW236714   4.250   2.781   1.633  0.5134 -0.1611  1.0285
 8360SOL     OW36715   4.479   1.783  16.013  0.1316  0.3440 -0.0498
 8360SOL    HW136716   4.557   1.789  16.069  0.5097 -1.3788 -0.3649
 8360SOL    HW236717   4.426   1.844  16.063 -1.6145 -1.6771  0.5868
 8361SOL     OW36718   2.282   3.519  11.751 -0.4923  0.2305 -0.4722
 8361SOL    HW136719   2.210   3.581  11.746  0.4144  1.5265  2.7177
 8361SOL    HW236720   2.281   3.486  11.840 -0.4355 -0.5993 -0.7800
 8362SOL     OW36721   2.977   4.731  16.945 -0.1017 -0.5020 -0.2103
 8362SOL    HW136722   2.900   4.676  16.956 -0.7411  0.3101 -0.6400
 8362SOL    HW236723   3.002   4.729  16.853 -1.4029 -1.6933 -0.5364
 8363SOL     OW36724   3.089   0.329   7.413 -0.1138 -1.1346 -0.0634
 8363SOL    HW136725   3.028   0.265   7.449 -0.0602  0.5479  2.9457
 8363SOL    HW236726   3.143   0.267   7.364  0.7423 -1.2975  1.1134
 8364SOL     OW36727   4.244   0.309  14.893 -0.2683 -0.3385  0.1636
 8364SOL    HW136728   4.195   0.273  14.818 -0.8949 -0.8900  0.8400
 8364SOL    HW236729   4.331   0.322  14.855 -0.5387  2.1627  0.3858
 8365SOL     OW36730   2.578   1.567   2.016  0.4368 -0.4339  0.0593
 8365SOL    HW136731   2.577   1.472   2.027 -4.3516 -0.0214  3.3258
 8365SOL    HW236732   2.614   1.583   1.929 -0.2387  0.0389 -0.1350
 8366SOL     OW36733   2.741   3.151  15.960  0.6614  0.3355 -0.1853
 8366SOL    HW136734   2.775   3.238  15.981 -0.0553  0.8521 -1.1804
 8366SOL    HW236735   2.821   3.099  15.966 -0.2624 -0.8265  2.4051
 8367SOL     OW36736   0.862   3.323   5.528  0.0722 -0.3657  0.0574
 8367SOL    HW136737   0.939   3.299   5.579  0.1987  2.0601  1.0010
 8367SOL    HW236738   0.795   3.321   5.597 -0.3707 -0.8875 -0.3900
 8368SOL     OW36739   1.502   2.627   9.171 -0.8200  0.1141 -0.1121
 8368SOL    HW136740   1.540   2.670   9.248  0.3823  0.7376 -1.0699
 8368SOL    HW236741   1.530   2.680   9.097  0.1881 -0.3668 -0.0816
 8369SOL     OW36742   2.045   4.037   1.594  0.5781  0.0724  0.5340
 8369SOL    HW136743   2.118   3.987   1.631  1.2683  0.7168  0.0662
 8369SOL    HW236744   1.996   3.962   1.560  1.0568  0.8435 -1.8976
 8370SOL     OW36745   3.269   0.421   8.832  0.4243 -0.4021  0.2279
 8370SOL    HW136746   3.346   0.450   8.882  0.5788  0.0934 -0.2876
 8370SOL    HW236747   3.236   0.504   8.798  1.5485  0.0226  0.1536
 8371SOL     OW36748   0.952   4.560  13.254 -0.6078 -0.4785 -0.8045
 8371SOL    HW136749   0.872   4.593  13.295 -0.6083  0.0455 -1.2397
 8371SOL    HW236750   1.009   4.636  13.243 -2.0733  0.9212  1.5277
 8372SOL     OW36751   2.608   4.252  10.572  0.7865 -0.2061  0.4660
 8372SOL    HW136752   2.516   4.225  10.569  0.1798  1.8310  0.8973
 8372SOL    HW236753   2.643   4.163  10.562  1.1594  0.0479 -0.5176
 8373SOL     OW36754   2.525   0.152   4.132 -0.1090  0.1946  0.0235
 8373SOL    HW136755   2.581   0.113   4.199  0.5974 -0.5558 -1.0159
 8373SOL    HW236756   2.539   0.086   4.064 -0.8434 -0.2425  0.2920
 8374SOL     OW36757   0.600   3.447   4.219 -0.6378 -0.4439 -0.0709
 8374SOL    HW136758   0.670   3.419   4.277  2.0906  2.0610 -2.1806
 8374SOL    HW236759   0.577   3.535   4.247 -2.4850 -1.3322  1.2197
 8375SOL     OW36760   2.080   4.239  16.816  0.2622 -0.1460 -0.1046
 8375SOL    HW136761   2.101   4.153  16.853  1.2884 -0.4347 -1.3768
 8375SOL    HW236762   1.985   4.231  16.804  0.0478  3.1551 -0.4973
 8376SOL     OW36763   2.057   1.664   9.228  0.2895  0.3405 -0.0080
 8376SOL    HW136764   2.135   1.713   9.201  0.9526 -0.9518 -0.4760
 8376SOL    HW236765   2.011   1.666   9.144 -1.3697 -0.4080  0.8942
 8377SOL     OW36766   3.313   1.458  13.801  0.1687 -0.1514  0.4069
 8377SOL    HW136767   3.251   1.523  13.765  0.4776 -0.3924 -0.5680
 8377SOL    HW236768   3.333   1.493  13.887 -0.4389  0.2350  0.3904
 8378SOL     OW36769   0.931   4.330   4.438  0.3649 -0.4157  0.0918
 8378SOL    HW136770   0.878   4.407   4.416  0.5847  0.4083  2.4708
 8378SOL    HW236771   0.925   4.322   4.533  0.3160  1.8967  0.2960
 8379SOL     OW36772   2.647   0.733  15.873  0.3290 -0.9901 -0.4974
 8379SOL    HW136773   2.741   0.728  15.857  0.7230 -0.8734  1.8838
 8379SOL    HW236774   2.647   0.690  15.958 -1.3467 -2.0609 -1.0318
 8380SOL     OW36775   0.646   0.440  16.789 -0.0183 -0.4554 -0.2530
 8380SOL    HW136776   0.674   0.448  16.881  0.1614 -1.9001 -0.1816
 8380SOL    HW236777   0.728   0.471  16.751 -2.6649  2.4182 -3.5020
 8381SOL     OW36778   0.957   1.410   4.701 -0.5570  0.4632 -0.9956
 8381SOL    HW136779   0.885   1.459   4.662  0.3575  0.3765 -2.7938
 8381SOL    HW236780   0.967   1.330   4.649  1.0240 -1.2456  1.9267
 8382SOL     OW36781   3.733   1.298   7.110  0.2647  0.3661 -0.1957
 8382SOL    HW136782   3.746   1.384   7.150 -0.7790 -1.1409  3.3826
 8382SOL    HW236783   3.648   1.312   7.067  0.3284 -0.4026 -0.5663
 8383SOL     OW36784   1.872   1.814   2.546  0.4597  0.6986  0.1151
 8383SOL    HW136785   1.837   1.836   2.460  1.2736  0.6435 -0.2224
 8383SOL    HW236786   1.834   1.875   2.610  2.6228 -0.9212  2.9273
 8384SOL     OW36787   3.950   1.358   4.000  0.8151  0.0331  0.2623
 8384SOL    HW136788   3.855   1.364   4.007  1.0717  1.8499  2.1927
 8384SOL    HW236789   3.966   1.451   4.014  0.8808  0.0683 -0.0541
 8385SOL     OW36790   2.167   3.547   7.655 -0.2841  0.2337 -0.4008
 8385SOL    HW136791   2.101   3.489   7.619 -0.1031 -0.8488  1.0005
 8385SOL    HW236792   2.250   3.505   7.631 -0.4962  0.1530 -0.9983
 8386SOL     OW36793   2.880   4.025   1.790  0.5393  0.7164 -0.2091
 8386SOL    HW136794   2.932   4.054   1.865  2.1267 -0.8801 -0.6890
 8386SOL    HW236795   2.896   3.931   1.791  0.4850  0.7080  0.0142
 8387SOL     OW36796   3.517   3.400   9.669 -0.2075  0.1419  0.2554
 8387SOL    HW136797   3.555   3.478   9.709  1.5283 -0.8628  0.6019
 8387SOL    HW236798   3.554   3.331   9.725  0.4465 -0.5941 -1.0770
 8388SOL     OW36799   0.674   3.097   7.432  0.1371  0.1570 -0.0163
 8388SOL    HW136800   0.686   3.112   7.338  1.2453  0.6284  0.1969
 8388SOL    HW236801   0.696   3.006   7.452 -0.0654  0.3721  1.1963
 8389SOL     OW36802   2.840   2.991   4.610 -0.1400 -0.1622  0.4849
 8389SOL    HW136803   2.809   3.075   4.577 -0.6931 -0.6228 -0.1583
 8389SOL    HW236804   2.760   2.977   4.661 -0.5009  0.9221  0.2298
 8390SOL     OW36805   3.925   4.494   1.006 -0.0994 -0.0764 -0.2988
 8390SOL    HW136806   3.900   4.586   1.004  0.4334  0.0470 -1.8167
 8390SOL    HW236807   3.987   4.484   0.933  1.8285 -1.3481  1.4920
 8391SOL     OW36808   1.075   1.888   8.060 -0.3430  0.6203  0.2689
 8391SOL    HW136809   1.092   1.843   7.976 -1.1496 -0.4610  0.6833
 8391SOL    HW236810   1.030   1.822   8.113 -1.9477 -0.2726 -2.1957
 8392SOL     OW36811   2.974   0.430  10.961  0.1362 -0.2587 -0.0240
 8392SOL    HW136812   2.935   0.496  10.904  2.1889  0.7054 -0.2991
 8392SOL    HW236813   3.066   0.454  10.961  0.3081 -0.9159  2.3117
 8393SOL     OW36814   4.465   3.048   1.745  0.2439 -0.1606  0.1227
 8393SOL    HW136815   4.514   3.044   1.663 -1.7781 -1.2238 -1.0264
 8393SOL    HW236816   4.400   2.980   1.730 -0.3660  0.0376  1.8145
 8394SOL     OW36817   4.025   2.467   1.894 -1.0191 -0.1065 -0.1812
 8394SOL    HW136818   4.087   2.395   1.878 -0.0749  0.3015  1.5809
 8394SOL    HW236819   4.086   2.537   1.918 -1.3413  0.7377 -1.8441
 8395SOL     OW36820   2.126   1.497   5.325 -0.4495 -0.3008  0.6863
 8395SOL    HW136821   2.197   1.433   5.317  1.3169  1.8620 -0.9928
 8395SOL    HW236822   2.069   1.459   5.258 -0.4096  0.0197  0.4723
 8396SOL     OW36823   2.048   4.624   5.853 -0.6019  0.2036  0.4644
 8396SOL    HW136824   2.140   4.630   5.829 -0.4593  1.4970  1.3516
 8396SOL    HW236825   2.045   4.671   5.936 -0.3303  1.4993 -0.2584
 8397SOL     OW36826   3.242   4.216  10.270  0.1376  0.2100 -0.0612
 8397SOL    HW136827   3.176   4.285  10.280  1.7002  1.5914  0.7301
 8397SOL    HW236828   3.206   4.167  10.196  2.3123  0.4752 -1.2628
 8398SOL     OW36829   0.778   2.732  12.422 -0.3636 -0.1744  0.3659
 8398SOL    HW136830   0.698   2.709  12.374  1.0418 -1.8839 -1.1783
 8398SOL    HW236831   0.764   2.685  12.504  1.6487  0.3623  1.0231
 8399SOL     OW36832   3.024   2.275   7.729  0.0909 -0.4454  0.0632
 8399SOL    HW136833   2.939   2.313   7.707 -0.1840 -0.0118  1.8705
 8399SOL    HW236834   3.004   2.183   7.748  0.1957 -0.2860  0.9371
 8400SOL     OW36835   0.421   0.175  14.728 -0.1056  0.1963  0.3125
 8400SOL    HW136836   0.422   0.097  14.783  1.0835 -0.6719 -0.9412
 8400SOL    HW236837   0.509   0.210  14.734 -0.3929  0.7822  1.1132
 8401SOL     OW36838   3.387   3.895  12.460  0.3987 -0.2827  0.0446
 8401SOL    HW136839   3.308   3.841  12.454 -1.1260  2.3082 -2.5535
 8401SOL    HW236840   3.355   3.985  12.464  1.2766  0.0030  0.8149
 8402SOL     OW36841   2.601   3.037  14.179 -0.0689  0.7730 -0.4839
 8402SOL    HW136842   2.672   3.033  14.115  1.5427  0.7458  1.3080
 8402SOL    HW236843   2.593   3.133  14.177 -0.6049  0.7363 -0.2748
 8403SOL     OW36844   1.291   0.424   5.729  0.1380  0.5396 -0.7310
 8403SOL    HW136845   1.265   0.356   5.667 -1.6132 -0.2501  0.8698
 8403SOL    HW236846   1.367   0.379   5.765  0.1689  0.6389 -0.6730
 8404SOL     OW36847   3.033   4.586   2.119 -0.1026 -1.1294  0.6145
 8404SOL    HW136848   3.050   4.527   2.193  0.2336 -0.1059  1.3526
 8404SOL    HW236849   2.947   4.617   2.146  1.2755  0.7767  2.7832
 8405SOL     OW36850   2.836   0.836   4.895 -0.6957 -0.4794 -0.2350
 8405SOL    HW136851   2.912   0.895   4.897 -0.6198 -0.5164 -2.1043
 8405SOL    HW236852   2.872   0.756   4.856  0.1802 -0.7362  1.0828
 8406SOL     OW36853   1.110   1.827  13.438 -0.1556 -0.2123 -0.4452
 8406SOL    HW136854   1.159   1.840  13.519  1.8416 -1.8003 -1.3825
 8406SOL    HW236855   1.158   1.879  13.374  0.8430  0.0605  0.5220
 8407SOL     OW36856   2.640   1.986   2.953  0.1854 -0.6146  0.1513
 8407SOL    HW136857   2.629   2.043   3.029  0.1273  0.9538 -1.0302
 8407SOL    HW236858   2.709   1.927   2.982 -0.3989 -2.0803 -1.4078
 8408SOL     OW36859   4.205   0.901   5.374  0.0276  0.5339  0.1067
 8408SOL    HW136860   4.215   0.995   5.355  2.5090  0.1056 -0.6517
 8408SOL    HW236861   4.137   0.902   5.441 -0.3917 -0.0703 -0.3108
 8409SOL     OW36862   3.280   1.853   2.541  0.6063  0.4147  0.6000
 8409SOL    HW136863   3.208   1.908   2.573 -0.1888 -0.7391  0.8162
 8409SOL    HW236864   3.334   1.907   2.483  0.5955  0.5329  0.7000
 8410SOL     OW36865   2.154   1.753   3.075 -0.5499  0.1108 -0.2262
 8410SOL    HW136866   2.182   1.759   2.984 -0.4422  0.2307 -0.1855
 8410SOL    HW236867   2.203   1.824   3.117 -0.4996 -1.1702  1.8881
 8411SOL     OW36868   3.342   1.727   9.071  0.2146  0.3105 -0.3273
 8411SOL    HW136869   3.406   1.748   9.140 -1.4505  1.3347  0.9190
 8411SOL    HW236870   3.296   1.810   9.060  2.7546  1.6711 -0.6403
 8412SOL     OW36871   1.917   0.041   2.161 -0.2590 -0.1288 -0.5573
 8412SOL    HW136872   1.882   0.058   2.248 -0.8947  1.0118 -1.0413
 8412SOL    HW236873   2.002   4.734   2.175 -0.3107 -0.2625 -0.6380
 8413SOL     OW36874   0.121   0.739  14.531 -0.6324  0.7952  0.0153
 8413SOL    HW136875   0.074   0.823  14.530 -0.9234  0.6111 -2.0732
 8413SOL    HW236876   0.143   0.737  14.624  0.8648  0.7775 -0.3335
 8414SOL     OW36877   4.451   2.159   1.666 -0.3393  0.3212 -0.7735
 8414SOL    HW136878   4.546   2.154   1.670 -0.3391  2.1906  1.3059
 8414SOL    HW236879   4.451   2.149   1.571 -0.7202 -0.3283 -0.7053
 8415SOL     OW36880   1.985   2.122   0.614 -0.4438  0.0201 -0.9552
 8415SOL    HW136881   1.965   2.153   0.526  0.7087  1.8359 -0.5655
 8415SOL    HW236882   2.012   2.032   0.596 -1.4596 -0.7210  1.1870
 8416SOL     OW36883   4.514   4.346   8.478  0.1571 -0.2297 -0.7816
 8416SOL    HW136884   4.450   4.385   8.419 -2.5268 -2.5606  0.5542
 8416SOL    HW236885   4.451   4.290   8.524  0.8897  0.7404  1.3966
 8417SOL     OW36886   0.690   4.052   9.802 -0.0471 -0.7694 -0.3132
 8417SOL    HW136887   0.710   3.962   9.828  0.6805 -0.9181 -1.3762
 8417SOL    HW236888   0.719   4.044   9.711  0.8297  0.2473 -0.1104
 8418SOL     OW36889   1.718   3.542   4.336 -0.1785  0.6858 -0.6939
 8418SOL    HW136890   1.810   3.558   4.358  0.4349 -2.9051 -0.6159
 8418SOL    HW236891   1.713   3.579   4.248  0.4365 -0.5231 -1.2436
 8419SOL     OW36892   4.550   0.897  16.505  0.2196  0.2299  0.1619
 8419SOL    HW136893   4.514   0.853  16.428 -3.0811 -1.0261  2.3994
 8419SOL    HW236894   4.490   0.971  16.517 -0.1406  0.1464 -1.1434
 8420SOL     OW36895   1.094   0.419   2.774  0.0323  0.3927 -0.8021
 8420SOL    HW136896   1.132   0.356   2.713 -1.0704 -1.6768  0.6715
 8420SOL    HW236897   1.170   0.466   2.806  0.2841 -1.3312  1.1236
 8421SOL     OW36898   4.152   3.791   8.235  0.0721 -0.5606  0.1705
 8421SOL    HW136899   4.168   3.701   8.260  2.7688 -0.7303 -2.1749
 8421SOL    HW236900   4.185   3.840   8.310  0.6890  0.9008 -1.0603
 8422SOL     OW36901   0.660   0.879  16.032  0.0054 -0.6216  0.1208
 8422SOL    HW136902   0.586   0.833  16.072 -0.7127 -0.3296 -0.8530
 8422SOL    HW236903   0.630   0.967  16.051 -1.1123 -1.0739  0.4784
 8423SOL     OW36904   0.436   2.663   2.632 -0.2089  0.2867 -0.5366
 8423SOL    HW136905   0.401   2.680   2.720  0.5660 -1.1045  0.0521
 8423SOL    HW236906   0.477   2.750   2.632  0.4982 -0.0443 -0.4383
 8424SOL     OW36907   0.132   0.001   3.578  0.4708 -0.0435  0.1608
 8424SOL    HW136908   0.208   4.679   3.564  0.9206  1.2936 -2.7276
 8424SOL    HW236909   0.089   4.725   3.493  1.9158  0.3776 -0.6154
 8425SOL     OW36910   4.632   4.049   1.133 -0.6381 -0.2490  0.1162
 8425SOL    HW136911   4.616   3.956   1.152  0.3892 -0.2838  0.8208
 8425SOL    HW236912   4.574   4.073   1.061 -0.6797 -1.9869 -0.4303
 8426SOL     OW36913   2.970   1.576   1.082  0.2815 -0.2263 -0.1278
 8426SOL    HW136914   2.988   1.495   1.129 -0.5563  1.2729  2.7934
 8426SOL    HW236915   3.031   1.576   1.008 -0.8407  0.5844 -1.0634
 8427SOL     OW36916   1.182   0.213   7.578  0.4866 -0.7521 -0.0203
 8427SOL    HW136917   1.226   0.269   7.514  1.2419 -2.1119 -0.7027
 8427SOL    HW236918   1.121   0.162   7.524  1.3720 -2.0920  0.2400
 8428SOL     OW36919   1.228   1.444   4.658  0.7073 -0.3666  0.6864
 8428SOL    HW136920   1.146   1.437   4.707  0.3250 -1.0003 -0.0362
 8428SOL    HW236921   1.201   1.533   4.632 -0.1887 -0.8016  0.1289
 8429SOL     OW36922   1.720   3.170   8.729  0.5494 -0.4739  0.1427
 8429SOL    HW136923   1.783   3.229   8.771  1.0187  0.8830 -2.4754
 8429SOL    HW236924   1.779   3.138   8.660  0.1010 -2.9382  0.9435
 8430SOL     OW36925   3.259   1.276   3.756  0.0537  0.0967 -0.5363
 8430SOL    HW136926   3.196   1.311   3.819 -1.8396 -1.5899 -1.5041
 8430SOL    HW236927   3.328   1.234   3.806 -1.6311 -0.3762  1.3504
 8431SOL     OW36928   3.531   0.478   2.476 -0.2812  0.3982 -0.4419
 8431SOL    HW136929   3.551   0.550   2.535  0.3046 -2.5112  2.9414
 8431SOL    HW236930   3.567   0.508   2.392  0.8859 -0.5566 -0.2774
 8432SOL     OW36931   0.511   1.675   4.429 -0.4489 -0.6182 -0.3320
 8432SOL    HW136932   0.438   1.618   4.408 -1.3206  0.1851  0.5199
 8432SOL    HW236933   0.519   1.732   4.352 -0.2739 -0.0644  0.0904
 8433SOL     OW36934   3.668   3.546   8.666 -0.6315  0.0056 -0.2794
 8433SOL    HW136935   3.589   3.596   8.687  0.0678  0.9839  0.0238
 8433SOL    HW236936   3.638   3.456   8.676 -0.8348  0.3939  2.7167
 8434SOL     OW36937   3.663   1.052   6.784 -0.5323 -0.4766 -0.3927
 8434SOL    HW136938   3.689   1.107   6.710  1.4088 -2.3461 -1.1246
 8434SOL    HW236939   3.601   1.112   6.824  0.2920  1.2683 -1.7404
 8435SOL     OW36940   0.806   1.445   6.534  0.7497  0.2300 -0.1659
 8435SOL    HW136941   0.759   1.369   6.500 -0.8669  1.0395  0.2539
 8435SOL    HW236942   0.747   1.517   6.514 -0.2653 -0.6172 -0.2333
 8436SOL     OW36943   0.117   2.573   6.836  0.0056  0.1502  0.0253
 8436SOL    HW136944   0.032   2.531   6.842 -1.3723  3.0104  0.3675
 8436SOL    HW236945   0.175   2.499   6.856 -0.6408 -0.1019  0.9377
 8437SOL     OW36946   0.100   3.199   3.470  0.3742 -0.0417 -0.2955
 8437SOL    HW136947   0.045   3.267   3.432  0.1509 -1.0771 -1.8344
 8437SOL    HW236948   0.124   3.254   3.545 -0.3630  0.7399 -0.6349
 8438SOL     OW36949   4.063   2.848   6.841 -0.1162 -0.3352  0.4183
 8438SOL    HW136950   4.074   2.820   6.932 -1.8032 -1.6485  0.2064
 8438SOL    HW236951   4.128   2.796   6.794 -1.2343 -2.9067  1.7027
 8439SOL     OW36952   1.470   3.790  16.724  0.1774  0.3287  0.1309
 8439SOL    HW136953   1.425   3.714  16.687 -0.3550  0.5467  0.3351
 8439SOL    HW236954   1.504   3.760  16.808  0.6078  3.1209  0.9403
 8440SOL     OW36955   2.177   1.351   2.670  0.1095  0.1193  0.1655
 8440SOL    HW136956   2.215   1.405   2.740  1.3372 -0.2788 -0.1974
 8440SOL    HW236957   2.088   1.352   2.705  0.1205  2.3753  0.1112
 8441SOL     OW36958   2.971   0.383   2.797  0.4217  0.3914 -0.4439
 8441SOL    HW136959   3.013   0.456   2.843  0.5287  0.5409 -0.7814
 8441SOL    HW236960   2.925   0.343   2.871  1.2480 -0.6410 -0.4793
 8442SOL     OW36961   1.779   4.584   7.213 -0.1468  0.2653 -0.0868
 8442SOL    HW136962   1.862   4.559   7.253 -0.2877 -1.9517 -1.1837
 8442SOL    HW236963   1.754   4.650   7.278  0.1126 -1.4136  1.6839
 8443SOL     OW36964   4.012   4.302  16.414 -0.0922 -0.3309  0.5373
 8443SOL    HW136965   4.096   4.319  16.457  1.0741 -0.2339 -1.7818
 8443SOL    HW236966   3.961   4.382  16.430  0.1817 -0.5962  2.8238
 8444SOL     OW36967   0.994   0.571   9.162 -0.5181 -0.1621 -0.2836
 8444SOL    HW136968   1.011   0.660   9.131 -0.0229  0.1902  0.9590
 8444SOL    HW236969   1.061   0.564   9.231  0.6409 -0.9084 -1.4968
 8445SOL     OW36970   4.618   3.158   8.369  0.3738 -0.0493 -0.0044
 8445SOL    HW136971   4.574   3.082   8.331  0.0709 -0.2562  0.7545
 8445SOL    HW236972   4.553   3.220   8.335 -0.1491 -0.9927 -0.7391
 8446SOL     OW36973   2.991   3.647   6.077  0.3820 -0.1742  0.2771
 8446SOL    HW136974   3.010   3.555   6.059 -0.8359 -0.0558 -1.6124
 8446SOL    HW236975   3.070   3.668   6.126 -1.2190  3.4249  1.2612
 8447SOL     OW36976   3.582   1.373   2.930 -0.2006 -0.3528 -0.6227
 8447SOL    HW136977   3.647   1.339   2.867  0.4199  2.7594 -1.6777
 8447SOL    HW236978   3.615   1.461   2.947 -0.6553 -0.1766 -0.6499
 8448SOL     OW36979   0.682   4.639   8.522 -0.9397 -0.0559 -0.2864
 8448SOL    HW136980   0.712   4.657   8.434  0.5901  1.1246  0.4861
 8448SOL    HW236981   0.708   4.547   8.535 -1.0319 -0.1977 -1.1104
 8449SOL     OW36982   0.530   4.543  16.475 -0.4192 -0.3468 -0.1523
 8449SOL    HW136983   0.509   4.528  16.567 -2.9614  1.0638 -0.4821
 8449SOL    HW236984   0.591   4.470  16.470 -0.4268 -0.3351 -0.4236
 8450SOL     OW36985   1.849   0.471  12.547 -0.3165 -0.2844 -0.2799
 8450SOL    HW136986   1.918   0.513  12.598  0.0846 -1.2288 -0.0466
 8450SOL    HW236987   1.880   0.381  12.550  0.2123 -0.1236 -0.9522
 8451SOL     OW36988   3.204   0.599   5.328  0.3350 -0.1339 -0.2975
 8451SOL    HW136989   3.153   0.562   5.256  0.7281 -1.1806 -0.0369
 8451SOL    HW236990   3.271   0.641   5.274  1.2492  0.8723  1.6250
 8452SOL     OW36991   3.869   4.427   8.885  0.3450  0.1594  0.0470
 8452SOL    HW136992   3.957   4.463   8.896 -0.2344  1.4043  0.6259
 8452SOL    HW236993   3.824   4.505   8.851  0.1028 -0.3908 -0.8794
 8453SOL     OW36994   2.540   0.347  15.927  0.2638 -0.0412 -0.6598
 8453SOL    HW136995   2.548   0.388  16.013 -1.5260 -1.6564  0.2863
 8453SOL    HW236996   2.505   0.262  15.954 -3.4151  1.2107 -1.3788
 8454SOL     OW36997   4.004   1.114   8.297  0.6638 -0.1115 -0.0363
 8454SOL    HW136998   4.061   1.091   8.371  0.8091 -1.0012 -0.4204
 8454SOL    HW236999   3.925   1.107   8.351  0.0624  0.5377 -0.8182
 8455SOL     OW37000   0.932   4.517   8.931  0.7853  0.2799 -0.2277
 8455SOL    HW137001   0.957   4.571   8.857  1.5131  0.0096 -0.1749
 8455SOL    HW237002   0.904   4.431   8.897  0.3806  0.2849  0.0979
 8456SOL     OW37003   0.210   1.523   6.545 -0.0408 -0.3088 -0.2763
 8456SOL    HW137004   0.189   1.598   6.490 -2.7458  0.5786  1.9776
 8456SOL    HW237005   0.236   1.569   6.625 -2.7167 -1.1141  1.0605
 8457SOL     OW37006   3.989   1.589   9.477  0.2846 -0.5071 -0.1426
 8457SOL    HW137007   3.918   1.529   9.497 -0.5484  1.2192  2.1463
 8457SOL    HW237008   3.946   1.668   9.510 -1.3452 -1.5796  0.3259
 8458SOL     OW37009   2.524   2.517   9.302  0.3993  0.4888 -0.0791
 8458SOL    HW137010   2.501   2.464   9.378  0.5867 -1.1945 -1.2052
 8458SOL    HW237011   2.479   2.475   9.229  2.5230 -1.1681 -0.4375
 8459SOL     OW37012   1.927   1.883   7.558  0.5782  0.0569  0.1109
 8459SOL    HW137013   1.901   1.862   7.469 -1.1143 -0.0058  0.6330
 8459SOL    HW237014   1.949   1.976   7.550 -1.3577  0.6153  1.1873
 8460SOL     OW37015   0.451   0.578   5.717  0.0453 -0.5194 -0.5763
 8460SOL    HW137016   0.437   0.516   5.789 -0.2558  2.7902  2.2263
 8460SOL    HW237017   0.499   0.520   5.658 -1.2234 -1.1491 -0.9975
 8461SOL     OW37018   2.702   0.290   2.261 -0.6327 -0.4204 -0.3663
 8461SOL    HW137019   2.694   0.386   2.263 -0.4403 -0.4305  1.0084
 8461SOL    HW237020   2.607   0.276   2.264 -0.3759 -2.2276 -0.5957
 8462SOL     OW37021   3.836   3.747   1.814 -0.2975 -0.3284  0.1605
 8462SOL    HW137022   3.812   3.718   1.902 -0.7243  2.0231  0.8055
 8462SOL    HW237023   3.925   3.782   1.824 -0.2400 -1.2763  2.8890
 8463SOL     OW37024   0.962   0.956   7.008 -0.1665 -0.0722 -0.5747
 8463SOL    HW137025   0.990   1.003   7.086 -2.5187  1.4884 -0.6709
 8463SOL    HW237026   1.041   0.914   6.975  0.4140  1.7193 -1.4272
 8464SOL     OW37027   3.355   4.439   6.597  0.5539 -0.2100  0.1208
 8464SOL    HW137028   3.409   4.515   6.576 -0.1043 -0.3684 -2.0988
 8464SOL    HW237029   3.331   4.403   6.512 -0.1167  0.4392  0.0346
 8465SOL     OW37030   0.697   3.429  16.429 -0.3797 -0.2251  0.4406
 8465SOL    HW137031   0.766   3.381  16.476  0.7897 -0.5141 -1.5462
 8465SOL    HW237032   0.634   3.445  16.498 -1.5476  3.0450 -1.4197
 8466SOL     OW37033   4.573   2.044   4.589  1.0214 -0.0334 -0.2548
 8466SOL    HW137034   4.574   2.139   4.578  0.4523  0.1546  1.2501
 8466SOL    HW237035   4.500   2.040   4.651 -0.3291 -0.4673 -1.8676
 8467SOL     OW37036   0.607   1.330   7.410  0.7152 -0.0923  0.1718
 8467SOL    HW137037   0.651   1.267   7.353  0.9638  0.4641 -0.2510
 8467SOL    HW237038   0.576   1.393   7.345 -0.3308 -2.7408 -1.8594
 8468SOL     OW37039   0.112   2.070   0.797 -0.6758 -0.4060 -0.3369
 8468SOL    HW137040   0.097   1.978   0.773 -1.4177 -0.1482 -0.8631
 8468SOL    HW237041   0.207   2.071   0.785 -0.4791  0.1747  1.3449
 8469SOL     OW37042   2.101   3.209   0.803 -0.2687  0.1921 -0.0313
 8469SOL    HW137043   2.092   3.153   0.726  0.0066  0.8889 -0.5653
 8469SOL    HW237044   2.196   3.219   0.807 -0.4511  1.8340  0.2018
 8470SOL     OW37045   3.394   1.298   2.546  0.6061  0.5446 -0.7238
 8470SOL    HW137046   3.415   1.260   2.461  0.4093  0.2518 -0.6428
 8470SOL    HW237047   3.413   1.391   2.533 -0.2471  0.9843  1.2324
 8471SOL     OW37048   0.069   2.636  16.092 -0.0126 -0.0626  0.4803
 8471SOL    HW137049   0.071   2.731  16.094 -0.8648 -0.0961  3.2299
 8471SOL    HW237050   4.728   2.619  16.148  0.2644 -2.4712  0.1647
 8472SOL     OW37051   3.052   0.519  15.952  0.7083 -0.4339 -0.1604
 8472SOL    HW137052   3.088   0.584  16.013 -1.9400  1.1524 -0.2967
 8472SOL    HW237053   3.008   0.457  16.010  0.2684 -0.1934 -0.2395
 8473SOL     OW37054   2.005   3.297   3.358  0.3381  0.0773 -0.3458
 8473SOL    HW137055   2.084   3.273   3.406  2.0805  3.2176 -1.5990
 8473SOL    HW237056   2.034   3.340   3.277  0.0153 -1.1571 -1.1098
 8474SOL     OW37057   0.741   1.787  17.593 -0.4888 -0.2301 -0.0877
 8474SOL    HW137058   0.812   1.729  17.567  1.4131  2.0248  0.0321
 8474SOL    HW237059   0.768   1.874  17.562  0.9112 -0.2427  1.1042
 8475SOL     OW37060   3.899   0.440   8.453  0.4987  0.2471 -0.2176
 8475SOL    HW137061   3.851   0.448   8.535  1.1288 -0.9869  0.2778
 8475SOL    HW237062   3.945   0.524   8.458 -0.1107  0.3625  3.7264
 8476SOL     OW37063   3.691   0.870   3.765  0.9784 -0.1750 -0.0598
 8476SOL    HW137064   3.757   0.922   3.720  0.7100 -1.7981 -2.3323
 8476SOL    HW237065   3.674   0.922   3.843 -2.1658 -0.5866 -0.4804
 8477SOL     OW37066   2.041   1.853  13.203  0.3644 -0.0998  0.1409
 8477SOL    HW137067   2.122   1.849  13.152 -0.9695  0.8463 -2.0474
 8477SOL    HW237068   2.041   1.948  13.197  1.1708 -0.2528 -2.1350
 8478SOL     OW37069   3.320   0.496  12.310  0.3694 -0.0915  0.6624
 8478SOL    HW137070   3.238   0.453  12.334  0.4444 -1.7531 -2.1275
 8478SOL    HW237071   3.371   0.425  12.272  0.0395 -0.2245  0.4671
 8479SOL     OW37072   0.485   2.701   5.608  0.0009  0.3726  0.6600
 8479SOL    HW137073   0.493   2.722   5.701  1.1431  2.6077  0.0337
 8479SOL    HW237074   0.391   2.704   5.587  0.1091  1.3152  0.3201
 8480SOL     OW37075   4.149   4.267   9.654 -0.3646  0.3690  0.5354
 8480SOL    HW137076   4.170   4.344   9.602 -0.4651 -0.8867 -1.3683
 8480SOL    HW237077   4.217   4.269   9.721  2.5231  0.0070 -2.4008
 8481SOL     OW37078   2.737   2.988   1.917  0.0971  0.0239 -0.2390
 8481SOL    HW137079   2.825   2.984   1.878 -0.3107 -1.5459 -0.9918
 8481SOL    HW237080   2.682   2.965   1.842  0.2500  0.9600 -0.6328
 8482SOL     OW37081   1.032   1.748   2.184  0.5138  0.5554 -0.4714
 8482SOL    HW137082   0.973   1.824   2.189 -3.1422 -2.0902 -3.1845
 8482SOL    HW237083   1.080   1.764   2.103  1.1069  0.0762 -0.2101
 8483SOL     OW37084   2.830   3.723   1.150  0.1050 -0.0409 -0.1791
 8483SOL    HW137085   2.778   3.753   1.076  2.7612 -1.4208 -2.6343
 8483SOL    HW237086   2.825   3.629   1.131 -0.3041 -0.2539  0.9445
 8484SOL     OW37087   2.166   4.601  16.218  0.3288  0.5090  0.2752
 8484SOL    HW137088   2.072   4.618  16.231  0.3472 -1.3489  2.8054
 8484SOL    HW237089   2.197   4.569  16.302  0.8873  1.7674  0.5504
 8485SOL     OW37090   3.669   3.508  15.580 -0.4200  0.3108 -0.7207
 8485SOL    HW137091   3.616   3.511  15.501 -1.0743 -2.1848 -0.3954
 8485SOL    HW237092   3.626   3.443  15.636 -1.4317 -0.1168 -1.9958
 8486SOL     OW37093   3.307   1.982   8.534 -0.1105  0.1507  0.3594
 8486SOL    HW137094   3.346   1.958   8.450  0.6540  1.8245  0.2507
 8486SOL    HW237095   3.291   1.896   8.573  1.0567 -0.3815 -0.3303
 8487SOL     OW37096   4.573   1.464   6.636  0.0105 -0.2927  0.2017
 8487SOL    HW137097   4.634   1.391   6.648  1.6415  0.9306 -0.6047
 8487SOL    HW237098   4.508   1.443   6.703  0.4803  1.0972  1.0881
 8488SOL     OW37099   2.968   3.163   3.280  0.6590 -0.3442  0.0760
 8488SOL    HW137100   2.995   3.253   3.259 -0.3778  0.0023  0.2069
 8488SOL    HW237101   2.910   3.145   3.205  0.4057 -0.1451  0.2247
 8489SOL     OW37102   1.150   2.835   3.907  0.2398 -0.3515 -0.4687
 8489SOL    HW137103   1.124   2.926   3.893 -1.0621 -0.7761 -0.8247
 8489SOL    HW237104   1.114   2.802   3.825  1.8235 -1.1528 -0.8495
 8490SOL     OW37105   2.200   1.397   6.160  0.0007 -0.0567 -0.0904
 8490SOL    HW137106   2.176   1.327   6.099 -2.1033  0.7534 -0.1971
 8490SOL    HW237107   2.287   1.360   6.170 -1.0018 -2.3851  0.0593
 8491SOL     OW37108   0.823   0.222   9.845  0.3075 -0.1347  0.0048
 8491SOL    HW137109   0.916   0.202   9.845  0.7993  2.2126 -2.2159
 8491SOL    HW237110   0.796   0.132   9.863  1.6788  0.3621  4.7376
 8492SOL     OW37111   2.692   3.840   6.548  0.8298  0.6835 -0.0912
 8492SOL    HW137112   2.653   3.784   6.615  2.4981 -0.6606 -0.2509
 8492SOL    HW237113   2.759   3.784   6.509 -0.2190  0.0265 -0.9482
 8493SOL     OW37114   3.759   4.286   4.548  0.2406  0.6655 -0.1541
 8493SOL    HW137115   3.690   4.348   4.528  0.6991  1.1216 -0.3292
 8493SOL    HW237116   3.761   4.229   4.471  0.9335 -0.6134  0.8047
 8494SOL     OW37117   1.209   0.274   5.511 -0.0862  0.2820  0.3205
 8494SOL    HW137118   1.202   0.189   5.468 -1.2883  0.4942  0.0941
 8494SOL    HW237119   1.150   0.325   5.456  0.0454 -0.0295 -0.1052
 8495SOL     OW37120   0.235   3.154   6.805  0.1532  0.4778  0.4203
 8495SOL    HW137121   0.196   3.241   6.817 -1.7661 -0.4391  0.7975
 8495SOL    HW237122   0.294   3.139   6.878  2.0990 -0.4797 -1.3699
 8496SOL     OW37123   1.070   0.134   5.082 -0.7414  0.3725  0.2274
 8496SOL    HW137124   1.017   0.159   5.006  0.4087  2.4934  0.1522
 8496SOL    HW237125   1.118   0.055   5.057  0.8161  1.3427  0.1820
 8497SOL     OW37126   0.116   2.491   4.750  0.5619  0.4104  0.2028
 8497SOL    HW137127   0.057   2.418   4.732 -0.0563  0.7124  1.0383
 8497SOL    HW237128   0.189   2.481   4.688  0.0794  0.7097 -0.4091
 8498SOL     OW37129   3.944   0.847   4.981  0.0007 -0.0430  0.3501
 8498SOL    HW137130   3.974   0.914   4.920 -0.3859 -1.6039 -1.5561
 8498SOL    HW237131   3.945   0.890   5.067 -0.9540 -1.7143  1.2021
 8499SOL     OW37132   3.428   1.441   5.941 -0.3425  0.0910 -0.2025
 8499SOL    HW137133   3.453   1.450   5.849 -3.0998 -2.1170 -1.1547
 8499SOL    HW237134   3.378   1.360   5.943  0.2672 -0.2202  2.5407
 8500SOL     OW37135   1.093   2.775   4.282  0.0236 -0.8536 -0.4618
 8500SOL    HW137136   1.177   2.781   4.329 -0.5353  0.0095  0.4236
 8500SOL    HW237137   1.044   2.714   4.336 -3.4066  0.4793 -2.1047
 8501SOL     OW37138   2.223   4.042   4.961 -0.2413 -0.1520 -0.4853
 8501SOL    HW137139   2.169   4.118   4.985 -1.8325 -1.6297  0.6003
 8501SOL    HW237140   2.315   4.070   4.961 -0.1326 -0.5159  0.7803
 8502SOL     OW37141   1.865   2.254   6.805 -0.1375 -0.0046 -0.1697
 8502SOL    HW137142   1.779   2.230   6.839 -0.2909  1.0786  0.2084
 8502SOL    HW237143   1.832   2.333   6.761  2.0236  2.2922  2.3304
 8503SOL     OW37144   4.001   3.046  12.370  0.0541  0.4334 -0.5679
 8503SOL    HW137145   4.000   3.077  12.280 -0.3262 -2.2616 -1.4845
 8503SOL    HW237146   4.096   3.038  12.370 -0.0945 -1.2125 -0.1909
 8504SOL     OW37147   0.038   1.820  11.570 -0.0392 -0.1407 -0.2251
 8504SOL    HW137148   0.021   1.759  11.641 -0.0811  2.0710  1.6392
 8504SOL    HW237149   0.128   1.802  11.544  0.1026 -1.3064  1.1233
 8505SOL     OW37150   3.538   4.457   8.332 -0.2526 -0.1017  0.1809
 8505SOL    HW137151   3.466   4.516   8.308  1.6262  2.0085 -0.3286
 8505SOL    HW237152   3.529   4.471   8.426 -0.9881 -0.1349  0.1178
 8506SOL     OW37153   3.993   0.677   3.306 -0.1699  0.3081 -0.0305
 8506SOL    HW137154   4.032   0.591   3.294  0.4948  0.5448  0.4443
 8506SOL    HW237155   3.902   0.661   3.332  0.6230 -1.6234  1.5130
 8507SOL     OW37156   0.783   4.302  14.912  0.0050 -0.5360  0.8860
 8507SOL    HW137157   0.878   4.304  14.904 -0.2039  0.8481 -1.3400
 8507SOL    HW237158   0.753   4.298  14.821  2.2110  0.6427  0.1023
 8508SOL     OW37159   0.889   0.113   8.430  0.3317  0.7233  0.6162
 8508SOL    HW137160   0.924   0.047   8.370  0.1245  0.1965  1.0735
 8508SOL    HW237161   0.969   0.165   8.445  0.4101  0.9074 -0.4961
 8509SOL     OW37162   1.967   0.815   8.570  0.3700 -0.3690 -0.0656
 8509SOL    HW137163   1.907   0.762   8.621  1.0125 -2.6304 -1.6701
 8509SOL    HW237164   1.936   0.812   8.479 -0.3847  0.4921  0.1623
 8510SOL     OW37165   4.214   0.630   7.927 -0.3128  0.0693  0.3724
 8510SOL    HW137166   4.194   0.558   7.867 -0.4382  1.0584 -0.7822
 8510SOL    HW237167   4.141   0.692   7.933 -0.7874 -0.6511  1.8627
 8511SOL     OW37168   4.202   0.533   8.182 -0.3002  0.2956  0.0970
 8511SOL    HW137169   4.252   0.455   8.160 -2.3886 -0.5482 -1.6418
 8511SOL    HW237170   4.217   0.579   8.099 -2.3795  0.3720 -0.2292
 8512SOL     OW37171   2.907   3.302  16.674  0.1559  0.0880 -0.3501
 8512SOL    HW137172   2.837   3.239  16.693 -0.3275 -0.1972 -3.0694
 8512SOL    HW237173   2.864   3.370  16.622 -0.4500  0.3688  0.5271
 8513SOL     OW37174   3.711   4.173   4.799 -0.0222  0.8085  0.0211
 8513SOL    HW137175   3.623   4.210   4.800 -1.2345 -2.0736  1.2418
 8513SOL    HW237176   3.743   4.209   4.717  0.5254 -0.4626 -0.3174
 8514SOL     OW37177   1.238   2.061   6.457  0.3733  0.2372 -0.3503
 8514SOL    HW137178   1.173   2.131   6.460  1.5117  1.2778  0.2623
 8514SOL    HW237179   1.315   2.102   6.498  1.0562  0.4330 -1.8460
 8515SOL     OW37180   0.584   1.543  15.291 -0.5125  0.0904  0.0566
 8515SOL    HW137181   0.501   1.563  15.334  0.9794  1.4840  2.3002
 8515SOL    HW237182   0.562   1.469  15.234  0.1856 -0.5280  0.5808
 8516SOL     OW37183   0.360   0.529  12.411 -0.3602 -0.0600 -0.0609
 8516SOL    HW137184   0.289   0.578  12.370  0.6162  1.2227 -0.1995
 8516SOL    HW237185   0.416   0.593  12.454 -0.2290  0.1054 -0.4858
 8517SOL     OW37186   1.037   2.980  11.654 -0.1300 -0.4689 -1.0492
 8517SOL    HW137187   1.066   2.889  11.649 -0.6501 -0.5557 -2.2885
 8517SOL    HW237188   1.008   3.000  11.566 -0.3301 -0.8662 -1.0714
 8518SOL     OW37189   1.237   2.233  12.747 -0.2808  0.6091  0.2022
 8518SOL    HW137190   1.277   2.316  12.774 -0.6930  0.9632 -0.2693
 8518SOL    HW237191   1.260   2.160  12.804  1.0997 -0.4148 -1.6659
 8519SOL     OW37192   2.945   1.526  12.002 -0.1618  0.3356  0.1561
 8519SOL    HW137193   3.000   1.570  11.937 -0.5336  1.0872  0.3509
 8519SOL    HW237194   2.905   1.605  12.038  0.8000  0.8134  0.1842
 8520SOL     OW37195   0.288   0.008  17.470  0.3167  0.3643 -0.5650
 8520SOL    HW137196   0.361   0.058  17.435  0.3140  0.1086 -0.9431
 8520SOL    HW237197   0.211   0.041  17.424  0.3784  1.1042 -0.1339
 8521SOL     OW37198   1.819   2.640   8.044 -1.1560 -0.6223  0.2831
 8521SOL    HW137199   1.772   2.715   8.080  1.0772  0.5200  0.7691
 8521SOL    HW237200   1.899   2.641   8.096  0.5311  1.6960 -2.3933
 8522SOL     OW37201   3.242   3.249  15.771  0.0368  0.3408 -0.4935
 8522SOL    HW137202   3.204   3.319  15.824 -1.6368 -0.0419 -1.1789
 8522SOL    HW237203   3.185   3.177  15.797  1.8967 -0.6910  0.7763
 8523SOL     OW37204   0.479   3.944   5.804  0.1048  0.3397 -0.2720
 8523SOL    HW137205   0.544   3.896   5.856 -0.1304 -1.0972 -1.3212
 8523SOL    HW237206   0.533   4.021   5.784  0.2037  0.4555  0.4205
 8524SOL     OW37207   3.609   4.684  10.029  0.0320  1.0287  0.0216
 8524SOL    HW137208   3.639   0.035  10.000 -0.0109  0.8766 -0.4760
 8524SOL    HW237209   3.692   4.639  10.042 -0.9928 -0.4451  1.3639
 8525SOL     OW37210   3.683   3.895   4.884 -0.3136 -0.4686  0.5097
 8525SOL    HW137211   3.601   3.920   4.927  0.6148  3.5254 -0.1270
 8525SOL    HW237212   3.715   3.982   4.861  1.0938 -0.9017  0.8420
 8526SOL     OW37213   1.978   1.420   9.368  0.4503  0.3913 -0.2449
 8526SOL    HW137214   1.915   1.408   9.297  0.5830 -0.5883 -0.1860
 8526SOL    HW237215   2.019   1.505   9.352  0.4647  0.7048  1.4444
 8527SOL     OW37216   1.230   2.574  13.446 -0.6993 -0.0474  0.6611
 8527SOL    HW137217   1.169   2.612  13.383 -1.2976 -0.2461  1.1198
 8527SOL    HW237218   1.183   2.503  13.490 -2.2744  0.3592 -0.3548
 8528SOL     OW37219   3.400   1.520  17.108 -0.1795 -0.0526  0.4512
 8528SOL    HW137220   3.358   1.475  17.034  2.2636 -2.5330  0.6035
 8528SOL    HW237221   3.360   1.470  17.179 -0.1253 -0.5902  0.1001
 8529SOL     OW37222   4.733   1.478   6.065  0.1219 -0.4733  0.1219
 8529SOL    HW137223   0.072   1.537   6.075 -0.0141 -0.2356 -0.2594
 8529SOL    HW237224   0.021   1.413   5.998  1.2734  1.0500 -0.9421
 8530SOL     OW37225   4.374   1.988  12.502  0.4724 -0.2898  0.2634
 8530SOL    HW137226   4.455   1.937  12.504 -0.3261 -1.5681 -0.1096
 8530SOL    HW237227   4.319   1.938  12.563 -0.8000 -0.0279 -0.6696
 8531SOL     OW37228   3.205   2.673   6.007 -0.5456  0.1478  0.5478
 8531SOL    HW137229   3.196   2.578   6.014 -0.2325 -0.0235 -1.4238
 8531SOL    HW237230   3.210   2.688   5.912  1.5217 -0.2810  0.5796
 8532SOL     OW37231   0.008   2.329   9.363  0.2756 -0.5548  0.5237
 8532SOL    HW137232   4.668   2.340   9.421 -0.4299  0.8691 -0.6573
 8532SOL    HW237233   4.714   2.391   9.296  1.0977 -1.4100 -0.6146
 8533SOL     OW37234   0.317   1.271  15.756  0.1072  0.0384  0.0222
 8533SOL    HW137235   0.412   1.278  15.763  0.1673  0.3981 -1.1560
 8533SOL    HW237236   0.307   1.205  15.824 -0.7558  1.6387  1.4505
 8534SOL     OW37237   1.656   2.371   5.686  0.2314 -0.1957 -0.0305
 8534SOL    HW137238   1.694   2.303   5.630  1.0219 -0.3743  0.7430
 8534SOL    HW237239   1.609   2.314   5.747  2.2428 -2.1501 -0.3099
 8535SOL     OW37240   0.123   2.816   0.571 -0.1845  0.8775 -0.1257
 8535SOL    HW137241   0.127   2.723   0.550 -1.3695  0.4756  1.5130
 8535SOL    HW237242   0.193   2.822   0.636 -2.7886  1.7011  2.5735
 8536SOL     OW37243   4.280   3.645   5.835  0.1522  0.3181 -0.3360
 8536SOL    HW137244   4.203   3.588   5.826  0.7255 -0.3456 -1.0148
 8536SOL    HW237245   4.245   3.726   5.799 -0.5466 -0.1694 -0.7534
 8537SOL     OW37246   2.609   0.541   2.260 -0.4534  0.2272  0.1606
 8537SOL    HW137247   2.643   0.593   2.333 -1.2414 -1.6595  1.8630
 8537SOL    HW237248   2.520   0.574   2.257 -0.7315 -0.4111  1.1787
 8538SOL     OW37249   2.704   2.470   2.153 -0.2697 -0.6962  0.1263
 8538SOL    HW137250   2.733   2.470   2.244  0.2839  1.4332 -0.0599
 8538SOL    HW237251   2.701   2.563   2.132  0.7075 -0.5405  0.6897
 8539SOL     OW37252   3.431   0.391   7.110 -0.0624 -1.1443  0.3861
 8539SOL    HW137253   3.411   0.485   7.119 -0.4354 -1.1005 -0.9623
 8539SOL    HW237254   3.448   0.383   7.017 -1.7005  0.6325 -0.0723
 8540SOL     OW37255   1.473   0.657   3.223  0.1245  0.3687  0.3979
 8540SOL    HW137256   1.387   0.699   3.223  0.8522  1.8592  0.6417
 8540SOL    HW237257   1.523   0.718   3.277 -0.4362  1.8066 -0.6797
 8541SOL     OW37258   3.014   2.833   5.512 -0.1828 -0.3036 -0.3657
 8541SOL    HW137259   3.053   2.919   5.524 -0.9166 -0.1753  1.1494
 8541SOL    HW237260   2.932   2.856   5.467 -0.3843 -1.2701 -0.4976
 8542SOL     OW37261   0.591   3.314  15.777 -0.2201  0.0937  0.3478
 8542SOL    HW137262   0.639   3.394  15.759  1.9748 -1.0162  1.3333
 8542SOL    HW237263   0.657   3.250  15.752 -1.6861 -1.1916 -0.1999
 8543SOL     OW37264   3.735   3.779   6.140  0.3638  0.5621 -0.4801
 8543SOL    HW137265   3.811   3.764   6.196 -0.4835 -0.5606  0.3594
 8543SOL    HW237266   3.738   3.874   6.147 -1.0988  0.6389 -1.0005
 8544SOL     OW37267   1.318   2.967   1.611 -0.6517 -0.1599  0.2464
 8544SOL    HW137268   1.263   3.009   1.677 -4.0181 -2.2816 -1.2267
 8544SOL    HW237269   1.405   2.966   1.650 -0.4021 -0.6301 -0.3309
 8545SOL     OW37270   0.164   4.263  12.646 -0.1921 -0.5656 -0.0330
 8545SOL    HW137271   0.234   4.299  12.592  1.1365 -0.4474  1.7956
 8545SOL    HW237272   0.097   4.312  12.598  0.2712 -0.8824 -0.9941
 8546SOL     OW37273   1.882   3.907  17.418 -0.3945  0.0492 -1.4016
 8546SOL    HW137274   1.865   3.814  17.401 -1.1410 -0.2731  1.0287
 8546SOL    HW237275   1.837   3.933  17.338 -2.8735  0.8250  0.2322
 8547SOL     OW37276   3.727   1.868  17.277  0.1759  0.2891  0.5272
 8547SOL    HW137277   3.730   1.949  17.327  2.8065  0.9497 -0.7045
 8547SOL    HW237278   3.773   1.819  17.346  1.3160  0.5625 -0.0313
 8548SOL     OW37279   2.392   3.175   4.470 -0.0326 -0.0817 -0.0100
 8548SOL    HW137280   2.402   3.157   4.563  3.5615  0.8668 -0.2013
 8548SOL    HW237281   2.297   3.178   4.460  0.0427  0.4743 -0.6278
 8549SOL     OW37282   3.624   0.330  11.139  0.0653 -0.1632 -0.8374
 8549SOL    HW137283   3.620   0.411  11.190  2.7347  1.4643 -3.1861
 8549SOL    HW237284   3.659   0.368  11.058  0.9241 -0.1210 -0.4515
 8550SOL     OW37285   2.004   2.706   3.086 -0.7760  0.4568  0.1069
 8550SOL    HW137286   2.012   2.635   3.022 -0.6818 -0.2132  0.8747
 8550SOL    HW237287   1.979   2.660   3.166 -2.6872  2.7016  0.8079
 8551SOL     OW37288   1.115   3.115  14.103 -0.0669  0.5399 -0.1324
 8551SOL    HW137289   1.134   3.201  14.138 -1.3490  0.0386  1.8289
 8551SOL    HW237290   1.193   3.089  14.054  0.1056  3.1410 -1.1823
 8552SOL     OW37291   0.942   3.448   5.890  0.1573 -0.0473  0.0832
 8552SOL    HW137292   0.964   3.384   5.823  1.5267  3.1626 -2.5183
 8552SOL    HW237293   0.946   3.392   5.967  0.4698  1.2623  1.0326
 8553SOL     OW37294   3.474   1.386   4.536 -0.0271 -0.3511  0.1338
 8553SOL    HW137295   3.456   1.359   4.446 -1.7637  2.0703 -0.2384
 8553SOL    HW237296   3.447   1.477   4.523  0.4234 -0.0449  1.3115
 8554SOL     OW37297   4.558   4.539  11.460 -0.0490 -0.8164  0.2832
 8554SOL    HW137298   4.518   4.609  11.408  1.6322  1.4310  2.0486
 8554SOL    HW237299   4.577   4.468  11.398 -0.1563  1.6462 -2.5749
 8555SOL     OW37300   2.037   4.105   3.236  0.0739  0.2411 -0.1609
 8555SOL    HW137301   2.087   4.136   3.161 -2.2058  0.4096 -1.6243
 8555SOL    HW237302   1.968   4.057   3.190 -0.4338  0.2350  0.5954
 8556SOL     OW37303   3.215   2.235   7.199  0.2186 -0.2192  0.3539
 8556SOL    HW137304   3.225   2.314   7.251 -3.0593  0.9469 -0.7964
 8556SOL    HW237305   3.131   2.197   7.225  1.5552 -0.7208  3.9812
 8557SOL     OW37306   3.535   0.899  17.481  0.0978 -0.0961 -0.2850
 8557SOL    HW137307   3.617   0.936  17.450  0.1848 -0.7141 -0.7869
 8557SOL    HW237308   3.483   0.980  17.478  2.2282  1.3302  1.5831
 8558SOL     OW37309   4.728   0.795   2.755  0.1329  0.4637 -0.3798
 8558SOL    HW137310   4.729   0.817   2.848  0.4185  0.3539 -0.3560
 8558SOL    HW237311   0.042   0.713   2.757  1.0719  1.0164 -0.6977
 8559SOL     OW37312   0.279   0.236   0.424  0.0838 -0.3201  0.6043
 8559SOL    HW137313   0.240   0.242   0.337 -0.5330  1.8473  1.0161
 8559SOL    HW237314   0.227   0.303   0.469  0.2851  0.9631 -1.0667
 8560SOL     OW37315   3.958   1.136   6.487  0.2769 -0.0795  0.6508
 8560SOL    HW137316   4.040   1.180   6.468  1.4302 -3.1361 -1.4556
 8560SOL    HW237317   3.945   1.076   6.413 -0.0546 -1.8081  2.0929
 8561SOL     OW37318   2.429   3.254   4.168 -0.3789  0.4177  0.3902
 8561SOL    HW137319   2.396   3.197   4.237 -1.6628 -1.3213 -1.6538
 8561SOL    HW237320   2.352   3.311   4.161 -1.5458 -0.9558  2.3139
 8562SOL     OW37321   0.190   0.608   2.502  0.2231 -0.1621 -0.2023
 8562SOL    HW137322   0.230   0.527   2.471 -0.1925  0.0050 -1.1662
 8562SOL    HW237323   0.186   0.583   2.594  2.0874 -0.2027 -0.1234
 8563SOL     OW37324   2.508   1.545  13.456 -0.0593  0.2887  0.0867
 8563SOL    HW137325   2.424   1.550  13.501 -0.1945 -0.8314 -0.0514
 8563SOL    HW237326   2.557   1.614  13.501  1.6598 -0.4991 -0.5821
 8564SOL     OW37327   4.329   3.669   1.998 -0.1426  0.2477 -0.2171
 8564SOL    HW137328   4.290   3.702   1.917 -0.2430 -1.5552 -0.8919
 8564SOL    HW237329   4.352   3.578   1.979  1.2214  1.0119 -2.1471
 8565SOL     OW37330   1.268   1.910  13.222  0.5463  0.2850 -0.5601
 8565SOL    HW137331   1.279   1.912  13.127 -2.3764 -0.0120 -0.8889
 8565SOL    HW237332   1.243   1.818  13.229  0.7246  0.3443  0.8639
 8566SOL     OW37333   3.736   2.131   7.736  0.2123  0.7406 -0.5847
 8566SOL    HW137334   3.817   2.100   7.695  0.9122  0.0766  1.3128
 8566SOL    HW237335   3.676   2.089   7.674  0.5857  0.6918 -0.9114
 8567SOL     OW37336   4.014   2.622   7.367 -0.4080  0.7260  0.4399
 8567SOL    HW137337   4.105   2.652   7.378  0.1579 -0.4051 -1.2253
 8567SOL    HW237338   3.969   2.682   7.427  0.0502  1.4166  0.1033
 8568SOL     OW37339   1.237   3.344   2.498  0.0417  0.2866  0.1764
 8568SOL    HW137340   1.145   3.317   2.499  0.6992 -2.0084 -1.5579
 8568SOL    HW237341   1.285   3.306   2.572 -0.6645 -3.1234 -1.1465
 8569SOL     OW37342   2.655   2.573  10.809 -0.7907 -0.0869  0.0804
 8569SOL    HW137343   2.729   2.518  10.834  0.9413  2.2989  0.1457
 8569SOL    HW237344   2.655   2.615  10.895  2.4877 -0.3707  0.2065
 8570SOL     OW37345   2.831   4.476   8.058  0.1080  0.2007 -0.2085
 8570SOL    HW137346   2.780   4.547   8.019 -0.7945 -0.2660  0.1343
 8570SOL    HW237347   2.760   4.451   8.117  0.9853  1.1695  1.2571
 8571SOL     OW37348   2.160   2.441   2.575  0.1358 -0.6157  0.7676
 8571SOL    HW137349   2.118   2.513   2.621  0.3458 -1.0868  1.7062
 8571SOL    HW237350   2.117   2.440   2.490  1.0733  0.6719  0.2759
 8572SOL     OW37351   1.663   0.165   0.317 -0.2138  0.0555  1.0717
 8572SOL    HW137352   1.705   0.199   0.238  0.2405  3.4528  2.7907
 8572SOL    HW237353   1.631   0.245   0.359  2.6232  1.7520  0.0026
 8573SOL     OW37354   3.875   1.682  14.140  0.4877 -0.1535  0.3672
 8573SOL    HW137355   3.935   1.678  14.065  0.6826  0.2724  0.4995
 8573SOL    HW237356   3.823   1.761  14.124 -1.2629 -1.2325  0.8225
 8574SOL     OW37357   3.358   1.748   5.800 -0.0614 -0.4559 -0.4215
 8574SOL    HW137358   3.384   1.721   5.712  1.1612 -2.8739  0.6932
 8574SOL    HW237359   3.413   1.826   5.808  1.9721 -2.1778  2.6150
 8575SOL     OW37360   3.083   1.155   3.565  0.5325 -0.0478  0.6506
 8575SOL    HW137361   3.133   1.192   3.638  3.9263 -1.2555 -1.0632
 8575SOL    HW237362   3.120   1.202   3.490  0.6899 -2.1336 -0.5697
 8576SOL     OW37363   4.439   4.355   5.267 -0.3198  0.4975 -0.2314
 8576SOL    HW137364   4.395   4.440   5.275 -2.0976 -0.4613  0.1943
 8576SOL    HW237365   4.525   4.387   5.293  0.2735 -2.6716  1.7639
 8577SOL     OW37366   0.943   4.583   0.685 -0.0290  0.3337 -0.1251
 8577SOL    HW137367   0.975   4.673   0.699  1.4745 -0.0708 -1.0149
 8577SOL    HW237368   1.026   4.535   0.690  0.2279  0.7790 -0.0779
 8578SOL     OW37369   3.301   4.565  12.919  0.0955 -0.1550 -0.2335
 8578SOL    HW137370   3.352   4.615  12.855 -0.9057 -0.6086 -1.3926
 8578SOL    HW237371   3.307   4.474  12.893 -0.3378  0.7753 -3.6180
 8579SOL     OW37372   3.138   1.822   1.238  0.0195 -0.1171 -0.7303
 8579SOL    HW137373   3.124   1.741   1.288  1.3028 -0.6909 -1.3025
 8579SOL    HW237374   3.221   1.839   1.283  0.8191 -2.0586 -1.4862
 8580SOL     OW37375   4.707   1.936   7.059  0.5620  0.0396 -0.0257
 8580SOL    HW137376   4.722   2.007   6.997 -0.3413  0.8555  0.6740
 8580SOL    HW237377   4.631   1.892   7.020  0.6495 -1.6375  1.6573
 8581SOL     OW37378   1.525   0.189  17.336  0.0853  0.1491  0.0736
 8581SOL    HW137379   1.535   0.206  17.242 -0.0902 -2.3819 -0.3981
 8581SOL    HW237380   1.609   0.228  17.361  1.2321 -2.1772 -0.1516
 8582SOL     OW37381   2.251   1.676  13.512 -0.1981 -0.1172 -0.5064
 8582SOL    HW137382   2.211   1.701  13.595  0.2615 -2.2687  0.3812
 8582SOL    HW237383   2.297   1.757  13.495  0.1504 -0.5384 -1.5637
 8583SOL     OW37384   3.302   2.193   3.749 -0.0461  0.2098 -0.0913
 8583SOL    HW137385   3.252   2.246   3.811 -0.5141  1.4431 -1.5275
 8583SOL    HW237386   3.385   2.241   3.760 -0.5995  1.2402 -0.3713
 8584SOL     OW37387   4.410   3.833  13.940 -0.1454  0.4674  0.1939
 8584SOL    HW137388   4.417   3.763  13.875 -0.1739  1.8015 -1.2456
 8584SOL    HW237389   4.431   3.909  13.886  0.0640 -0.2271 -0.6916
 8585SOL     OW37390   3.906   2.779  16.038 -0.3388  0.3309 -0.0875
 8585SOL    HW137391   3.824   2.733  16.058 -0.0619  0.0892  0.4890
 8585SOL    HW237392   3.933   2.829  16.115 -0.8238  0.3255  0.0917
 8586SOL     OW37393   3.069   2.545  11.039  0.1803 -0.2753  0.6211
 8586SOL    HW137394   3.106   2.610  10.981  0.4746 -2.5626 -1.7692
 8586SOL    HW237395   3.114   2.559  11.122  0.1826  0.8261  0.4281
 8587SOL     OW37396   0.550   0.330   3.367  0.4503  0.5257 -0.1677
 8587SOL    HW137397   0.571   0.335   3.273 -2.6298 -1.0100 -0.9370
 8587SOL    HW237398   0.492   0.406   3.362 -0.9310 -0.5945 -1.1196
 8588SOL     OW37399   1.548   3.827   5.515 -0.0435  0.0828  0.2559
 8588SOL    HW137400   1.484   3.758   5.532 -1.7891  1.0660 -2.2488
 8588SOL    HW237401   1.529   3.891   5.584  3.3977  1.8445 -0.4223
 8589SOL     OW37402   0.882   4.068   8.731 -0.5909 -0.4473  0.3463
 8589SOL    HW137403   0.932   4.099   8.655  1.7044 -0.7141  1.7513
 8589SOL    HW237404   0.943   4.084   8.802  0.3059  1.0188 -0.7570
 8590SOL     OW37405   4.410   0.136   3.917 -0.0125 -0.0679 -0.0581
 8590SOL    HW137406   4.402   0.186   3.999  0.2320 -0.8845  0.4631
 8590SOL    HW237407   4.474   0.186   3.866  1.8152 -1.8821  0.4229
 8591SOL     OW37408   3.640   1.516   2.418  0.0367  0.7887 -0.1757
 8591SOL    HW137409   3.555   1.534   2.459  1.5470  2.4934  2.2156
 8591SOL    HW237410   3.688   1.482   2.493  0.4247  3.6937  0.8608
 8592SOL     OW37411   2.090   2.403   4.719 -0.1371  0.6138  0.2260
 8592SOL    HW137412   2.154   2.438   4.781 -0.8746  1.8268  0.3246
 8592SOL    HW237413   2.076   2.466   4.648  2.4730 -0.7992 -1.5220
 8593SOL     OW37414   1.426   3.971   4.673  0.2767 -0.4352 -0.0181
 8593SOL    HW137415   1.477   3.975   4.592 -0.1382 -0.8379 -0.3023
 8593SOL    HW237416   1.403   3.878   4.665  0.1367 -0.5036  1.2124
 8594SOL     OW37417   4.411   1.017   2.412  0.4023  0.0655  0.7784
 8594SOL    HW137418   4.393   0.964   2.334  1.1152  0.9930 -0.0083
 8594SOL    HW237419   4.447   0.953   2.473  1.2326 -2.0849 -1.9739
 8595SOL     OW37420   0.767   1.374   3.446  0.0871  0.3986  0.4305
 8595SOL    HW137421   0.805   1.379   3.358  1.4882 -1.5616  0.9261
 8595SOL    HW237422   0.775   1.281   3.464 -0.7734 -0.0116 -1.3216
 8596SOL     OW37423   1.222   4.359  13.067  0.2791 -0.2836  0.1091
 8596SOL    HW137424   1.242   4.367  12.974 -0.1755 -0.2275  0.0167
 8596SOL    HW237425   1.304   4.317  13.094 -1.3992 -1.9877  2.5659
 8597SOL     OW37426   1.890   3.073   8.563  0.2583  0.3105  0.1589
 8597SOL    HW137427   1.895   2.994   8.509  1.6646  0.5561 -0.0713
 8597SOL    HW237428   1.985   3.086   8.560  0.3085 -0.2371 -0.8098
 8598SOL     OW37429   0.109   4.138   6.184  0.0368 -0.6690  0.3419
 8598SOL    HW137430   0.055   4.154   6.261 -0.2805 -2.1324  0.4193
 8598SOL    HW237431   0.090   4.044   6.182 -1.5465 -0.3770  1.7349
 8599SOL     OW37432   0.818   1.213   7.887  0.0857 -0.2933 -0.5202
 8599SOL    HW137433   0.793   1.243   7.800  0.5371 -2.1604 -1.2867
 8599SOL    HW237434   0.751   1.151   7.914  0.5041 -0.5394 -0.0360
 8600SOL     OW37435   2.044   3.812   3.563 -0.3741  0.2408 -0.2123
 8600SOL    HW137436   2.107   3.769   3.621  1.3543  1.5318 -1.1504
 8600SOL    HW237437   2.093   3.886   3.527  0.1681  0.2773  0.6015
 8601SOL     OW37438   1.123   0.486   6.211 -0.4050 -0.3231  0.6238
 8601SOL    HW137439   1.143   0.491   6.118  0.6342 -0.5379  0.8355
 8601SOL    HW237440   1.029   0.472   6.213 -0.4811  0.5399  3.3608
 8602SOL     OW37441   1.713   0.018   0.555  0.4408  0.1533 -0.3154
 8602SOL    HW137442   1.689   0.101   0.515  0.9342  0.2960 -0.3176
 8602SOL    HW237443   1.679   4.699   0.484 -2.3296 -0.0304  1.1494
 8603SOL     OW37444   1.934   2.396   7.372  0.1794 -0.3545 -0.8765
 8603SOL    HW137445   1.913   2.404   7.465 -0.5693 -0.4235 -1.0421
 8603SOL    HW237446   1.919   2.303   7.354 -1.4348 -0.4962  1.2179
 8604SOL     OW37447   1.503   1.412  13.377 -0.3856  0.4117  0.0551
 8604SOL    HW137448   1.437   1.462  13.424 -0.4152 -0.3411  0.8225
 8604SOL    HW237449   1.580   1.454  13.416  2.7190 -4.3299 -0.8935
 8605SOL     OW37450   0.862   2.037  11.451 -0.4697 -0.1184 -0.6258
 8605SOL    HW137451   0.782   2.009  11.406 -1.7001  1.9780  0.2963
 8605SOL    HW237452   0.922   2.011  11.381  0.0573  1.2218 -0.6646
 8606SOL     OW37453   3.776   2.141   6.502 -0.9481  0.3705  0.2987
 8606SOL    HW137454   3.694   2.123   6.456 -0.1937 -0.4441 -0.7482
 8606SOL    HW237455   3.768   2.084   6.578  2.9430 -0.7863 -0.1427
 8607SOL     OW37456   1.182   0.353   8.729 -0.3183 -0.2394  0.2262
 8607SOL    HW137457   1.216   0.288   8.791  0.2530 -1.1519 -1.0540
 8607SOL    HW237458   1.133   0.416   8.783  1.7093  2.0142 -0.5357
 8608SOL     OW37459   0.162   0.542   2.775  0.8969  0.3908  0.3044
 8608SOL    HW137460   0.113   0.467   2.740  2.2590  1.6299 -4.3477
 8608SOL    HW237461   0.160   0.514   2.866 -1.2408  0.3809  0.2527
 8609SOL     OW37462   1.886   3.360   3.014 -0.0011  0.6035  0.1796
 8609SOL    HW137463   1.973   3.375   3.052  0.3243  1.1516 -0.7847
 8609SOL    HW237464   1.858   3.447   2.986 -0.9069  0.3749  0.3924
 8610SOL     OW37465   3.232   4.295   7.459 -0.1495 -0.6729  0.8103
 8610SOL    HW137466   3.325   4.273   7.459 -0.2458 -1.0753 -0.1051
 8610SOL    HW237467   3.215   4.351   7.384 -1.2124  0.3341  1.8007
 8611SOL     OW37468   2.686   3.147   7.335  0.5997  0.2240  0.2936
 8611SOL    HW137469   2.762   3.093   7.360  2.8057  2.2400 -2.0166
 8611SOL    HW237470   2.667   3.111   7.249 -0.0218  0.7445  0.2172
 8612SOL     OW37471   1.497   2.543   7.279  0.0445  0.1603  0.0279
 8612SOL    HW137472   1.546   2.617   7.316  0.6939  0.4382 -1.3765
 8612SOL    HW237473   1.410   2.570   7.306 -0.0481  0.4766 -0.5867
 8613SOL     OW37474   3.457   3.913   6.295  0.0257  0.1742 -0.9326
 8613SOL    HW137475   3.521   3.976   6.260  1.2809 -2.4842 -3.4066
 8613SOL    HW237476   3.519   3.863   6.348  1.2603  1.4148 -1.2031
 8614SOL     OW37477   1.151   4.098   4.508 -0.3813 -0.1693 -0.3350
 8614SOL    HW137478   1.103   4.090   4.426  1.4986 -1.4224 -1.3267
 8614SOL    HW237479   1.219   4.030   4.505  0.5693  0.8450 -1.9222
 8615SOL     OW37480   0.121   1.940   8.448  0.0293 -0.1121  0.2048
 8615SOL    HW137481   0.143   2.009   8.511 -2.5205  1.4015 -0.5481
 8615SOL    HW237482   0.050   1.979   8.396  0.7862  0.1470 -0.6334
 8616SOL     OW37483   3.855   4.169   5.375 -0.2500 -0.0280  0.1540
 8616SOL    HW137484   3.863   4.161   5.280  1.8428  1.8619  0.1696
 8616SOL    HW237485   3.786   4.109   5.405 -0.5263 -0.2212 -0.8897
 8617SOL     OW37486   0.916   0.810  16.098 -0.3889 -0.4149 -0.5230
 8617SOL    HW137487   0.946   0.719  16.100 -1.5718 -0.7896  0.1107
 8617SOL    HW237488   0.836   0.818  16.046  0.0463  2.7432 -0.7002
 8618SOL     OW37489   4.097   1.037  16.245  0.8022  0.1265 -0.5520
 8618SOL    HW137490   4.119   1.129  16.256  1.5955 -0.1163 -0.1548
 8618SOL    HW237491   4.131   0.985  16.318  0.4125 -0.8253 -1.0424
 8619SOL     OW37492   3.823   1.340   4.431 -0.1793 -0.4167  0.4523
 8619SOL    HW137493   3.814   1.406   4.500  1.8754 -0.4831  0.7889
 8619SOL    HW237494   3.918   1.329   4.430  0.1453  2.3325  1.5838
 8620SOL     OW37495   4.103   3.477   6.920 -0.0910 -0.4671 -0.6743
 8620SOL    HW137496   4.009   3.461   6.932  0.2370 -0.6852  1.4711
 8620SOL    HW237497   4.137   3.394   6.952 -0.5398 -0.6434 -0.6586
 8621SOL     OW37498   1.304   0.339  17.014 -0.4849  0.1518  0.3505
 8621SOL    HW137499   1.344   0.425  17.017  1.9255 -1.0019  1.5967
 8621SOL    HW237500   1.376   0.277  17.027 -1.6072 -1.4811 -1.2230
 8622SOL     OW37501   0.152   3.612   0.642  0.0232 -0.1634  0.3571
 8622SOL    HW137502   0.194   3.530   0.618 -0.3217 -0.0601 -0.5812
 8622SOL    HW237503   0.117   3.584   0.726 -0.1562  1.3289  0.7793
 8623SOL     OW37504   1.511   3.931   7.272 -0.0307  0.5665  0.1431
 8623SOL    HW137505   1.571   3.980   7.328  0.6098 -1.1756  0.9991
 8623SOL    HW237506   1.510   3.979   7.189 -4.3767  0.2194 -0.0010
 8624SOL     OW37507   1.042   0.804  13.991 -0.4961  0.5522 -0.2990
 8624SOL    HW137508   0.982   0.795  13.917 -0.0752  0.5456 -0.6450
 8624SOL    HW237509   1.095   0.870  13.945  0.2338 -1.6594 -2.6237
 8625SOL     OW37510   2.514   0.542  12.628  0.2009  0.1877 -0.1706
 8625SOL    HW137511   2.505   0.584  12.714 -1.0207 -1.0496  0.3003
 8625SOL    HW237512   2.536   0.452  12.649 -1.2430 -0.2408 -0.4706
 8626SOL     OW37513   4.513   1.688  12.008  0.6628  0.5507 -0.0904
 8626SOL    HW137514   4.501   1.690  11.913  1.0976  0.7227 -0.1410
 8626SOL    HW237515   4.521   1.593  12.013  0.6868  0.5131 -0.8443
 8627SOL     OW37516   0.631   0.219  11.731 -0.1970 -0.5696  0.6340
 8627SOL    HW137517   0.714   0.264  11.746 -0.9501  0.8263  0.7049
 8627SOL    HW237518   0.575   0.262  11.796  1.7841  1.1627  1.1992
 8628SOL     OW37519   3.748   3.352   5.100  0.2896  0.2021 -0.3456
 8628SOL    HW137520   3.711   3.414   5.163 -1.6845 -0.1684 -1.1384
 8628SOL    HW237521   3.808   3.409   5.052 -0.2067  0.8870 -0.1507
 8629SOL     OW37522   2.897   3.266  14.130 -0.0973  0.0932 -0.1379
 8629SOL    HW137523   2.822   3.285  14.186 -0.0606  1.2575 -0.4765
 8629SOL    HW237524   2.861   3.188  14.089  1.0206 -0.1298 -0.7034
 8630SOL     OW37525   3.018   3.325  12.266  0.2239  0.1599 -0.3533
 8630SOL    HW137526   3.032   3.255  12.202 -2.1283  0.0005 -0.7088
 8630SOL    HW237527   2.926   3.305  12.283  0.0241  0.5753 -0.9468
 8631SOL     OW37528   3.246   0.633   6.812  0.0625  0.4328  0.5137
 8631SOL    HW137529   3.335   0.602   6.830 -0.2031 -1.0732 -0.8369
 8631SOL    HW237530   3.241   0.697   6.884 -0.0875  2.3651 -1.2220
 8632SOL     OW37531   2.807   2.875   9.037  0.2503 -0.2158 -0.0369
 8632SOL    HW137532   2.745   2.828   9.093  0.6787  0.0005  0.6134
 8632SOL    HW237533   2.866   2.899   9.108 -2.0261 -1.0706  2.1469
 8633SOL     OW37534   1.064   4.049   2.403  0.0438  0.1521  0.2015
 8633SOL    HW137535   1.050   4.058   2.309 -1.5051  4.1669  0.8091
 8633SOL    HW237536   1.148   4.003   2.400 -1.3827 -2.4333  0.0991
 8634SOL     OW37537   4.439   1.589   1.257 -0.0769 -0.2489  0.0646
 8634SOL    HW137538   4.379   1.654   1.221  1.9064  1.0477 -0.8661
 8634SOL    HW237539   4.524   1.628   1.238 -0.2648  0.1041 -0.0430
 8635SOL     OW37540   1.318   1.261  16.147  0.5282  0.4767 -0.5753
 8635SOL    HW137541   1.397   1.233  16.192  0.7930 -0.2689 -1.4924
 8635SOL    HW237542   1.267   1.288  16.223  2.6578 -1.0068  1.3764
 8636SOL     OW37543   2.967   1.707  11.550 -0.2192 -0.1724 -0.3954
 8636SOL    HW137544   2.950   1.662  11.467 -0.2792  1.1050 -1.0810
 8636SOL    HW237545   3.009   1.787  11.517 -0.4007 -0.3532 -1.0704
 8637SOL     OW37546   0.830   3.269   7.532  0.6306  0.5834 -0.1135
 8637SOL    HW137547   0.828   3.250   7.626  1.5930 -0.8676 -0.3812
 8637SOL    HW237548   0.780   3.199   7.490  0.8684 -0.6191  1.6021
 8638SOL     OW37549   3.041   2.743  14.837  0.3308 -0.6314  0.6308
 8638SOL    HW137550   3.107   2.732  14.905  1.5030 -1.3928 -0.6327
 8638SOL    HW237551   3.081   2.706  14.759 -0.7302 -2.3371  0.9087
 8639SOL     OW37552   1.764   1.227  12.288 -0.2533 -0.9561 -0.0954
 8639SOL    HW137553   1.693   1.163  12.298 -0.4515 -1.0904 -2.2609
 8639SOL    HW237554   1.705   1.303  12.282  0.8079  0.1127  3.2053
 8640SOL     OW37555   3.372   0.766   6.195  0.1863  0.0944  0.6472
 8640SOL    HW137556   3.457   0.730   6.219  0.5297 -0.2481 -1.0454
 8640SOL    HW237557   3.359   0.739   6.103 -0.2799  0.7554  0.5237
 8641SOL     OW37558   4.111   3.803   1.873  0.0416 -0.5196  0.4524
 8641SOL    HW137559   4.156   3.739   1.817  1.0954 -0.4503  1.2283
 8641SOL    HW237560   4.186   3.859   1.895  1.0729 -0.4769 -3.0768
 8642SOL     OW37561   0.876   1.453   4.161  0.3288  0.4086  0.2896
 8642SOL    HW137562   0.950   1.457   4.101  0.5924 -0.6758  0.5443
 8642SOL    HW237563   0.898   1.368   4.200  1.5698 -0.4470 -2.2206
 8643SOL     OW37564   1.463   1.112   5.258  0.0234 -0.4639  0.2874
 8643SOL    HW137565   1.523   1.117   5.333 -1.6216 -2.4319  1.7328
 8643SOL    HW237566   1.377   1.117   5.300 -0.7472 -0.7521 -1.2426
 8644SOL     OW37567   0.012   3.533   5.642  0.6640  0.3794  1.0123
 8644SOL    HW137568   0.052   3.616   5.615 -1.4393  1.3402  0.8081
 8644SOL    HW237569   0.084   3.472   5.628  0.4611 -0.1243  2.1953
 8645SOL     OW37570   4.608   1.032  15.079  0.0481 -0.2315 -0.0743
 8645SOL    HW137571   4.686   1.040  15.134 -0.4481  1.1455  0.4035
 8645SOL    HW237572   4.549   1.101  15.108  1.9294  1.4000 -0.1513
 8646SOL     OW37573   4.637   3.941   7.858 -0.1909 -0.4578 -0.3319
 8646SOL    HW137574   4.558   3.949   7.806 -1.4263 -1.7998  1.3254
 8646SOL    HW237575   4.710   3.946   7.796 -0.4437 -0.7508 -0.6508
 8647SOL     OW37576   4.319   2.618   0.572 -0.3737  0.5698  0.1148
 8647SOL    HW137577   4.308   2.622   0.666 -0.5546  0.7451  0.0853
 8647SOL    HW237578   4.239   2.568   0.558  0.4435 -0.3445 -1.4315
 8648SOL     OW37579   1.980   1.191  16.413  1.0715  0.1178 -0.6439
 8648SOL    HW137580   1.904   1.227  16.459  0.6507 -1.1616 -0.3547
 8648SOL    HW237581   1.963   1.104  16.379 -1.3067  0.4337 -0.2356
 8649SOL     OW37582   2.917   3.676   4.319 -0.1192  0.5804 -0.5635
 8649SOL    HW137583   2.886   3.661   4.230 -1.0350 -0.4096 -0.0736
 8649SOL    HW237584   2.902   3.592   4.362 -0.3134  0.2570 -1.2819
 8650SOL     OW37585   1.155   4.497  14.289  0.3888 -0.1269 -0.5466
 8650SOL    HW137586   1.125   4.407  14.298 -1.3685  0.6914  1.5513
 8650SOL    HW237587   1.074   4.545  14.269  1.0764  0.8629 -0.9913
 8651SOL     OW37588   3.078   1.646   2.340  0.0394 -0.5198  0.3433
 8651SOL    HW137589   3.061   1.622   2.249  1.6860 -0.7634  0.0978
 8651SOL    HW237590   3.117   1.733   2.332 -0.3577 -0.3713 -0.0007
 8652SOL     OW37591   2.354   2.275   7.942  0.6002 -0.0358  0.1087
 8652SOL    HW137592   2.382   2.184   7.930  0.5641  0.0970 -0.9999
 8652SOL    HW237593   2.381   2.290   8.032 -1.6698 -0.1100  0.8110
 8653SOL     OW37594   0.110   2.865   8.065 -0.2083 -0.4872  0.2032
 8653SOL    HW137595   0.129   2.888   8.156 -0.5742 -0.3964  0.2565
 8653SOL    HW237596   0.195   2.860   8.021  0.7051 -0.7651  2.0017
 8654SOL     OW37597   1.340   2.955   9.012  0.1425  0.0083 -0.2755
 8654SOL    HW137598   1.408   3.004   9.058 -1.2632 -0.0305  1.8405
 8654SOL    HW237599   1.400   2.894   8.968 -0.9717 -0.4961 -1.1103
 8655SOL     OW37600   3.699   4.161   7.668  0.2583  0.5505  0.5556
 8655SOL    HW137601   3.639   4.184   7.739  0.3252 -3.5292  1.9407
 8655SOL    HW237602   3.772   4.218   7.692  1.2243 -0.5737  0.2652
 8656SOL     OW37603   2.407   1.920  12.215 -0.2387 -0.3709 -0.4920
 8656SOL    HW137604   2.314   1.927  12.239  0.3067 -2.0159  2.0122
 8656SOL    HW237605   2.389   1.849  12.152  3.1592  0.7189 -2.6592
 8657SOL     OW37606   0.618   1.247  11.141  0.3205  0.0863 -0.0039
 8657SOL    HW137607   0.525   1.237  11.118  0.2203  1.5618 -0.2317
 8657SOL    HW237608   0.629   1.165  11.190 -0.3611 -0.2340 -0.3844
 8658SOL     OW37609   1.337   0.629   5.549 -0.3117 -0.5360  0.4184
 8658SOL    HW137610   1.248   0.626   5.516 -0.4165 -0.6657  0.7081
 8658SOL    HW237611   1.334   0.567   5.622 -0.5155 -1.6888 -0.5650
 8659SOL     OW37612   4.171   2.904   5.957 -0.1474  0.2139  0.2317
 8659SOL    HW137613   4.244   2.908   6.019  0.4638  0.3837 -0.4923
 8659SOL    HW237614   4.127   2.820   5.969 -2.7173  1.6209  0.5417
 8660SOL     OW37615   2.108   0.118  14.005 -0.2232  0.0667 -0.0468
 8660SOL    HW137616   2.035   0.179  13.993 -0.1300  0.0396 -0.7643
 8660SOL    HW237617   2.114   0.115  14.100  2.9267 -0.1366 -0.2197
 8661SOL     OW37618   1.083   1.831   8.901  0.1283 -0.4693 -0.6557
 8661SOL    HW137619   0.995   1.844   8.938 -0.2516  0.1250 -1.7656
 8661SOL    HW237620   1.083   1.847   8.807  2.2055 -2.3539 -0.9646
 8662SOL     OW37621   0.715   2.838   3.126 -0.6012  0.1621  0.2320
 8662SOL    HW137622   0.683   2.820   3.038 -0.3969  0.0045  0.1905
 8662SOL    HW237623   0.637   2.875   3.169 -1.1824  0.3361 -0.9686
 8663SOL     OW37624   3.039   1.343  12.187  0.1364 -0.0115 -0.8190
 8663SOL    HW137625   3.029   1.413  12.123 -0.3202  0.1452 -0.5755
 8663SOL    HW237626   3.120   1.368  12.233 -0.0441 -1.2329  0.1734
 8664SOL     OW37627   2.568   3.059   8.915 -0.5491 -0.0910 -0.4269
 8664SOL    HW137628   2.654   3.068   8.874 -0.4027  0.0592 -0.0859
 8664SOL    HW237629   2.546   3.152   8.921  0.7202  0.0026  2.8106
 8665SOL     OW37630   4.396   0.887   0.456  0.0083  0.1480  0.3832
 8665SOL    HW137631   4.385   0.959   0.393  0.3231 -0.8816 -0.8391
 8665SOL    HW237632   4.491   0.895   0.454 -0.1602  1.0685 -4.2869
 8666SOL     OW37633   2.025   1.975   4.429 -0.9254  0.4446  0.3933
 8666SOL    HW137634   2.075   1.989   4.348  0.4024 -0.2458  1.0880
 8666SOL    HW237635   1.957   1.918   4.393  1.0821 -0.2314 -2.3561
 8667SOL     OW37636   0.995   0.205  15.754 -0.3093 -0.1464  0.6563
 8667SOL    HW137637   0.924   0.146  15.730  1.1804 -2.3191  1.6182
 8667SOL    HW237638   1.022   0.228  15.666  1.8729 -2.1277  0.8112
 8668SOL     OW37639   2.766   2.021   0.262  0.5126  0.0496 -0.5272
 8668SOL    HW137640   2.672   2.034   0.271  1.0462  1.8675  2.2512
 8668SOL    HW237641   2.799   2.046   0.349 -0.2234  0.0032 -0.2420
 8669SOL     OW37642   4.524   2.550  15.484 -0.0426  0.0870  0.0764
 8669SOL    HW137643   4.485   2.637  15.476  0.4097  0.6460  3.6389
 8669SOL    HW237644   4.611   2.565  15.446  0.7150  0.1527  1.8331
 8670SOL     OW37645   4.611   1.479   4.771  0.2431 -0.1925 -0.0025
 8670SOL    HW137646   4.682   1.542   4.782 -1.7178  1.3237  3.6504
 8670SOL    HW237647   4.555   1.516   4.702  0.0535 -0.5522 -0.0413
 8671SOL     OW37648   4.170   0.200   5.768 -0.0026 -0.3565 -0.7998
 8671SOL    HW137649   4.077   0.187   5.786 -0.1524  1.5720 -0.1905
 8671SOL    HW237650   4.195   0.287   5.800  4.0135 -1.9403  0.5013
 8672SOL     OW37651   3.543   1.929   5.803  0.8462  0.1587 -0.4932
 8672SOL    HW137652   3.545   2.006   5.746 -1.7129 -0.0945 -0.9606
 8672SOL    HW237653   3.585   1.854   5.760 -1.3671 -1.1280 -0.4234
 8673SOL     OW37654   3.113   2.885   1.395  0.0314  0.4276  0.5031
 8673SOL    HW137655   3.075   2.805   1.359 -0.8796 -0.5201  3.5779
 8673SOL    HW237656   3.191   2.856   1.443 -1.3851  0.8574  3.0716
 8674SOL     OW37657   0.139   2.813  16.350 -0.4887  0.1934 -0.2183
 8674SOL    HW137658   0.179   2.846  16.270 -2.6055  0.3700 -1.2072
 8674SOL    HW237659   0.218   2.827  16.403  0.2716 -1.5403 -0.9186
 8675SOL     OW37660   3.720   4.518   9.662  0.0222 -0.0858  0.2030
 8675SOL    HW137661   3.783   4.512   9.590 -0.8067  1.1229 -0.6318
 8675SOL    HW237662   3.771   4.497   9.740 -1.3531  2.9619  1.9482
 8676SOL     OW37663   3.931   3.997   7.808 -0.5645 -0.1864  0.0552
 8676SOL    HW137664   3.839   4.025   7.804 -0.4919  0.0988  0.4466
 8676SOL    HW237665   3.926   3.981   7.902  2.6910 -2.1533 -0.1236
 8677SOL     OW37666   1.638   2.304   4.559  0.4242 -0.2807 -0.0347
 8677SOL    HW137667   1.698   2.230   4.570  1.8828  0.8129 -0.6201
 8677SOL    HW237668   1.562   2.252   4.534 -0.8274  0.9823  1.1820
 8678SOL     OW37669   2.571   4.208  12.922 -0.2100  0.4035 -0.1278
 8678SOL    HW137670   2.635   4.236  12.857 -0.7954  0.0871 -0.8473
 8678SOL    HW237671   2.536   4.294  12.947 -2.2546 -1.1170  2.2897
 8679SOL     OW37672   0.769   3.551   2.274 -0.0219  0.1104  0.0769
 8679SOL    HW137673   0.690   3.529   2.224  0.6003 -0.8403 -0.4735
 8679SOL    HW237674   0.759   3.645   2.291 -0.6188  0.2816 -1.2169
 8680SOL     OW37675   1.703   2.119  11.932  0.1232  0.1937 -0.1164
 8680SOL    HW137676   1.608   2.131  11.936 -0.0812 -0.6991 -2.2824
 8680SOL    HW237677   1.723   2.207  11.962  1.5693 -0.2079  0.0943
 8681SOL     OW37678   2.797   3.002  12.203  0.2109 -0.5219  0.0558
 8681SOL    HW137679   2.886   3.018  12.170  1.0752 -2.2842  1.4993
 8681SOL    HW237680   2.746   3.071  12.161 -1.7915 -0.3156  2.9219
 8682SOL     OW37681   2.654   3.929   8.399 -0.0572 -0.2367 -0.1404
 8682SOL    HW137682   2.726   3.867   8.398  0.0735 -0.1404  2.8654
 8682SOL    HW237683   2.652   3.967   8.486  0.5406  0.9148 -0.6339
 8683SOL     OW37684   3.911   1.335   2.110  0.2279 -0.3797  0.0441
 8683SOL    HW137685   3.916   1.426   2.082 -0.3147 -0.8489 -1.5336
 8683SOL    HW237686   3.815   1.328   2.110  0.1710  0.2947  1.9149
 8684SOL     OW37687   1.237   1.269   7.636  0.1651  0.6384  0.0087
 8684SOL    HW137688   1.170   1.253   7.569 -2.3327  1.5721  2.2554
 8684SOL    HW237689   1.180   1.289   7.710  1.8667  1.8644  0.9850
 8685SOL     OW37690   0.868   4.354   2.505 -0.1134  0.0303  0.1967
 8685SOL    HW137691   0.859   4.446   2.483  1.8493 -0.1222 -1.2518
 8685SOL    HW237692   0.791   4.318   2.461  0.5329 -0.1073 -0.8177
 8686SOL     OW37693   4.235   4.347  17.356  0.3023  0.3942 -0.1215
 8686SOL    HW137694   4.148   4.376  17.327 -0.8463 -4.4338 -1.5193
 8686SOL    HW237695   4.282   4.429  17.368 -0.1218  0.5638  0.3873
 8687SOL     OW37696   0.040   0.476   6.806 -0.2207  0.2258 -0.3097
 8687SOL    HW137697   0.130   0.501   6.826  0.4007 -0.8301 -1.8013
 8687SOL    HW237698   0.028   0.490   6.712 -0.9768  1.9274  0.0455
 8688SOL     OW37699   0.760   4.639   8.252  0.2642 -0.1085 -0.2315
 8688SOL    HW137700   0.718   4.666   8.170 -0.3115 -0.2033  0.0316
 8688SOL    HW237701   0.791   4.552   8.225 -1.1450 -0.4404 -0.7736
 8689SOL     OW37702   4.655   0.941   1.705 -0.0491 -0.3259  0.3963
 8689SOL    HW137703   4.654   0.999   1.780 -1.1962  1.8052 -1.2543
 8689SOL    HW237704   4.666   0.999   1.630 -0.1116 -3.2918 -1.9431
 8690SOL     OW37705   1.567   3.395   8.277  0.0046 -0.1197  0.0246
 8690SOL    HW137706   1.654   3.405   8.238 -0.0759  0.5427  0.0037
 8690SOL    HW237707   1.585   3.379   8.370  0.2604 -0.1274 -0.0252
 8691SOL     OW37708   2.830   0.616   8.438 -0.0727  0.2255 -0.4284
 8691SOL    HW137709   2.813   0.655   8.351  0.8063  1.1767 -0.1766
 8691SOL    HW237710   2.887   0.685   8.473 -1.6925  0.8381  0.9913
 8692SOL     OW37711   1.756   4.651   1.947  0.1303  0.0022 -0.5387
 8692SOL    HW137712   1.828   4.683   2.002 -0.8284  1.7813 -0.3173
 8692SOL    HW237713   1.710   4.592   2.005  0.6850  1.4889  1.4222
 8693SOL     OW37714   1.808   0.635  11.450  0.0605 -0.2689 -0.2154
 8693SOL    HW137715   1.759   0.562  11.485 -0.0392  0.1372  0.4862
 8693SOL    HW237716   1.841   0.674  11.531  1.4724  1.4571 -1.5969
 8694SOL     OW37717   1.640   3.025   5.605 -0.1303  0.1780  0.2901
 8694SOL    HW137718   1.556   3.033   5.559  0.1773 -1.9642 -0.6262
 8694SOL    HW237719   1.671   2.940   5.576 -2.0439 -0.3592 -0.1811
 8695SOL     OW37720   1.229   2.590   7.935  0.3719  0.3661  0.3184
 8695SOL    HW137721   1.293   2.615   7.869 -1.4637  1.7868 -0.9226
 8695SOL    HW237722   1.280   2.595   8.016  1.4214  1.3254 -0.3998
 8696SOL     OW37723   1.669   4.274   3.518  0.5932 -0.1259  0.1589
 8696SOL    HW137724   1.671   4.200   3.458 -2.0939  0.4335 -0.6206
 8696SOL    HW237725   1.739   4.247   3.577 -0.9532 -0.9528  1.6202
 8697SOL     OW37726   3.347   1.250   7.627  0.2698  0.4891  0.1945
 8697SOL    HW137727   3.290   1.289   7.692  2.3456 -0.1909  2.3973
 8697SOL    HW237728   3.328   1.159   7.648  0.7090  1.0583  2.9953
 8698SOL     OW37729   0.769   1.585   4.563 -0.1494  0.2129 -0.0435
 8698SOL    HW137730   0.708   1.589   4.490 -1.2562  0.5195  0.9031
 8698SOL    HW237731   0.739   1.654   4.622  0.6626 -0.3713  1.0625
 8699SOL     OW37732   4.705   3.907   6.254  0.6051  0.6019  0.3203
 8699SOL    HW137733   4.657   3.856   6.319  0.3025 -1.3189 -1.4598
 8699SOL    HW237734   0.040   3.843   6.243 -0.8404 -0.5622 -2.0119
 8700SOL     OW37735   3.493   0.826   3.314 -0.1810 -0.4204  0.4289
 8700SOL    HW137736   3.455   0.739   3.320  1.3272 -1.1089  0.0370
 8700SOL    HW237737   3.458   0.880   3.385 -1.0115 -0.2746 -0.0918
 8701SOL     OW37738   2.725   4.589   6.168 -0.4576  0.2433 -0.6301
 8701SOL    HW137739   2.698   4.521   6.106  0.0154  1.3423 -2.0601
 8701SOL    HW237740   2.739   4.663   6.108  0.7179  1.1461  0.7613
 8702SOL     OW37741   1.641   2.125   8.112 -0.7295 -0.0586  0.3006
 8702SOL    HW137742   1.586   2.046   8.113 -2.0428  0.8244 -2.3637
 8702SOL    HW237743   1.720   2.085   8.075 -1.3288  0.6378 -1.7099
 8703SOL     OW37744   1.930   1.841   3.228 -0.3984  0.4242  0.1772
 8703SOL    HW137745   1.911   1.757   3.269 -1.7143  0.0169 -1.2412
 8703SOL    HW237746   2.002   1.808   3.173 -0.7159 -1.4484  0.8809
 8704SOL     OW37747   2.518   2.932   0.283  0.6761  0.4015 -0.1479
 8704SOL    HW137748   2.534   2.946   0.189 -1.0356  0.8915 -0.3545
 8704SOL    HW237749   2.462   3.004   0.311 -2.7274 -1.9766 -0.8544
 8705SOL     OW37750   2.602   1.932  11.227  0.6395 -0.1466  0.0606
 8705SOL    HW137751   2.651   1.998  11.276 -1.0282  0.6712  0.6607
 8705SOL    HW237752   2.602   1.856  11.285  1.2958 -0.1290  0.0785
 8706SOL     OW37753   2.996   2.521  15.689  1.0507 -0.6092 -0.2913
 8706SOL    HW137754   3.027   2.438  15.725  0.1080 -0.0980  1.6799
 8706SOL    HW237755   3.065   2.534  15.624  0.3382 -2.1371 -1.3495
 8707SOL     OW37756   1.940   2.027   8.095  0.4525 -0.3225  0.2696
 8707SOL    HW137757   1.911   2.097   8.154  3.2838  2.1887 -1.3476
 8707SOL    HW237758   1.986   1.964   8.151  1.0468  1.5402  1.8677
 8708SOL     OW37759   1.457   4.082   0.523  0.7283 -0.2138  0.6517
 8708SOL    HW137760   1.415   4.106   0.606  1.6648 -0.3683  1.1709
 8708SOL    HW237761   1.445   4.162   0.471 -3.2172  0.4283  2.5487
 8709SOL     OW37762   1.302   3.891   9.401 -0.1225  0.4641 -0.2664
 8709SOL    HW137763   1.210   3.914   9.391 -0.4389 -1.1713 -1.2039
 8709SOL    HW237764   1.326   3.952   9.470  1.5215  1.2745 -1.5403
 8710SOL     OW37765   4.191   3.181   3.421 -0.5916 -0.0108  0.7434
 8710SOL    HW137766   4.115   3.211   3.372 -0.5287 -0.7132  0.2106
 8710SOL    HW237767   4.218   3.262   3.465 -0.7148  2.0821 -3.0502
 8711SOL     OW37768   3.778   4.572   3.123  0.0389  0.3317  0.1546
 8711SOL    HW137769   3.805   4.518   3.049  1.0723  0.5661  0.3551
 8711SOL    HW237770   3.859   4.616   3.151 -1.5146  2.1126  1.8820
 8712SOL     OW37771   3.716   0.170   2.245 -0.2183  0.2650  0.3664
 8712SOL    HW137772   3.627   0.193   2.218  0.1532 -0.7648 -1.7619
 8712SOL    HW237773   3.708   0.095   2.305  0.1815 -1.2276 -1.4260
 8713SOL     OW37774   4.155   3.040   9.259  0.1140  0.0100  0.6897
 8713SOL    HW137775   4.077   3.048   9.314 -0.1979  0.7588  0.1275
 8713SOL    HW237776   4.226   3.036   9.323  1.4764  2.7406 -0.6370
 8714SOL     OW37777   0.729   2.965   9.816  0.1169  0.2119 -0.5164
 8714SOL    HW137778   0.719   3.053   9.779 -0.5565  1.0449  1.6648
 8714SOL    HW237779   0.702   2.989   9.904 -1.9748  0.4982 -1.2308
 8715SOL     OW37780   3.799   0.231  10.686  0.3451 -0.2882  0.4146
 8715SOL    HW137781   3.780   0.269  10.772 -2.3387  0.1498 -0.3641
 8715SOL    HW237782   3.772   0.141  10.701 -1.3668  0.0060 -0.9047
 8716SOL     OW37783   4.426   4.504   5.717 -0.0338 -0.1257  0.7398
 8716SOL    HW137784   4.433   4.599   5.709  3.9413 -0.2934  2.0993
 8716SOL    HW237785   4.518   4.478   5.720 -0.7478 -2.7736 -0.2008
 8717SOL     OW37786   1.948   1.461  17.608 -0.1600  0.4245  0.0655
 8717SOL    HW137787   1.924   1.553  17.617 -0.5685  0.5537 -2.1888
 8717SOL    HW237788   2.005   1.439  17.682  0.2862  0.4043 -0.2817
 8718SOL     OW37789   2.194   2.908   6.531  0.2820  0.3927  0.9513
 8718SOL    HW137790   2.210   2.842   6.464 -0.4354 -0.4352  1.5941
 8718SOL    HW237791   2.271   2.961   6.510 -0.7034  1.1128 -0.8669
 8719SOL     OW37792   2.228   1.066   5.037 -0.1623 -0.4850  0.3070
 8719SOL    HW137793   2.198   0.977   5.020 -1.1389 -0.3344  1.2435
 8719SOL    HW237794   2.316   1.045   5.067 -0.8133 -0.3939  2.2586
 8720SOL     OW37795   0.720   0.517   1.800  0.0271  0.1716  0.5045
 8720SOL    HW137796   0.795   0.534   1.857  0.5964 -1.1072  0.1343
 8720SOL    HW237797   0.748   0.584   1.737  1.1317 -0.0116  0.7985
 8721SOL     OW37798   4.281   0.587   2.386 -0.4888 -0.4488 -0.5953
 8721SOL    HW137799   4.317   0.620   2.304  1.5843 -1.7636 -0.2205
 8721SOL    HW237800   4.211   0.651   2.396  0.2849  0.2001  0.7479
 8722SOL     OW37801   1.262   0.875   5.746  0.1077 -0.4165  0.0076
 8722SOL    HW137802   1.328   0.818   5.785 -1.6331 -2.1087  0.4746
 8722SOL    HW237803   1.175   0.850   5.776  0.8461  0.9750  3.2855
 8723SOL     OW37804   0.560   0.847   5.768 -0.1015  0.1390 -0.0071
 8723SOL    HW137805   0.549   0.759   5.733 -1.3196  0.0559  0.5650
 8723SOL    HW237806   0.639   0.847   5.821 -1.2747 -2.9970  1.7655
 8724SOL     OW37807   0.510   0.304   6.863  0.0539 -0.2699 -0.1826
 8724SOL    HW137808   0.438   0.257   6.905 -0.0981 -1.2786 -1.5671
 8724SOL    HW237809   0.506   0.264   6.776 -1.7177 -2.6348  1.0054
 8725SOL     OW37810   2.961   4.502   6.956 -0.1378  0.3583  0.4380
 8725SOL    HW137811   3.054   4.491   6.937 -0.1899  0.6195  0.0381
 8725SOL    HW237812   2.918   4.458   6.883 -0.3032 -1.8330  1.8505
 8726SOL     OW37813   1.974   1.109   8.338  0.3896  0.3735  0.2430
 8726SOL    HW137814   2.052   1.090   8.287 -1.0008 -1.1050 -1.3355
 8726SOL    HW237815   1.907   1.074   8.278  0.5361 -0.6460  0.6672
 8727SOL     OW37816   3.324   1.562   7.514 -1.2261  0.1849 -0.0566
 8727SOL    HW137817   3.375   1.501   7.461 -0.5341  0.3771  0.3872
 8727SOL    HW237818   3.294   1.619   7.443 -1.2521  0.1141 -0.1024
 8728SOL     OW37819   1.299   3.535  17.308 -0.0412  0.6873  0.2904
 8728SOL    HW137820   1.212   3.571  17.325 -0.1681  1.3217 -1.7876
 8728SOL    HW237821   1.282   3.495  17.223  1.7073 -1.5890  1.0221
 8729SOL     OW37822   0.149   0.628   0.405  0.0451 -0.3046  0.7181
 8729SOL    HW137823   0.070   0.627   0.460  0.4562 -1.4324  1.2831
 8729SOL    HW237824   0.211   0.580   0.460  0.2157 -0.8015  0.0824
 8730SOL     OW37825   1.189   0.387   4.840 -0.4384 -0.1807 -0.2140
 8730SOL    HW137826   1.271   0.387   4.889 -0.0398 -0.1885 -0.8875
 8730SOL    HW237827   1.183   0.482   4.854  0.9331 -0.1005 -0.1394
 8731SOL     OW37828   1.109   4.257  14.413 -0.0727  0.3063 -0.3338
 8731SOL    HW137829   1.150   4.321  14.471  2.9890 -2.8261  0.9933
 8731SOL    HW237830   1.017   4.257  14.437 -0.0715  0.0131 -0.3294
 8732SOL     OW37831   3.357   1.721   0.994  0.4902 -0.6414 -0.1769
 8732SOL    HW137832   3.273   1.758   0.967  0.6312 -0.2736 -0.1040
 8732SOL    HW237833   3.384   1.695   0.905  1.5725 -1.5084  0.4019
 8733SOL     OW37834   4.587   1.055   3.199  0.3950 -0.3877  0.0785
 8733SOL    HW137835   4.664   1.092   3.244  0.4310 -2.2817  1.5882
 8733SOL    HW237836   4.520   1.056   3.267  1.3886 -0.3083  1.0670
 8734SOL     OW37837   1.068   0.211   1.768 -0.3331  0.1148 -0.0367
 8734SOL    HW137838   1.142   0.182   1.714  1.0486  2.0986  0.8076
 8734SOL    HW237839   1.023   0.131   1.797  1.9167 -0.6715  1.2849
 8735SOL     OW37840   1.998   3.737   5.408 -0.4688 -0.0916  0.2487
 8735SOL    HW137841   2.014   3.647   5.381 -0.2704 -0.0885  0.3532
 8735SOL    HW237842   2.071   3.776   5.359 -1.1517 -0.0584 -0.7356
 8736SOL     OW37843   3.659   2.892   4.649  0.1929  0.3246  0.3472
 8736SOL    HW137844   3.684   2.982   4.667  2.7290 -0.8131  2.5330
 8736SOL    HW237845   3.741   2.847   4.671 -0.8254 -3.5365 -3.8939
 8737SOL     OW37846   3.893   0.019   4.053 -0.3930  0.4459  0.2014
 8737SOL    HW137847   3.934   0.028   3.967  0.6431  0.1169  0.6702
 8737SOL    HW237848   3.823   4.692   4.032  0.5546 -0.8776  0.9577
 8738SOL     OW37849   4.054   2.521   4.606 -0.5314 -0.2069  0.6718
 8738SOL    HW137850   4.148   2.506   4.605 -0.7841 -1.6003 -0.7504
 8738SOL    HW237851   4.025   2.594   4.552 -0.3910 -1.0215 -0.4827
 8739SOL     OW37852   1.537   0.802   5.454  0.1978  0.0681 -0.1992
 8739SOL    HW137853   1.466   0.744   5.480  2.5607 -2.6703  0.0680
 8739SOL    HW237854   1.534   0.793   5.359 -0.2379 -1.9376  0.0070
 8740SOL     OW37855   3.466   0.648   5.170  0.1435 -0.1594 -0.1008
 8740SOL    HW137856   3.522   0.587   5.220  2.2245  2.6218  0.9761
 8740SOL    HW237857   3.508   0.638   5.085  0.0489 -0.7008 -0.0874
 8741SOL     OW37858   2.536   0.021   2.214 -0.3259 -0.2663 -0.0627
 8741SOL    HW137859   2.494   0.103   2.243 -0.9908  0.3365 -2.7241
 8741SOL    HW237860   2.600   0.016   2.285 -0.8741 -0.5464  0.4079
 8742SOL     OW37861   3.018   0.040  16.682 -0.3727  0.3865  0.0397
 8742SOL    HW137862   3.109   0.059  16.703 -0.8393  2.3192  0.2315
 8742SOL    HW237863   2.969   0.122  16.679  0.1333  0.7212  0.9701
 8743SOL     OW37864   3.730   1.859  10.200  0.2311  0.0852  0.3423
 8743SOL    HW137865   3.738   1.764  10.189 -0.3697 -0.1504  2.0274
 8743SOL    HW237866   3.751   1.871  10.292  0.8140 -1.8711  0.4624
 8744SOL     OW37867   0.922   1.806   7.543  0.4166 -0.0852  0.0917
 8744SOL    HW137868   0.913   1.813   7.448  0.6649 -1.3721 -0.0262
 8744SOL    HW237869   0.945   1.714   7.558 -0.7857 -0.7086 -1.8371
 8745SOL     OW37870   2.395   3.776   6.304 -0.0998  0.1537 -0.3984
 8745SOL    HW137871   2.373   3.855   6.255 -0.3890 -0.0065 -0.5259
 8745SOL    HW237872   2.347   3.796   6.385  1.2757 -2.0111  0.9622
 8746SOL     OW37873   0.682   1.004   8.022 -0.5499 -0.2323  0.5668
 8746SOL    HW137874   0.636   1.018   8.105 -0.5757 -1.4030  0.7424
 8746SOL    HW237875   0.614   0.966   7.967  0.0394 -0.8632  0.2814
 8747SOL     OW37876   4.307   3.197   2.615 -0.2166 -0.4556  0.0768
 8747SOL    HW137877   4.337   3.287   2.601  0.7383 -1.0177 -1.4651
 8747SOL    HW237878   4.353   3.168   2.693  0.9697 -1.3576 -0.9732
 8748SOL     OW37879   4.585   2.127   5.857  0.0549  0.0078  0.5064
 8748SOL    HW137880   4.587   2.211   5.811 -0.9771 -0.3447 -0.1763
 8748SOL    HW237881   4.491   2.114   5.847  0.1531  1.3863 -2.2563
 8749SOL     OW37882   1.781   1.900   8.825  0.1540 -0.0503 -0.4822
 8749SOL    HW137883   1.792   1.991   8.853 -2.5643  0.8882 -2.4703
 8749SOL    HW237884   1.869   1.880   8.793 -0.4114 -3.3953  0.0123
 8750SOL     OW37885   4.504   0.564   2.938  0.3525  0.1776 -0.5879
 8750SOL    HW137886   4.467   0.641   2.982 -1.8204 -0.9753 -0.4210
 8750SOL    HW237887   4.598   0.581   2.929  0.3803  0.3086 -0.0986
 8751SOL     OW37888   3.917   1.538   2.484 -0.3741  0.0090 -0.1733
 8751SOL    HW137889   3.900   1.520   2.577  1.3944  1.6842  0.4547
 8751SOL    HW237890   3.986   1.474   2.465 -0.4294 -0.0806 -0.0783
 8752SOL     OW37891   3.943   3.304   0.353 -0.0451  0.1607 -0.4477
 8752SOL    HW137892   3.955   3.354   0.434  0.9648  2.3868 -1.9568
 8752SOL    HW237893   4.020   3.248   0.348 -1.3487 -1.6588 -0.2772
 8753SOL     OW37894   0.935   4.639  14.275  0.0771  0.7130 -0.2575
 8753SOL    HW137895   0.865   4.670  14.219 -1.0863 -1.4413  0.0226
 8753SOL    HW237896   0.935   4.701  14.349  0.5076  1.0268 -0.5157
 8754SOL     OW37897   1.152   1.421   5.160 -0.2148  0.1385  0.4932
 8754SOL    HW137898   1.132   1.507   5.197  0.7500  0.3126  0.6065
 8754SOL    HW237899   1.216   1.447   5.095 -3.0926 -0.9067 -2.7463
 8755SOL     OW37900   3.353   3.366   8.434 -0.5996 -0.1244 -0.0699
 8755SOL    HW137901   3.373   3.273   8.430 -2.1797 -0.5995  3.6424
 8755SOL    HW237902   3.418   3.411   8.380 -0.9442 -0.7006 -0.9776
 8756SOL     OW37903   2.321   1.530   4.513  0.1517  0.4369  0.0018
 8756SOL    HW137904   2.293   1.590   4.582  0.4329  1.1038 -0.4629
 8756SOL    HW237905   2.345   1.588   4.441 -1.2442 -1.3478 -1.9002
 8757SOL     OW37906   2.665   1.960  12.361  0.2334 -0.0002  0.0476
 8757SOL    HW137907   2.585   1.973  12.310  0.0666  0.6215  0.4670
 8757SOL    HW237908   2.654   1.866  12.374  0.3619 -0.3713 -2.6080
 8758SOL     OW37909   4.141   2.125   4.010 -0.6259 -0.3062  0.0871
 8758SOL    HW137910   4.185   2.093   4.089 -2.7782 -1.9182  0.6149
 8758SOL    HW237911   4.118   2.042   3.969 -1.7411 -0.1793  0.4671
 8759SOL     OW37912   3.174   0.991   5.813  0.6222  0.1638  0.1429
 8759SOL    HW137913   3.094   0.979   5.865  0.4466 -0.6832 -0.3185
 8759SOL    HW237914   3.219   0.908   5.832  0.5227 -0.0958 -0.7530
 8760SOL     OW37915   2.206   2.737  11.461 -0.0080  0.0669  0.3156
 8760SOL    HW137916   2.133   2.736  11.400 -0.3814 -2.8828  0.7932
 8760SOL    HW237917   2.272   2.686  11.414 -0.0902 -0.4664  0.7701
 8761SOL     OW37918   4.280   1.807  12.685  0.3176 -0.1314  0.6907
 8761SOL    HW137919   4.227   1.762  12.619 -2.5298  0.0541  2.8827
 8761SOL    HW237920   4.320   1.743  12.744 -2.2269 -0.9689  1.4966
 8762SOL     OW37921   3.518   2.751   8.108 -0.1183  0.0354 -0.5162
 8762SOL    HW137922   3.501   2.657   8.115  0.2467 -0.2148 -3.0500
 8762SOL    HW237923   3.610   2.749   8.082 -0.4238 -0.8062 -1.5582
 8763SOL     OW37924   2.403   2.855  11.110  0.0484  0.1229  0.2357
 8763SOL    HW137925   2.400   2.894  11.197 -1.5211 -2.0555  1.1728
 8763SOL    HW237926   2.377   2.764  11.124 -0.8298  0.1481 -1.2011
 8764SOL     OW37927   0.792   3.422   3.969  0.4381 -0.3291 -0.1862
 8764SOL    HW137928   0.824   3.332   3.971  1.5085  0.0370 -0.9174
 8764SOL    HW237929   0.741   3.417   4.050 -1.6257 -0.0699 -1.4863
 8765SOL     OW37930   1.310   1.865   4.051  0.3115 -0.1347  0.5599
 8765SOL    HW137931   1.362   1.787   4.031  1.4039  0.6949  0.1880
 8765SOL    HW237932   1.291   1.895   3.962  0.1801  0.0774  0.6604
 8766SOL     OW37933   3.806   3.905   8.441  0.3136 -0.3847  0.0604
 8766SOL    HW137934   3.736   3.943   8.495  1.6090  1.0570  0.7234
 8766SOL    HW237935   3.851   3.986   8.418  0.6909 -0.3628  0.8787
 8767SOL     OW37936   0.151   2.354  12.222 -0.1436 -0.0115  0.3936
 8767SOL    HW137937   0.245   2.373  12.220 -0.4627  1.3087 -3.7519
 8767SOL    HW237938   0.143   2.277  12.278 -0.8827  0.5551  1.0594
 8768SOL     OW37939   4.547   3.705   6.356 -0.4855 -0.3566  0.0305
 8768SOL    HW137940   4.556   3.669   6.268 -3.2778 -0.0509 -0.3660
 8768SOL    HW237941   4.455   3.682   6.361 -0.8666  1.2297  0.3123
 8769SOL     OW37942   1.846   3.004   9.069  0.1981  0.0686 -0.0275
 8769SOL    HW137943   1.809   3.051   9.144  2.0918  0.1940  0.8486
 8769SOL    HW237944   1.890   3.076   9.023  1.2059 -0.8053 -0.4399
 8770SOL     OW37945   2.771   2.791   1.112  0.2381 -0.2856 -0.3980
 8770SOL    HW137946   2.858   2.830   1.122 -0.2035  0.8356 -0.9505
 8770SOL    HW237947   2.756   2.807   1.018 -1.2414  0.6772 -0.0100
 8771SOL     OW37948   4.668   3.225   1.531 -0.1038 -0.0975  0.0040
 8771SOL    HW137949   4.627   3.241   1.446  0.7535  1.3827 -0.1162
 8771SOL    HW237950   4.639   3.303   1.578 -0.8441  0.4034 -1.2784
 8772SOL     OW37951   4.392   4.452   1.361  0.2411  0.0795 -0.1741
 8772SOL    HW137952   4.314   4.505   1.348 -1.0564 -1.8907 -0.4886
 8772SOL    HW237953   4.449   4.506   1.415  0.3785 -0.9253  0.6903
 8773SOL     OW37954   1.677   1.928   6.634  0.1709 -0.0702 -0.3400
 8773SOL    HW137955   1.765   1.902   6.608 -0.9883 -2.5656 -1.7046
 8773SOL    HW237956   1.690   1.923   6.728 -1.5247 -0.3039 -0.1143
 8774SOL     OW37957   1.756   2.097   4.126  0.1595 -0.1803  0.2422
 8774SOL    HW137958   1.776   2.172   4.070  1.6213  0.3000  1.4376
 8774SOL    HW237959   1.785   2.135   4.209  0.0137 -0.7303  0.5522
 8775SOL     OW37960   3.552   3.870  15.014  0.0445  0.5932 -0.1042
 8775SOL    HW137961   3.592   3.792  15.051 -1.0331 -0.5302 -1.2900
 8775SOL    HW237962   3.543   3.914  15.098  3.7513 -0.5574  0.9011
 8776SOL     OW37963   1.074   0.479  16.654  0.3948 -0.2850 -0.0525
 8776SOL    HW137964   0.986   0.512  16.637  0.6294  1.2261  1.7639
 8776SOL    HW237965   1.056   0.399  16.704  1.6370 -0.8148 -0.4612
 8777SOL     OW37966   4.298   0.254   0.108  0.8882  0.1350 -0.9443
 8777SOL    HW137967   4.287   0.159   0.102  3.6709 -0.2834  1.0821
 8777SOL    HW237968   4.228   0.284   0.049 -0.0241  0.6520  0.4083
 8778SOL     OW37969   2.091   1.368  16.732  0.2479  0.1069  0.9173
 8778SOL    HW137970   2.020   1.353  16.670  1.5054 -0.8572 -0.2942
 8778SOL    HW237971   2.168   1.323  16.696 -0.0266 -1.0531  1.8133
 8779SOL     OW37972   4.291   1.080   4.492 -0.0119 -0.1930 -0.0669
 8779SOL    HW137973   4.261   1.040   4.411 -0.3946  0.6796 -0.3563
 8779SOL    HW237974   4.334   1.001   4.524  0.1433  0.2496  0.8251
 8780SOL     OW37975   2.964   2.129   9.007 -0.3781 -0.0970 -0.1375
 8780SOL    HW137976   2.925   2.072   8.941 -0.9711  1.1112 -0.8088
 8780SOL    HW237977   2.901   2.198   8.989 -0.1174  0.1409 -0.1230
 8781SOL     OW37978   0.298   0.642  15.208  0.0161  0.0325 -0.3363
 8781SOL    HW137979   0.363   0.578  15.178  0.7101  1.9073 -2.8528
 8781SOL    HW237980   0.291   0.613  15.299 -1.1972  1.4982  0.0500
 8782SOL     OW37981   4.267   2.707   3.395  0.3188  0.5049  0.5908
 8782SOL    HW137982   4.204   2.765   3.437  0.0636 -0.7886  2.0145
 8782SOL    HW237983   4.278   2.644   3.467 -0.4459  1.5318  1.5958
 8783SOL     OW37984   3.881   4.451   9.897  0.5690 -0.8797  0.1996
 8783SOL    HW137985   3.935   4.465   9.975 -2.5974  1.5831  1.9274
 8783SOL    HW237986   3.837   4.379   9.942 -0.4154  0.4883  1.4366
 8784SOL     OW37987   1.842   3.312  16.290  0.2532  0.6891 -0.3890
 8784SOL    HW137988   1.781   3.378  16.256 -1.6842 -0.7217  0.3122
 8784SOL    HW237989   1.783   3.253  16.338  0.3922  1.0593  0.2472
 8785SOL     OW37990   4.456   4.282   5.013  0.1528 -0.0129  0.0349
 8785SOL    HW137991   4.446   4.301   5.106 -0.4460  0.4628 -0.1265
 8785SOL    HW237992   4.494   4.367   4.988  1.4277 -0.5688  0.0668
 8786SOL     OW37993   2.277   3.380  11.980 -0.0495 -0.3828 -0.0577
 8786SOL    HW137994   2.184   3.361  11.985  0.1017 -0.8618  0.9529
 8786SOL    HW237995   2.311   3.307  12.032 -2.5261  0.0810  2.2174
 8787SOL     OW37996   2.161   3.808   4.816  0.3127  0.1239 -0.1500
 8787SOL    HW137997   2.189   3.876   4.877 -1.1383 -0.0212  0.6735
 8787SOL    HW237998   2.072   3.790   4.846  0.6822 -0.3714  0.6370
 8788SOL     OW37999   2.281   0.027   0.623  0.0393 -0.1191 -0.2892
 8788SOL    HW138000   2.242   0.100   0.574  1.1181  0.2477 -0.5838
 8788SOL    HW238001   2.335   0.066   0.691  0.9091 -0.5901 -0.7211
 8789SOL     OW38002   2.715   0.737   5.489  0.4236 -0.0268 -0.1819
 8789SOL    HW138003   2.697   0.677   5.561  4.4841 -0.2786  0.6264
 8789SOL    HW238004   2.775   0.800   5.529  1.0275 -0.8787  0.2516
 8790SOL     OW38005   2.835   4.113  15.232 -0.2905 -0.1713 -0.3037
 8790SOL    HW138006   2.760   4.057  15.210 -0.1715 -0.5859  0.3832
 8790SOL    HW238007   2.904   4.067  15.185 -0.7701 -0.4245 -0.7749
 8791SOL     OW38008   1.423   2.748  17.373  0.5654  0.2358  0.1299
 8791SOL    HW138009   1.460   2.721  17.457 -2.8083  2.6459  2.3937
 8791SOL    HW238010   1.445   2.672  17.319  0.6851  1.0570 -0.9997
 8792SOL     OW38011   4.531   1.709   2.681 -0.0911 -0.1171 -0.1984
 8792SOL    HW138012   4.598   1.767   2.644 -1.0477  0.1649 -1.4769
 8792SOL    HW238013   4.481   1.760   2.746 -1.8869  0.2866 -1.8849
 8793SOL     OW38014   1.535   2.992   2.720  0.6155 -0.0330 -0.3943
 8793SOL    HW138015   1.531   2.897   2.707 -0.3883  0.0153 -0.4816
 8793SOL    HW238016   1.619   3.008   2.678  0.3620 -0.4184 -1.0553
 8794SOL     OW38017   0.637   3.363   2.484  0.0639 -0.5398  0.0133
 8794SOL    HW138018   0.620   3.269   2.493  0.7847 -0.8632 -1.9845
 8794SOL    HW238019   0.655   3.354   2.391 -0.7280  0.4503 -0.2362
 8795SOL     OW38020   4.464   3.935  12.939  0.0756 -0.9578 -0.0244
 8795SOL    HW138021   4.492   3.936  12.847  1.3278  2.1654  0.3895
 8795SOL    HW238022   4.399   3.865  12.935  0.3889 -1.3815  2.2751
 8796SOL     OW38023   1.438   3.914   1.982  0.2827 -0.0488  0.1534
 8796SOL    HW138024   1.406   3.848   1.920  0.9143 -0.5436  0.3558
 8796SOL    HW238025   1.384   3.987   1.950  0.0662 -1.3516 -2.5129
 8797SOL     OW38026   3.997   4.036   4.833 -0.0951 -0.3799 -0.5645
 8797SOL    HW138027   3.910   3.996   4.838  0.4156 -1.4612 -0.2314
 8797SOL    HW238028   4.050   3.956   4.826  0.7746  0.0903  0.5491
 8798SOL     OW38029   1.646   0.575   6.315  0.1222 -0.2391  0.1110
 8798SOL    HW138030   1.688   0.634   6.378  0.4011  0.6292 -0.8930
 8798SOL    HW238031   1.579   0.525   6.362 -0.4838  1.0508  0.6084
 8799SOL     OW38032   1.407   3.554   9.636  0.1318  0.1738 -0.0696
 8799SOL    HW138033   1.398   3.569   9.542  1.2090  1.8626  0.1027
 8799SOL    HW238034   1.393   3.638   9.679  2.2396 -0.2104  1.3764
 8800SOL     OW38035   0.573   2.420   3.955 -0.0168  0.1864 -0.1390
 8800SOL    HW138036   0.542   2.390   3.870  1.4236  1.5613 -1.1527
 8800SOL    HW238037   0.559   2.514   3.943 -1.0984 -0.0683 -0.7629
 8801SOL     OW38038   0.050   0.832   6.904  0.2608  0.2870  0.1967
 8801SOL    HW138039   4.702   0.844   6.950 -0.7566 -1.7102 -1.0993
 8801SOL    HW238040   0.087   0.765   6.962  0.3920 -0.0382 -0.2615
 8802SOL     OW38041   1.730   0.661   9.019  0.6539  0.4756 -0.5271
 8802SOL    HW138042   1.682   0.689   8.941  1.0168  2.7937  0.0921
 8802SOL    HW238043   1.668   0.678   9.089 -0.9478 -0.1007 -1.7936
 8803SOL     OW38044   2.326   3.829   3.330  0.0415 -0.2760  0.4181
 8803SOL    HW138045   2.347   3.840   3.237  0.5736 -1.8924  0.3504
 8803SOL    HW238046   2.269   3.905   3.347  0.5244  0.7367 -2.4567
 8804SOL     OW38047   0.486   2.032  11.783 -0.4055 -0.0487 -0.0138
 8804SOL    HW138048   0.438   2.097  11.731  1.3260  3.2160  2.4861
 8804SOL    HW238049   0.480   2.074  11.868 -0.3018  3.2209 -1.5921
 8805SOL     OW38050   0.888   2.888   3.314  0.2236 -0.2551  0.8007
 8805SOL    HW138051   0.947   2.960   3.290 -2.2080  1.0879 -1.1570
 8805SOL    HW238052   0.829   2.881   3.239  0.3089 -0.4533  0.7517
 8806SOL     OW38053   2.284   2.935  14.385  0.5962  0.6138 -0.3190
 8806SOL    HW138054   2.319   2.866  14.329 -0.8249 -1.3343  1.2031
 8806SOL    HW238055   2.346   3.006  14.373 -0.2191  0.9513 -2.6179
 8807SOL     OW38056   1.361   2.346  13.151 -0.5290 -0.1687 -0.0516
 8807SOL    HW138057   1.412   2.375  13.226 -0.2775 -2.1746  0.5570
 8807SOL    HW238058   1.298   2.294  13.202  0.9526 -2.2971 -0.3824
 8808SOL     OW38059   1.094   3.416  11.500  0.7080  0.1856 -1.1438
 8808SOL    HW138060   1.166   3.358  11.525 -0.1105 -0.1207  0.5088
 8808SOL    HW238061   1.045   3.344  11.459 -0.6704 -0.0543  0.9331
 8809SOL     OW38062   1.512   4.729   8.209  0.6268  0.1477  0.3192
 8809SOL    HW138063   1.493   4.703   8.119  0.9514  2.1232 -0.3275
 8809SOL    HW238064   1.590   0.047   8.196  1.1440 -0.0372  2.6422
 8810SOL     OW38065   0.364   4.358   4.620 -0.3438  0.4046 -0.6186
 8810SOL    HW138066   0.379   4.427   4.557  2.0690  0.4128 -0.0266
 8810SOL    HW238067   0.268   4.356   4.616 -0.2975 -0.7877 -1.3014
 8811SOL     OW38068   2.562   1.894  10.411  0.6759 -0.5645  0.4656
 8811SOL    HW138069   2.595   1.825  10.353  1.3931  0.4174 -0.3007
 8811SOL    HW238070   2.647   1.908  10.452  1.2174 -0.7143 -0.5990
 8812SOL     OW38071   0.396   0.681   6.205 -0.5732 -0.3567  0.3685
 8812SOL    HW138072   0.349   0.614   6.254 -2.4075 -0.2235 -1.2391
 8812SOL    HW238073   0.325   0.715   6.151 -0.8718 -1.0534  0.3254
 8813SOL     OW38074   2.651   0.081   6.939 -0.2994  0.1982 -0.0691
 8813SOL    HW138075   2.647   0.043   6.851 -1.2726  1.0758 -0.3984
 8813SOL    HW238076   2.736   0.043   6.963 -0.2792  0.1815 -0.1652
 8814SOL     OW38077   1.267   2.180   1.803 -0.4118  0.5829  0.0957
 8814SOL    HW138078   1.305   2.235   1.871  1.0996  1.0538 -1.1345
 8814SOL    HW238079   1.334   2.185   1.735  0.8258 -1.8931  1.1076
 8815SOL     OW38080   4.648   2.073   3.679 -0.2273  0.2269  0.2412
 8815SOL    HW138081   4.712   2.033   3.620 -0.4681 -2.6302  1.9222
 8815SOL    HW238082   4.620   2.138   3.614  3.2965  2.5251  0.9698
 8816SOL     OW38083   0.100   0.463   3.092 -0.6831 -0.0218 -0.1852
 8816SOL    HW138084   0.124   0.551   3.122  1.4927 -0.1952 -1.4313
 8816SOL    HW238085   0.048   0.437   3.169 -0.8023 -0.6250 -0.4689
 8817SOL     OW38086   0.075   4.346   2.333  0.2079 -0.5030 -0.1422
 8817SOL    HW138087   0.104   4.255   2.334 -0.3558 -0.6582  1.3971
 8817SOL    HW238088   0.044   4.355   2.423 -0.5192  1.0177 -0.5492
 8818SOL     OW38089   1.845   1.821   7.233  0.2093  1.1211  0.6054
 8818SOL    HW138090   1.893   1.740   7.212 -1.7871  0.1990 -0.3618
 8818SOL    HW238091   1.769   1.789   7.281 -0.5765 -1.4344 -2.3256
 8819SOL     OW38092   2.870   0.040   5.217  0.7503 -0.1714  0.3799
 8819SOL    HW138093   2.815   4.698   5.203  0.6612  0.4686 -2.9636
 8819SOL    HW238094   2.934   0.007   5.280  1.2592 -0.6681 -0.3980
 8820SOL     OW38095   2.099   3.540  14.093 -0.2963  0.4439 -0.6217
 8820SOL    HW138096   2.025   3.567  14.038 -1.0640 -1.7473 -0.6783
 8820SOL    HW238097   2.111   3.623  14.138  0.0511  2.4195 -4.3305
 8821SOL     OW38098   3.163   0.676   0.639  0.1838 -0.6918  0.3794
 8821SOL    HW138099   3.094   0.742   0.641  2.1500  1.3857  0.2094
 8821SOL    HW238100   3.240   0.733   0.645  0.1712 -0.6995  0.6092
 8822SOL     OW38101   3.932   2.360   0.894  0.0943 -0.3843 -0.1008
 8822SOL    HW138102   3.886   2.430   0.847 -1.5824 -0.8678  0.8378
 8822SOL    HW238103   3.889   2.390   0.975 -2.1199  0.4331 -1.5917
 8823SOL     OW38104   0.162   0.702  14.797  0.3028  0.1670 -0.4970
 8823SOL    HW138105   0.176   0.634  14.863  0.3211  0.4320 -0.2270
 8823SOL    HW238106   0.230   0.767  14.816  1.1341 -0.8691  0.0800
 8824SOL     OW38107   0.459   4.154   4.783 -0.0632  0.5866 -0.2106
 8824SOL    HW138108   0.392   4.092   4.754  2.0381 -0.8456 -2.0012
 8824SOL    HW238109   0.431   4.223   4.724  2.8350  1.9829  0.0321
 8825SOL     OW38110   1.042   3.497   4.911 -0.2464  0.1830 -0.3768
 8825SOL    HW138111   0.946   3.492   4.908 -0.2523 -1.0563  2.2725
 8825SOL    HW238112   1.069   3.406   4.904  0.5821  0.3876  0.2582
 8826SOL     OW38113   3.947   2.015  11.176  0.4221 -0.2776 -0.2210
 8826SOL    HW138114   3.907   2.042  11.093  1.4048 -2.2148 -1.3286
 8826SOL    HW238115   4.029   1.984  11.137  1.6282  1.2863  1.0597
 8827SOL     OW38116   2.041   4.203   5.071 -0.5513  0.0877 -0.1387
 8827SOL    HW138117   1.957   4.206   5.024 -0.6575 -2.2017 -0.0917
 8827SOL    HW238118   2.010   4.138   5.134  1.0013  2.0885  2.6834
 8828SOL     OW38119   0.868   3.030   8.925 -0.0822  0.3084 -0.6248
 8828SOL    HW138120   0.951   3.009   8.881  0.2910  0.2409  0.1236
 8828SOL    HW238121   0.909   3.075   8.999  0.3436  0.1387 -0.7560
 8829SOL     OW38122   2.288   4.723   7.285 -0.4355 -0.1460  0.1303
 8829SOL    HW138123   2.349   4.651   7.272  0.2814  0.7368 -1.3321
 8829SOL    HW238124   2.255   4.707   7.374  2.1568  0.2091  1.1455
 8830SOL     OW38125   2.806   2.636  14.942  0.0572  0.1453  1.2090
 8830SOL    HW138126   2.885   2.688  14.933 -0.5687  0.8889 -0.0300
 8830SOL    HW238127   2.799   2.630  15.038 -1.5485  0.7641  1.1363
 8831SOL     OW38128   4.293   4.127  17.516 -0.2116 -0.5894  0.1900
 8831SOL    HW138129   4.274   4.211  17.475  1.4215 -0.6679 -0.7158
 8831SOL    HW238130   4.369   4.142  17.572  1.2010 -1.3976 -1.5195
 8832SOL     OW38131   4.028   2.376   9.721  0.6657 -0.7266  0.0173
 8832SOL    HW138132   4.073   2.421   9.793  0.5590 -0.5039 -0.0546
 8832SOL    HW238133   4.096   2.326   9.677  1.9880  1.4644 -0.4161
 8833SOL     OW38134   4.197   2.304   5.352 -0.2182  0.0490 -0.3966
 8833SOL    HW138135   4.141   2.288   5.428  2.4506  0.4050  1.6434
 8833SOL    HW238136   4.139   2.279   5.280  0.7718  1.1008 -1.5392
 8834SOL     OW38137   2.379   3.217  10.275  0.0754 -0.1100  0.4503
 8834SOL    HW138138   2.337   3.236  10.192  1.4013  0.7953 -0.0167
 8834SOL    HW238139   2.395   3.123  10.265 -0.2625 -0.2994  1.6818
 8835SOL     OW38140   4.119   3.279   5.072 -0.0628  0.3745  0.2252
 8835SOL    HW138141   4.150   3.368   5.089  1.7660  0.2266 -2.3913
 8835SOL    HW238142   4.185   3.234   5.124  0.1855 -1.1078 -1.3855
 8836SOL     OW38143   3.399   3.200   4.104  0.0004  0.8091  0.2931
 8836SOL    HW138144   3.419   3.168   4.192  3.4133 -0.0106 -0.7759
 8836SOL    HW238145   3.303   3.194   4.104  0.0705 -0.1105 -1.9547
 8837SOL     OW38146   4.575   4.433   6.045 -0.3540  0.4551  0.2613
 8837SOL    HW138147   4.539   4.487   5.974  1.6503  2.7641  0.9938
 8837SOL    HW238148   4.577   4.496   6.117 -0.3000  1.5379 -0.6907
 8838SOL     OW38149   2.784   1.950   2.572  0.1270  0.0424 -0.1653
 8838SOL    HW138150   2.704   2.002   2.579  1.0597  1.2287  1.4290
 8838SOL    HW238151   2.808   1.974   2.482 -0.9449  0.3597 -0.3626
 8839SOL     OW38152   0.876   4.475   1.081  0.1648  0.5381 -0.3921
 8839SOL    HW138153   0.816   4.543   1.110  0.3091 -0.0285  1.2380
 8839SOL    HW238154   0.958   4.509   1.116 -1.6518  1.2026  3.1834
 8840SOL     OW38155   1.930   0.722   4.083 -0.7323 -0.0096  0.0766
 8840SOL    HW138156   1.971   0.667   4.018 -0.8146 -0.3499  0.3123
 8840SOL    HW238157   2.001   0.777   4.116 -0.8845  0.9607 -1.2240
 8841SOL     OW38158   3.903   2.416   1.624  0.0630 -0.1959  0.4169
 8841SOL    HW138159   3.929   2.466   1.701 -0.6683  1.5083 -0.4464
 8841SOL    HW238160   3.825   2.467   1.602 -0.1095 -0.6907 -0.1335
 8842SOL     OW38161   1.396   2.619   6.719 -0.0629 -0.4765  0.2105
 8842SOL    HW138162   1.445   2.673   6.657  2.6127 -3.7459 -0.5423
 8842SOL    HW238163   1.432   2.533   6.700 -1.8703 -0.8584 -1.4635
 8843SOL     OW38164   2.413   1.230   3.685 -0.0276 -0.6216 -0.4328
 8843SOL    HW138165   2.339   1.202   3.739  2.6478 -3.1783  1.9377
 8843SOL    HW238166   2.478   1.274   3.739 -0.4548 -1.9901  1.2061
 8844SOL     OW38167   2.813   4.678   3.800 -0.3146  0.1168  0.3890
 8844SOL    HW138168   2.906   4.679   3.821 -0.1503  0.0230 -0.3243
 8844SOL    HW238169   2.791   4.585   3.800 -2.4145  0.6049 -0.4853
 8845SOL     OW38170   0.448   2.795  13.706  0.5559 -0.5273  0.4583
 8845SOL    HW138171   0.438   2.767  13.797 -2.2595  1.0826  0.6457
 8845SOL    HW238172   0.361   2.822  13.677  0.1387  0.2207  2.3589
 8846SOL     OW38173   1.324   2.472   4.318  0.1131 -0.2599 -0.8637
 8846SOL    HW138174   1.259   2.405   4.297 -1.0676  0.8965 -0.9793
 8846SOL    HW238175   1.275   2.515   4.388 -1.1940 -1.2123 -1.1817
 8847SOL     OW38176   2.589   3.090   2.979  0.1678 -0.3984  0.0783
 8847SOL    HW138177   2.620   3.028   2.912 -0.2797 -0.6885  0.1368
 8847SOL    HW238178   2.538   3.031   3.034 -1.0041 -0.7601 -1.4172
 8848SOL     OW38179   0.241   1.724  15.361  0.2390 -0.3191 -0.4706
 8848SOL    HW138180   0.316   1.679  15.400 -0.6319 -1.4113 -0.0610
 8848SOL    HW238181   0.296   1.791  15.320 -2.1826  1.6070 -0.5162
 8849SOL     OW38182   1.475   4.300   4.366 -0.1398 -0.4546 -0.4661
 8849SOL    HW138183   1.561   4.330   4.395 -1.1434  0.7407  1.2906
 8849SOL    HW238184   1.422   4.305   4.445  0.3738  1.1547 -0.2099
 8850SOL     OW38185   1.417   0.851   3.858  0.1230  0.3971 -0.1923
 8850SOL    HW138186   1.498   0.900   3.866  0.4639  0.0034 -1.1526
 8850SOL    HW238187   1.359   0.923   3.882  2.3864  1.7835  1.1419
 8851SOL     OW38188   2.592   0.578  10.858 -0.4929  0.4699  0.5661
 8851SOL    HW138189   2.618   0.583  10.766  2.0520 -0.1071  1.2409
 8851SOL    HW238190   2.559   0.667  10.874  1.2033  1.3724 -0.9098
 8852SOL     OW38191   3.524   3.921  15.297 -0.2364 -0.5251 -0.4015
 8852SOL    HW138192   3.589   3.974  15.343 -1.3395 -1.0606  1.7680
 8852SOL    HW238193   3.436   3.952  15.319 -0.5549 -0.7666 -1.2938
 8853SOL     OW38194   1.295   1.791   2.278 -0.0578  0.7409  0.0493
 8853SOL    HW138195   1.311   1.794   2.183  1.1764 -2.5094  0.1323
 8853SOL    HW238196   1.214   1.740   2.286  1.6238 -2.0514 -0.6601
 8854SOL     OW38197   2.509   1.158   7.760 -0.3090 -0.2375 -0.0383
 8854SOL    HW138198   2.590   1.190   7.720 -0.4380 -0.9941 -0.9005
 8854SOL    HW238199   2.538   1.115   7.840 -1.0536 -2.2290 -0.8598
 8855SOL     OW38200   2.238   0.294   7.709 -0.0467  0.1818 -0.2876
 8855SOL    HW138201   2.259   0.387   7.719 -2.3064  0.6696 -0.1446
 8855SOL    HW238202   2.203   0.289   7.620 -1.5347 -2.3178  0.4309
 8856SOL     OW38203   3.098   2.021  13.885 -0.4763  0.4437 -0.7403
 8856SOL    HW138204   3.172   2.033  13.826 -2.4682  0.8375 -3.1147
 8856SOL    HW238205   3.130   1.945  13.934  0.4108  1.3816  0.1387
 8857SOL     OW38206   2.611   3.063   4.006  0.5802  0.0654 -0.7003
 8857SOL    HW138207   2.520   3.048   4.034  0.9713 -0.8104  0.0794
 8857SOL    HW238208   2.585   3.110   3.926 -1.4719  0.6183  0.2808
 8858SOL     OW38209   4.559   4.464  10.640  0.2336  0.2526 -0.4942
 8858SOL    HW138210   4.592   4.379  10.669 -5.0109 -0.8559  2.1774
 8858SOL    HW238211   4.481   4.469  10.695  0.6193 -1.8228  0.2540
 8859SOL     OW38212   3.635   2.321  16.778 -0.3355 -0.0021 -0.5721
 8859SOL    HW138213   3.577   2.373  16.834 -1.0706 -0.5310 -0.8358
 8859SOL    HW238214   3.717   2.336  16.824  0.0023  0.1921 -1.2439
 8860SOL     OW38215   1.947   2.029   3.793  0.5062 -0.3098 -0.4565
 8860SOL    HW138216   1.880   1.975   3.751 -0.8984 -0.8212  2.4576
 8860SOL    HW238217   2.032   1.991   3.770  0.0343 -0.2194 -2.3496
 8861SOL     OW38218   0.138   3.559  17.565 -0.3837 -0.1043  0.2031
 8861SOL    HW138219   0.212   3.588  17.512 -2.4378  0.7161 -2.2245
 8861SOL    HW238220   0.123   3.470  17.534 -2.0277 -0.0590  0.8129
 8862SOL     OW38221   3.944   0.401   5.315 -0.0228  0.2663  0.1071
 8862SOL    HW138222   3.939   0.477   5.257 -0.0951 -0.5087 -0.9055
 8862SOL    HW238223   4.036   0.375   5.310 -0.2436 -0.2843 -1.0365
 8863SOL     OW38224   1.372   1.111  13.771  0.2253 -0.1484 -0.3375
 8863SOL    HW138225   1.442   1.102  13.706 -0.1369  1.8762 -0.9981
 8863SOL    HW238226   1.416   1.092  13.853  1.8806 -1.0218 -1.4234
 8864SOL     OW38227   3.383   1.046   3.444 -0.4769 -0.2880 -0.0001
 8864SOL    HW138228   3.407   1.129   3.486  1.8240 -1.0805  0.2750
 8864SOL    HW238229   3.372   1.067   3.351 -4.4430  0.4679  0.6296
 8865SOL     OW38230   3.749   2.662  10.606  0.5678  0.8524  0.2990
 8865SOL    HW138231   3.680   2.728  10.592  0.7493  1.1189  0.6855
 8865SOL    HW238232   3.818   2.709  10.652  1.8791 -2.0890  1.3154
 8866SOL     OW38233   2.681   1.987  17.304 -0.0603 -0.0515 -0.4040
 8866SOL    HW138234   2.596   1.951  17.281 -0.5635 -1.0624  3.1530
 8866SOL    HW238235   2.682   2.076  17.267 -0.6558 -0.8446 -2.3299
 8867SOL     OW38236   4.544   0.341   9.114  0.3877  0.1072 -0.1658
 8867SOL    HW138237   4.615   0.276   9.109 -0.8568 -1.2470 -0.4322
 8867SOL    HW238238   4.586   0.414   9.068  0.1429 -0.3797 -1.1830
 8868SOL     OW38239   1.086   0.059  17.217  0.9779 -0.2355  0.4346
 8868SOL    HW138240   1.146   0.001  17.170 -0.4161 -0.5970 -0.8927
 8868SOL    HW238241   1.090   0.148  17.182  0.6098 -1.8759 -3.7100
 8869SOL     OW38242   0.316   3.216   9.282 -0.5150  0.0399 -0.0961
 8869SOL    HW138243   0.288   3.308   9.283 -2.9424 -0.6892 -0.9890
 8869SOL    HW238244   0.345   3.219   9.190  2.2337  0.4191  0.7682
 8870SOL     OW38245   1.557   4.656   2.449 -0.4295 -0.3870  0.7726
 8870SOL    HW138246   1.631   4.596   2.442 -1.1208 -1.3614  1.8017
 8870SOL    HW238247   1.488   4.590   2.458 -1.5434  0.4966 -1.3835
 8871SOL     OW38248   0.846   1.144   4.234  0.1359  0.4779  0.2323
 8871SOL    HW138249   0.826   1.110   4.147 -0.9757  1.1213  0.2319
 8871SOL    HW238250   0.761   1.157   4.277 -0.0346 -0.2076  0.0996
 8872SOL     OW38251   3.363   2.812   3.057 -0.0891 -0.3591 -0.3215
 8872SOL    HW138252   3.308   2.886   3.084  0.0259 -0.5549  0.4735
 8872SOL    HW238253   3.445   2.857   3.038 -1.8483  2.2844 -1.6452
 8873SOL     OW38254   4.361   4.351  10.174 -0.0006  0.5374  0.1635
 8873SOL    HW138255   4.339   4.262  10.147  0.4689  0.5491 -0.2646
 8873SOL    HW238256   4.326   4.351  10.263  0.7569  1.2109  0.4643
 8874SOL     OW38257   1.525   2.198   5.908  0.5183 -0.3514  0.2588
 8874SOL    HW138258   1.448   2.202   5.966  1.9699  1.7059  2.0717
 8874SOL    HW238259   1.479   2.180   5.826  0.0504  1.8774  0.0230
 8875SOL     OW38260   1.929   0.334   5.506 -0.3846 -0.5331 -0.1225
 8875SOL    HW138261   1.936   0.386   5.587  0.2223 -1.3014  0.3236
 8875SOL    HW238262   1.969   0.398   5.447  0.0518  0.0077  0.7592
 8876SOL     OW38263   1.669   2.418   4.322 -0.2041  0.3192  0.1078
 8876SOL    HW138264   1.646   2.387   4.409 -0.0210  0.2104  0.1169
 8876SOL    HW238265   1.746   2.364   4.303  1.2882  2.3158  0.4877
 8877SOL     OW38266   0.772   0.015   0.374  0.7864  0.1459 -0.0435
 8877SOL    HW138267   0.810   4.663   0.358 -0.1969 -0.1856 -0.5459
 8877SOL    HW238268   0.748   0.014   0.466  1.9788  0.2016  0.2786
 8878SOL     OW38269   3.582   2.630   1.279 -0.8655 -0.5558  0.2065
 8878SOL    HW138270   3.530   2.703   1.246 -1.4838 -0.7357  0.7596
 8878SOL    HW238271   3.537   2.613   1.363  3.7878 -0.8898  2.6327
 8879SOL     OW38272   1.829   0.380   1.664  0.1434  0.6275 -0.0972
 8879SOL    HW138273   1.854   0.386   1.757 -0.6275 -0.9324  0.1961
 8879SOL    HW238274   1.806   0.287   1.670  0.5583  0.5114 -0.2973
 8880SOL     OW38275   4.726   2.606  15.305  0.1586 -0.3021  0.7009
 8880SOL    HW138276   4.678   2.582  15.225  1.7456  0.7741 -0.5752
 8880SOL    HW238277   0.081   2.575  15.299  0.2960 -0.1662  2.1976
 8881SOL     OW38278   3.728   0.771  11.714  0.3261 -0.7176  0.6622
 8881SOL    HW138279   3.698   0.689  11.752  0.2572 -1.3419 -0.7782
 8881SOL    HW238280   3.819   0.767  11.744  1.0072 -4.7283 -2.0150
 8882SOL     OW38281   2.661   4.082  11.835  0.2704 -0.2325  0.0155
 8882SOL    HW138282   2.665   4.080  11.931  1.9073 -0.0263 -0.0491
 8882SOL    HW238283   2.671   4.177  11.829 -1.9636 -0.1225 -1.5628
 8883SOL     OW38284   2.961   3.041   3.038 -0.1768 -0.0008  0.4193
 8883SOL    HW138285   2.933   3.008   2.953 -0.4189 -2.9692  1.6283
 8883SOL    HW238286   3.056   3.030   3.030 -0.2285 -1.4301  1.6802
 8884SOL     OW38287   2.384   1.486  12.078  0.2742 -0.6263  0.3917
 8884SOL    HW138288   2.470   1.514  12.110  0.1069 -0.7661  0.9702
 8884SOL    HW238289   2.338   1.437  12.146 -1.0939 -0.5196 -0.4531
 8885SOL     OW38290   1.155   1.265  13.646 -1.0306 -0.6804  0.7295
 8885SOL    HW138291   1.159   1.276  13.551 -0.6912  1.8121  1.0334
 8885SOL    HW238292   1.232   1.210  13.660 -1.2263 -0.8307  1.2113
 8886SOL     OW38293   0.632   3.859   9.273  0.2056 -0.0377  0.4194
 8886SOL    HW138294   0.640   3.776   9.225  2.4535  0.0764  0.6015
 8886SOL    HW238295   0.537   3.867   9.263  0.5944  0.2709 -2.9024
 8887SOL     OW38296   0.192   3.481   3.199  0.1922 -0.0954  0.2317
 8887SOL    HW138297   0.100   3.505   3.191 -0.3566 -2.7987 -1.3617
 8887SOL    HW238298   0.221   3.543   3.266 -0.9790 -0.9226  1.5239
 8888SOL     OW38299   2.443   2.138   2.836 -0.3943  0.1013  0.3704
 8888SOL    HW138300   2.382   2.149   2.908  0.3061 -0.8109  1.0971
 8888SOL    HW238301   2.499   2.066   2.863  0.1375 -0.2715 -1.6950
 8889SOL     OW38302   4.560   0.755  12.682  0.3392 -0.3956  0.3969
 8889SOL    HW138303   4.634   0.773  12.625 -1.0735  2.3248 -0.6035
 8889SOL    HW238304   4.584   0.670  12.718 -0.7957 -1.3367 -1.0619
 8890SOL     OW38305   0.534   4.465   9.928 -0.3278  0.1872 -0.0321
 8890SOL    HW138306   0.501   4.375   9.934  0.1583 -0.1138 -1.9679
 8890SOL    HW238307   0.459   4.521   9.946  0.0348  0.3527  0.9545
 8891SOL     OW38308   3.566   2.201   3.044  0.4200  0.2592 -0.4789
 8891SOL    HW138309   3.538   2.290   3.062 -1.0574  0.1885 -2.4225
 8891SOL    HW238310   3.504   2.162   2.981 -0.1061  0.5274 -0.1323
 8892SOL     OW38311   4.030   1.602   4.526  0.2159 -0.5856 -0.4858
 8892SOL    HW138312   4.060   1.692   4.537  2.2908 -1.6934  2.9620
 8892SOL    HW238313   4.114   1.561   4.506  1.6105  1.0827  1.9745
 8893SOL     OW38314   2.120   3.319   9.145  0.2025 -0.4310  0.0049
 8893SOL    HW138315   2.068   3.360   9.214 -0.6401 -0.2929 -0.7099
 8893SOL    HW238316   2.202   3.368   9.148 -1.0845  1.6333  1.4953
 8894SOL     OW38317   1.099   0.473   4.174 -0.1981 -0.6254  0.3493
 8894SOL    HW138318   1.102   0.522   4.092  1.2370  2.1449  2.0474
 8894SOL    HW238319   1.173   0.415   4.156  0.5463  0.1543  0.8876
 8895SOL     OW38320   4.483   3.470   5.673 -0.1011 -0.2216 -0.1156
 8895SOL    HW138321   4.572   3.499   5.651 -0.8602 -0.5240 -3.5434
 8895SOL    HW238322   4.459   3.510   5.757 -2.2428  3.5779 -2.5070
 8896SOL     OW38323   3.791   3.977  13.629 -0.4467  0.1241 -0.4619
 8896SOL    HW138324   3.811   4.002  13.539  3.2985 -1.1369 -0.0066
 8896SOL    HW238325   3.858   3.914  13.657  0.3348  0.5208 -1.4522
 8897SOL     OW38326   0.441   1.764   5.992 -0.1426  0.0297  0.0416
 8897SOL    HW138327   0.536   1.772   6.000 -0.1454 -0.4288  0.5348
 8897SOL    HW238328   0.441   1.674   5.960 -2.6120 -0.0354  0.2196
 8898SOL     OW38329   4.652   0.569   6.034  0.1997 -0.4694  0.0633
 8898SOL    HW138330   4.718   0.520   5.985 -2.3018 -0.8199 -2.9261
 8898SOL    HW238331   4.581   0.507   6.049 -1.6213  1.4262 -0.8886
 8899SOL     OW38332   1.258   4.718   7.776  0.0545  0.5902  0.2982
 8899SOL    HW138333   1.251   0.077   7.789 -0.8972  0.6559 -0.6157
 8899SOL    HW238334   1.270   4.729   7.682  1.7216  2.2085  0.6973
 8900SOL     OW38335   2.224   2.668   6.799  0.0361 -0.3034  0.4179
 8900SOL    HW138336   2.185   2.678   6.713  0.4716  0.0989  0.2663
 8900SOL    HW238337   2.142   2.642   6.841  0.6202 -0.6924  1.3199
 8901SOL     OW38338   1.896   1.928  15.121  0.1088  0.2169 -0.3350
 8901SOL    HW138339   1.849   1.845  15.130  1.1368 -0.5340 -1.9238
 8901SOL    HW238340   1.864   1.971  15.201 -0.7564 -4.1519  1.6759
 8902SOL     OW38341   2.106   2.214   1.798 -0.0305 -0.2911 -0.0829
 8902SOL    HW138342   2.150   2.279   1.743  0.0809  0.7246  1.2096
 8902SOL    HW238343   2.013   2.225   1.777 -0.3626 -1.4974  0.7443
 8903SOL     OW38344   4.348   0.679   3.348  0.3157  0.7176 -0.1182
 8903SOL    HW138345   4.258   0.708   3.359 -0.5848 -2.1931  0.2096
 8903SOL    HW238346   4.342   0.585   3.363  0.5084  0.6391 -0.5074
 8904SOL     OW38347   4.180   3.978   8.432 -0.3594 -0.4704 -0.1471
 8904SOL    HW138348   4.095   3.969   8.475 -0.2084  0.8458  0.4373
 8904SOL    HW238349   4.155   3.988   8.340  1.8486 -1.4690 -0.8638
 8905SOL     OW38350   2.173   0.293   4.001  0.1132 -0.2732 -0.2729
 8905SOL    HW138351   2.088   0.248   4.000  0.7881 -1.4957 -1.4358
 8905SOL    HW238352   2.223   0.238   3.942  0.5832 -0.2203  0.0767
 8906SOL     OW38353   4.467   3.992  12.135 -0.2950 -0.0206 -0.3388
 8906SOL    HW138354   4.447   3.926  12.202 -0.8262  2.6290  2.1260
 8906SOL    HW238355   4.377   4.023  12.120 -0.1323 -0.2228 -1.6964
 8907SOL     OW38356   1.445   2.297  12.090 -0.3626 -0.0160  0.5022
 8907SOL    HW138357   1.525   2.348  12.074 -0.6144  0.5669  1.1364
 8907SOL    HW238358   1.445   2.213  12.044  3.4905  0.4806 -0.4083
 8908SOL     OW38359   1.126   0.549   2.496 -0.2715 -0.1152  0.1255
 8908SOL    HW138360   1.092   0.511   2.577 -0.2925  1.6324  0.9477
 8908SOL    HW238361   1.202   0.604   2.519 -0.2641 -0.6808  1.4376
 8909SOL     OW38362   1.228   2.278  12.252 -0.3153 -0.4157  0.0463
 8909SOL    HW138363   1.319   2.273  12.223 -0.1535 -1.1529  0.6605
 8909SOL    HW238364   1.202   2.314  12.167  1.0528 -2.5353 -1.2512
 8910SOL     OW38365   3.055   4.124   7.643 -0.1655 -0.0143  0.0188
 8910SOL    HW138366   2.980   4.073   7.613  0.2743 -0.6765  0.0208
 8910SOL    HW238367   3.085   4.079   7.723 -1.7196  0.4769  0.8793
 8911SOL     OW38368   0.296   0.830   7.511 -0.5189 -0.3992 -0.2633
 8911SOL    HW138369   0.304   0.902   7.449 -0.3447 -0.3226 -0.1498
 8911SOL    HW238370   0.234   0.870   7.573 -0.0099  1.6604 -1.0855
 8912SOL     OW38371   4.011   1.682   2.802 -0.3585  0.3510 -0.3525
 8912SOL    HW138372   3.956   1.758   2.823 -0.8793 -0.0780 -0.1618
 8912SOL    HW238373   4.028   1.704   2.710 -0.3730  1.5270 -0.0788
 8913SOL     OW38374   1.109   3.739   7.956 -0.3402  0.2306 -0.2514
 8913SOL    HW138375   1.137   3.650   7.979 -0.5315  0.6822  1.7107
 8913SOL    HW238376   1.016   3.732   7.979 -0.3525  0.0614 -0.3500
 8914SOL     OW38377   3.546   3.356   1.625 -0.7130  0.0007  0.1118
 8914SOL    HW138378   3.557   3.262   1.616 -1.0159  0.0375 -0.6164
 8914SOL    HW238379   3.634   3.393   1.632 -1.2735  1.5609 -1.0330
 8915SOL     OW38380   3.320   1.035   7.758 -0.1615 -0.4163 -0.0638
 8915SOL    HW138381   3.392   0.975   7.741  0.2205  0.1275 -0.3938
 8915SOL    HW238382   3.245   0.978   7.774 -1.6257  0.3896 -3.9437
 8916SOL     OW38383   0.198   1.918  14.395  0.4013 -0.1213 -0.2765
 8916SOL    HW138384   0.193   2.007  14.361 -1.1884  0.0467  0.3861
 8916SOL    HW238385   0.107   1.896  14.418  0.8141 -0.3386  1.1375
 8917SOL     OW38386   1.192   2.806   6.129  0.2258 -0.2445  0.5633
 8917SOL    HW138387   1.259   2.787   6.063 -2.0946  1.0159 -2.1790
 8917SOL    HW238388   1.235   2.881   6.170  0.6648  0.8793 -1.9268
 8918SOL     OW38389   4.398   3.299  14.748  0.0399 -0.3153  0.8745
 8918SOL    HW138390   4.476   3.256  14.713 -0.3552  0.7998 -1.4276
 8918SOL    HW238391   4.333   3.284  14.679 -0.2962  1.8214  0.6984
 8919SOL     OW38392   0.470   2.976   3.563 -0.2942 -0.3294 -0.0793
 8919SOL    HW138393   0.455   3.062   3.603 -0.7805  0.3838 -1.7820
 8919SOL    HW238394   0.396   2.937   3.609 -1.7252  2.3286 -0.1311
 8920SOL     OW38395   0.423   3.361   7.636 -0.3069 -0.1005 -0.2331
 8920SOL    HW138396   0.468   3.417   7.572 -2.4564  0.6361 -1.0781
 8920SOL    HW238397   0.418   3.429   7.704  0.2733  0.3003 -0.5803
 8921SOL     OW38398   4.321   1.978   7.441  0.0279  0.0658 -0.2898
 8921SOL    HW138399   4.416   1.966   7.429  0.5153  3.1732  0.4514
 8921SOL    HW238400   4.303   2.031   7.364 -0.1094  1.8975  1.0008
 8922SOL     OW38401   0.642   1.693   7.420  0.1373 -0.4233  0.1411
 8922SOL    HW138402   0.570   1.753   7.402  0.2358 -0.0842  0.8743
 8922SOL    HW238403   0.718   1.732   7.377  1.5394 -3.4793 -0.1776
 8923SOL     OW38404   1.356   1.506   5.945  0.2306  0.6008  0.3321
 8923SOL    HW138405   1.320   1.487   6.032 -0.4562  0.6614  0.0621
 8923SOL    HW238406   1.446   1.532   5.966  0.6418 -0.2265 -0.4152
 8924SOL     OW38407   1.009   0.058   1.369  0.4000  0.3233 -0.0376
 8924SOL    HW138408   1.038   4.725   1.308 -0.5171  0.8495 -1.0590
 8924SOL    HW238409   0.998   0.135   1.313  1.1425  1.7584  1.8210
 8925SOL     OW38410   2.471   4.520   4.653 -0.5148  0.0557 -0.4855
 8925SOL    HW138411   2.520   4.441   4.674 -3.1783 -1.9343 -1.7081
 8925SOL    HW238412   2.390   4.514   4.704  0.5944 -1.0759  1.1036
 8926SOL     OW38413   4.299   1.393   5.463  0.1381  0.2359 -0.1102
 8926SOL    HW138414   4.382   1.357   5.431 -0.6254 -0.9315 -0.7934
 8926SOL    HW238415   4.324   1.485   5.454 -2.5913  0.9761 -0.0871
 8927SOL     OW38416   1.146   1.561   5.611 -0.6072 -0.0260  0.3659
 8927SOL    HW138417   1.235   1.586   5.634 -0.0433 -2.6113  0.9977
 8927SOL    HW238418   1.159   1.480   5.660  1.4120  0.1555  0.1274
 8928SOL     OW38419   0.576   2.150   1.639  0.4988 -0.0465  0.8063
 8928SOL    HW138420   0.615   2.064   1.625 -0.8376 -1.0288  3.2862
 8928SOL    HW238421   0.649   2.204   1.609 -0.0549  0.9441  1.2449
 8929SOL     OW38422   3.872   2.609   9.741 -0.0261  0.1117  0.3468
 8929SOL    HW138423   3.909   2.524   9.715  1.3214  0.7924  0.0204
 8929SOL    HW238424   3.891   2.664   9.665 -0.8129 -1.4485 -0.9501
 8930SOL     OW38425   0.904   0.506  14.731 -0.0675  0.3412  0.5197
 8930SOL    HW138426   0.815   0.532  14.707  0.8301  0.3070 -2.9072
 8930SOL    HW238427   0.951   0.537  14.653 -0.8123  1.7682  0.6545
 8931SOL     OW38428   0.052   0.454   8.603  0.1835  0.2952 -0.3715
 8931SOL    HW138429   0.114   0.381   8.598 -0.5182 -0.1806 -2.0736
 8931SOL    HW238430   0.076   0.498   8.685 -0.2700  1.0614 -0.6469
 8932SOL     OW38431   0.541   1.779   8.343 -0.3095 -0.2569  0.4576
 8932SOL    HW138432   0.475   1.739   8.398 -1.8249 -0.4922 -1.5472
 8932SOL    HW238433   0.495   1.862   8.342 -0.7606 -0.5205 -0.2343
 8933SOL     OW38434   0.251   2.417   7.173 -0.4744  0.6569 -0.1042
 8933SOL    HW138435   0.279   2.504   7.202 -0.0274  0.2697  0.6172
 8933SOL    HW238436   0.265   2.419   7.078  3.6490 -0.1905  0.4934
 8934SOL     OW38437   4.167   1.881   8.259 -0.0616 -0.3346  0.3495
 8934SOL    HW138438   4.143   1.792   8.285  1.0048 -1.0797 -1.2276
 8934SOL    HW238439   4.111   1.932   8.317 -1.4761 -0.6170 -0.7503
 8935SOL     OW38440   4.260   3.682   1.419 -0.3014  0.1590 -0.3778
 8935SOL    HW138441   4.224   3.768   1.397  1.3158  0.6127 -1.2968
 8935SOL    HW238442   4.346   3.719   1.438 -0.4168  0.7585 -1.0202
 8936SOL     OW38443   1.578   4.607   7.576  0.7109 -0.5420  0.0046
 8936SOL    HW138444   1.597   4.647   7.491 -0.1420  0.5452  0.3250
 8936SOL    HW238445   1.536   4.682   7.618  1.9597  1.8849 -3.0056
 8937SOL     OW38446   4.581   4.227  17.571  0.0729 -0.4485 -0.0788
 8937SOL    HW138447   4.652   4.162  17.572  0.9575  0.5353  1.1373
 8937SOL    HW238448   4.579   4.252  17.663  1.3171  1.1787 -0.4991
 8938SOL     OW38449   2.225   2.794   6.290 -0.3238 -0.2558 -0.4230
 8938SOL    HW138450   2.146   2.811   6.239 -0.1126  2.3510  0.1552
 8938SOL    HW238451   2.247   2.705   6.260 -1.3524 -1.1617  1.5392
 8939SOL     OW38452   3.208   0.257  10.374 -0.2135 -0.1774 -0.0680
 8939SOL    HW138453   3.171   0.254  10.463  1.6771 -0.7350  0.6871
 8939SOL    HW238454   3.242   0.168  10.369  0.3979  0.0109  0.7314
 8940SOL     OW38455   1.098   3.816   9.901 -0.0326  0.6360 -0.0979
 8940SOL    HW138456   1.040   3.749   9.865  1.7545 -0.2715 -1.2753
 8940SOL    HW238457   1.057   3.827   9.987  2.3028  1.6586  0.8775
 8941SOL     OW38458   0.788   0.410   9.259  0.2234 -0.2841 -0.2700
 8941SOL    HW138459   0.864   0.462   9.233  0.2096  0.6938  1.6562
 8941SOL    HW238460   0.783   0.370   9.172 -0.6349 -0.1125 -0.3010
 8942SOL     OW38461   1.580   2.385   7.959  0.1442 -0.4740  0.0915
 8942SOL    HW138462   1.649   2.449   7.942  0.7998 -0.7975  1.4804
 8942SOL    HW238463   1.632   2.305   7.964  0.9552 -0.0315 -1.5033
 8943SOL     OW38464   1.527   1.627   8.883  0.1845  0.3930  0.2549
 8943SOL    HW138465   1.482   1.543   8.890  0.9511 -0.0310  0.0334
 8943SOL    HW238466   1.460   1.687   8.915  0.1228 -1.0478  2.8066
 8944SOL     OW38467   0.666   0.075   0.917  0.0851  0.4199 -0.6243
 8944SOL    HW138468   0.676   0.020   0.994  0.1393  1.9172  0.4389
 8944SOL    HW238469   0.741   0.132   0.933 -1.4310  2.6711 -1.4077
 8945SOL     OW38470   2.124   4.456   9.212 -0.2409 -0.2165  0.4148
 8945SOL    HW138471   2.117   4.546   9.180 -1.3129 -0.6524 -0.5780
 8945SOL    HW238472   2.154   4.465   9.302 -3.0750 -0.2995  1.3694
 8946SOL     OW38473   2.743   2.984   5.028 -0.2694 -0.7562 -0.0762
 8946SOL    HW138474   2.664   2.999   5.081  0.2277 -1.7112  0.9547
 8946SOL    HW238475   2.722   2.898   4.991 -0.4769 -0.4747 -0.6060
 8947SOL     OW38476   2.730   3.349   9.180  0.3985  0.0021  0.3033
 8947SOL    HW138477   2.700   3.334   9.090  0.5369  0.1451  0.2322
 8947SOL    HW238478   2.683   3.430   9.200 -1.8054 -1.3899  0.7639
 8948SOL     OW38479   0.472   2.460   4.211  0.3199  0.2514 -0.1306
 8948SOL    HW138480   0.413   2.385   4.200 -0.4915  0.8803 -0.0028
 8948SOL    HW238481   0.516   2.457   4.126 -1.3699 -1.9892 -0.9429
 8949SOL     OW38482   2.795   0.690   3.513  0.6510 -0.1186 -0.1359
 8949SOL    HW138483   2.730   0.702   3.582  0.9087 -0.8003  0.2288
 8949SOL    HW238484   2.845   0.619   3.552 -1.4681 -2.9331 -2.5440
 8950SOL     OW38485   0.682   0.912  15.750 -0.3879  0.1893 -0.0190
 8950SOL    HW138486   0.778   0.910  15.750 -0.3837  0.0761  1.6203
 8950SOL    HW238487   0.667   0.922  15.844 -0.7204 -1.8853  0.1405
 8951SOL     OW38488   3.316   1.727   3.230  0.2935  0.4839 -0.1734
 8951SOL    HW138489   3.338   1.686   3.313  2.1071  0.1150 -0.8243
 8951SOL    HW238490   3.356   1.814   3.239  0.0797  0.2007  3.1853
 8952SOL     OW38491   1.760   3.071   7.163 -0.3787 -0.5071 -0.0174
 8952SOL    HW138492   1.716   3.147   7.202  2.1761  1.2758 -0.6974
 8952SOL    HW238493   1.716   3.059   7.079  1.6988 -0.5828 -1.0828
 8953SOL     OW38494   2.561   4.662   4.908 -0.4710 -0.2326 -0.1709
 8953SOL    HW138495   2.509   0.007   4.910 -0.2223 -0.0672 -0.4124
 8953SOL    HW238496   2.562   4.655   4.813 -3.0314 -1.5925 -0.1083
 8954SOL     OW38497   4.010   3.768   3.613  0.7237  0.0968 -0.8719
 8954SOL    HW138498   4.018   3.674   3.626  2.3911  0.6310  2.0941
 8954SOL    HW238499   3.916   3.769   3.634  0.6148  1.3221 -1.4198
 8955SOL     OW38500   4.670   0.510  15.355  0.7235  0.4656 -0.2428
 8955SOL    HW138501   4.679   0.438  15.292  0.7814  1.2216 -1.1009
 8955SOL    HW238502   4.693   0.590  15.308  0.8310 -0.5412 -1.9281
 8956SOL     OW38503   4.165   2.677   1.961 -0.1479  0.3119 -0.0711
 8956SOL    HW138504   4.259   2.677   1.941 -0.0156  0.4861  0.5565
 8956SOL    HW238505   4.170   2.675   2.056 -3.8337 -1.1449  0.0801
 8957SOL     OW38506   4.219   4.491  14.609 -0.5561  0.3813 -0.5057
 8957SOL    HW138507   4.289   4.436  14.574  1.7742  2.2078  1.2668
 8957SOL    HW238508   4.189   4.548  14.539 -0.2715  1.7954  0.5184
 8958SOL     OW38509   0.280   2.405   5.742  0.3594  0.1975 -0.5050
 8958SOL    HW138510   0.205   2.454   5.711 -0.8876 -2.1642 -1.1955
 8958SOL    HW238511   0.245   2.317   5.731 -0.9763  0.4437  1.8457
 8959SOL     OW38512   1.155   1.921   3.746  0.0775 -0.5004 -0.3011
 8959SOL    HW138513   1.174   1.906   3.653  0.4728 -0.4168 -0.2340
 8959SOL    HW238514   1.060   1.916   3.742 -0.0760  1.6798  1.1011
 8960SOL     OW38515   2.672   3.086   7.818 -0.1322 -0.2178 -0.7194
 8960SOL    HW138516   2.700   3.073   7.909 -2.7736  3.8736  0.7114
 8960SOL    HW238517   2.681   3.181   7.805 -4.2396  0.2781  0.1632
 8961SOL     OW38518   3.428   0.104   3.251 -0.5708  0.0647 -0.2538
 8961SOL    HW138519   3.430   0.121   3.345 -0.2802 -0.2708 -0.1963
 8961SOL    HW238520   3.392   0.186   3.218  1.9652  1.0157 -0.7063
 8962SOL     OW38521   2.752   2.797   5.701  0.0464  0.1985 -0.5920
 8962SOL    HW138522   2.812   2.834   5.636 -0.6917  0.2881 -1.2260
 8962SOL    HW238523   2.661   2.817   5.681 -0.5362 -1.4957  0.4044
 8963SOL     OW38524   4.637   0.827  15.910 -0.1224  0.4622  0.0787
 8963SOL    HW138525   4.663   0.737  15.930  2.9245  1.5200  0.9234
 8963SOL    HW238526   4.542   0.819  15.912 -0.2573  0.9858 -3.5861
 8964SOL     OW38527   0.546   2.684  12.962  0.3095 -0.3492  0.0949
 8964SOL    HW138528   0.539   2.773  12.998 -0.3949 -1.8816  3.7599
 8964SOL    HW238529   0.637   2.677  12.936  0.2251  1.0569 -0.5857
 8965SOL     OW38530   4.179   2.269   0.835  0.0000  0.0393 -0.4125
 8965SOL    HW138531   4.166   2.318   0.754 -0.9496  0.2638 -0.1213
 8965SOL    HW238532   4.093   2.285   0.873  0.5996  0.8471  0.6084
 8966SOL     OW38533   2.771   3.359   6.129 -0.4448  0.2067 -0.3721
 8966SOL    HW138534   2.741   3.338   6.217  1.4302 -0.3838  0.1342
 8966SOL    HW238535   2.853   3.309   6.123 -0.3931  0.3265 -0.7129
 8967SOL     OW38536   3.578   2.620  11.355 -0.1247 -0.1128  0.4566
 8967SOL    HW138537   3.492   2.641  11.393  0.4094  2.0418  0.4582
 8967SOL    HW238538   3.628   2.589  11.431 -0.9996 -0.5029  0.8799
 8968SOL     OW38539   4.145   0.871   3.422  0.6242  0.5682  0.3311
 8968SOL    HW138540   4.091   0.809   3.372  2.2616 -0.7845  0.2220
 8968SOL    HW238541   4.146   0.946   3.362  1.4616 -0.2492 -0.6707
 8969SOL     OW38542   4.540   0.700   8.658  0.1606  0.1981 -0.1784
 8969SOL    HW138543   4.598   0.692   8.583  1.1267  1.0299  0.4853
 8969SOL    HW238544   4.571   0.773   8.710  1.5717 -0.0072 -0.7451
 8970SOL     OW38545   4.294   3.842  10.002  0.7288 -0.2283  0.6531
 8970SOL    HW138546   4.295   3.746  10.004 -0.0312 -0.2442  0.4214
 8970SOL    HW238547   4.218   3.879   9.956 -1.0422 -1.6895  2.3862
 8971SOL     OW38548   2.610   2.794   3.991 -0.4152  0.0769 -0.5412
 8971SOL    HW138549   2.621   2.792   3.896  2.4530 -1.3554 -0.1676
 8971SOL    HW238550   2.608   2.887   4.011 -1.1295 -0.1023  0.2206
 8972SOL     OW38551   2.597   1.265   1.949 -0.3143  0.2051  0.4168
 8972SOL    HW138552   2.690   1.285   1.958 -0.3400  0.4751  0.0991
 8972SOL    HW238553   2.599   1.176   1.986  0.2313 -0.1296 -0.4009
 8973SOL     OW38554   4.032   3.185   4.528 -0.3879  0.0841 -0.0663
 8973SOL    HW138555   4.035   3.183   4.624  1.4510 -0.1202 -0.1272
 8973SOL    HW238556   4.119   3.151   4.509  0.0113  0.5075  1.0269
 8974SOL     OW38557   4.522   1.555   2.278  0.2776 -0.2638 -0.2967
 8974SOL    HW138558   4.615   1.565   2.256  0.7312 -0.1380  1.7165
 8974SOL    HW238559   4.519   1.465   2.246  3.3542 -0.7898  0.9036
 8975SOL     OW38560   1.196   4.397   7.598  1.2602 -0.2535  0.0111
 8975SOL    HW138561   1.221   4.475   7.548 -0.4252  0.7467  0.7215
 8975SOL    HW238562   1.273   4.382   7.652  0.4369  0.7411  1.4496
 8976SOL     OW38563   4.254   4.011   4.015 -0.6342  0.0730 -0.3693
 8976SOL    HW138564   4.187   4.040   4.076  1.6264  0.9923  1.6739
 8976SOL    HW238565   4.210   4.022   3.931  0.5159 -1.2531 -1.1619
 8977SOL     OW38566   1.449   0.940   2.601 -0.3415 -0.1087  0.2117
 8977SOL    HW138567   1.526   0.986   2.634 -1.3394  1.6907  0.0386
 8977SOL    HW238568   1.447   0.972   2.511 -0.1189  0.3043  0.3514
 8978SOL     OW38569   0.533   4.287  11.792  0.2575  0.0768 -0.3597
 8978SOL    HW138570   0.585   4.208  11.774  0.7152  0.2105  0.3846
 8978SOL    HW238571   0.451   4.244  11.769 -0.1077  1.5906 -1.8470
 8979SOL     OW38572   3.261   3.045   2.942  0.3625  0.3477  0.5322
 8979SOL    HW138573   3.257   3.048   2.846  2.2404  1.1789  0.4599
 8979SOL    HW238574   3.338   3.101   2.951  2.7055 -2.5908 -1.0396
 8980SOL     OW38575   0.397   3.132  12.707  0.1522 -0.0980 -0.2214
 8980SOL    HW138576   0.340   3.188  12.653 -0.7256 -1.8818 -1.1488
 8980SOL    HW238577   0.420   3.184  12.783  0.6635  1.1019 -1.2051
 8981SOL     OW38578   1.198   2.641   4.515  0.1047 -0.5437  0.4340
 8981SOL    HW138579   1.186   2.617   4.606 -1.1260 -1.4392  0.0267
 8981SOL    HW238580   1.291   2.663   4.523 -0.1589  0.6047  0.3175
 8982SOL     OW38581   2.624   1.162  11.775  0.1505  0.1687 -0.5347
 8982SOL    HW138582   2.567   1.200  11.708  0.8025  2.5520  0.2549
 8982SOL    HW238583   2.660   1.240  11.818 -0.6591 -0.4963  1.3449
 8983SOL     OW38584   3.509   4.128   3.362 -0.5295  0.2493 -0.3897
 8983SOL    HW138585   3.540   4.165   3.280  0.2143  0.9398  0.1989
 8983SOL    HW238586   3.578   4.069   3.392 -0.5903 -0.8833 -2.5292
 8984SOL     OW38587   1.708   4.327   0.519  0.2284  0.2907  0.3462
 8984SOL    HW138588   1.766   4.285   0.456  1.4448 -1.1491  2.4369
 8984SOL    HW238589   1.778   4.361   0.575 -0.4216  0.2757  1.1497
 8985SOL     OW38590   1.910   1.038   3.445  0.0125 -0.4243 -0.4743
 8985SOL    HW138591   1.832   1.045   3.500  0.1833 -0.1421 -0.2737
 8985SOL    HW238592   1.962   1.095   3.501  0.2283 -0.1745 -0.9316
 8986SOL     OW38593   1.772   3.112   8.313 -0.0878 -0.0520  0.4723
 8986SOL    HW138594   1.761   3.106   8.408  0.6572  0.4014  0.5887
 8986SOL    HW238595   1.767   3.206   8.293 -1.1572  0.2314  2.0556
 8987SOL     OW38596   2.863   1.315   1.972  0.5061 -0.0430 -0.5659
 8987SOL    HW138597   2.878   1.235   1.921 -1.3047 -1.7491  1.5870
 8987SOL    HW238598   2.902   1.297   2.057  0.2040  0.6678 -0.2760
 8988SOL     OW38599   0.367   4.706   0.395 -0.2528 -0.3550  0.0859
 8988SOL    HW138600   0.350   0.060   0.424 -2.9237 -0.1452 -2.0075
 8988SOL    HW238601   0.286   4.658   0.412 -2.0922  2.2437 -1.3567
 8989SOL     OW38602   3.400   0.585  15.366 -0.2527 -0.1995 -0.2438
 8989SOL    HW138603   3.406   0.612  15.274 -0.4173 -1.4831 -0.6409
 8989SOL    HW238604   3.382   0.674  15.396  0.0763 -1.2710  3.1497
 8990SOL     OW38605   1.592   3.382   2.722 -0.5367 -0.1183  0.2735
 8990SOL    HW138606   1.582   3.447   2.652  0.2445  0.0534  0.3207
 8990SOL    HW238607   1.668   3.425   2.761 -1.6528  1.9005  0.2383
 8991SOL     OW38608   3.622   0.925  17.164 -0.6560 -0.2549 -0.1711
 8991SOL    HW138609   3.685   0.890  17.227 -2.0394 -2.6143 -0.1012
 8991SOL    HW238610   3.679   0.954  17.093  2.0712 -3.1697  0.8826
 8992SOL     OW38611   3.671   3.071   0.837  0.1214  0.0536  0.4303
 8992SOL    HW138612   3.619   2.996   0.809 -0.9202  1.4808 -1.4486
 8992SOL    HW238613   3.666   3.125   0.758  1.4525  0.2867  0.4978
 8993SOL     OW38614   1.680   4.208   5.285 -0.1746 -0.0649  0.2198
 8993SOL    HW138615   1.728   4.130   5.310  0.4294  1.0663  2.6596
 8993SOL    HW238616   1.672   4.182   5.193  0.8737  2.3506 -0.5654
 8994SOL     OW38617   1.437   2.727   4.599  0.2196 -0.7143 -0.7047
 8994SOL    HW138618   1.420   2.705   4.690 -1.3645  2.0966 -0.3330
 8994SOL    HW238619   1.532   2.737   4.610 -0.0032  0.7553 -0.1651
 8995SOL     OW38620   0.638   4.614   5.587  0.1250 -0.0613 -0.2609
 8995SOL    HW138621   0.667   4.703   5.609  3.3651 -1.0345 -0.6986
 8995SOL    HW238622   0.661   4.620   5.494  1.1622 -1.6279 -0.0928
 8996SOL     OW38623   3.049   3.235   6.620 -0.2585 -0.3302 -0.3113
 8996SOL    HW138624   3.022   3.280   6.540 -2.6024  0.8209  1.1160
 8996SOL    HW238625   3.073   3.148   6.588 -0.8411 -0.2655 -0.9335
 8997SOL     OW38626   0.705   0.157   2.201 -0.3390  0.4064  0.0490
 8997SOL    HW138627   0.638   0.092   2.179  0.0634  0.8875 -2.5577
 8997SOL    HW238628   0.678   0.179   2.291 -0.8566 -2.1262  0.5173
 8998SOL     OW38629   2.207   0.557   7.760  0.0685  0.2070 -0.2476
 8998SOL    HW138630   2.222   0.600   7.676  0.2996 -0.1586 -0.3921
 8998SOL    HW238631   2.153   0.624   7.802 -1.2618 -0.5186 -0.7931
 8999SOL     OW38632   0.382   3.300   3.039  0.0304 -0.5022  0.0517
 8999SOL    HW138633   0.332   3.336   3.112 -0.5670  3.3950 -2.2821
 8999SOL    HW238634   0.446   3.371   3.032  0.6826 -0.9979  0.9642
 9000SOL     OW38635   4.543   2.945   2.506  0.0885 -0.0003 -0.0314
 9000SOL    HW138636   4.572   2.936   2.597  0.9709  0.6743 -0.2493
 9000SOL    HW238637   4.605   3.008   2.469  0.8456  0.5877  2.2384
 9001SOL     OW38638   1.185   1.018   3.615 -0.2749  0.3379  0.7148
 9001SOL    HW138639   1.191   0.959   3.691  1.6449 -0.6261 -0.1701
 9001SOL    HW238640   1.258   0.998   3.556 -0.8735 -1.7703  0.6637
 9002SOL     OW38641   3.941   2.850   5.337 -0.2794  0.1053 -0.2319
 9002SOL    HW138642   3.964   2.860   5.245 -0.3901 -0.3587 -0.3055
 9002SOL    HW238643   4.003   2.915   5.371  1.7630 -1.9405 -0.0826
 9003SOL     OW38644   2.991   3.421   3.251  0.1611 -0.4379 -0.2239
 9003SOL    HW138645   2.985   3.455   3.162  0.3908  0.7490  0.2197
 9003SOL    HW238646   2.915   3.452   3.300 -0.3084 -0.4857 -0.9284
 9004SOL     OW38647   4.683   2.592   7.500  0.0216 -0.2851  0.2369
 9004SOL    HW138648   4.618   2.523   7.498 -0.9189  0.6382 -0.6303
 9004SOL    HW238649   4.639   2.647   7.565 -1.1770 -1.1819  0.1898
 9005SOL     OW38650   3.234   1.729   6.959  0.3601  0.0545  0.5698
 9005SOL    HW138651   3.162   1.779   6.921 -0.4725 -0.6352  1.2356
 9005SOL    HW238652   3.227   1.658   6.895  0.3173  0.9186 -0.3907
 9006SOL     OW38653   0.763   4.065   4.574 -0.1339  0.8778 -0.2932
 9006SOL    HW138654   0.676   4.032   4.552 -0.1656 -1.0628  2.7073
 9006SOL    HW238655   0.805   4.103   4.497 -0.6003  1.3410 -0.3171
 9007SOL     OW38656   3.957   2.824   5.684  0.3581  0.5471  0.2177
 9007SOL    HW138657   4.051   2.841   5.691  0.6676 -1.6213  1.2987
 9007SOL    HW238658   3.958   2.759   5.613 -0.1777 -0.5358  1.2053
 9008SOL     OW38659   0.445   3.205   7.994  0.0304 -0.0367 -0.5068
 9008SOL    HW138660   0.373   3.268   7.992 -0.1486 -0.3874 -4.1108
 9008SOL    HW238661   0.466   3.219   8.087  0.5590 -2.1461 -0.3161
 9009SOL     OW38662   3.163   0.098   6.064  0.4330 -0.3616 -0.5320
 9009SOL    HW138663   3.144   0.057   5.980  0.4885 -1.8064  0.1539
 9009SOL    HW238664   3.114   0.031   6.111 -0.4176  2.8173  3.1673
 9010SOL     OW38665   3.584   3.783  14.411 -0.1252  0.1539 -0.5442
 9010SOL    HW138666   3.609   3.721  14.479 -0.0147  1.5314  0.6886
 9010SOL    HW238667   3.645   3.855  14.428  1.6083 -1.6230  0.7023
 9011SOL     OW38668   2.325   0.989   9.439 -0.4369 -0.6908 -0.5789
 9011SOL    HW138669   2.280   1.051   9.497 -0.8373 -0.0744 -1.5245
 9011SOL    HW238670   2.307   0.912   9.492 -0.3905  0.5520  1.2502
 9012SOL     OW38671   2.572   0.087   1.347 -0.0602 -0.1841 -0.1281
 9012SOL    HW138672   2.623   0.151   1.396 -1.6241 -0.1694  1.4629
 9012SOL    HW238673   2.634   0.014   1.349 -1.2061 -1.1089  1.1129
 9013SOL     OW38674   0.287   0.931  15.678 -0.3889 -0.3766 -0.4909
 9013SOL    HW138675   0.314   0.881  15.755  0.4408  0.8477  0.0263
 9013SOL    HW238676   0.192   0.920  15.681 -0.3139 -1.0311 -0.6140
 9014SOL     OW38677   1.508   4.257   9.477  0.1464 -0.0120 -0.6304
 9014SOL    HW138678   1.521   4.284   9.386 -0.8297  0.4917 -0.6170
 9014SOL    HW238679   1.520   4.338   9.527  0.9999 -0.1154 -0.6698
 9015SOL     OW38680   0.671   1.429   7.936 -0.0278  0.1569  0.0992
 9015SOL    HW138681   0.597   1.387   7.892  0.2969  2.3701 -2.5239
 9015SOL    HW238682   0.731   1.355   7.946 -0.0504  0.2219  0.7473
 9016SOL     OW38683   0.163   3.260   6.159 -0.1336 -0.3229  0.2061
 9016SOL    HW138684   0.235   3.204   6.128 -0.5986 -1.4189  1.1039
 9016SOL    HW238685   0.183   3.328   6.094 -0.7557 -0.5576 -0.2254
 9017SOL     OW38686   0.330   2.412   2.719 -0.1308 -0.7642  0.0585
 9017SOL    HW138687   0.346   2.498   2.680 -0.0518 -1.3633 -1.2271
 9017SOL    HW238688   0.412   2.367   2.698 -0.9614 -1.9230 -0.7567
 9018SOL     OW38689   2.960   1.118   8.654 -0.2758 -0.3432 -0.3501
 9018SOL    HW138690   3.016   1.142   8.728 -3.8493 -1.0460  2.5648
 9018SOL    HW238691   2.960   1.198   8.601  2.2398  0.1551  0.3898
 9019SOL     OW38692   1.057   3.625  14.843  0.4938 -0.0175  0.4091
 9019SOL    HW138693   1.085   3.653  14.930  0.3801 -2.9187  1.3745
 9019SOL    HW238694   1.104   3.542  14.851  0.6354 -0.1178 -1.5711
 9020SOL     OW38695   4.130   3.751   6.864 -0.3429  0.3456  0.8891
 9020SOL    HW138696   4.093   3.664   6.877 -1.7469  1.0875  1.8913
 9020SOL    HW238697   4.055   3.807   6.841  2.6735  2.8798 -2.8827
 9021SOL     OW38698   0.433   3.162  14.158  0.3064  0.1760  0.0046
 9021SOL    HW138699   0.356   3.105  14.161  0.1533  0.5709  3.0082
 9021SOL    HW238700   0.459   3.135  14.070 -1.4516 -1.9466  0.1460
 9022SOL     OW38701   1.757   2.958   2.931  0.0476  0.3102  0.4466
 9022SOL    HW138702   1.675   2.936   2.888 -0.2323  1.2412  0.5137
 9022SOL    HW238703   1.781   3.026   2.868  1.7956 -0.5742  0.1299
 9023SOL     OW38704   2.123   1.672   0.811  0.4507 -0.5531 -0.3647
 9023SOL    HW138705   2.187   1.737   0.782  1.4590 -1.0391  0.8145
 9023SOL    HW238706   2.053   1.691   0.748  0.8910  1.6203 -0.1829
 9024SOL     OW38707   2.857   3.941   7.558 -0.3130  0.5303 -0.2704
 9024SOL    HW138708   2.929   3.883   7.531 -0.2578  0.7749 -0.6536
 9024SOL    HW238709   2.821   3.965   7.472  2.3360  0.0951 -1.5082
 9025SOL     OW38710   0.423   3.461   6.204 -0.2650 -0.1321  0.7408
 9025SOL    HW138711   0.515   3.462   6.230 -0.1561 -2.2607  0.4644
 9025SOL    HW238712   0.390   3.449   6.293 -0.5727 -0.5898  0.5636
 9026SOL     OW38713   0.519   3.277   6.676  0.6459 -0.7930 -0.2810
 9026SOL    HW138714   0.543   3.226   6.599  1.0002  1.1012 -1.4309
 9026SOL    HW238715   0.423   3.279   6.681  0.5489 -0.7513 -1.9720
 9027SOL     OW38716   2.703   0.048   6.386  0.3250 -0.4692  0.1774
 9027SOL    HW138717   2.634   0.004   6.435  0.2878 -0.9044 -0.2561
 9027SOL    HW238718   2.713   4.729   6.307 -0.2640 -0.8705  0.3789
 9028SOL     OW38719   3.984   3.106   2.103  0.2361  0.3288  0.0910
 9028SOL    HW138720   3.984   3.018   2.143  1.6449  1.1468  1.8916
 9028SOL    HW238721   4.010   3.151   2.184  1.4024 -2.9840  1.5796
 9029SOL     OW38722   0.349   3.690   4.025 -0.0949  0.3893  0.8665
 9029SOL    HW138723   0.324   3.704   4.116  0.3948  1.1375  0.8831
 9029SOL    HW238724   0.430   3.740   4.030 -0.9086  1.6382  1.4241
 9030SOL     OW38725   2.349   4.659   3.589  0.8530 -0.1720  0.5688
 9030SOL    HW138726   2.420   4.668   3.526  0.2043  0.5125 -0.0634
 9030SOL    HW238727   2.342   4.564   3.584 -0.0555 -0.1137  0.6623
 9031SOL     OW38728   2.361   3.446   4.759 -0.8234  0.0075 -0.5199
 9031SOL    HW138729   2.369   3.539   4.777  0.8179 -0.1207 -0.5611
 9031SOL    HW238730   2.398   3.412   4.841 -0.4894 -1.8093 -1.4040
 9032SOL     OW38731   3.882   3.240   3.885 -0.3924  0.0879 -0.0716
 9032SOL    HW138732   3.839   3.250   3.800 -0.7915 -0.1395  0.1007
 9032SOL    HW238733   3.811   3.195   3.930  0.7343 -2.8211 -1.1864
 9033SOL     OW38734   0.776   0.748   0.344  0.1327 -0.1433 -0.7130
 9033SOL    HW138735   0.792   0.800   0.422 -0.1243 -2.1922  0.6964
 9033SOL    HW238736   0.809   0.809   0.278  1.6249 -0.6328 -0.4155
 9034SOL     OW38737   2.742   3.155   2.159  0.0290 -0.4039  0.5210
 9034SOL    HW138738   2.733   3.081   2.219  2.2986 -0.3491  0.9050
 9034SOL    HW238739   2.768   3.111   2.078  3.3725  2.3396  0.1115
 9035SOL     OW38740   0.039   3.871   1.403  0.8406 -0.2794  0.4541
 9035SOL    HW138741   0.103   3.801   1.390 -0.4673 -1.2153 -1.0825
 9035SOL    HW238742   0.097   3.933   1.446 -1.0268  2.3309 -0.7342
 9036SOL     OW38743   2.704   2.620   9.546 -0.0820  0.5842  0.7005
 9036SOL    HW138744   2.765   2.545   9.551 -1.7253 -0.8516 -0.5967
 9036SOL    HW238745   2.624   2.589   9.503 -1.1726  3.2443  0.8407
 9037SOL     OW38746   2.132   2.192  14.736 -0.1545  0.3419  0.3975
 9037SOL    HW138747   2.067   2.239  14.683 -0.5195 -0.3833  0.1936
 9037SOL    HW238748   2.078   2.167  14.811  0.4821 -2.6771 -0.1645
 9038SOL     OW38749   4.510   1.822   2.356  0.3160 -0.1264  0.3803
 9038SOL    HW138750   4.507   1.728   2.339  4.5709 -0.2293  0.0684
 9038SOL    HW238751   4.590   1.841   2.307  0.2840 -2.8984 -0.7132
 9039SOL     OW38752   0.897   1.792  12.927 -0.0800 -0.3954 -0.3304
 9039SOL    HW138753   0.869   1.708  12.890  1.3228 -0.3945 -1.4023
 9039SOL    HW238754   0.868   1.777  13.017 -0.6041 -1.5044 -0.6850
 9040SOL     OW38755   4.491   2.347  10.105  0.7330  0.0154  0.1804
 9040SOL    HW138756   4.474   2.438  10.126  3.3099  0.7419 -0.8763
 9040SOL    HW238757   4.449   2.295  10.173  0.7725 -1.4178 -0.8730
 9041SOL     OW38758   0.788   4.717   1.510 -0.7785 -0.2257  0.2498
 9041SOL    HW138759   0.776   4.629   1.474 -0.2809 -0.5908  0.9767
 9041SOL    HW238760   0.863   0.015   1.462 -0.7184 -0.7079  0.0189
 9042SOL     OW38761   3.706   0.786   2.120  0.5340  0.5828 -0.0522
 9042SOL    HW138762   3.662   0.726   2.059 -0.0477  1.2358 -0.2662
 9042SOL    HW238763   3.781   0.825   2.074  0.0975  2.0706  0.5097
 9043SOL     OW38764   2.321   3.022   8.416 -0.0165  0.2726  0.3258
 9043SOL    HW138765   2.318   3.010   8.321  2.5263  2.0969 -0.0155
 9043SOL    HW238766   2.268   3.101   8.424  0.1375  0.3574  0.5204
 9044SOL     OW38767   3.841   3.279   8.387  0.3042 -0.3358 -0.3267
 9044SOL    HW138768   3.747   3.277   8.405  0.5515  0.0105  1.0729
 9044SOL    HW238769   3.871   3.189   8.399  0.7844 -0.2490 -0.8446
 9045SOL     OW38770   2.362   0.065  13.888 -0.1086 -0.2685  0.1429
 9045SOL    HW138771   2.274   0.082  13.922  0.7643  1.0254  1.7200
 9045SOL    HW238772   2.322   0.010  13.821  1.3126 -0.6626 -0.3857
 9046SOL     OW38773   1.585   3.426   2.025  0.3708 -0.4039 -0.2935
 9046SOL    HW138774   1.571   3.403   2.117 -1.7382 -0.8744 -0.7402
 9046SOL    HW238775   1.494   3.441   2.002  0.5111 -0.3333 -0.7993
 9047SOL     OW38776   1.508   1.492   4.553 -0.2711  0.8955  0.3978
 9047SOL    HW138777   1.517   1.586   4.536 -0.1633  0.2544 -3.1419
 9047SOL    HW238778   1.416   1.488   4.577 -0.4154 -0.3937 -0.3976
 9048SOL     OW38779   0.948   3.101   3.120 -0.7788  0.2479  0.0907
 9048SOL    HW138780   0.947   3.189   3.159  2.8305 -0.1843  1.1923
 9048SOL    HW238781   1.031   3.104   3.072  1.1785 -1.6181  3.3718
 9049SOL     OW38782   2.447   3.635  13.411  0.2741  0.4847 -0.4851
 9049SOL    HW138783   2.511   3.657  13.479 -1.5119 -1.1564  1.7118
 9049SOL    HW238784   2.377   3.678  13.459 -1.2701 -0.0251 -2.3094
 9050SOL     OW38785   1.445   2.454   9.808 -0.5357 -0.0287  0.0553
 9050SOL    HW138786   1.389   2.532   9.800 -1.8414 -0.7660  1.9437
 9050SOL    HW238787   1.530   2.484   9.777  0.2082 -3.4364 -1.2317
 9051SOL     OW38788   3.198   0.001   9.854 -0.5692 -0.2773  0.0977
 9051SOL    HW138789   3.138   4.724   9.928  0.3136  0.6043  0.9674
 9051SOL    HW238790   3.173   4.657   9.808  1.2137 -0.8737  0.1550
 9052SOL     OW38791   4.115   4.098  13.588 -0.4527 -0.3215 -0.3288
 9052SOL    HW138792   4.168   4.026  13.555 -0.5678  0.3119 -1.8997
 9052SOL    HW238793   4.084   4.138  13.507  2.8618  0.3711 -1.2474
 9053SOL     OW38794   4.163   1.800   9.143  0.4688  0.3318  0.1337
 9053SOL    HW138795   4.183   1.788   9.236  0.3484 -0.9772  0.0030
 9053SOL    HW238796   4.250   1.804   9.104  0.2164 -1.7431 -0.6522
 9054SOL     OW38797   2.309   3.780  12.179  0.9911  0.3802  0.0681
 9054SOL    HW138798   2.274   3.808  12.095  3.4581  3.3013 -0.0156
 9054SOL    HW238799   2.236   3.803  12.237  1.1512  1.4876 -0.1657
 9055SOL     OW38800   2.014   4.550  13.284  0.0783 -0.3124  0.0803
 9055SOL    HW138801   2.109   4.560  13.284 -0.0292  0.7831 -1.5820
 9055SOL    HW238802   1.996   4.495  13.208 -0.5713  1.4696 -1.0516
 9056SOL     OW38803   3.229   0.190   9.632 -0.7127  0.6468 -0.1852
 9056SOL    HW138804   3.222   0.145   9.716 -0.6279  1.2049  0.1202
 9056SOL    HW238805   3.219   0.119   9.569 -0.9626  2.0744 -1.7494
 9057SOL     OW38806   3.135   3.620  10.488 -0.4578  0.0693 -0.2599
 9057SOL    HW138807   3.126   3.677  10.563  1.8645  0.3299 -0.1844
 9057SOL    HW238808   3.179   3.678  10.425 -1.2156  1.4314  0.4797
 9058SOL     OW38809   2.896   3.287   8.565  0.4408  0.6516  0.2712
 9058SOL    HW138810   2.878   3.379   8.549 -0.7499  0.2159 -1.0077
 9058SOL    HW238811   2.941   3.268   8.482  0.4663 -0.5248  0.5449
 9059SOL     OW38812   3.552   2.458   8.107 -0.2206  0.5795 -0.1886
 9059SOL    HW138813   3.544   2.394   8.179 -2.3636  0.5293 -0.4560
 9059SOL    HW238814   3.620   2.418   8.053 -0.0159 -1.2037  1.3631
 9060SOL     OW38815   3.756   2.305   3.390  0.4086  0.4789 -0.0180
 9060SOL    HW138816   3.741   2.380   3.332 -0.9242  1.1717  1.2080
 9060SOL    HW238817   3.692   2.344   3.450  0.2606  0.1953  0.0068
 9061SOL     OW38818   3.779   1.435   8.251  0.1260 -0.2275 -0.5460
 9061SOL    HW138819   3.783   1.454   8.344  2.4298 -1.4578 -0.4122
 9061SOL    HW238820   3.736   1.512   8.213  0.6371 -0.1194 -0.9006
 9062SOL     OW38821   3.086   3.478   1.035 -0.1475  0.6006 -0.4223
 9062SOL    HW138822   3.085   3.468   1.130  3.0440  0.9882 -0.3438
 9062SOL    HW238823   3.009   3.528   1.010  0.6220  1.0896 -1.7999
 9063SOL     OW38824   2.918   0.760   0.457  0.2164  0.1340 -0.5085
 9063SOL    HW138825   2.927   0.670   0.485 -0.1033  0.1569 -0.3259
 9063SOL    HW238826   2.907   0.747   0.363 -0.0227 -0.9159 -0.3335
 9064SOL     OW38827   4.493   1.191   8.528 -0.3849 -0.2993  0.9562
 9064SOL    HW138828   4.476   1.195   8.434  0.6418  1.9782  0.8750
 9064SOL    HW238829   4.457   1.104   8.544 -3.2166  0.9421  1.3037
 9065SOL     OW38830   2.746   2.162   5.216  0.2850  0.1601 -0.5220
 9065SOL    HW138831   2.658   2.127   5.198  1.3809 -3.1872  0.5575
 9065SOL    HW238832   2.728   2.251   5.247 -1.2394 -0.0896 -0.6724
 9066SOL     OW38833   4.620   0.888  12.376  0.2272 -0.4499 -0.3414
 9066SOL    HW138834   4.659   0.820  12.431  0.4967 -0.0674 -0.0552
 9066SOL    HW238835   4.674   0.894  12.297 -0.4647  0.9403 -0.7158
 9067SOL     OW38836   0.478   1.416   1.174 -0.1548  0.2268  0.0331
 9067SOL    HW138837   0.496   1.322   1.167  1.1659  0.3781  1.2327
 9067SOL    HW238838   0.566   1.456   1.178 -0.7407  1.4182  1.0793
 9068SOL     OW38839   3.493   0.540   5.831 -0.4435 -0.4969 -0.2905
 9068SOL    HW138840   3.412   0.490   5.843 -0.0684 -0.7080  1.2938
 9068SOL    HW238841   3.538   0.479   5.772 -0.5034  1.4237 -2.3078
 9069SOL     OW38842   4.375   0.649   5.114 -0.1270  0.2520  0.2375
 9069SOL    HW138843   4.340   0.561   5.095  0.3455 -0.0444  0.7371
 9069SOL    HW238844   4.414   0.625   5.198 -1.8752 -0.5969  0.8014
 9070SOL     OW38845   3.485   1.296   1.443 -0.0943  0.8278 -0.2626
 9070SOL    HW138846   3.449   1.255   1.364 -1.8529  1.2760  0.2927
 9070SOL    HW238847   3.514   1.381   1.409  1.0922 -0.2460 -1.9536
 9071SOL     OW38848   4.561   0.708   1.596  0.4233 -0.1401  0.0826
 9071SOL    HW138849   4.500   0.762   1.647 -0.2917 -2.0703  1.2395
 9071SOL    HW238850   4.621   0.773   1.558 -1.0150  0.3853 -1.3205
 9072SOL     OW38851   2.714   0.281   3.371 -0.4357 -0.2639 -0.6011
 9072SOL    HW138852   2.779   0.349   3.350 -1.1073 -0.6203 -3.8179
 9072SOL    HW238853   2.767   0.231   3.432 -0.1701 -0.9971 -1.4457
 9073SOL     OW38854   4.082   3.568   7.703  0.2422  0.5923 -0.4703
 9073SOL    HW138855   4.024   3.559   7.627  0.9357 -0.6558 -0.8413
 9073SOL    HW238856   4.104   3.661   7.707 -0.6658  0.8035 -0.2780
 9074SOL     OW38857   2.335   0.614   2.286  0.4841 -0.1496  0.5557
 9074SOL    HW138858   2.310   0.705   2.301  1.3628 -0.3176  3.0931
 9074SOL    HW238859   2.251   0.567   2.283 -0.5677  1.7903  0.0835
 9075SOL     OW38860   2.567   4.097   8.179  0.0831 -0.5307  0.7180
 9075SOL    HW138861   2.594   4.022   8.232  1.1486 -0.8654 -0.3062
 9075SOL    HW238862   2.480   4.113   8.215 -0.0303 -2.0983  1.1332
 9076SOL     OW38863   4.305   4.457   1.858  0.0576 -0.4679  0.4235
 9076SOL    HW138864   4.396   4.483   1.849 -0.4186  1.4803  1.1820
 9076SOL    HW238865   4.254   4.496   1.787  0.2440 -1.2794 -0.1586
 9077SOL     OW38866   0.738   2.984   3.738 -0.2689 -0.0290 -0.5564
 9077SOL    HW138867   0.682   3.031   3.799  1.3678 -0.8208  1.5622
 9077SOL    HW238868   0.674   2.923   3.703 -2.1786  0.8450  1.4637
 9078SOL     OW38869   3.585   0.891   2.496  0.1294 -1.0339 -0.2455
 9078SOL    HW138870   3.629   0.846   2.568  1.5254  0.4343 -0.1946
 9078SOL    HW238871   3.656   0.949   2.471 -1.8223  1.7214  0.6783
 9079SOL     OW38872   0.801   2.942   8.125  0.4842 -0.2397  0.0969
 9079SOL    HW138873   0.795   2.957   8.220  0.0258  2.7345 -0.4234
 9079SOL    HW238874   0.818   2.848   8.119 -0.2674 -0.3609 -0.2041
 9080SOL     OW38875   1.373   4.284   3.952 -0.3180 -0.1102  0.1596
 9080SOL    HW138876   1.303   4.293   4.016 -0.4424  2.5005 -0.3456
 9080SOL    HW238877   1.323   4.269   3.872  0.8969 -0.6857 -0.5048
 9081SOL     OW38878   3.466   1.897   4.308  0.3601 -0.0209  0.0642
 9081SOL    HW138879   3.377   1.909   4.341  0.1933 -0.7145 -0.1220
 9081SOL    HW238880   3.437   1.860   4.225  1.9443  1.4438 -1.1625
 9082SOL     OW38881   2.882   0.536  14.457  0.9683 -0.4291  0.0819
 9082SOL    HW138882   2.926   0.472  14.401 -0.8994 -1.4537 -0.2084
 9082SOL    HW238883   2.812   0.481  14.491 -0.0207  0.0300 -1.2155
 9083SOL     OW38884   3.446   4.558   1.834 -0.4369  0.0749 -0.1325
 9083SOL    HW138885   3.410   4.470   1.836  3.1756 -1.4019  0.2902
 9083SOL    HW238886   3.385   4.605   1.891 -1.2604 -0.4665 -0.5795
 9084SOL     OW38887   3.336   2.392   5.133  0.2863 -0.1066 -0.3067
 9084SOL    HW138888   3.389   2.408   5.211  0.5796 -1.7153 -0.1829
 9084SOL    HW238889   3.412   2.375   5.077  1.2230  0.9868  0.6265
 9085SOL     OW38890   0.078   1.260  11.103 -0.5961  0.1146 -0.4316
 9085SOL    HW138891   0.092   1.209  11.183 -0.0347 -0.3399 -0.8188
 9085SOL    HW238892   0.082   1.350  11.134 -3.5028  0.4273 -0.9408
 9086SOL     OW38893   3.904   3.677   8.580  0.5358 -0.0223 -0.8530
 9086SOL    HW138894   3.860   3.754   8.543 -0.5526  0.2636  1.0899
 9086SOL    HW238895   3.829   3.618   8.582 -0.4675  1.2740 -0.4801
 9087SOL     OW38896   4.040   0.189   9.880  0.7270 -0.0304 -0.5022
 9087SOL    HW138897   3.984   0.122   9.840 -1.2873  2.0809 -1.1736
 9087SOL    HW238898   3.997   0.272   9.862  0.2407 -0.3498 -0.8091
 9088SOL     OW38899   3.305   2.881   4.099 -0.2702  0.2356  0.3252
 9088SOL    HW138900   3.389   2.916   4.068 -0.8407 -0.6847 -2.2306
 9088SOL    HW238901   3.299   2.914   4.189 -1.1344 -0.8777  0.6722
 9089SOL     OW38902   1.279   2.065   0.368 -0.6196  0.9621  0.2042
 9089SOL    HW138903   1.284   2.096   0.278 -1.8897  2.6972  0.7271
 9089SOL    HW238904   1.186   2.044   0.364 -0.4794  0.9879 -3.0637
 9090SOL     OW38905   1.789   1.893   7.884  0.0842 -0.3542 -0.2171
 9090SOL    HW138906   1.878   1.929   7.883  0.5852 -1.4937  2.1244
 9090SOL    HW238907   1.791   1.840   7.964 -0.9035 -1.3592 -0.8568
 9091SOL     OW38908   0.596   0.898   6.142 -0.0071  0.6618  0.4747
 9091SOL    HW138909   0.534   0.826   6.149  0.9159 -0.0752  1.0622
 9091SOL    HW238910   0.680   0.853   6.157 -0.4879 -0.0375  1.0991
 9092SOL     OW38911   3.236   1.345   9.490 -0.1482  0.5001  0.2227
 9092SOL    HW138912   3.164   1.372   9.547 -1.6234 -1.6576 -0.6164
 9092SOL    HW238913   3.239   1.253   9.517  2.0689  0.5333  0.0491
 9093SOL     OW38914   3.802   2.597   8.399  0.5849  0.4805 -0.0250
 9093SOL    HW138915   3.801   2.516   8.451  1.6738  0.7583  0.4343
 9093SOL    HW238916   3.875   2.575   8.340 -0.5650 -1.8636 -0.5828
 9094SOL     OW38917   0.340   2.566   6.028 -0.2407  0.0855  0.6238
 9094SOL    HW138918   0.285   2.633   6.069 -2.5851 -1.4295 -0.0650
 9094SOL    HW238919   0.285   2.541   5.954 -0.4069 -1.3734  1.2424
 9095SOL     OW38920   3.865   4.332  12.630  0.2921  0.0619  0.1801
 9095SOL    HW138921   3.932   4.320  12.697  0.7587  1.4712 -0.0347
 9095SOL    HW238922   3.902   4.398  12.571  0.6353  0.0443  0.3775
 9096SOL     OW38923   2.371   4.276   5.564  0.5082  0.2723  0.2842
 9096SOL    HW138924   2.389   4.369   5.553  0.9242  0.0615 -0.8282
 9096SOL    HW238925   2.409   4.260   5.651  0.9327  0.3021  0.1047
 9097SOL     OW38926   3.060   3.662  14.265 -0.0348  0.1379  0.2145
 9097SOL    HW138927   3.061   3.737  14.206  0.0370  0.7132  0.9598
 9097SOL    HW238928   3.031   3.692  14.350 -2.0978  0.1380 -0.4964
 9098SOL     OW38929   2.256   2.514   7.086  0.4895 -0.1182 -0.2826
 9098SOL    HW138930   2.301   2.597   7.073  0.2979 -0.3375 -2.4278
 9098SOL    HW238931   2.220   2.532   7.173  0.6512  0.5560 -0.3535
 9099SOL     OW38932   2.023   4.428  12.349  0.4352 -0.1547 -0.3782
 9099SOL    HW138933   2.055   4.433  12.440 -1.3554 -2.3125  0.3557
 9099SOL    HW238934   2.072   4.504  12.318  1.6896 -0.9192 -0.2855
 9100SOL     OW38935   3.133   0.403   8.536 -0.2970  0.3470 -0.0154
 9100SOL    HW138936   3.166   0.341   8.601 -0.6215 -1.5267 -1.6415
 9100SOL    HW238937   3.076   0.457   8.592 -0.4468  0.0058  0.1607
 9101SOL     OW38938   0.793   2.678   0.445  0.1868  0.0341 -0.8015
 9101SOL    HW138939   0.724   2.715   0.390 -0.1230 -1.7102 -1.5941
 9101SOL    HW238940   0.758   2.598   0.483  1.4854  0.0540  0.4361
 9102SOL     OW38941   1.333   3.698   2.179  1.1724 -0.0549  0.2829
 9102SOL    HW138942   1.246   3.673   2.147  1.1710 -0.4357  0.5806
 9102SOL    HW238943   1.363   3.743   2.100 -0.6822  1.3559  0.3704
 9103SOL     OW38944   0.383   1.994  17.230  0.7236 -0.0435 -0.4939
 9103SOL    HW138945   0.354   2.013  17.141 -2.2145 -4.2703 -0.4596
 9103SOL    HW238946   0.388   1.899  17.228  5.2331  0.2078  0.2447
 9104SOL     OW38947   4.186   3.928   1.339  0.2027  0.2213 -0.1707
 9104SOL    HW138948   4.229   4.012   1.354  0.4536 -0.5752  3.5813
 9104SOL    HW238949   4.097   3.955   1.360 -0.1676 -2.1803  1.3516
 9105SOL     OW38950   3.682   1.824   2.523 -0.0171  0.2060  0.0675
 9105SOL    HW138951   3.704   1.752   2.582 -1.9952 -0.8922 -0.5308
 9105SOL    HW238952   3.632   1.781   2.453  0.6334  0.5138 -0.5892
 9106SOL     OW38953   4.476   1.931   6.258  0.0429  0.0010 -0.1308
 9106SOL    HW138954   4.472   1.840   6.288  3.0879  0.1096  0.6698
 9106SOL    HW238955   4.428   1.925   6.176  1.9291  2.4634 -1.4091
 9107SOL     OW38956   4.453   2.096   5.006  0.6864 -0.1059 -0.1924
 9107SOL    HW138957   4.410   2.010   4.997 -0.9030  0.7408 -0.6723
 9107SOL    HW238958   4.471   2.095   5.100 -0.4590  0.4054  0.0300
 9108SOL     OW38959   0.688   2.733   5.895  0.3149  0.3250  0.3144
 9108SOL    HW138960   0.723   2.815   5.860  2.3009 -0.9171 -0.5985
 9108SOL    HW238961   0.728   2.727   5.981 -0.1396  0.3577  0.5285
 9109SOL     OW38962   2.277   1.326  12.276 -0.5424 -0.2478 -0.2853
 9109SOL    HW138963   2.268   1.232  12.262 -0.0686 -0.6378  1.9722
 9109SOL    HW238964   2.194   1.362  12.308 -0.8822 -1.8671  0.6643
 9110SOL     OW38965   2.707   2.816   6.945  0.3765  0.0069 -0.0753
 9110SOL    HW138966   2.782   2.763   6.919 -0.6675 -1.0931 -0.8604
 9110SOL    HW238967   2.661   2.758   7.007  1.1927  0.5696  1.0616
 9111SOL     OW38968   4.224   2.282   1.900  0.0745 -0.3111  0.5900
 9111SOL    HW138969   4.289   2.314   1.839 -0.2503 -2.3464 -0.8301
 9111SOL    HW238970   4.227   2.189   1.878 -1.1825 -0.4636  1.0522
 9112SOL     OW38971   4.056   4.473  14.065 -0.2986  0.4470 -0.2100
 9112SOL    HW138972   4.054   4.438  14.154  3.2260  1.3957  0.2109
 9112SOL    HW238973   4.142   4.515  14.066  1.0128 -2.1765 -1.3884
 9113SOL     OW38974   0.113   1.332   7.078  0.0729 -0.1618 -0.4711
 9113SOL    HW138975   0.194   1.287   7.103  0.4487  0.8019  0.0335
 9113SOL    HW238976   0.085   1.379   7.156  0.5871  3.8404 -2.7130
 9114SOL     OW38977   1.731   3.669   4.050  0.2980  0.3721  0.0738
 9114SOL    HW138978   1.658   3.671   3.989 -0.1680 -1.2433  0.6004
 9114SOL    HW238979   1.755   3.762   4.048 -0.8778  0.6649 -0.2045
 9115SOL     OW38980   3.658   4.690   1.964 -0.6396  0.7086  0.0945
 9115SOL    HW138981   3.576   4.675   1.918 -1.5410  0.5404  1.7574
 9115SOL    HW238982   3.668   0.045   1.935  0.9760  0.7499  0.7495
 9116SOL     OW38983   3.101   2.379   4.572 -0.4485  0.5608 -0.0125
 9116SOL    HW138984   3.151   2.444   4.524  0.3933  0.8921  1.3048
 9116SOL    HW238985   3.029   2.372   4.509  0.6887 -2.8176 -0.9506
 9117SOL     OW38986   1.959   1.605   7.815 -0.0819  0.5252 -0.1304
 9117SOL    HW138987   1.933   1.697   7.805 -1.4764  0.0190 -1.1513
 9117SOL    HW238988   1.993   1.607   7.905  1.4792  0.2261 -0.7114
 9118SOL     OW38989   1.679   3.702   7.390 -0.2464  0.0620  0.2819
 9118SOL    HW138990   1.614   3.771   7.401 -0.6998 -0.0031 -2.0335
 9118SOL    HW238991   1.700   3.674   7.479  1.6864 -0.7010 -0.3961
 9119SOL     OW38992   1.335   0.153   2.968 -0.7494 -0.3824 -0.2960
 9119SOL    HW138993   1.243   0.179   2.963 -0.5195  0.5983  0.4427
 9119SOL    HW238994   1.344   0.079   2.908 -1.3772 -2.4680  2.2006
 9120SOL     OW38995   3.075   2.768   5.130 -0.0931 -0.4554  0.2843
 9120SOL    HW138996   3.168   2.777   5.151  0.0567 -0.5594 -0.3609
 9120SOL    HW238997   3.046   2.858   5.144  0.4249 -0.4207  1.1810
 9121SOL     OW38998   0.514   4.556   3.541 -0.1816  0.3308  0.1321
 9121SOL    HW138999   0.553   4.518   3.462 -0.5694  0.3485 -0.0704
 9121SOL    HW239000   0.494   4.645   3.511  1.9197  0.5271 -0.6775
 9122SOL     OW39001   4.639   0.708   2.046 -0.1365  0.0214  0.2453
 9122SOL    HW139002   4.720   0.707   1.995  0.6287 -1.3032  1.4819
 9122SOL    HW239003   4.645   0.632   2.104 -1.3738  1.7747  2.6737
 9123SOL     OW39004   0.784   0.371   0.591 -1.1868 -0.0152  0.0039
 9123SOL    HW139005   0.706   0.420   0.619 -0.8039  0.4185  0.3124
 9123SOL    HW239006   0.732   0.322   0.528  1.0821 -2.1034 -0.2305
 9124SOL     OW39007   2.259   0.096  12.933 -0.0206  0.1301 -0.6524
 9124SOL    HW139008   2.183   0.044  12.959  1.4913 -0.1571  3.2082
 9124SOL    HW239009   2.210   0.152  12.873 -1.2500 -0.2235  0.0056
 9125SOL     OW39010   2.175   2.028   8.860  0.0549  0.2231  0.0045
 9125SOL    HW139011   2.192   1.967   8.932 -0.3891 -1.0253 -0.9394
 9125SOL    HW239012   2.130   1.970   8.799  1.7971 -1.8509  0.6906
 9126SOL     OW39013   0.822   1.643   8.456 -0.8232 -0.2173 -0.5772
 9126SOL    HW139014   0.858   1.563   8.495  0.0470 -0.2418 -1.4338
 9126SOL    HW239015   0.750   1.682   8.506  0.3147 -0.2934  1.1266
 9127SOL     OW39016   3.218   0.003   9.435 -0.1974 -0.4420  0.3507
 9127SOL    HW139017   3.245   4.660   9.482 -1.6592 -0.9602  0.3256
 9127SOL    HW239018   3.135   4.711   9.395 -1.2190 -0.5589  2.5860
 9128SOL     OW39019   4.568   1.099   5.960  0.9810  0.1664  0.2186
 9128SOL    HW139020   4.490   1.070   6.007  1.5906 -0.1142  1.0551
 9128SOL    HW239021   4.633   1.053   6.012 -0.6666 -3.3223 -0.8018
 9129SOL     OW39022   2.156   3.813  11.969 -0.1047  0.7910 -0.0092
 9129SOL    HW139023   2.144   3.722  11.943  1.5829  0.2657  0.9732
 9129SOL    HW239024   2.178   3.859  11.888  0.2579  0.2498 -0.2199
 9130SOL     OW39025   1.715   0.743   4.666 -0.4157  0.6482  0.1776
 9130SOL    HW139026   1.777   0.675   4.639 -0.5762  0.1080  1.1907
 9130SOL    HW239027   1.743   0.756   4.757 -0.0979 -0.5750  0.2534
 9131SOL     OW39028   2.778   1.986   9.691 -0.0474 -0.3463  0.5967
 9131SOL    HW139029   2.692   2.019   9.713  0.1716  0.6325 -0.0229
 9131SOL    HW239030   2.822   2.063   9.654 -2.0810  0.3181 -0.4367
 9132SOL     OW39031   1.261   4.424   5.529 -0.3499  0.2438 -0.3806
 9132SOL    HW139032   1.215   4.480   5.592 -0.0372  0.4721 -0.3573
 9132SOL    HW239033   1.287   4.351   5.584  1.8124  0.7246 -0.7781
 9133SOL     OW39034   4.532   3.869   9.657 -0.4149 -0.2451  0.0877
 9133SOL    HW139035   4.455   3.907   9.616 -0.2169  0.0710  0.0091
 9133SOL    HW239036   4.491   3.793   9.698 -0.1002 -0.9127 -0.8336
 9134SOL     OW39037   3.935   0.770  16.468  1.1699 -0.0922 -0.7760
 9134SOL    HW139038   3.990   0.847  16.454 -0.6798  1.0790 -1.6007
 9134SOL    HW239039   3.897   0.785  16.555  1.0636 -0.8995 -0.6836
 9135SOL     OW39040   0.859   4.131  15.824  0.3089 -0.0634 -0.3165
 9135SOL    HW139041   0.806   4.168  15.753 -1.3921 -1.9133 -0.0063
 9135SOL    HW239042   0.841   4.199  15.889 -1.1113  1.7313 -2.5567
 9136SOL     OW39043   0.276   1.003  15.398 -0.2301 -0.0886  0.8040
 9136SOL    HW139044   0.274   0.954  15.480  0.3758 -1.0132  0.2688
 9136SOL    HW239045   0.230   1.080  15.432  1.4025  0.7890  1.0318
 9137SOL     OW39046   2.521   2.005   6.320  0.0346 -0.2343 -0.0244
 9137SOL    HW139047   2.608   2.004   6.361 -1.6008  0.1548  3.4571
 9137SOL    HW239048   2.480   2.083   6.356  2.1069  0.9637 -0.2609
 9138SOL     OW39049   2.449   0.226   7.325  0.0641  0.3098  0.0329
 9138SOL    HW139050   2.472   0.243   7.233  0.4656 -2.8294 -0.4574
 9138SOL    HW239051   2.395   0.149   7.310  0.3045  0.3185 -0.8930
 9139SOL     OW39052   1.931   2.512   3.260 -0.1310  0.3880 -0.2304
 9139SOL    HW139053   1.981   2.436   3.289  0.5216  0.7351 -0.4636
 9139SOL    HW239054   1.920   2.564   3.340  2.2635  1.5866 -0.6945
 9140SOL     OW39055   1.797   4.239  15.320  0.0678 -0.1266 -0.9870
 9140SOL    HW139056   1.777   4.267  15.409  1.7832 -0.8117 -0.3766
 9140SOL    HW239057   1.711   4.236  15.279 -0.1649 -1.5822 -0.3967
 9141SOL     OW39058   0.752   4.616   9.880 -0.0070  0.2027  0.0588
 9141SOL    HW139059   0.763   4.650   9.969  1.9039  0.1775 -0.1562
 9141SOL    HW239060   0.678   4.557   9.893  0.0857  0.3800  1.4049
 9142SOL     OW39061   4.113   3.388   4.047 -0.0257 -0.1282 -0.0490
 9142SOL    HW139062   4.067   3.393   4.131 -1.0341 -1.0761 -0.5410
 9142SOL    HW239063   4.045   3.338   4.003  2.0650 -1.7997 -1.3953
 9143SOL     OW39064   1.431   0.312   2.395  0.3947  0.4092 -0.1477
 9143SOL    HW139065   1.493   0.304   2.322  0.8769 -0.1751  0.3232
 9143SOL    HW239066   1.353   0.353   2.358  0.1582 -0.4536 -0.5994
 9144SOL     OW39067   0.490   2.004   7.938 -0.7768 -0.4634  0.2922
 9144SOL    HW139068   0.518   1.924   7.894 -0.3452 -0.2991  0.2679
 9144SOL    HW239069   0.580   2.036   7.946 -0.6694 -0.5455 -0.5957
 9145SOL     OW39070   0.273   2.992   6.607 -0.1297  0.1461 -0.2083
 9145SOL    HW139071   0.259   3.042   6.687 -1.0736  1.6855 -1.3388
 9145SOL    HW239072   0.267   3.050   6.531 -1.2854  1.3271  0.8020
 9146SOL     OW39073   0.002   4.406   7.943 -0.0520 -0.2075 -0.0107
 9146SOL    HW139074   4.709   4.378   7.856  1.6416  1.1193 -0.9799
 9146SOL    HW239075   4.660   4.385   7.995  0.7953  1.2250  1.8426
 9147SOL     OW39076   1.807   0.771   6.993 -0.5256 -0.0498 -0.3843
 9147SOL    HW139077   1.712   0.776   6.991 -0.5232  0.1925 -0.0111
 9147SOL    HW239078   1.837   0.778   7.084 -0.3224  0.5683 -0.5032
 9148SOL     OW39079   2.657   0.563  10.608  0.3914 -0.5399  0.1349
 9148SOL    HW139080   2.722   0.597  10.547  0.3839  0.2402  0.5613
 9148SOL    HW239081   2.580   0.598  10.562 -0.6742 -0.7347  1.7846
 9149SOL     OW39082   1.828   4.720   3.867 -0.0834 -0.1777 -0.2150
 9149SOL    HW139083   1.802   4.631   3.847 -1.7469 -0.0396  1.2437
 9149SOL    HW239084   1.737   0.013   3.882 -0.3584 -1.9696  1.4460
 9150SOL     OW39085   2.860   4.349  15.399  0.1044  0.2945  0.0338
 9150SOL    HW139086   2.904   4.372  15.317  0.2232  0.2247  0.0786
 9150SOL    HW239087   2.813   4.269  15.374 -1.8367  0.4183  3.2245
 9151SOL     OW39088   3.333   3.411  16.862  0.2266 -0.1847  0.1080
 9151SOL    HW139089   3.343   3.433  16.955  0.8187 -0.1615  0.0357
 9151SOL    HW239090   3.249   3.366  16.856  0.2560 -0.4538  1.6571
 9152SOL     OW39091   3.816   2.213   9.769 -0.4180 -0.4166  0.0618
 9152SOL    HW139092   3.748   2.266   9.811 -0.5408 -0.9292  0.5173
 9152SOL    HW239093   3.889   2.271   9.746 -0.6760 -0.7985 -1.7268
 9153SOL     OW39094   2.389   3.145  11.720 -0.3058  0.0128 -0.3005
 9153SOL    HW139095   2.428   3.232  11.710 -0.3943 -0.2060 -2.4767
 9153SOL    HW239096   2.309   3.158  11.670 -0.8979  1.2761  0.9536
 9154SOL     OW39097   0.544   1.326   8.416  0.2535  0.6766 -0.5485
 9154SOL    HW139098   0.513   1.398   8.360 -2.9195  1.5805  2.3168
 9154SOL    HW239099   0.462   1.299   8.457  0.9671  2.4703  2.1364
 9155SOL     OW39100   0.570   3.121  12.244  0.4795  0.6606  0.6853
 9155SOL    HW139101   0.586   3.185  12.175  1.7248 -0.1981  0.1865
 9155SOL    HW239102   0.484   3.149  12.275  0.2354 -1.0385  1.5413
 9156SOL     OW39103   2.795   3.616   6.995 -0.1749 -0.2209 -1.1842
 9156SOL    HW139104   2.842   3.637   6.915  1.7901 -2.6629 -0.6875
 9156SOL    HW239105   2.766   3.696   7.039 -1.2722 -0.4037 -1.5693
 9157SOL     OW39106   3.299   1.228  13.643  0.0087  0.4818  0.4771
 9157SOL    HW139107   3.205   1.236  13.630 -0.5236 -3.8504  1.7312
 9157SOL    HW239108   3.312   1.302  13.702 -0.6905  0.8744  0.1310
 9158SOL     OW39109   1.360   2.130  13.579 -0.0308  0.1647 -0.4403
 9158SOL    HW139110   1.342   2.192  13.650  0.3480  1.1228 -1.1947
 9158SOL    HW239111   1.293   2.064  13.597 -0.1108 -0.4233 -2.9017
 9159SOL     OW39112   2.690   3.614  11.211 -0.1044 -0.7204  0.2337
 9159SOL    HW139113   2.733   3.621  11.126  3.3030  1.7173  2.1411
 9159SOL    HW239114   2.691   3.705  11.242 -1.5627 -0.2032 -1.2283
 9160SOL     OW39115   0.216   3.399   4.277 -0.8715  0.4085 -0.0048
 9160SOL    HW139116   0.279   3.393   4.349 -1.6351 -0.0438  0.6314
 9160SOL    HW239117   0.216   3.494   4.264 -0.4685  0.5498  1.0428
 9161SOL     OW39118   0.609   1.417   2.953 -0.0222 -0.0506  0.2589
 9161SOL    HW139119   0.696   1.437   2.918  0.1704  0.7151  1.1723
 9161SOL    HW239120   0.625   1.350   3.019  3.2189  1.1011  0.6026
 9162SOL     OW39121   3.173   2.109   5.510  0.0010  0.1957 -0.0079
 9162SOL    HW139122   3.240   2.143   5.569  2.4779 -2.6421 -1.2426
 9162SOL    HW239123   3.118   2.187   5.517  0.8917  0.8268 -0.1294
 9163SOL     OW39124   0.545   1.975   6.740 -0.3522  0.0506  0.3555
 9163SOL    HW139125   0.468   1.937   6.781 -1.6821  0.4534 -1.7428
 9163SOL    HW239126   0.504   1.996   6.656 -0.5217 -0.3818  0.3327
 9164SOL     OW39127   3.353   2.872   5.493  0.0206 -0.1464 -0.3771
 9164SOL    HW139128   3.279   2.918   5.453  0.7825  2.1670  0.8923
 9164SOL    HW239129   3.361   2.915   5.578 -0.4788  1.2275 -1.0276
 9165SOL     OW39130   4.051   2.811   3.110  0.3131  0.2402 -0.1709
 9165SOL    HW139131   4.138   2.831   3.075  0.6334 -0.9053 -0.0168
 9165SOL    HW239132   4.069   2.732   3.161 -1.1810  0.7911  1.2373
 9166SOL     OW39133   2.421   3.824   3.067  0.2888  0.3031  0.4023
 9166SOL    HW139134   2.421   3.811   2.972  2.0540  2.4268  0.1091
 9166SOL    HW239135   2.506   3.789   3.092  1.2833  1.3920 -1.4540
 9167SOL     OW39136   1.869   3.263   6.207  0.3204 -0.0111 -0.0775
 9167SOL    HW139137   1.850   3.199   6.276  1.0964  0.6024  0.7137
 9167SOL    HW239138   1.937   3.311   6.255  1.9503 -1.4375 -0.9656
 9168SOL     OW39139   1.720   4.049   5.707 -0.1839  0.3553 -0.2960
 9168SOL    HW139140   1.789   4.087   5.653 -0.1032 -0.2803 -0.6362
 9168SOL    HW239141   1.744   3.958   5.691  0.6299  0.4536  0.3663
 9169SOL     OW39142   4.476   1.510   9.120 -0.2221 -0.0454 -0.2775
 9169SOL    HW139143   4.381   1.513   9.114 -0.2247  0.7892  0.2174
 9169SOL    HW239144   4.499   1.560   9.042 -3.4191  1.9949  0.1013
 9170SOL     OW39145   3.632   0.969   9.160  0.4069 -0.1030  0.2281
 9170SOL    HW139146   3.656   1.061   9.156 -0.1125  0.0332  0.2144
 9170SOL    HW239147   3.625   0.960   9.255 -0.2023  0.0401  0.1967
 9171SOL     OW39148   3.593   4.714  13.629  0.4518 -0.0568 -0.1663
 9171SOL    HW139149   3.585   4.694  13.536 -0.8341 -3.3134  0.6386
 9171SOL    HW239150   3.611   4.629  13.668 -1.0594  0.4023  1.5750
 9172SOL     OW39151   1.622   2.307   5.044 -0.3688 -0.0506 -0.2032
 9172SOL    HW139152   1.673   2.302   5.125 -0.4065 -2.4305 -0.3345
 9172SOL    HW239153   1.692   2.281   4.984 -0.1458 -0.8660  0.4173
 9173SOL     OW39154   4.206   0.275  13.059 -0.0665  0.4201  0.1242
 9173SOL    HW139155   4.235   0.297  13.147  1.8558 -1.4778 -0.0273
 9173SOL    HW239156   4.148   0.350  13.049  0.3093  0.5795 -0.9102
 9174SOL     OW39157   1.323   2.482   3.472 -0.2628  0.2052 -0.1418
 9174SOL    HW139158   1.415   2.496   3.450  0.0529 -1.3720  0.2007
 9174SOL    HW239159   1.283   2.559   3.432  0.5611  1.2938  1.1656
 9175SOL     OW39160   3.374   2.781  12.601 -0.1027 -0.0636  0.2417
 9175SOL    HW139161   3.281   2.770  12.622 -0.6224 -0.1865 -2.1551
 9175SOL    HW239162   3.381   2.736  12.517 -0.4217 -3.3813  2.0079
 9176SOL     OW39163   0.388   1.908  14.201  0.5688 -0.1468  0.5174
 9176SOL    HW139164   0.318   1.894  14.265 -1.4191 -0.1320 -1.6750
 9176SOL    HW239165   0.454   1.942  14.262  0.9784  0.8785 -0.5112
 9177SOL     OW39166   4.434   4.227   7.743 -0.3876  0.7581 -0.3781
 9177SOL    HW139167   4.500   4.278   7.697 -2.3305  1.8404 -1.9465
 9177SOL    HW239168   4.350   4.262   7.713 -1.6995 -1.1247  1.0924
 9178SOL     OW39169   1.079   0.892   8.198 -0.0380  0.5524 -0.1105
 9178SOL    HW139170   1.113   0.803   8.210  1.5701  0.8720 -2.3949
 9178SOL    HW239171   1.155   0.942   8.170  1.2318 -1.7554 -0.7506
 9179SOL     OW39172   1.167   0.026   2.241 -0.2994 -0.0700  0.0396
 9179SOL    HW139173   1.258   4.734   2.233 -0.2677  0.7817 -2.2846
 9179SOL    HW239174   1.162   0.103   2.184 -1.1416  0.1415  0.3898
 9180SOL     OW39175   3.457   3.683   4.448  0.1186 -0.3311  0.0738
 9180SOL    HW139176   3.424   3.593   4.454  0.5220 -0.4836  0.0761
 9180SOL    HW239177   3.514   3.682   4.525 -1.0276 -2.1221  0.9149
 9181SOL     OW39178   2.643   0.417   5.374 -0.5175  0.1317 -1.1090
 9181SOL    HW139179   2.623   0.324   5.364  0.5832 -0.3303  1.1671
 9181SOL    HW239180   2.738   0.404   5.369 -0.4068  0.6883 -0.4708
 9182SOL     OW39181   2.184   1.156   8.908  0.5677  0.4555 -0.8786
 9182SOL    HW139182   2.114   1.123   8.964  1.2925 -0.4686 -0.5077
 9182SOL    HW239183   2.243   1.210   8.961  2.5286 -1.7874 -0.7303
 9183SOL     OW39184   0.449   2.572  17.383 -0.0679  0.4529 -0.4246
 9183SOL    HW139185   0.502   2.545  17.458  2.0383  0.3462 -1.9226
 9183SOL    HW239186   0.379   2.507  17.374  0.7506 -0.6260  1.0127
 9184SOL     OW39187   4.724   4.229   4.178  0.1177 -0.4393  0.2601
 9184SOL    HW139188   0.003   4.159   4.113 -0.3991 -1.7966  1.6129
 9184SOL    HW239189   4.679   4.293   4.123  2.1055  2.3253  1.9205
 9185SOL     OW39190   3.482   2.572   8.446  0.1012 -0.3569 -0.2627
 9185SOL    HW139191   3.415   2.525   8.496  0.5447  2.2018  2.6928
 9185SOL    HW239192   3.496   2.509   8.375  0.9677 -1.0618  0.5446
 9186SOL     OW39193   2.912   0.138   3.532 -0.1357 -0.2918  0.0814
 9186SOL    HW139194   2.939   0.124   3.441 -2.6595 -1.2492 -0.5311
 9186SOL    HW239195   2.998   0.164   3.563 -0.1269  1.0339 -1.0510
 9187SOL     OW39196   4.663   4.400   7.661  0.0611 -0.5287  0.0068
 9187SOL    HW139197   0.003   4.359   7.619  0.3810 -0.2957  0.3493
 9187SOL    HW239198   4.643   4.476   7.607 -1.2064 -0.1451  1.0111
 9188SOL     OW39199   4.406   2.493   2.437 -0.3678  0.2881 -0.1908
 9188SOL    HW139200   4.480   2.443   2.405 -0.1198  0.4866  0.0706
 9188SOL    HW239201   4.428   2.579   2.402  1.9915 -0.6179 -0.9084
 9189SOL     OW39202   1.834   3.353  11.116  0.2611  0.1954  0.7179
 9189SOL    HW139203   1.770   3.354  11.045  0.0650 -1.6501  0.8820
 9189SOL    HW239204   1.838   3.447  11.136 -1.4157  0.1556  1.2487
 9190SOL     OW39205   4.080   4.672   4.934  0.1954  0.1720 -1.0032
 9190SOL    HW139206   4.035   4.697   4.852 -1.1308 -0.4370 -0.4666
 9190SOL    HW239207   4.073   4.577   4.929 -0.6417  0.1040  1.7191
 9191SOL     OW39208   0.234   0.864   8.897 -0.4101 -0.2540  0.2245
 9191SOL    HW139209   0.283   0.933   8.941  1.1011 -1.5222  0.5324
 9191SOL    HW239210   0.274   0.791   8.943 -0.5283 -2.0711 -2.5429
 9192SOL     OW39211   2.361   3.190   3.828  0.1017 -0.3724  0.1433
 9192SOL    HW139212   2.450   3.176   3.794  0.2551  1.9404 -0.4276
 9192SOL    HW239213   2.368   3.286   3.834  1.1782 -0.3104 -1.9509
 9193SOL     OW39214   0.538   2.775   5.060  0.1179  0.3661 -0.4450
 9193SOL    HW139215   0.519   2.715   5.132  1.2755 -0.4773 -0.8456
 9193SOL    HW239216   0.454   2.780   5.014 -0.4730 -0.6323  0.5167
 9194SOL     OW39217   0.805   4.448   6.036  0.3912 -0.2961 -0.1800
 9194SOL    HW139218   0.797   4.473   6.128 -2.7245 -0.5677 -0.3684
 9194SOL    HW239219   0.712   4.460   6.018  0.9846  1.2982 -2.1827
 9195SOL     OW39220   0.391   0.531  16.695 -0.7739 -0.5273 -0.1741
 9195SOL    HW139221   0.350   0.456  16.736 -0.2890 -1.4235 -1.3171
 9195SOL    HW239222   0.477   0.524  16.737 -0.3398  0.0142 -0.9639
 9196SOL     OW39223   4.339   1.997  15.264 -0.0950  0.0516  0.1774
 9196SOL    HW139224   4.256   1.952  15.246 -0.9033  1.4919  0.3023
 9196SOL    HW239225   4.400   1.930  15.234  0.7790  0.6334  0.6417
 9197SOL     OW39226   3.250   4.119   9.464  0.7161  0.1842 -0.1691
 9197SOL    HW139227   3.333   4.134   9.509  0.1471 -3.7409  2.2430
 9197SOL    HW239228   3.295   4.091   9.384 -0.0928  2.7651 -1.5058
 9198SOL     OW39229   4.129   0.613   2.767 -0.4069  0.1402  0.0641
 9198SOL    HW139230   4.050   0.568   2.738 -0.2240  0.7723 -1.4075
 9198SOL    HW239231   4.096   0.699   2.743  0.7948  0.5869  0.0126
 9199SOL     OW39232   1.198   4.190   9.295  0.1845 -0.1103 -0.0666
 9199SOL    HW139233   1.236   4.232   9.217 -1.0905  1.7003  0.2886
 9199SOL    HW239234   1.221   4.263   9.352 -2.0473  0.8669 -0.4255
 9200SOL     OW39235   3.138   2.592  16.565 -0.0687  0.5375  0.1100
 9200SOL    HW139236   3.176   2.511  16.600 -0.0337  0.8835  0.8604
 9200SOL    HW239237   3.048   2.591  16.599 -0.0448 -1.0914  0.1708
 9201SOL     OW39238   1.259   2.172   1.181  0.2467 -0.0998  0.0238
 9201SOL    HW139239   1.206   2.114   1.127  1.8557 -1.5188 -0.0473
 9201SOL    HW239240   1.191   2.237   1.199  1.2137  0.9418 -0.0875
 9202SOL     OW39241   1.942   0.550   4.330 -0.5657  0.5380 -0.7986
 9202SOL    HW139242   1.920   0.560   4.238 -1.4287 -1.3251 -0.7883
 9202SOL    HW239243   2.006   0.482   4.312 -0.6776  0.6220 -1.4938
 9203SOL     OW39244   1.887   2.651   1.614  0.4663 -0.5444  0.8084
 9203SOL    HW139245   1.971   2.668   1.657  0.0502 -0.0739  1.4295
 9203SOL    HW239246   1.850   2.739   1.605  0.5130 -0.7364 -1.2225
 9204SOL     OW39247   0.419   2.610   4.746 -0.4634 -0.0725 -0.1968
 9204SOL    HW139248   0.503   2.565   4.744  0.6651  2.0225  0.2051
 9204SOL    HW239249   0.382   2.564   4.821 -2.6453  0.0027 -1.2106
 9205SOL     OW39250   2.602   4.289   0.159  0.5471  0.2429  0.3017
 9205SOL    HW139251   2.547   4.306   0.082  1.4423 -1.4688 -0.7213
 9205SOL    HW239252   2.569   4.205   0.192  0.7382 -0.3112 -0.9004
 9206SOL     OW39253   0.781   0.117   6.653 -0.0818 -0.1771 -0.3047
 9206SOL    HW139254   0.696   0.074   6.662  0.4809 -1.5349 -1.4546
 9206SOL    HW239255   0.805   0.137   6.743  0.6441 -0.9713 -0.3156
 9207SOL     OW39256   1.100   2.971  15.716 -0.3750  0.2257  0.1878
 9207SOL    HW139257   1.121   2.902  15.779  0.4009  0.8425  0.6080
 9207SOL    HW239258   1.164   2.963  15.646 -0.8387 -0.0930 -0.2025
 9208SOL     OW39259   0.136   4.540  11.411 -0.3165  0.2482  0.1632
 9208SOL    HW139260   0.049   4.542  11.371  0.6142 -1.4980 -1.9758
 9208SOL    HW239261   0.144   4.625  11.455  0.7485  0.3482 -0.2083
 9209SOL     OW39262   3.950   1.401   7.835  0.0408  0.7343  0.1234
 9209SOL    HW139263   4.005   1.334   7.793 -0.8181 -1.4166  2.4326
 9209SOL    HW239264   3.980   1.378   7.923 -2.4408  2.5362  1.4225
 9210SOL     OW39265   0.178   0.043   1.289 -0.2526  0.0011  0.0115
 9210SOL    HW139266   0.178   0.136   1.313 -1.2928  0.2257 -0.8949
 9210SOL    HW239267   0.112   0.016   1.354  0.2292 -1.5544 -0.1527
 9211SOL     OW39268   3.602   3.342   4.541  0.1524  0.1248 -0.2966
 9211SOL    HW139269   3.683   3.342   4.593  0.9137 -1.3236 -1.4731
 9211SOL    HW239270   3.535   3.323   4.607  1.4708 -0.2819  0.9226
 9212SOL     OW39271   0.994   2.277   0.598  0.2053  0.5178  0.3123
 9212SOL    HW139272   1.082   2.312   0.587  0.5436 -0.7436 -0.9615
 9212SOL    HW239273   0.943   2.309   0.523  1.1486 -0.7640 -0.8646
 9213SOL     OW39274   2.474   3.434   0.615  0.9118  0.1155 -0.3688
 9213SOL    HW139275   2.566   3.412   0.601  1.5084  1.8980  0.6929
 9213SOL    HW239276   2.457   3.500   0.548 -1.7376 -2.6276 -2.3890
 9214SOL     OW39277   1.586   3.719  13.109  0.1111  0.0023 -0.3756
 9214SOL    HW139278   1.633   3.801  13.098 -1.0049  0.2130 -3.4119
 9214SOL    HW239279   1.510   3.746  13.160  0.8999  1.9414 -0.2596
 9215SOL     OW39280   4.620   0.498   1.433 -0.0836 -0.2556 -0.2115
 9215SOL    HW139281   4.643   0.562   1.500  1.0423  0.4562 -1.2815
 9215SOL    HW239282   4.567   0.440   1.488  1.0562  0.9882  2.1735
 9216SOL     OW39283   1.407   3.130   7.293  0.0031 -0.3955  0.8432
 9216SOL    HW139284   1.362   3.203   7.251  2.4386  1.4228  1.4319
 9216SOL    HW239285   1.458   3.178   7.358  0.7487  1.6148 -1.2404
 9217SOL     OW39286   3.804   0.638   6.947 -0.3759  0.0272  0.0391
 9217SOL    HW139287   3.857   0.704   6.993 -1.5829  0.7776  0.3665
 9217SOL    HW239288   3.847   0.556   6.971  1.2811 -0.0530 -3.3162
 9218SOL     OW39289   3.343   2.643   0.024 -0.1724  0.2462  0.0644
 9218SOL    HW139290   3.351   2.729   0.067  2.0637 -0.5978  1.3100
 9218SOL    HW239291   3.416   2.650  17.702 -0.0981  0.0272  0.1288
 9219SOL     OW39292   4.655   4.416   2.570  0.2800 -0.5570 -0.0325
 9219SOL    HW139293   4.639   4.401   2.663 -1.3374 -1.3814 -0.4340
 9219SOL    HW239294   4.601   4.347   2.531 -1.6440 -0.1392  1.9175
 9220SOL     OW39295   0.154   1.761   7.214  0.1523 -0.0812  0.7814
 9220SOL    HW139296   0.126   1.670   7.203  2.8991 -0.7719 -0.4784
 9220SOL    HW239297   0.100   1.808   7.151 -0.1420  0.8089  1.6926
 9221SOL     OW39298   4.100   4.376   6.092 -0.0597  0.2002  0.3279
 9221SOL    HW139299   4.174   4.329   6.054  0.5724  1.2869  0.2063
 9221SOL    HW239300   4.025   4.347   6.040 -0.0389 -3.0194  2.0866
 9222SOL     OW39301   3.985   3.197   2.923 -0.4858  0.1329  0.6181
 9222SOL    HW139302   4.014   3.288   2.916  0.2666 -0.1581  0.0161
 9222SOL    HW239303   4.062   3.151   2.889 -2.4993 -2.3621 -0.5556
 9223SOL     OW39304   3.368   4.276  14.659  0.4125  0.3198 -0.3385
 9223SOL    HW139305   3.324   4.253  14.577 -0.1009  2.3680 -0.6423
 9223SOL    HW239306   3.432   4.205  14.654 -0.4323 -0.5436  1.4005
 9224SOL     OW39307   1.328   0.762   6.306  0.0065 -0.1054 -0.6026
 9224SOL    HW139308   1.269   0.688   6.319  1.3050 -1.0263  0.0409
 9224SOL    HW239309   1.347   0.786   6.397  0.6496  0.8286 -0.9811
 9225SOL     OW39310   1.985   0.022   0.641 -0.6014 -0.2071 -0.1910
 9225SOL    HW139311   2.034   0.084   0.587 -1.7271  0.2731 -0.6855
 9225SOL    HW239312   1.910   0.015   0.582 -2.0785  0.1391  1.6030
 9226SOL     OW39313   3.340   2.769   5.209 -0.5844  0.1191  0.0696
 9226SOL    HW139314   3.391   2.794   5.286 -2.3192 -0.2937  1.3570
 9226SOL    HW239315   3.379   2.815   5.135 -1.3238  0.5635 -0.0481
 9227SOL     OW39316   0.070   1.380   8.666  0.7999 -0.0927  0.5114
 9227SOL    HW139317   0.067   1.314   8.597  1.3634  1.1403 -0.6849
 9227SOL    HW239318   4.715   1.384   8.697  0.3725 -2.6384 -0.3997
 9228SOL     OW39319   3.151   4.036   5.722 -0.7626 -0.1579 -0.3177
 9228SOL    HW139320   3.178   3.981   5.796  1.0233  0.6656 -0.3803
 9228SOL    HW239321   3.063   4.002   5.703 -0.0489 -2.0751 -0.1736
 9229SOL     OW39322   0.891   2.891  11.953  0.0309 -0.1829 -0.2491
 9229SOL    HW139323   0.952   2.832  11.997 -1.7520 -1.0286  1.0583
 9229SOL    HW239324   0.806   2.880  11.994  0.0539  0.4771 -0.0278
 9230SOL     OW39325   1.671   4.039   8.132 -0.1027 -0.0396 -0.2923
 9230SOL    HW139326   1.642   3.994   8.053  1.6183  1.6018 -1.8301
 9230SOL    HW239327   1.616   4.117   8.138 -0.3904 -0.3503  1.1587
 9231SOL     OW39328   2.436   3.967   5.183  0.2528  0.3860  0.0954
 9231SOL    HW139329   2.439   4.037   5.118  0.8475  0.0912 -0.1990
 9231SOL    HW239330   2.482   4.017   5.250  1.1099  0.6602 -0.6932
 9232SOL     OW39331   3.878   4.413   2.939 -0.7524 -0.7915 -0.5267
 9232SOL    HW139332   3.960   4.388   2.981 -0.0967  0.0694 -1.2922
 9232SOL    HW239333   3.918   4.439   2.856  0.9890 -2.4041 -0.1878
 9233SOL     OW39334   4.727   0.127   9.062 -0.2985 -0.4153 -0.2479
 9233SOL    HW139335   4.693   0.065   9.126  0.0368 -0.6326 -0.2786
 9233SOL    HW239336   0.067   0.076   9.029  0.4686  0.2189  0.5223
 9234SOL     OW39337   0.372   4.320  12.482 -0.4477 -0.1233  0.2287
 9234SOL    HW139338   0.396   4.293  12.393  0.1506 -1.4498  0.7973
 9234SOL    HW239339   0.441   4.282  12.537 -0.9844  0.0513  1.0225
 9235SOL     OW39340   0.721   2.202   5.821  0.3032  0.1919 -0.1760
 9235SOL    HW139341   0.774   2.223   5.898  0.6057 -0.5182 -0.1943
 9235SOL    HW239342   0.635   2.236   5.844  0.0278  0.5226 -1.6951
 9236SOL     OW39343   4.650   1.026   5.326 -0.0462  0.3216 -0.4878
 9236SOL    HW139344   4.604   0.949   5.359 -0.7053  0.3546 -1.3375
 9236SOL    HW239345   4.732   1.030   5.376  0.0636 -0.0686 -0.6356
 9237SOL     OW39346   4.512   1.196  12.134 -0.6492 -0.0366  0.6122
 9237SOL    HW139347   4.522   1.118  12.078 -1.1517  0.5350 -0.2778
 9237SOL    HW239348   4.522   1.169  12.225  0.3852 -0.7864  0.2835
 9238SOL     OW39349   1.579   1.689   5.092 -0.0193 -0.0575  0.7308
 9238SOL    HW139350   1.571   1.769   5.144 -0.4087  0.2417  0.2129
 9238SOL    HW239351   1.492   1.685   5.052  0.6527  3.3775 -1.0642
 9239SOL     OW39352   2.943   2.061  13.439 -0.1568 -0.0306 -0.5474
 9239SOL    HW139353   2.993   2.143  13.436 -0.6563  0.3413  1.3721
 9239SOL    HW239354   2.854   2.095  13.444  0.0408  0.3241  0.5164
 9240SOL     OW39355   2.342   0.418   5.438 -0.2628  0.0477 -0.2582
 9240SOL    HW139356   2.432   0.398   5.464 -0.5372  1.3081  1.6944
 9240SOL    HW239357   2.304   0.336   5.404  1.2530 -1.0085  0.6151
 9241SOL     OW39358   3.555   2.670   3.601 -0.1460  0.4725  0.2105
 9241SOL    HW139359   3.644   2.675   3.568  0.3439  0.9413  1.6273
 9241SOL    HW239360   3.523   2.584   3.572  1.0908  0.9050 -2.4302
 9242SOL     OW39361   2.457   2.500   6.552  0.1687 -0.4283 -0.2081
 9242SOL    HW139362   2.537   2.501   6.500 -0.6721 -1.7970 -1.5163
 9242SOL    HW239363   2.499   2.525   6.635 -3.6689  2.8499  0.7787
 9243SOL     OW39364   2.831   0.309  10.580 -0.0056  0.1729 -0.3826
 9243SOL    HW139365   2.769   0.262  10.635  0.9182 -1.4514 -0.7064
 9243SOL    HW239366   2.793   0.396  10.582  2.7483  1.3562  0.4260
 9244SOL     OW39367   2.902   3.700   6.766  0.1509 -0.3378  0.4649
 9244SOL    HW139368   2.993   3.710   6.794 -0.3137  0.9842  1.5198
 9244SOL    HW239369   2.903   3.672   6.674 -0.8216  2.4871 -0.4187
 9245SOL     OW39370   2.590   1.896   6.074  0.0448 -0.4564 -0.2547
 9245SOL    HW139371   2.513   1.886   6.019  2.0464 -3.3611 -2.5120
 9245SOL    HW239372   2.546   1.931   6.152  0.6441  0.0464 -0.1403
 9246SOL     OW39373   2.370   3.190  11.064 -0.4364 -0.5579 -0.6136
 9246SOL    HW139374   2.353   3.200  11.158  0.6842  1.4668 -0.6374
 9246SOL    HW239375   2.345   3.099  11.050 -1.3199 -0.5438  0.8128
 9247SOL     OW39376   2.417   2.423   6.879  0.1222 -0.0220 -0.2768
 9247SOL    HW139377   2.370   2.441   6.961 -2.0123  1.5584 -1.8498
 9247SOL    HW239378   2.376   2.487   6.821  0.8557 -0.2246 -1.0007
 9248SOL     OW39379   1.644   1.659   1.551 -0.2264 -0.2800  0.5112
 9248SOL    HW139380   1.679   1.728   1.495 -0.6044 -1.7749 -1.5493
 9248SOL    HW239381   1.592   1.595   1.502  0.6626  0.4011 -1.3304
 9249SOL     OW39382   2.000   1.419  15.677 -0.1298  0.1695  0.4462
 9249SOL    HW139383   2.018   1.436  15.584  1.6209  1.6576  1.0640
 9249SOL    HW239384   1.945   1.341  15.666  1.1879 -0.7824  0.5493
 9250SOL     OW39385   3.804   4.348   6.346 -0.1855  0.0055  0.0341
 9250SOL    HW139386   3.745   4.356   6.421 -0.4361 -0.5340 -0.1033
 9250SOL    HW239387   3.879   4.311   6.394 -1.2423 -1.3612  0.6221
 9251SOL     OW39388   0.972   3.634   4.611  0.1647  0.6468 -0.4530
 9251SOL    HW139389   0.882   3.635   4.578  0.8389  0.4924 -2.3076
 9251SOL    HW239390   1.011   3.643   4.524  1.9912 -0.3511  0.2541
 9252SOL     OW39391   2.228   1.126   3.872  0.6659  0.2088 -0.4963
 9252SOL    HW139392   2.234   1.033   3.853  0.2478 -0.0696  0.7451
 9252SOL    HW239393   2.139   1.158   3.859  1.3378  1.9012 -0.9848
 9253SOL     OW39394   3.993   1.113  10.619 -0.6836  0.3221 -0.6638
 9253SOL    HW139395   3.984   1.208  10.617  2.0396  0.6031  0.6628
 9253SOL    HW239396   3.993   1.090  10.525  0.4679 -1.9543 -0.1216
 9254SOL     OW39397   0.624   4.150   5.968  0.4752  0.0994  0.1570
 9254SOL    HW139398   0.544   4.102   5.989 -0.6712  2.0413  0.2527
 9254SOL    HW239399   0.601   4.190   5.884  2.1479 -1.1541 -0.8989
 9255SOL     OW39400   3.685   3.771   6.483 -0.4975  0.0648 -0.5588
 9255SOL    HW139401   3.646   3.684   6.469  2.0084 -1.2497  0.6857
 9255SOL    HW239402   3.774   3.763   6.447 -1.0109  0.1046 -1.8329
 9256SOL     OW39403   0.105   0.902   9.741 -0.1922 -0.5510  0.0060
 9256SOL    HW139404   0.010   0.909   9.740 -0.0476  1.1673 -1.7672
 9256SOL    HW239405   0.134   0.989   9.714  0.7916 -0.2793  1.9387
 9257SOL     OW39406   3.313   4.328  12.764 -0.1904  0.9987  0.4989
 9257SOL    HW139407   3.379   4.375  12.714  0.2968 -1.1465 -0.8951
 9257SOL    HW239408   3.337   4.240  12.735  0.7638  1.4231  0.0311
 9258SOL     OW39409   2.824   0.528   7.497  0.3242 -0.4567 -0.3690
 9258SOL    HW139410   2.867   0.567   7.573 -2.5657 -1.2352  1.6460
 9258SOL    HW239411   2.805   0.442   7.535 -1.4879  0.3283  0.4983
 9259SOL     OW39412   1.562   2.677   3.879 -0.0345 -0.6628  0.4170
 9259SOL    HW139413   1.484   2.656   3.931  0.3857 -2.4075  0.3644
 9259SOL    HW239414   1.606   2.592   3.890 -1.0574 -1.5584 -2.3337
 9260SOL     OW39415   4.672   0.097   3.377 -0.6232 -0.8656  0.7141
 9260SOL    HW139416   4.671   0.191   3.394 -0.5623 -1.1096  2.0306
 9260SOL    HW239417   4.589   0.076   3.419 -1.2535  0.4024  0.0968
 9261SOL     OW39418   3.370   2.589   4.851 -0.6739  0.3989  0.3938
 9261SOL    HW139419   3.398   2.543   4.930 -0.0593 -1.6725 -1.0373
 9261SOL    HW239420   3.277   2.567   4.853 -0.4068 -0.9627 -2.4466
 9262SOL     OW39421   2.964   4.158   3.887 -0.3775 -0.1848  0.4015
 9262SOL    HW139422   2.997   4.242   3.920  0.3127 -0.1435 -0.3949
 9262SOL    HW239423   2.912   4.126   3.960 -1.8903  2.4928  0.5055
 9263SOL     OW39424   4.483   3.991   9.220 -0.7613  0.1774 -0.0479
 9263SOL    HW139425   4.521   4.075   9.193 -0.7420  0.8496  2.1198
 9263SOL    HW239426   4.431   3.966   9.143 -0.8084  2.0594 -0.6383
 9264SOL     OW39427   3.264   4.495   9.000 -0.1330  0.2974 -0.3709
 9264SOL    HW139428   3.200   4.464   9.064 -0.8424  0.9239 -0.7772
 9264SOL    HW239429   3.321   4.418   9.001  1.6347  1.5829 -2.0445
 9265SOL     OW39430   2.533   3.540   2.028  0.4047 -0.4148  0.2217
 9265SOL    HW139431   2.489   3.495   1.956 -0.1467  1.3289 -0.5371
 9265SOL    HW239432   2.559   3.464   2.080  1.8682 -0.0001  0.0891
 9266SOL     OW39433   1.768   3.134  12.470  0.4800 -0.2063 -0.0134
 9266SOL    HW139434   1.731   3.097  12.550 -0.0900 -1.1015 -0.6876
 9266SOL    HW239435   1.782   3.053  12.420  2.1570 -0.9122  1.6507
 9267SOL     OW39436   1.547   0.572   2.730  0.4173 -0.5925 -0.0868
 9267SOL    HW139437   1.595   0.642   2.686 -1.4869  1.3459  0.8912
 9267SOL    HW239438   1.511   0.522   2.658  1.3760 -2.0343  0.4362
 9268SOL     OW39439   0.449   1.647  15.012 -0.1317 -0.7385  0.3314
 9268SOL    HW139440   0.468   1.718  15.073 -0.0510 -1.1063  0.7350
 9268SOL    HW239441   0.410   1.579  15.068 -1.1989 -0.1813  0.2655
 9269SOL     OW39442   4.725   1.781   1.128  1.1279  0.0639  0.0081
 9269SOL    HW139443   0.028   1.704   1.086 -1.4859 -0.9169 -0.6122
 9269SOL    HW239444   0.045   1.789   1.206  1.3456 -0.1672 -0.1227
 9270SOL     OW39445   2.440   3.482   7.559  0.5867  0.0627  0.2350
 9270SOL    HW139446   2.430   3.395   7.522  0.6591  0.3529 -0.4801
 9270SOL    HW239447   2.478   3.529   7.485  0.4685  1.2404  0.9211
 9271SOL     OW39448   0.256   3.545   8.260 -0.8461  0.1664 -0.4440
 9271SOL    HW139449   0.317   3.609   8.224 -1.0785 -0.9790 -2.9009
 9271SOL    HW239450   0.292   3.538   8.348  1.5906  0.6526 -1.4125
 9272SOL     OW39451   0.877   3.304   2.187 -0.3971 -0.0053  0.0081
 9272SOL    HW139452   0.847   3.395   2.187 -1.3411 -0.3151 -2.6228
 9272SOL    HW239453   0.853   3.281   2.277 -0.8624  0.8719  0.1103
 9273SOL     OW39454   0.224   2.500  16.401  0.5831  0.3298  0.0761
 9273SOL    HW139455   0.177   2.578  16.372 -0.3008 -0.0472  0.4897
 9273SOL    HW239456   0.229   2.508  16.497  2.2238  0.4202 -0.0075
 9274SOL     OW39457   2.915   1.779   4.870  0.5203  0.2975  0.3842
 9274SOL    HW139458   2.888   1.833   4.945 -1.0642  1.1196 -0.7592
 9274SOL    HW239459   2.997   1.743   4.902  2.6463  2.8897 -2.1230
 9275SOL     OW39460   4.706   4.055   6.779 -0.0152  0.3980 -0.1024
 9275SOL    HW139461   0.063   4.063   6.755 -0.3478  2.2244 -0.8034
 9275SOL    HW239462   4.660   4.139   6.771 -1.4582 -0.3950 -0.1874
 9276SOL     OW39463   1.456   0.017   6.215 -0.4604 -0.3107 -0.2296
 9276SOL    HW139464   1.403   0.091   6.186 -1.1765  0.2553  2.5987
 9276SOL    HW239465   1.538   0.036   6.169  0.3091  1.2261  1.7773
 9277SOL     OW39466   4.146   2.112   3.074 -0.3660  0.2895 -0.3900
 9277SOL    HW139467   4.229   2.135   3.032  0.0835 -0.5076  0.0625
 9277SOL    HW239468   4.086   2.152   3.011 -2.1111 -1.6593  0.0471
 9278SOL     OW39469   2.988   1.866   5.823  0.1255  0.1536 -0.7571
 9278SOL    HW139470   2.901   1.837   5.852  0.4019  1.7084  1.5385
 9278SOL    HW239471   3.033   1.806   5.883 -0.1339 -0.4688 -1.1749
 9279SOL     OW39472   3.703   3.698   2.062 -0.3868 -0.0508  0.2424
 9279SOL    HW139473   3.637   3.744   2.115 -0.9298  0.4389 -0.8510
 9279SOL    HW239474   3.659   3.613   2.062  1.5367 -1.0352  2.5051
 9280SOL     OW39475   1.383   4.659   6.773  0.7195  0.4608 -0.6936
 9280SOL    HW139476   1.289   4.644   6.767  0.5547  2.1031 -2.4571
 9280SOL    HW239477   1.405   4.694   6.686 -0.4547  0.8436 -0.8435
 9281SOL     OW39478   0.647   0.105   5.934  0.0004  0.0340 -0.5236
 9281SOL    HW139479   0.557   0.138   5.929  0.0091  0.1884  0.3291
 9281SOL    HW239480   0.634   0.013   5.909 -3.1121  1.1792 -3.1181
 9282SOL     OW39481   2.826   0.703   6.639 -0.2969  0.2357  0.4484
 9282SOL    HW139482   2.884   0.779   6.631 -0.0104  0.2220  2.3152
 9282SOL    HW239483   2.855   0.678   6.727  1.6788 -1.9711 -0.8424
 9283SOL     OW39484   3.583   2.732   6.760  0.0068 -0.1532  0.5111
 9283SOL    HW139485   3.545   2.748   6.846 -2.5700  0.2207 -0.6887
 9283SOL    HW239486   3.542   2.798   6.704 -0.2498 -0.1086  0.7529
 9284SOL     OW39487   2.644   2.229   1.769  0.1272 -0.0904  0.3537
 9284SOL    HW139488   2.592   2.238   1.690  3.4910  2.4716 -1.5469
 9284SOL    HW239489   2.623   2.311   1.814  1.3298  0.4359 -0.0616
 9285SOL     OW39490   3.158   1.685   8.362  0.0750  0.2466  0.3697
 9285SOL    HW139491   3.179   1.710   8.452  0.8897  1.2685 -0.1149
 9285SOL    HW239492   3.239   1.653   8.324  0.5541  0.1490  1.4921
 9286SOL     OW39493   0.646   2.405   8.635  0.2385  0.0097  0.2495
 9286SOL    HW139494   0.686   2.318   8.632  1.3818  0.5429  0.1081
 9286SOL    HW239495   0.631   2.407   8.540 -4.1417  0.1844  0.9122
 9287SOL     OW39496   4.151   3.759   6.443  0.0719 -0.0224 -0.4307
 9287SOL    HW139497   4.176   3.706   6.520 -2.2669 -1.4857 -0.6798
 9287SOL    HW239498   4.222   3.754   6.379 -1.3233 -0.5260 -1.9421
 9288SOL     OW39499   1.932   1.869   5.796  0.7562  0.3075  0.5906
 9288SOL    HW139500   1.957   1.922   5.720  1.2804 -0.1263  0.4664
 9288SOL    HW239501   1.871   1.928   5.841 -1.9840 -1.6998 -0.5242
 9289SOL     OW39502   0.922   0.210   7.753  0.3629  0.3618 -0.5216
 9289SOL    HW139503   0.877   0.253   7.681 -0.5959  0.6187  0.2273
 9289SOL    HW239504   1.005   0.175   7.720 -0.0607 -2.0153  0.9401
 9290SOL     OW39505   3.140   1.311  10.684 -0.4393  0.4344  0.0306
 9290SOL    HW139506   3.148   1.400  10.719 -3.3799  1.3220 -1.5423
 9290SOL    HW239507   3.185   1.314  10.600  0.4864  1.9505  0.5973
 9291SOL     OW39508   1.431   3.616   5.837 -0.6161 -0.3570  0.4593
 9291SOL    HW139509   1.419   3.662   5.754  0.4048 -1.6448 -0.3896
 9291SOL    HW239510   1.527   3.613   5.841 -0.6653 -1.7573  0.5606
 9292SOL     OW39511   1.368   0.456   5.287  0.0150  0.0873 -0.9027
 9292SOL    HW139512   1.311   0.514   5.236 -1.2745  0.2935  0.7633
 9292SOL    HW239513   1.363   0.500   5.372 -0.3984  1.0259 -1.4109
 9293SOL     OW39514   1.382   2.201   5.051 -0.4464 -0.2243 -0.3731
 9293SOL    HW139515   1.402   2.123   5.000  1.3771  0.3848 -0.5598
 9293SOL    HW239516   1.467   2.233   5.079  0.5261 -2.8310 -0.3566
 9294SOL     OW39517   1.096   4.058   5.857 -0.5479 -0.7614 -0.1094
 9294SOL    HW139518   1.035   4.122   5.895 -0.4276 -1.5729  1.4793
 9294SOL    HW239519   1.039   3.992   5.817 -0.3150  0.5503 -2.5891
 9295SOL     OW39520   0.562   3.339   7.365  0.1337 -0.1264 -0.1335
 9295SOL    HW139521   0.649   3.314   7.334 -0.1363 -1.5928  0.2970
 9295SOL    HW239522   0.547   3.266   7.425 -0.0061  0.9218  1.1226
 9296SOL     OW39523   1.132   3.013   7.587  0.0123 -0.2585 -0.1833
 9296SOL    HW139524   1.059   2.951   7.589 -0.4254  0.3643  2.1039
 9296SOL    HW239525   1.199   2.957   7.548  1.1762  2.3804 -1.9635
 9297SOL     OW39526   2.415   1.400   2.397 -0.5988  0.0188  0.6854
 9297SOL    HW139527   2.466   1.329   2.435 -3.1324 -0.6152  2.9081
 9297SOL    HW239528   2.331   1.353   2.395 -1.0255  0.7756  0.7213
 9298SOL     OW39529   0.671   4.120  16.721 -0.4753  0.3818  0.2653
 9298SOL    HW139530   0.638   4.033  16.744 -0.1135  0.9005  2.7402
 9298SOL    HW239531   0.658   4.169  16.802  0.6835 -0.9099  1.2543
 9299SOL     OW39532   3.489   1.349   7.406  0.0398 -0.0785  0.3059
 9299SOL    HW139533   3.455   1.311   7.486  3.1902 -1.8977  0.7985
 9299SOL    HW239534   3.515   1.274   7.352  2.1566  1.3227 -0.6187
 9300SOL     OW39535   3.471   3.583   7.813 -0.1306 -0.1315 -0.8677
 9300SOL    HW139536   3.477   3.678   7.811  0.2928 -0.1864 -1.9296
 9300SOL    HW239537   3.481   3.566   7.907  0.4477 -1.7278 -1.2191
 9301SOL     OW39538   1.123   1.991   5.679 -0.4154 -0.9696  0.1298
 9301SOL    HW139539   1.178   1.939   5.737  1.6350  1.0924  0.0652
 9301SOL    HW239540   1.142   1.959   5.591  3.9971 -0.7865  1.0014
 9302SOL     OW39541   0.420   1.811   7.336  0.1361  0.2518  0.1847
 9302SOL    HW139542   0.441   1.896   7.297  1.6794 -0.4960 -0.5771
 9302SOL    HW239543   0.326   1.796   7.325  0.3268  0.7912 -2.1283
 9303SOL     OW39544   3.415   1.321   3.548  0.3041  0.2636 -0.0842
 9303SOL    HW139545   3.468   1.389   3.589  0.2935  0.1521  0.1122
 9303SOL    HW239546   3.357   1.304   3.622 -0.6670 -0.1490 -0.9342
 9304SOL     OW39547   0.116   2.171  12.415 -0.3103 -0.4070 -0.5024
 9304SOL    HW139548   0.064   2.096  12.387 -1.3536  0.5991 -1.2712
 9304SOL    HW239549   0.070   2.186  12.498 -0.0957  1.3282 -0.7065
 9305SOL     OW39550   4.365   2.716   6.294 -0.0688 -0.2368  0.4521
 9305SOL    HW139551   4.373   2.755   6.381  1.7480  0.8823 -0.2195
 9305SOL    HW239552   4.269   2.715   6.295 -0.1128  4.5775 -1.3365
 9306SOL     OW39553   3.507   2.325   7.351 -1.2098  0.3963  0.0007
 9306SOL    HW139554   3.575   2.274   7.394 -0.5186  0.1951 -1.3073
 9306SOL    HW239555   3.552   2.339   7.268 -0.6811  0.2136  0.2625
 9307SOL     OW39556   2.431   0.753   6.282  0.2192  0.5370  0.6356
 9307SOL    HW139557   2.442   0.688   6.352  2.1677 -0.9022 -1.0283
 9307SOL    HW239558   2.521   0.760   6.250 -0.6584  0.8009 -1.7152
 9308SOL     OW39559   3.337   4.516   0.322 -0.3596  0.5646 -0.3095
 9308SOL    HW139560   3.382   4.509   0.238 -2.2960 -0.7575 -1.2440
 9308SOL    HW239561   3.398   4.522   0.395 -0.0542 -1.5103 -0.4022
 9309SOL     OW39562   2.069   4.503   1.332  0.1798  0.0038 -0.5463
 9309SOL    HW139563   2.106   4.442   1.397  0.6647  1.5217  0.6074
 9309SOL    HW239564   2.026   4.443   1.271 -1.0917 -1.0828  1.4197
 9310SOL     OW39565   1.183   0.097  13.065  0.3995  0.8928 -0.0177
 9310SOL    HW139566   1.100   0.086  13.019  0.6506 -1.4892  0.0956
 9310SOL    HW239567   1.184   0.021  13.123  3.2359  1.2427  0.4109
 9311SOL     OW39568   4.696   0.094   7.128 -0.5616  0.8227  0.2617
 9311SOL    HW139569   4.674   0.031   7.197 -2.1339  1.0680 -0.0228
 9311SOL    HW239570   4.625   0.155   7.147  0.4269  1.6679  1.2321
 9312SOL     OW39571   0.546   2.742  12.641 -0.4718  0.1238  0.2547
 9312SOL    HW139572   0.594   2.770  12.719  2.3404 -1.8459 -0.7723
 9312SOL    HW239573   0.555   2.823  12.591 -2.8242  0.6588  0.6660
 9313SOL     OW39574   0.731   4.199  15.312 -0.2162 -0.4322  0.2511
 9313SOL    HW139575   0.705   4.125  15.256 -2.3635  0.6632 -0.1802
 9313SOL    HW239576   0.823   4.201  15.285 -0.8056 -2.5454 -1.9571
 9314SOL     OW39577   0.805   3.910   7.811 -0.0560  0.2077 -0.3387
 9314SOL    HW139578   0.823   3.840   7.873 -1.1955 -1.4667 -1.9005
 9314SOL    HW239579   0.754   3.872   7.740 -1.8639 -1.1008  1.6923
 9315SOL     OW39580   0.670   2.838   8.989  0.4449 -0.3591 -0.3203
 9315SOL    HW139581   0.752   2.881   8.966 -0.1918 -0.4013 -2.6840
 9315SOL    HW239582   0.698   2.784   9.063 -0.3141  1.1161  1.0674
 9316SOL     OW39583   1.495   3.122   9.154 -0.0806 -0.5426 -0.0481
 9316SOL    HW139584   1.452   3.206   9.142  0.9621  0.2343  1.6428
 9316SOL    HW239585   1.584   3.152   9.139  0.3024 -0.9129  1.4838
 9317SOL     OW39586   2.904   0.623  14.030  0.2362  0.1361  0.0992
 9317SOL    HW139587   2.964   0.561  13.988 -1.1108  0.4514 -2.2973
 9317SOL    HW239588   2.850   0.616  13.951  1.0994  2.3491 -0.6869
 9318SOL     OW39589   1.367   4.657   9.271  0.1509 -0.2257  0.1702
 9318SOL    HW139590   1.368   4.701   9.356  3.8023 -0.5992  0.3007
 9318SOL    HW239591   1.453   4.680   9.236 -0.6806  0.7660 -1.1856
 9319SOL     OW39592   0.650   3.996   0.232  0.2461 -0.1850  0.2197
 9319SOL    HW139593   0.625   4.038   0.149  2.7005 -0.2361 -0.5558
 9319SOL    HW239594   0.714   4.064   0.255 -0.4102  0.6624 -0.4127
 9320SOL     OW39595   3.778   3.655  10.219 -0.2765 -0.0074 -0.1591
 9320SOL    HW139596   3.791   3.571  10.263  0.7205  0.2772  0.0955
 9320SOL    HW239597   3.789   3.705  10.300 -2.1111  1.9223 -1.0894
 9321SOL     OW39598   2.241   4.304   9.012 -0.3778 -0.4953  0.2517
 9321SOL    HW139599   2.189   4.334   9.086 -2.8309  0.2767 -1.7890
 9321SOL    HW239600   2.325   4.325   9.051 -0.2958 -0.9769  0.3441
 9322SOL     OW39601   2.362   2.649   3.168 -0.3227 -0.5533 -0.0204
 9322SOL    HW139602   2.425   2.585   3.201 -0.7950 -0.3554  1.2637
 9322SOL    HW239603   2.280   2.625   3.212 -1.5667  1.9804 -0.8912
 9323SOL     OW39604   3.706   2.359   8.798  0.2990 -0.1483  0.5521
 9323SOL    HW139605   3.698   2.378   8.892  0.8467 -1.1492  0.8109
 9323SOL    HW239606   3.665   2.438   8.765 -1.5641 -2.0851 -1.7419
 9324SOL     OW39607   3.894   3.248   7.477  0.5762  0.4946 -0.5584
 9324SOL    HW139608   3.819   3.190   7.462  1.0294 -0.4226  0.8006
 9324SOL    HW239609   3.865   3.327   7.430  0.4679 -0.1069 -1.4986
 9325SOL     OW39610   2.892   4.178   8.682  0.1476  0.1362  0.1552
 9325SOL    HW139611   2.935   4.192   8.598 -0.7267  1.9013 -0.0020
 9325SOL    HW239612   2.968   4.179   8.741  0.3267 -3.3446 -0.0316
 9326SOL     OW39613   4.381   3.619   2.893  0.0582  0.1553 -0.2938
 9326SOL    HW139614   4.472   3.632   2.922  0.1797 -0.9944 -0.1391
 9326SOL    HW239615   4.333   3.664   2.963 -1.0680  0.6050 -1.3572
 9327SOL     OW39616   3.538   2.150  10.496 -0.0438 -0.2584 -0.2750
 9327SOL    HW139617   3.546   2.135  10.401 -1.1212 -2.4700 -0.0281
 9327SOL    HW239618   3.444   2.163  10.492 -0.3126 -2.2572 -0.7133
 9328SOL     OW39619   0.901   4.590   6.915 -0.3113 -0.5949 -0.0901
 9328SOL    HW139620   0.826   4.634   6.955 -0.7111 -2.3522  1.1149
 9328SOL    HW239621   0.851   4.526   6.863 -0.1851 -0.0629 -0.8656
 9329SOL     OW39622   4.267   2.648   6.741 -0.0714 -0.4940  0.3752
 9329SOL    HW139623   4.248   2.563   6.702 -0.1133 -1.1118  1.7322
 9329SOL    HW239624   4.331   2.622   6.808  1.6333  0.4148 -0.9039
 9330SOL     OW39625   3.368   3.531   7.330  1.0590  0.1506  0.2723
 9330SOL    HW139626   3.429   3.533   7.404  1.3737 -1.2998  0.0511
 9330SOL    HW239627   3.295   3.588   7.354 -0.5977 -2.9829  2.8182
 9331SOL     OW39628   2.944   1.500   1.641  0.6326 -0.2539 -0.2809
 9331SOL    HW139629   2.927   1.452   1.722 -3.2739  0.3565 -0.7538
 9331SOL    HW239630   3.016   1.548   1.681  0.5374 -1.3224  1.1605
 9332SOL     OW39631   1.596   4.343   5.503 -0.4237  0.6389 -0.3936
 9332SOL    HW139632   1.683   4.321   5.535  0.0693 -0.9088 -2.7898
 9332SOL    HW239633   1.603   4.309   5.414 -3.3205  0.5007 -0.5631
 9333SOL     OW39634   0.760   2.032   7.936 -0.3328 -0.2977 -0.3972
 9333SOL    HW139635   0.821   2.040   7.863 -0.8212 -1.9369 -0.9873
 9333SOL    HW239636   0.797   1.952   7.975 -2.0904 -1.1958 -0.5673
 9334SOL     OW39637   0.505   0.365  14.172  0.1013 -0.7827 -0.2447
 9334SOL    HW139638   0.512   0.365  14.077  0.6268  0.3978 -0.2004
 9334SOL    HW239639   0.464   0.452  14.176  3.9302  0.9047  2.2678
 9335SOL     OW39640   1.043   0.749  15.224  0.0330 -0.3017  0.7770
 9335SOL    HW139641   0.950   0.736  15.211 -0.2028  1.6131  0.5144
 9335SOL    HW239642   1.077   0.665  15.196 -0.2971 -0.1350 -0.1037
 9336SOL     OW39643   1.287   3.401  13.914 -0.3886  0.1835 -0.0581
 9336SOL    HW139644   1.194   3.383  13.901  0.1384 -0.8324 -2.3132
 9336SOL    HW239645   1.295   3.446  13.998  1.8269  0.8428 -0.6182
 9337SOL     OW39646   0.887   0.297   4.579 -0.3858  0.3976 -0.2798
 9337SOL    HW139647   0.939   0.259   4.508  0.1479  1.6713 -0.5794
 9337SOL    HW239648   0.934   0.250   4.648  0.7547  1.5084 -0.2899
 9338SOL     OW39649   0.569   1.220  13.191  0.1435 -0.0833  0.0336
 9338SOL    HW139650   0.550   1.184  13.277  1.7006  1.1876  0.9256
 9338SOL    HW239651   0.555   1.142  13.137  0.9258  0.9564 -1.6820
 9339SOL     OW39652   3.561   0.585  12.462 -0.4712  0.4320 -0.2170
 9339SOL    HW139653   3.614   0.613  12.387 -0.7524  0.9709 -0.2176
 9339SOL    HW239654   3.489   0.536  12.423 -0.7912  0.9011 -0.2226
 9340SOL     OW39655   2.995   2.881   8.730  0.0347 -0.6442  0.1080
 9340SOL    HW139656   2.946   2.960   8.751  0.8257 -0.1713  0.2096
 9340SOL    HW239657   2.922   2.822   8.711 -0.1431 -0.9639  1.8174
 9341SOL     OW39658   1.132   2.710   6.693  0.6110 -0.1171 -0.0210
 9341SOL    HW139659   1.216   2.675   6.724  1.1136 -0.7387 -2.0713
 9341SOL    HW239660   1.156   2.796   6.657  0.4312 -0.1250 -0.1596
 9342SOL     OW39661   3.509   1.571   6.164  0.4343  0.2995 -0.3635
 9342SOL    HW139662   3.417   1.549   6.177  0.3088  0.7558 -0.4824
 9342SOL    HW239663   3.532   1.511   6.093 -0.5354  2.5712 -2.6066
 9343SOL     OW39664   1.247   0.295   3.824 -0.2565  0.0013 -0.1367
 9343SOL    HW139665   1.339   0.282   3.804  0.3980  0.7526  2.3987
 9343SOL    HW239666   1.250   0.278   3.918  2.8195 -0.5260 -0.3596
 9344SOL     OW39667   1.533   2.085   9.694  0.1111  0.2636 -0.0396
 9344SOL    HW139668   1.577   2.152   9.641  0.3821 -0.4860 -0.7506
 9344SOL    HW239669   1.600   2.038   9.744 -0.3974 -0.7089 -0.2727
 9345SOL     OW39670   2.753   2.411   3.628  0.4465 -0.2914  0.2209
 9345SOL    HW139671   2.844   2.422   3.656  0.5592 -0.5908 -0.0331
 9345SOL    HW239672   2.754   2.422   3.533  0.1558  1.2372  0.3927
 9346SOL     OW39673   0.842   0.771   5.865 -0.2544 -0.7195  0.4990
 9346SOL    HW139674   0.865   0.803   5.952 -0.5452  1.4863 -0.2180
 9346SOL    HW239675   0.853   0.851   5.813 -0.7465  0.4178  2.1771
 9347SOL     OW39676   3.579   3.981  14.762 -0.5335  0.1544 -0.0098
 9347SOL    HW139677   3.572   3.968  14.857 -1.3875  0.4672 -0.0349
 9347SOL    HW239678   3.666   3.944  14.743  0.2205  1.7228  0.3705
 9348SOL     OW39679   0.084   4.487   3.401  0.0415 -0.9126 -0.5246
 9348SOL    HW139680   0.076   4.521   3.312 -1.4732 -0.9770 -0.4178
 9348SOL    HW239681   0.142   4.413   3.384 -0.1330 -1.6605  2.2762
 9349SOL     OW39682   2.475   2.940   6.297 -0.1839  0.2510 -0.1847
 9349SOL    HW139683   2.512   2.864   6.343 -0.0341  0.4331 -0.0018
 9349SOL    HW239684   2.460   2.993   6.375 -0.1276 -1.6896  1.1762
 9350SOL     OW39685   0.633   0.160   1.613 -0.7979 -0.2812 -0.1468
 9350SOL    HW139686   0.710   0.217   1.615  0.2674 -1.6924 -0.7890
 9350SOL    HW239687   0.683   0.085   1.581  0.8624  0.2334  1.2864
 9351SOL     OW39688   3.389   2.872  10.698 -0.3444 -0.2058  0.1573
 9351SOL    HW139689   3.473   2.830  10.716 -0.9698 -2.1249 -1.3918
 9351SOL    HW239690   3.391   2.875  10.602 -0.3516 -1.2070  0.1248
 9352SOL     OW39691   3.365   1.999   3.281  0.5665  0.0301  0.2347
 9352SOL    HW139692   3.301   2.069   3.294  0.0290 -0.5087  0.5266
 9352SOL    HW239693   3.440   2.027   3.333 -0.1599 -1.2853  1.9852
 9353SOL     OW39694   2.400   2.810   9.378 -0.9255  0.0636 -0.4138
 9353SOL    HW139695   2.340   2.784   9.308  0.2959  1.1031 -1.8463
 9353SOL    HW239696   2.338   2.797   9.450  0.0130  1.7385  0.7163
 9354SOL     OW39697   4.523   1.263   5.341  0.1797 -0.1739 -0.8092
 9354SOL    HW139698   4.560   1.307   5.265  0.4107  1.5998  0.3221
 9354SOL    HW239699   4.554   1.175   5.321 -1.2108 -0.2412 -2.7080
 9355SOL     OW39700   3.097   2.139   2.199 -0.9922  0.1787 -0.5830
 9355SOL    HW139701   3.035   2.203   2.235  0.4643  1.5708 -0.5562
 9355SOL    HW239702   3.171   2.134   2.260  1.2417  1.5275 -3.1369
 9356SOL     OW39703   2.629   1.468   4.156 -0.3851  0.3704 -0.5157
 9356SOL    HW139704   2.565   1.539   4.150 -1.4736 -0.4519  1.2720
 9356SOL    HW239705   2.572   1.392   4.143  0.9938 -1.1386  2.0972
 9357SOL     OW39706   3.563   1.167  10.233  0.6879 -0.4110 -0.0720
 9357SOL    HW139707   3.604   1.118  10.304 -1.0282 -4.7728 -2.1316
 9357SOL    HW239708   3.506   1.095  10.208 -0.3560  1.0941 -2.0230
 9358SOL     OW39709   4.585   2.645  16.312  0.4833 -0.6817 -0.2467
 9358SOL    HW139710   4.588   2.740  16.317 -4.1205 -0.5247  0.1387
 9358SOL    HW239711   4.601   2.612  16.400  0.7654  0.1805  0.0220
 9359SOL     OW39712   1.762   0.950   2.951  0.2130 -0.0945  0.3176
 9359SOL    HW139713   1.743   1.043   2.939 -0.0784 -0.6087 -3.0931
 9359SOL    HW239714   1.821   0.966   3.025  1.4123 -2.5924 -0.1098
 9360SOL     OW39715   3.974   0.806   8.275 -0.3274 -0.1005  0.5129
 9360SOL    HW139716   4.039   0.850   8.220 -0.5849 -0.7867 -0.3285
 9360SOL    HW239717   4.012   0.791   8.362  1.9978  0.8091 -0.3383
 9361SOL     OW39718   1.283   3.746   4.367  0.3887  0.0304 -0.2008
 9361SOL    HW139719   1.361   3.755   4.313  1.1818  1.8440  1.2344
 9361SOL    HW239720   1.224   3.799   4.314 -2.9790 -1.4459  2.0959
 9362SOL     OW39721   4.375   1.832   3.628 -0.1296 -0.3001 -0.3711
 9362SOL    HW139722   4.377   1.807   3.536 -1.1072 -0.8250 -0.2465
 9362SOL    HW239723   4.462   1.871   3.638 -1.5545  3.0065 -0.9116
 9363SOL     OW39724   2.277   1.954  10.442 -0.1427 -1.0934  0.0331
 9363SOL    HW139725   2.363   1.911  10.437  0.6995  0.5665  0.3986
 9363SOL    HW239726   2.242   1.949  10.353 -0.6170 -2.7241  0.3013
 9364SOL     OW39727   2.944   3.784  15.275 -0.3601 -0.5197  0.2539
 9364SOL    HW139728   2.943   3.689  15.267  0.5847 -0.4290 -0.7879
 9364SOL    HW239729   2.875   3.788  15.342  0.3123  0.6303  0.8841
 9365SOL     OW39730   2.941   2.060  11.120 -0.0375  0.5389 -0.6290
 9365SOL    HW139731   2.947   2.102  11.206 -1.5417 -1.0965  0.2995
 9365SOL    HW239732   3.018   2.003  11.119  0.7714  1.6603 -1.2163
 9366SOL     OW39733   2.479   3.768   4.486 -0.3671  0.0051 -0.3277
 9366SOL    HW139734   2.484   3.681   4.527  1.0272 -0.5658 -1.7130
 9366SOL    HW239735   2.504   3.819   4.563 -0.2863 -0.1970 -0.2182
 9367SOL     OW39736   3.515   4.727   9.672 -0.0220  0.1815  0.3216
 9367SOL    HW139737   3.424   4.698   9.663  0.0390  0.6464 -1.7088
 9367SOL    HW239738   3.566   4.647   9.665 -2.2738 -1.2522  0.2297
 9368SOL     OW39739   0.199   2.312  11.886  0.3922  0.5210 -0.1173
 9368SOL    HW139740   0.106   2.290  11.878  0.3380 -0.1865  2.3486
 9368SOL    HW239741   0.195   2.399  11.926  0.7818  0.1213  0.7811
 9369SOL     OW39742   1.163   3.163  15.224  0.6263  0.9809 -0.3787
 9369SOL    HW139743   1.088   3.106  15.208  1.6230 -0.0640 -1.3069
 9369SOL    HW239744   1.231   3.141  15.161  1.4882 -1.0909  1.2389
 9370SOL     OW39745   0.731   2.915   8.389  0.1506 -0.1473 -0.2723
 9370SOL    HW139746   0.710   2.969   8.466 -2.5416 -1.1010 -0.3261
 9370SOL    HW239747   0.750   2.830   8.429  1.0312  0.1255 -0.1188
 9371SOL     OW39748   2.878   3.980   4.090  0.0136 -0.1873 -0.3369
 9371SOL    HW139749   2.805   3.955   4.146  0.7367 -1.4993  0.0287
 9371SOL    HW239750   2.948   3.919   4.114  0.8802 -0.3402 -3.1443
 9372SOL     OW39751   3.216   2.274   1.608  0.7692 -0.1839  0.1664
 9372SOL    HW139752   3.193   2.252   1.698  1.3848 -1.2447  0.0687
 9372SOL    HW239753   3.143   2.334   1.594 -1.5766 -3.0239  0.2161
 9373SOL     OW39754   1.202   1.370   8.951 -0.2173  0.0797  0.4945
 9373SOL    HW139755   1.294   1.364   8.924  0.1945  1.7185  1.5612
 9373SOL    HW239756   1.186   1.279   8.978 -0.2157 -0.2728 -0.7227
 9374SOL     OW39757   3.853   0.617   4.169 -0.4489  0.5131  0.0245
 9374SOL    HW139758   3.794   0.685   4.139 -0.7145 -0.9416 -2.8397
 9374SOL    HW239759   3.817   0.592   4.254  0.2303  1.2835  0.5349
 9375SOL     OW39760   0.433   1.899   3.304  0.4558 -0.1567 -0.2816
 9375SOL    HW139761   0.425   1.913   3.209 -2.6336 -0.0221  0.0014
 9375SOL    HW239762   0.494   1.970   3.324 -0.0699 -0.2453  1.5752
 9376SOL     OW39763   3.627   1.480   7.832 -0.2211 -0.3202 -0.1711
 9376SOL    HW139764   3.706   1.534   7.835 -0.9816  0.9292 -2.4925
 9376SOL    HW239765   3.654   1.414   7.768 -0.1995  0.2881 -0.7946
 9377SOL     OW39766   1.737   3.188   3.400  0.0349  0.3128  0.3071
 9377SOL    HW139767   1.726   3.161   3.491 -0.4630 -0.0336  0.1431
 9377SOL    HW239768   1.827   3.221   3.400  0.2993 -0.3960  1.0690
 9378SOL     OW39769   1.010   3.629   4.357 -0.3433 -0.1980 -0.0968
 9378SOL    HW139770   1.000   3.542   4.317  0.4890 -0.2226 -0.2572
 9378SOL    HW239771   1.050   3.678   4.285  0.0569  0.6520  0.7131
 9379SOL     OW39772   2.381   3.332   1.388  0.6897  0.2335 -0.0255
 9379SOL    HW139773   2.375   3.322   1.293  0.5087 -0.0090  0.0101
 9379SOL    HW239774   2.299   3.287   1.411  1.0891  0.1778  1.2951
 9380SOL     OW39775   0.233   0.338  15.346 -0.9858 -0.5449 -0.2055
 9380SOL    HW139776   0.316   0.294  15.327 -0.0819  0.7051  0.8143
 9380SOL    HW239777   0.198   0.291  15.422 -1.3799 -0.9414 -0.6334
 9381SOL     OW39778   4.422   3.326  11.602  0.1969 -0.0858  0.4080
 9381SOL    HW139779   4.491   3.260  11.593 -0.3696 -0.7649  1.0345
 9381SOL    HW239780   4.348   3.285  11.558  0.4425  0.7343 -0.7618
 9382SOL     OW39781   3.639   0.131   5.817  0.3010 -0.4991  1.0800
 9382SOL    HW139782   3.555   0.118   5.773  0.1677 -2.2283  1.8222
 9382SOL    HW239783   3.612   0.166   5.901 -0.5721 -1.5241  1.2318
 9383SOL     OW39784   2.721   2.382   2.812  0.6172 -0.0650 -0.2714
 9383SOL    HW139785   2.798   2.335   2.843  0.7787  0.0912 -0.4330
 9383SOL    HW239786   2.660   2.357   2.881 -1.7846  2.6894 -1.3589
 9384SOL     OW39787   3.911   2.795  11.525  0.3310  0.0275  0.3989
 9384SOL    HW139788   3.839   2.837  11.572  1.3235  2.3271 -0.1036
 9384SOL    HW239789   3.867   2.713  11.504  0.8462  0.1110 -1.0679
 9385SOL     OW39790   4.612   3.369   3.866  0.4833  0.5194 -0.3834
 9385SOL    HW139791   4.584   3.280   3.888 -1.0814  1.3608  1.0422
 9385SOL    HW239792   4.699   3.356   3.829  1.3372 -0.8270  2.1165
 9386SOL     OW39793   4.667   1.656   6.898 -0.1831  0.3811 -0.3615
 9386SOL    HW139794   4.582   1.616   6.916 -0.0392  0.4949  0.5691
 9386SOL    HW239795   4.664   1.692   6.809  1.4145 -1.3614 -1.1243
 9387SOL     OW39796   3.323   4.205  15.631  0.4277 -0.2312 -0.2303
 9387SOL    HW139797   3.333   4.300  15.624  0.9013 -0.5510 -4.0006
 9387SOL    HW239798   3.306   4.178  15.540 -0.8264 -0.9773  0.2297
 9388SOL     OW39799   0.191   1.834   7.543  0.4040 -0.8047  0.8666
 9388SOL    HW139800   0.231   1.920   7.560 -3.0239  0.3975  2.8570
 9388SOL    HW239801   0.230   1.779   7.611 -1.3199 -1.5453  1.2609
 9389SOL     OW39802   0.486   1.167   3.986 -0.2021 -0.0051  0.2099
 9389SOL    HW139803   0.407   1.136   3.942  2.0961 -2.9595 -1.8524
 9389SOL    HW239804   0.457   1.236   4.045  2.7519  1.2029  0.2461
 9390SOL     OW39805   0.860   1.341  10.360  0.3211 -0.6371 -0.0992
 9390SOL    HW139806   0.771   1.307  10.352 -0.1677  0.6852 -0.4240
 9390SOL    HW239807   0.888   1.255  10.391 -1.8897 -0.6433  1.9331
 9391SOL     OW39808   0.150   4.033   5.246 -0.1157  0.1544 -0.7461
 9391SOL    HW139809   0.138   4.038   5.151 -0.3235  1.6083 -0.6425
 9391SOL    HW239810   0.245   4.022   5.245 -0.0843  0.2350  0.9944
 9392SOL     OW39811   1.536   0.497   6.053  0.6500 -0.0006  0.0373
 9392SOL    HW139812   1.574   0.525   6.137 -2.0060  0.2453  1.1343
 9392SOL    HW239813   1.531   0.582   6.009 -1.2815 -1.4271 -2.4756
 9393SOL     OW39814   4.577   4.518   1.854  0.0421 -0.4998 -0.5792
 9393SOL    HW139815   4.617   4.480   1.932  0.2169 -0.7880 -0.8123
 9393SOL    HW239816   4.614   4.603   1.877  3.0126 -1.4349 -1.8680
 9394SOL     OW39817   3.699   3.973   8.069  0.0246  0.0548  0.0169
 9394SOL    HW139818   3.726   3.903   8.009  1.0415 -0.2492  0.8319
 9394SOL    HW239819   3.606   3.985   8.050  0.1314  0.5121 -0.2013
 9395SOL     OW39820   0.335   4.416   6.848 -0.5348  0.0956  0.3059
 9395SOL    HW139821   0.425   4.391   6.827 -0.3505  1.2888 -0.3113
 9395SOL    HW239822   0.350   4.504   6.884 -0.7745  0.1999  0.1481
 9396SOL     OW39823   1.078   0.699   0.665  0.0931 -0.2877  0.9929
 9396SOL    HW139824   1.098   0.699   0.572  0.7591 -1.4628  1.1374
 9396SOL    HW239825   1.024   0.778   0.663 -0.2436 -0.5141  1.0144
 9397SOL     OW39826   2.275   1.082   7.559  0.0768  0.7091  0.0262
 9397SOL    HW139827   2.279   1.021   7.633  1.2702  1.2038  0.3577
 9397SOL    HW239828   2.364   1.083   7.524 -0.1626  2.1100 -0.5133
 9398SOL     OW39829   0.049   1.941   2.276 -0.5524  0.1758  0.1203
 9398SOL    HW139830   0.141   1.966   2.269 -0.5137  0.0786  0.3032
 9398SOL    HW239831   0.013   2.019   2.234 -0.7792  0.7419  1.3692
 9399SOL     OW39832   2.885   0.999   0.545 -0.0117 -0.4078 -0.0206
 9399SOL    HW139833   2.909   0.978   0.635  0.1890 -1.7702 -0.3947
 9399SOL    HW239834   2.890   0.915   0.499  2.4705  1.2358 -2.7643
 9400SOL     OW39835   2.967   1.817  15.768  0.4294 -0.7447  0.7739
 9400SOL    HW139836   2.902   1.769  15.818  1.5749 -0.8029  2.2248
 9400SOL    HW239837   2.939   1.908  15.767  1.3451 -0.4683 -2.3273
 9401SOL     OW39838   3.063   1.918   7.424  0.1005  0.1611 -0.9845
 9401SOL    HW139839   3.035   1.983   7.360  0.5778 -0.1420 -1.4997
 9401SOL    HW239840   2.982   1.876   7.455  0.6784 -1.3260 -1.5047
 9402SOL     OW39841   1.066   1.179  11.445  0.0164  0.0762  0.0612
 9402SOL    HW139842   1.086   1.130  11.525 -1.7694 -1.2698 -0.3060
 9402SOL    HW239843   0.971   1.164  11.438  0.0590  1.3193 -2.9067
 9403SOL     OW39844   2.551   3.431   6.711 -0.1727  0.4618 -0.1424
 9403SOL    HW139845   2.644   3.427   6.690 -0.2287  2.2363 -0.7770
 9403SOL    HW239846   2.536   3.369   6.782 -0.8273 -0.0089 -0.6945
 9404SOL     OW39847   2.507   4.039  13.634  0.4446  0.4718  0.3456
 9404SOL    HW139848   2.509   4.068  13.543  2.8321  1.7331  0.7905
 9404SOL    HW239849   2.590   3.993  13.646 -1.6566 -3.4417 -0.3212
 9405SOL     OW39850   1.162   0.072   6.254  0.3920 -0.2300  0.1592
 9405SOL    HW139851   1.094   0.133   6.283 -0.5100 -0.5800 -1.1740
 9405SOL    HW239852   1.162   0.099   6.162  0.4224 -0.8717 -0.0295
 9406SOL     OW39853   2.554   2.212  13.845 -0.5891 -0.0216  0.6496
 9406SOL    HW139854   2.520   2.234  13.758 -0.2187 -1.1736  0.2238
 9406SOL    HW239855   2.646   2.234  13.830 -0.8114  0.9865  0.7398
 9407SOL     OW39856   4.324   2.533   3.603  0.4988  0.5893  0.0586
 9407SOL    HW139857   4.264   2.466   3.636  2.1329 -0.4710  0.8237
 9407SOL    HW239858   4.403   2.501   3.646  0.0816  1.1534  1.2389
 9408SOL     OW39859   2.849   2.119  13.822 -0.2299  0.2194  0.3466
 9408SOL    HW139860   2.935   2.084  13.845 -0.3796 -0.7741 -0.6290
 9408SOL    HW239861   2.872   2.212  13.823 -0.8132  0.3747 -1.9133
 9409SOL     OW39862   2.189   2.194  12.612 -0.2054 -0.5462  0.0987
 9409SOL    HW139863   2.243   2.167  12.686  2.2682 -0.9814 -1.8302
 9409SOL    HW239864   2.145   2.116  12.579  1.4440 -0.5982 -1.9942
 9410SOL     OW39865   4.455   2.796   3.622 -0.3574  0.4724  0.0497
 9410SOL    HW139866   4.484   2.752   3.702 -0.1036 -1.1249 -0.9077
 9410SOL    HW239867   4.365   2.822   3.641 -1.1122 -1.8838 -0.2137
 9411SOL     OW39868   3.572   3.525  14.226 -0.3056  0.2410  0.1748
 9411SOL    HW139869   3.572   3.615  14.259 -3.0855  0.6821 -0.9997
 9411SOL    HW239870   3.496   3.485  14.269 -1.1144 -0.0619 -1.5197
 9412SOL     OW39871   3.652   3.828   3.260 -0.0914 -0.5290 -0.3475
 9412SOL    HW139872   3.700   3.872   3.190  0.9359 -0.7211  0.2251
 9412SOL    HW239873   3.705   3.859   3.334 -2.0340 -2.9175  2.0424
 9413SOL     OW39874   4.601   0.936   8.797  0.3631  0.7910  0.7345
 9413SOL    HW139875   4.548   1.010   8.768 -1.4003 -0.0478  1.7805
 9413SOL    HW239876   4.686   0.976   8.781  1.5775 -2.4378 -0.8323
 9414SOL     OW39877   0.728   2.155   4.206 -0.6861 -0.1339 -0.2997
 9414SOL    HW139878   0.738   2.166   4.111  1.3951 -0.5557 -0.1210
 9414SOL    HW239879   0.724   2.246   4.237 -0.5205 -1.1139  2.5998
 9415SOL     OW39880   2.745   2.829   7.724 -0.1471 -0.1751  0.2493
 9415SOL    HW139881   2.716   2.920   7.729 -0.7644 -0.3944  0.6194
 9415SOL    HW239882   2.807   2.823   7.796  0.8945 -0.0425 -0.6355
 9416SOL     OW39883   3.124   1.170   2.430 -0.2013  0.2280 -0.3812
 9416SOL    HW139884   3.109   1.224   2.507 -0.7278  0.3749 -0.5883
 9416SOL    HW239885   3.185   1.104   2.463 -0.3390 -0.9513 -2.4484
 9417SOL     OW39886   0.296   3.453   1.206 -0.1123 -0.0164 -0.0482
 9417SOL    HW139887   0.298   3.544   1.236 -0.1916 -0.3008  0.8111
 9417SOL    HW239888   0.238   3.415   1.272  1.6527 -0.7036  1.1035
 9418SOL     OW39889   1.028   0.998   6.661 -0.4095  0.0612 -0.7861
 9418SOL    HW139890   0.985   1.077   6.694  2.0348 -0.1539  2.8891
 9418SOL    HW239891   1.122   1.015   6.652 -0.5773  1.8233  0.7059
 9419SOL     OW39892   0.876   2.872   1.856 -0.2908  0.0379  0.2134
 9419SOL    HW139893   0.847   2.910   1.939  0.0557  0.4096  0.1598
 9419SOL    HW239894   0.892   2.780   1.880  0.7807 -0.0524 -0.8320
 9420SOL     OW39895   0.326   0.374   5.481  0.5473 -0.4701 -0.4123
 9420SOL    HW139896   0.374   0.305   5.434 -1.4154 -2.0702 -0.0580
 9420SOL    HW239897   0.323   0.444   5.416  0.3990 -0.0565  0.0354
 9421SOL     OW39898   1.447   2.267   2.022  0.0395 -0.3725  0.3583
 9421SOL    HW139899   1.477   2.190   2.071 -1.0168 -1.7755 -1.1923
 9421SOL    HW239900   1.530   2.308   1.996 -0.7512  0.8570 -0.1973
 9422SOL     OW39901   2.257   4.485   8.364 -0.0073 -0.4199  0.5726
 9422SOL    HW139902   2.257   4.479   8.459  0.7533  0.4579  0.6364
 9422SOL    HW239903   2.219   4.571   8.343 -0.3766 -1.0929 -1.4985
 9423SOL     OW39904   0.805   1.693  15.208 -0.5050  0.2348  0.0016
 9423SOL    HW139905   0.873   1.625  15.204  1.0667  1.7592  0.7388
 9423SOL    HW239906   0.731   1.647  15.247 -1.1892  0.9803 -0.3952
 9424SOL     OW39907   0.243   1.112   2.372  0.1853 -0.3975  0.1280
 9424SOL    HW139908   0.268   1.019   2.364 -2.6753 -1.2986  1.5559
 9424SOL    HW239909   0.189   1.108   2.451  1.6688 -0.1401  1.1500
 9425SOL     OW39910   2.387   2.552  16.692  0.0793 -0.4668 -0.5922
 9425SOL    HW139911   2.359   2.620  16.631 -0.1867  0.5257  0.6215
 9425SOL    HW239912   2.302   2.544  16.735  0.4569  2.7787  0.8351
 9426SOL     OW39913   1.933   3.830   1.806  0.4996  0.1822 -0.3768
 9426SOL    HW139914   1.851   3.808   1.850 -0.3165  2.1767 -0.9219
 9426SOL    HW239915   1.924   3.787   1.720  1.7237  0.9017 -0.8648
 9427SOL     OW39916   0.164   3.266   5.549  0.2325 -0.7940  0.3279
 9427SOL    HW139917   0.102   3.201   5.580  1.0664 -1.9872 -0.4725
 9427SOL    HW239918   0.129   3.278   5.460 -0.1107  0.9795  0.6972
 9428SOL     OW39919   4.198   2.596   4.218  0.0767 -0.2289  0.9115
 9428SOL    HW139920   4.263   2.609   4.149  1.8087 -0.8493  2.4288
 9428SOL    HW239921   4.227   2.508   4.242 -2.0163 -1.7492 -2.0737
 9429SOL     OW39922   4.516   3.861   3.344  0.0734  0.1234 -0.0802
 9429SOL    HW139923   4.426   3.855   3.375  0.0656  3.2720  0.4353
 9429SOL    HW239924   4.548   3.940   3.388 -1.4921  0.8145 -0.1889
 9430SOL     OW39925   1.243   2.546   9.188 -0.0686  0.7036 -0.3649
 9430SOL    HW139926   1.333   2.580   9.182  0.7785 -1.1432  1.9457
 9430SOL    HW239927   1.261   2.452   9.192  0.5765  0.8973  1.2540
 9431SOL     OW39928   1.801   1.937   2.106  0.4070  0.3700 -0.3239
 9431SOL    HW139929   1.742   1.880   2.056  2.0855  1.4795 -3.4942
 9431SOL    HW239930   1.875   1.877   2.096 -0.0629 -0.4531  1.1007
 9432SOL     OW39931   4.134   1.043   1.426 -0.2910 -0.5294 -0.0343
 9432SOL    HW139932   4.045   1.043   1.390 -0.9762 -0.7670  1.6430
 9432SOL    HW239933   4.183   0.980   1.374  0.2728 -2.0668  2.3617
 9433SOL     OW39934   0.608   0.854   8.884 -0.1027 -0.2290 -0.1901
 9433SOL    HW139935   0.626   0.941   8.848  2.1255 -1.0528 -1.0168
 9433SOL    HW239936   0.623   0.796   8.810  1.9327 -0.8976  0.7396
 9434SOL     OW39937   2.207   1.942   6.442  0.2021  0.6093  0.3097
 9434SOL    HW139938   2.238   1.939   6.532  0.2186  2.1094  0.3548
 9434SOL    HW239939   2.160   1.859   6.438 -0.7323  1.2709 -2.9319
 9435SOL     OW39940   3.726   0.924   8.719  0.0841 -0.1595  0.1986
 9435SOL    HW139941   3.727   0.837   8.679 -0.1356 -0.1323  0.1386
 9435SOL    HW239942   3.636   0.952   8.709  0.3662  0.7722  0.2929
 9436SOL     OW39943   0.126   0.320   8.870  0.1515  0.5388  0.2570
 9436SOL    HW139944   0.175   0.276   8.940  1.4422  1.8639  0.1975
 9436SOL    HW239945   0.124   0.250   8.805  3.3954  1.7278 -1.1515
 9437SOL     OW39946   3.806   4.238  14.424 -0.6033 -0.1199 -0.0707
 9437SOL    HW139947   3.771   4.321  14.456  1.6794  0.7955  0.0066
 9437SOL    HW239948   3.884   4.275  14.384 -0.9272  0.0417 -0.5456
 9438SOL     OW39949   0.258   1.292  13.894  0.2007 -0.2685  0.1518
 9438SOL    HW139950   0.275   1.325  13.982  0.0887 -1.1477  0.5031
 9438SOL    HW239951   0.172   1.253  13.907  0.3864 -0.3727  1.0469
 9439SOL     OW39952   0.256   0.595   1.643  0.6448  0.0325  0.0539
 9439SOL    HW139953   0.340   0.550   1.659  0.9837  0.7347  0.2285
 9439SOL    HW239954   0.288   0.669   1.592 -0.4127 -0.4390 -1.2779
 9440SOL     OW39955   3.818   2.185   6.079 -0.1351  0.0482 -0.4830
 9440SOL    HW139956   3.881   2.128   6.124 -1.2920  0.6949  1.9037
 9440SOL    HW239957   3.738   2.187   6.131 -0.0085 -0.0621 -0.2816
 9441SOL     OW39958   2.200   4.088   8.472  0.5378  0.2916 -0.5503
 9441SOL    HW139959   2.208   4.146   8.548 -0.3470  0.2972 -0.4631
 9441SOL    HW239960   2.104   4.084   8.470  0.5235  0.1250  0.4137
 9442SOL     OW39961   2.991   2.796   7.629  0.3317  0.0090  0.0989
 9442SOL    HW139962   2.903   2.780   7.662 -0.3158 -2.9029 -3.0699
 9442SOL    HW239963   3.024   2.707   7.615  0.9071  0.3996 -1.0543
 9443SOL     OW39964   0.972   3.637  12.703 -0.4766 -0.1663 -0.0850
 9443SOL    HW139965   1.023   3.633  12.784  0.5450  1.3393 -0.6521
 9443SOL    HW239966   0.952   3.730  12.694  1.5686  0.3328  0.6351
 9444SOL     OW39967   0.987   4.670   1.803  0.2597  0.4442  0.5254
 9444SOL    HW139968   1.016   4.590   1.847 -0.7307 -0.4701 -0.4932
 9444SOL    HW239969   0.903   4.693   1.841  1.3959  1.1653  2.6273
 9445SOL     OW39970   0.644   3.428   6.410 -0.5404  0.2292  0.0675
 9445SOL    HW139971   0.697   3.506   6.427 -1.3297  0.6211  0.7336
 9445SOL    HW239972   0.693   3.358   6.453  0.9071  1.7508  0.9059
 9446SOL     OW39973   1.071   0.499  15.112 -0.5044  0.0242  0.7232
 9446SOL    HW139974   0.996   0.451  15.147  0.0968 -1.1499  0.3854
 9446SOL    HW239975   1.104   0.443  15.042 -0.2737  1.3086 -0.2001
 9447SOL     OW39976   3.521   0.101  10.390 -0.0598  0.1410 -0.3305
 9447SOL    HW139977   3.586   0.171  10.390 -0.1148  0.1892  0.5482
 9447SOL    HW239978   3.473   0.126  10.469 -0.6685 -1.1075 -0.3117
 9448SOL     OW39979   3.000   0.332   1.807 -0.2335  0.1248  0.5402
 9448SOL    HW139980   3.078   0.386   1.793 -1.1548  0.3515 -3.7388
 9448SOL    HW239981   2.969   0.323   1.717  0.6686 -0.2804  0.2708
 9449SOL     OW39982   2.587   1.873   3.564 -0.5874  0.1398 -0.4177
 9449SOL    HW139983   2.604   1.848   3.473  0.5845 -1.7648  0.3363
 9449SOL    HW239984   2.494   1.889   3.550 -0.8143 -2.3087 -1.6507
 9450SOL     OW39985   2.863   2.226   3.975  0.1811  0.2111  0.0617
 9450SOL    HW139986   2.883   2.177   4.055  0.0098  0.0198 -0.0124
 9450SOL    HW239987   2.799   2.293   4.002 -0.6771 -0.4748 -0.2818
 9451SOL     OW39988   2.847   1.012   4.594  1.3418 -0.1678 -0.3848
 9451SOL    HW139989   2.862   1.105   4.580  1.0366  0.3582  2.9746
 9451SOL    HW239990   2.772   1.013   4.653  1.4310 -2.2866 -0.2379
 9452SOL     OW39991   1.038   0.551  16.129 -0.8266  0.2497 -0.9150
 9452SOL    HW139992   0.999   0.517  16.209 -2.2744  0.3332 -1.5782
 9452SOL    HW239993   1.035   0.468  16.081  0.5344  0.0681 -0.6834
 9453SOL     OW39994   3.871   3.150   6.712  0.1236  0.2821 -0.3317
 9453SOL    HW139995   3.897   3.241   6.701 -2.2544  0.4845 -4.4113
 9453SOL    HW239996   3.786   3.164   6.754 -0.6327 -2.1185 -1.0995
 9454SOL     OW39997   4.190   2.961  14.292  0.0760 -0.0207  0.4995
 9454SOL    HW139998   4.135   3.007  14.229 -1.0070  1.1765  2.3507
 9454SOL    HW239999   4.126   2.895  14.317  0.5042 -0.8362 -0.5163
 9455SOL     OW40000   3.478   1.916   8.874  0.3902 -0.6976 -0.0801
 9455SOL    HW140001   3.527   1.927   8.793 -0.0633 -1.7632 -0.5108
 9455SOL    HW240002   3.434   2.001   8.883  0.4172 -0.9570  2.5889
 9456SOL     OW40003   1.522   0.106   1.952 -0.2859 -0.0370 -0.4132
 9456SOL    HW140004   1.525   0.033   2.014 -2.0355  0.5693  0.3598
 9456SOL    HW240005   1.452   0.070   1.897 -1.5469 -1.0272  1.8587
 9457SOL     OW40006   2.146   3.868  10.010 -0.1047  0.1055  0.1718
 9457SOL    HW140007   2.154   3.787  10.060 -0.9547  0.5540  1.0403
 9457SOL    HW240008   2.078   3.838   9.949 -0.9935 -0.3113  1.3787
 9458SOL     OW40009   0.196   3.359   0.552  0.3506 -0.3389 -0.0900
 9458SOL    HW140010   0.237   3.273   0.563  2.1271  0.1193 -3.3192
 9458SOL    HW240011   0.106   3.331   0.538 -0.3021  1.7593 -0.1061
 9459SOL     OW40012   1.851   3.290   5.432 -0.2302  0.0751 -0.8892
 9459SOL    HW140013   1.870   3.317   5.522 -1.5797  1.2538 -0.9576
 9459SOL    HW240014   1.915   3.341   5.383 -0.1859 -0.4812 -1.4126
 9460SOL     OW40015   2.543   0.666  16.530  0.2428 -0.1717  0.0766
 9460SOL    HW140016   2.582   0.744  16.570  0.5919  0.0684 -0.7366
 9460SOL    HW240017   2.525   0.700  16.443 -0.9681  0.0911  0.4313
 9461SOL     OW40018   4.423   3.145   1.198  0.2365 -0.3293  0.6555
 9461SOL    HW140019   4.442   3.066   1.249 -1.3308  0.3877  2.3616
 9461SOL    HW240020   4.491   3.168   1.134  1.3481  0.1058  1.9939
 9462SOL     OW40021   0.160   4.693   5.086 -0.0311  0.7746 -0.8381
 9462SOL    HW140022   0.207   4.620   5.044 -1.0351 -1.7409  2.4068
 9462SOL    HW240023   0.080   4.686   5.035  0.1225 -1.1856 -0.8407
 9463SOL     OW40024   1.795   4.425   7.655  0.0986 -0.9746 -0.5759
 9463SOL    HW140025   1.867   4.487   7.664  0.3751 -0.9306 -3.1736
 9463SOL    HW240026   1.722   4.477   7.622  0.7086  0.9476  1.1006
 9464SOL     OW40027   4.143   1.485  17.397  0.1067  0.6787 -0.1750
 9464SOL    HW140028   4.176   1.401  17.366 -3.2641 -0.7874  0.2620
 9464SOL    HW240029   4.082   1.517  17.330  0.4177  1.0965 -0.2639
 9465SOL     OW40030   2.641   3.547   5.689  0.0393  0.1284 -0.1360
 9465SOL    HW140031   2.580   3.618   5.711 -0.9697 -0.1945 -1.8542
 9465SOL    HW240032   2.624   3.490   5.764  2.1852 -0.1079  0.1669
 9466SOL     OW40033   3.874   4.653   6.652 -0.0669 -0.2267 -0.3229
 9466SOL    HW140034   3.847   4.639   6.562 -0.4234  0.4522 -0.3176
 9466SOL    HW240035   3.803   4.712   6.678  0.4823 -0.3405  1.4667
 9467SOL     OW40036   0.149   3.345   7.438  0.1974 -0.0620  0.5861
 9467SOL    HW140037   0.221   3.357   7.375 -0.1174  1.3337  0.4919
 9467SOL    HW240038   0.185   3.369   7.523  4.3790 -1.7634 -0.7018
 9468SOL     OW40039   2.391   4.480   7.190  0.4849 -0.4012  0.0155
 9468SOL    HW140040   2.479   4.479   7.228  0.3026 -1.9260  0.4108
 9468SOL    HW240041   2.356   4.391   7.193 -0.0150 -0.1798  1.0754
 9469SOL     OW40042   4.396   0.953  12.585  0.7538  0.5784 -0.3330
 9469SOL    HW140043   4.387   0.913  12.498  0.5308 -0.4558  0.1574
 9469SOL    HW240044   4.461   0.892  12.620 -0.3660 -0.3183  0.1851
 9470SOL     OW40045   0.589   3.984   7.196  0.2515 -0.0815  0.2259
 9470SOL    HW140046   0.627   3.924   7.260  1.4109 -0.1498 -0.5385
 9470SOL    HW240047   0.550   4.047   7.257 -0.7353  2.3554 -2.9073
 9471SOL     OW40048   0.355   3.804   9.246  0.1196  0.1857 -0.3768
 9471SOL    HW140049   0.265   3.794   9.215  1.0047 -0.9189 -2.5974
 9471SOL    HW240050   0.357   3.752   9.327  1.7385 -0.6753 -0.9689
 9472SOL     OW40051   3.833   1.774   5.109 -0.4214 -0.4746 -0.4070
 9472SOL    HW140052   3.754   1.720   5.111  0.1508 -1.3339 -0.8785
 9472SOL    HW240053   3.881   1.749   5.188 -0.9347  0.9361  0.3478
 9473SOL     OW40054   3.778   2.128   2.855 -0.3153  0.0710 -0.4902
 9473SOL    HW140055   3.731   2.165   2.780 -0.6258 -1.3319 -0.9854
 9473SOL    HW240056   3.736   2.171   2.931  1.5720  0.0834  0.5502
 9474SOL     OW40057   3.238   0.193   5.642 -0.0630 -0.4812  0.1114
 9474SOL    HW140058   3.288   0.254   5.696  0.7539  0.4110 -1.6492
 9474SOL    HW240059   3.232   0.244   5.561  0.9648 -0.3400  0.1288
 9475SOL     OW40060   0.345   3.754   5.133 -0.3617 -0.0497 -0.1925
 9475SOL    HW140061   0.349   3.848   5.115 -2.8764 -0.0520 -0.7786
 9475SOL    HW240062   0.391   3.750   5.217 -2.2595 -2.4550  0.7318
 9476SOL     OW40063   2.477   3.705  12.800 -0.1963  0.4302 -0.0447
 9476SOL    HW140064   2.419   3.706  12.724  0.6435  0.8329 -0.6735
 9476SOL    HW240065   2.543   3.769  12.772 -0.8300  0.3827 -1.6173
 9477SOL     OW40066   3.122   3.502   8.386  0.1057 -0.1509 -0.6905
 9477SOL    HW140067   3.203   3.473   8.428 -0.3444 -0.9419 -0.3734
 9477SOL    HW240068   3.088   3.413   8.378 -3.5485  1.1013  1.1970
 9478SOL     OW40069   0.196   1.787   6.113  0.2451  0.0321  0.0660
 9478SOL    HW140070   0.276   1.771   6.063 -0.9131 -1.1711 -1.3918
 9478SOL    HW240071   0.159   1.867   6.075 -1.8173 -1.2438 -0.5996
 9479SOL     OW40072   2.590   4.288   7.571  0.5158  0.1453  0.1774
 9479SOL    HW140073   2.573   4.242   7.653 -1.1757  0.7842  0.1740
 9479SOL    HW240074   2.685   4.283   7.560  0.5681  0.7149  0.3903
 9480SOL     OW40075   3.060   3.079   7.999  0.0659  0.1573 -0.1201
 9480SOL    HW140076   3.150   3.109   8.015  0.5075 -0.6087 -1.1903
 9480SOL    HW240077   3.051   3.064   7.905  1.8199  3.8130 -0.8565
 9481SOL     OW40078   2.720   0.456   6.552  0.1756  0.0024  0.1073
 9481SOL    HW140079   2.648   0.514   6.577  1.2347  2.5268 -2.6874
 9481SOL    HW240080   2.801   0.506   6.563  0.8950 -1.6808  2.6424
 9482SOL     OW40081   3.939   3.392   0.618  0.1876 -0.2223 -0.4118
 9482SOL    HW140082   3.855   3.348   0.602 -0.5331  1.1727 -0.5031
 9482SOL    HW240083   3.958   3.366   0.708  1.3171 -1.4461 -1.0147
 9483SOL     OW40084   2.681   2.853   0.581 -0.2970  0.6793  0.3145
 9483SOL    HW140085   2.710   2.792   0.514 -2.4775 -2.7088  2.4452
 9483SOL    HW240086   2.632   2.920   0.533  0.1815  0.2357 -0.7704
 9484SOL     OW40087   1.764   0.433   2.297 -0.3750  0.0378  0.4062
 9484SOL    HW140088   1.779   0.382   2.377 -3.5379  0.0059  0.9695
 9484SOL    HW240089   1.739   0.366   2.234 -0.7688  0.8260 -0.2706
 9485SOL     OW40090   4.500   2.689   3.243  0.4537 -0.2822 -0.1080
 9485SOL    HW140091   4.426   2.689   3.304  0.6660  2.2506  0.1589
 9485SOL    HW240092   4.572   2.668   3.302  0.6967 -0.7631 -0.5668
 9486SOL     OW40093   2.228   0.030   8.266  0.8923 -0.0237 -0.2170
 9486SOL    HW140094   2.211   0.118   8.232  1.0300 -0.3157 -1.0376
 9486SOL    HW240095   2.311   0.043   8.314  0.9227  1.5470 -0.6775
 9487SOL     OW40096   3.952   4.378   5.534 -0.2453  0.1227  0.1991
 9487SOL    HW140097   3.958   4.311   5.466 -0.5422 -0.5213  0.8026
 9487SOL    HW240098   3.859   4.399   5.526 -0.1467  0.3050 -0.4081
 9488SOL     OW40099   2.567   0.096  14.082  0.1730 -0.3339 -0.0611
 9488SOL    HW140100   2.574   0.183  14.121  0.0145 -0.2023 -0.3231
 9488SOL    HW240101   2.480   0.104  14.042  0.3188  1.2971 -0.0420
 9489SOL     OW40102   4.462   4.684   7.745 -0.4872  0.0237  0.7392
 9489SOL    HW140103   4.432   0.036   7.769 -1.1919 -0.1910  0.6260
 9489SOL    HW240104   4.380   4.635   7.749 -0.0615 -0.7896 -0.3093
 9490SOL     OW40105   4.693   2.742   1.792  0.3167 -0.4446  0.5008
 9490SOL    HW140106   4.709   2.819   1.737 -2.0257 -0.4051 -0.1128
 9490SOL    HW240107   0.039   2.698   1.768 -0.6772 -1.2090 -1.4960
 9491SOL     OW40108   4.236   0.107   3.682  0.1333  0.3696  0.3784
 9491SOL    HW140109   4.176   0.174   3.714  2.2869  1.5899  1.8924
 9491SOL    HW240110   4.307   0.109   3.746  1.0247  3.6041 -0.7058
 9492SOL     OW40111   2.305   1.304  16.577 -0.0805 -0.0139 -0.2287
 9492SOL    HW140112   2.353   1.224  16.596 -0.8224 -0.3240  0.3701
 9492SOL    HW240113   2.285   1.289  16.485 -0.4050 -0.0436 -0.1545
 9493SOL     OW40114   1.045   4.024  14.575 -0.0479  0.8557  0.9255
 9493SOL    HW140115   1.087   4.091  14.629  0.0434  0.2364  1.6150
 9493SOL    HW240116   0.993   4.076  14.514  0.7800  1.6235  0.8677
 9494SOL     OW40117   1.630   0.717   8.059 -0.6962 -0.4308 -0.1181
 9494SOL    HW140118   1.565   0.651   8.083 -1.0036  0.5464  1.6999
 9494SOL    HW240119   1.645   0.696   7.967  0.4136 -1.4430  0.2945
 9495SOL     OW40120   0.743   0.469   6.468 -0.6813 -0.3039  0.5039
 9495SOL    HW140121   0.657   0.439   6.498 -0.3172  0.2790  2.1605
 9495SOL    HW240122   0.762   0.411   6.395 -0.7704 -0.0922  0.3110
 9496SOL     OW40123   1.912   2.981   7.559  0.6064 -0.0475 -0.0605
 9496SOL    HW140124   1.919   2.888   7.537 -2.4744 -0.5478  0.9914
 9496SOL    HW240125   1.898   2.973   7.653 -2.3071 -0.6829 -0.5396
 9497SOL     OW40126   1.804   0.534   5.135 -0.5329 -0.1872  0.1500
 9497SOL    HW140127   1.733   0.482   5.172 -1.9232  1.0929 -0.7260
 9497SOL    HW240128   1.861   0.462   5.110  1.9581  1.9027 -0.2430
 9498SOL     OW40129   2.747   3.079   0.425 -0.0368 -0.0049 -0.5035
 9498SOL    HW140130   2.725   2.995   0.385 -0.2398 -0.8776  1.4354
 9498SOL    HW240131   2.713   3.138   0.358 -0.6820 -0.6692 -0.7696
 9499SOL     OW40132   3.596   2.940   3.028 -0.1694  0.0082  0.3791
 9499SOL    HW140133   3.562   3.019   2.986  1.0840  0.7770  0.8066
 9499SOL    HW240134   3.688   2.964   3.039 -1.2116  4.0573  0.3545
 9500SOL     OW40135   0.267   3.497   5.979 -0.5649  0.6127 -0.5016
 9500SOL    HW140136   0.328   3.485   6.052  1.0013  0.0773 -1.8830
 9500SOL    HW240137   0.278   3.591   5.965  2.8961  0.2538 -0.1441
 9501SOL     OW40138   3.844   3.275   3.580 -0.5851 -0.2754 -0.0176
 9501SOL    HW140139   3.795   3.351   3.548  0.8300  0.3181 -0.7244
 9501SOL    HW240140   3.884   3.250   3.497 -0.1329 -0.8600  0.3789
 9502SOL     OW40141   1.533   3.151  16.191 -0.4112 -0.2439  0.2402
 9502SOL    HW140142   1.458   3.182  16.141  0.5090  0.1297 -0.9139
 9502SOL    HW240143   1.599   3.141  16.123  1.8224  0.7883  2.2299
 9503SOL     OW40144   1.051   2.081   6.011  0.0640 -0.6635 -0.4179
 9503SOL    HW140145   1.038   2.024   6.087  0.7792 -0.2789  0.0031
 9503SOL    HW240146   0.966   2.125   6.012 -0.1995 -1.1850 -0.3078
 9504SOL     OW40147   3.324   0.267   2.492 -0.4348  0.0249 -1.1979
 9504SOL    HW140148   3.239   0.299   2.522 -1.6267 -2.2398 -2.1259
 9504SOL    HW240149   3.378   0.341   2.518 -0.1314 -1.2135  1.6509
 9505SOL     OW40150   0.318   2.891   1.482  0.1864 -0.1630  0.5642
 9505SOL    HW140151   0.361   2.928   1.559  0.1433  1.7822 -0.3321
 9505SOL    HW240152   0.371   2.918   1.407  0.2255  1.7198  1.2773
 9506SOL     OW40153   3.615   4.243  12.578  0.4544  0.7539  0.4786
 9506SOL    HW140154   3.699   4.281  12.606  0.9781 -0.2877  0.3397
 9506SOL    HW240155   3.619   4.260  12.484  0.1161  4.0635  1.0430
 9507SOL     OW40156   0.424   0.178   6.130 -0.3540  0.0363 -0.0470
 9507SOL    HW140157   0.382   0.214   6.208 -0.4987  0.1013 -0.1546
 9507SOL    HW240158   0.460   0.096   6.164  1.0527  1.0277  0.8641
 9508SOL     OW40159   0.964   2.117  12.730 -0.0233  0.3361 -0.0793
 9508SOL    HW140160   1.000   2.091  12.814  1.0305  2.1999  0.0609
 9508SOL    HW240161   1.043   2.148  12.685 -0.3867  1.1982 -0.1392
 9509SOL     OW40162   4.390   3.657   9.730 -0.1319 -0.1553 -0.4345
 9509SOL    HW140163   4.432   3.579   9.694 -0.3249  0.6647 -2.4303
 9509SOL    HW240164   4.345   3.608   9.800 -0.9221  2.5120  0.9348
 9510SOL     OW40165   1.197   1.738   0.774 -0.4169 -0.1328 -0.5487
 9510SOL    HW140166   1.179   1.712   0.683 -0.0218 -0.2895 -0.5791
 9510SOL    HW240167   1.233   1.825   0.759  0.1532 -0.0973  1.0820
 9511SOL     OW40168   4.081   4.509  12.582  0.2877 -0.2555 -0.0900
 9511SOL    HW140169   4.153   4.549  12.533  0.7581 -0.3261  0.5362
 9511SOL    HW240170   4.076   4.560  12.663  0.8454  0.7878 -0.7082
 9512SOL     OW40171   2.582   1.788   7.197  0.1030 -0.3077 -0.6282
 9512SOL    HW140172   2.489   1.776   7.213 -0.0864 -1.3034 -2.5092
 9512SOL    HW240173   2.604   1.724   7.265  0.3846  2.0126  1.4673
 9513SOL     OW40174   1.169   3.520   9.187 -0.1067  0.2594 -0.2207
 9513SOL    HW140175   1.150   3.528   9.094  1.4142 -1.0020 -0.6367
 9513SOL    HW240176   1.083   3.520   9.230  0.3832  1.9054  0.7490
 9514SOL     OW40177   2.011   4.019   6.111 -0.4508 -0.1599 -0.3868
 9514SOL    HW140178   1.923   3.980   6.106 -0.6114  0.0915  0.5473
 9514SOL    HW240179   1.998   4.086   6.043 -1.0862  0.2905  0.1901
 9515SOL     OW40180   2.110   1.071   6.897  0.1614 -0.1093 -0.9388
 9515SOL    HW140181   2.052   1.070   6.821  0.1794 -0.1487 -0.9520
 9515SOL    HW240182   2.130   1.162   6.915 -2.2890  0.1292  0.6102
 9516SOL     OW40183   3.367   4.003   1.814  0.3029  0.0465  0.1531
 9516SOL    HW140184   3.297   4.050   1.769 -0.5366 -0.1907  1.1991
 9516SOL    HW240185   3.427   4.075   1.834 -0.2172  0.8628 -1.2651
 9517SOL     OW40186   1.382   3.893   5.725  1.0334 -0.2676 -0.6916
 9517SOL    HW140187   1.349   3.932   5.806  0.3224 -1.3445 -0.4564
 9517SOL    HW240188   1.297   3.859   5.698  1.3026  1.5291 -3.7411
 9518SOL     OW40189   2.873   0.213   2.457  0.3149  0.4519  0.3274
 9518SOL    HW140190   2.814   0.234   2.385 -1.0049 -0.1025  1.2510
 9518SOL    HW240191   2.814   0.174   2.521 -1.2267  1.4421 -0.4927
 9519SOL     OW40192   1.566   0.015   3.884  0.0624 -0.1289  0.0991
 9519SOL    HW140193   1.519   4.669   3.862  0.6348 -0.8252  1.4593
 9519SOL    HW240194   1.528   0.037   3.969  0.2477 -1.1579  0.4470
 9520SOL     OW40195   3.872   1.887   2.924  0.3585  0.0778  0.3574
 9520SOL    HW140196   3.818   1.907   3.000 -0.9774  1.8587 -1.0827
 9520SOL    HW240197   3.868   1.973   2.882 -1.1469 -0.7540 -1.2363
 9521SOL     OW40198   3.135   4.355   0.381 -0.2144 -0.7986  0.2344
 9521SOL    HW140199   3.068   4.363   0.312  0.1263  1.0373  0.1297
 9521SOL    HW240200   3.205   4.414   0.354 -2.1334  0.9978 -0.8326
 9522SOL     OW40201   1.727   1.863   1.754 -0.2248 -0.1162 -0.1164
 9522SOL    HW140202   1.717   1.821   1.668  0.7055  3.0493 -1.7919
 9522SOL    HW240203   1.780   1.796   1.796 -0.5187  1.1785  2.2908
 9523SOL     OW40204   1.071   1.096   5.107 -0.0921  0.2652 -0.5115
 9523SOL    HW140205   0.997   1.104   5.167  1.0085  0.4982  0.8323
 9523SOL    HW240206   1.029   1.112   5.023 -1.3152 -1.3400 -0.1923
 9524SOL     OW40207   3.467   2.745   5.774 -0.1448 -0.0818  0.1880
 9524SOL    HW140208   3.382   2.718   5.739  0.8728 -2.6455 -0.3403
 9524SOL    HW240209   3.522   2.670   5.749  1.0383  0.0937  2.3234
 9525SOL     OW40210   3.628   2.673   4.895 -0.2654 -0.8657 -0.4480
 9525SOL    HW140211   3.675   2.654   4.814 -1.0239  0.2274 -1.1303
 9525SOL    HW240212   3.536   2.658   4.876 -0.8670 -1.3791  2.8928
 9526SOL     OW40213   1.556   1.030  12.346  0.0352  0.5207  0.5030
 9526SOL    HW140214   1.599   0.947  12.366  0.3322  0.2709 -1.1793
 9526SOL    HW240215   1.465   1.024  12.377  0.6215 -0.2377  2.0593
 9527SOL     OW40216   1.737   4.438   1.408  0.4506  0.7484  0.8861
 9527SOL    HW140217   1.771   4.489   1.482  0.2305  0.0999  1.4347
 9527SOL    HW240218   1.749   4.491   1.329  2.2323 -1.8237 -0.5616
 9528SOL     OW40219   3.836   3.380   4.701  0.8817  0.6156  0.2707
 9528SOL    HW140220   3.917   3.404   4.657  0.7292  0.3981 -0.1296
 9528SOL    HW240221   3.853   3.425   4.783 -1.0025 -1.7524  1.9689
 9529SOL     OW40222   3.845   0.734   1.715 -0.0137 -0.2756  0.0558
 9529SOL    HW140223   3.871   0.821   1.683  1.4085  0.1076  2.2168
 9529SOL    HW240224   3.824   0.762   1.804  0.1780  0.4494 -0.1268
 9530SOL     OW40225   0.640   3.953   4.902 -0.8486 -0.2043 -0.2136
 9530SOL    HW140226   0.589   4.012   4.846 -0.8125  2.0724  2.1466
 9530SOL    HW240227   0.587   3.942   4.981 -0.1538 -0.2257  0.2467
 9531SOL     OW40228   4.678   4.202   0.112  0.2456 -0.1539  0.0164
 9531SOL    HW140229   4.643   4.251   0.187 -0.8281 -0.2043 -0.4465
 9531SOL    HW240230   4.709   4.123   0.156 -1.5595 -1.4032 -0.9146
 9532SOL     OW40231   0.663   2.802   3.488  0.2280 -0.4527 -0.5065
 9532SOL    HW140232   0.606   2.875   3.514 -0.3307 -0.1039 -2.7627
 9532SOL    HW240233   0.728   2.843   3.431  0.9712 -0.2278  0.4939
 9533SOL     OW40234   4.481   4.255   7.367 -0.2267  0.7689 -0.3392
 9533SOL    HW140235   4.454   4.237   7.277  1.1927 -0.1793 -0.5774
 9533SOL    HW240236   4.512   4.168   7.394 -0.3434  0.8567  0.0809
 9534SOL     OW40237   1.516   1.894   2.815 -0.0012  0.1441  0.3280
 9534SOL    HW140238   1.478   1.853   2.893 -0.0675 -2.1154 -0.8829
 9534SOL    HW240239   1.559   1.815   2.780 -4.2278 -1.6529 -0.8364
 9535SOL     OW40240   0.018   1.419  11.596 -0.2277  0.0940  0.0222
 9535SOL    HW140241   0.090   1.466  11.638  0.5509 -0.2263 -0.9484
 9535SOL    HW240242   0.062   1.342  11.561  0.7285  0.6319  0.0405
 9536SOL     OW40243   0.045   3.864   1.922  0.4530 -0.9036  0.0795
 9536SOL    HW140244   0.004   3.793   1.871  0.1353 -0.8550  0.2678
 9536SOL    HW240245   0.007   3.939   1.877  2.1838  1.3375  2.3863
 9537SOL     OW40246   0.085   4.165   6.447 -0.5428 -0.1917  0.1587
 9537SOL    HW140247   0.103   4.245   6.496 -2.7656 -0.2896  1.1042
 9537SOL    HW240248   0.149   4.107   6.488  1.4126  0.3627 -2.1050
 9538SOL     OW40249   1.385   1.367   2.864  0.0697  0.1705 -0.5310
 9538SOL    HW140250   1.349   1.346   2.778  1.6742 -2.5592 -0.5414
 9538SOL    HW240251   1.451   1.432   2.839  0.5879 -0.6462 -1.2559
 9539SOL     OW40252   1.566   3.229   2.293  0.2622 -0.5510 -0.3302
 9539SOL    HW140253   1.560   3.136   2.316 -1.3862 -0.5412 -0.7651
 9539SOL    HW240254   1.633   3.214   2.226 -0.8101  0.2860 -1.5979
 9540SOL     OW40255   4.723   3.869   4.888  0.4011 -0.0252  0.1284
 9540SOL    HW140256   4.652   3.841   4.946 -0.3877  3.9703  1.1065
 9540SOL    HW240257   0.054   3.803   4.909 -0.4858 -0.0660  2.8274
 9541SOL     OW40258   1.500   2.128   6.532 -0.4277  0.6946  0.4241
 9541SOL    HW140259   1.541   2.046   6.561 -1.4775 -0.4824 -1.4041
 9541SOL    HW240260   1.576   2.159   6.482 -0.0495 -2.0791 -0.7383
 9542SOL     OW40261   4.177   4.439  10.994  0.0255  0.0315 -0.1525
 9542SOL    HW140262   4.106   4.375  10.989 -1.5733  1.8507 -0.5690
 9542SOL    HW240263   4.187   4.464  11.085  1.1648 -0.1698 -0.2258
 9543SOL     OW40264   0.618   1.818  12.493 -0.1343  0.4078  0.1192
 9543SOL    HW140265   0.696   1.837  12.545  0.4028  2.3604 -1.3819
 9543SOL    HW240266   0.652   1.733  12.465 -1.3692  0.6473 -2.1316
 9544SOL     OW40267   2.310   0.053   3.303 -0.0933  0.4974 -0.6404
 9544SOL    HW140268   2.357   0.120   3.354 -0.5808  1.0382 -0.9057
 9544SOL    HW240269   2.386   0.004   3.272  1.1101  2.3602 -0.6668
 9545SOL     OW40270   0.220   2.889   8.665 -0.3284  0.2142  0.2560
 9545SOL    HW140271   0.293   2.847   8.710 -0.5845  0.3040  0.7580
 9545SOL    HW240272   0.271   2.904   8.585  0.3307 -1.4494  0.3749
 9546SOL     OW40273   1.368   1.200   4.906 -0.0256 -0.9472 -0.0794
 9546SOL    HW140274   1.345   1.169   4.994  1.8024 -0.5444  0.5446
 9546SOL    HW240275   1.389   1.115   4.867  1.5394  0.6742 -2.7701
 9547SOL     OW40276   3.184   3.964   7.195  0.2569 -0.0114  0.0651
 9547SOL    HW140277   3.129   4.036   7.225 -1.3534 -2.1086  2.1255
 9547SOL    HW240278   3.270   4.001   7.216 -0.2785  0.4905  1.3663
 9548SOL     OW40279   2.474   0.111   2.490  0.1036 -0.3129 -0.2285
 9548SOL    HW140280   2.395   0.057   2.500 -0.0921 -0.4658 -2.5751
 9548SOL    HW240281   2.426   0.193   2.500  0.6477 -0.1240  0.8035
 9549SOL     OW40282   0.774   4.648  13.421 -0.1425  0.6438 -0.1044
 9549SOL    HW140283   0.735   4.631  13.506  0.5976 -0.3155  0.0395
 9549SOL    HW240284   0.826   4.726  13.441  2.6178 -0.8271 -1.5017
 9550SOL     OW40285   3.744   2.972   3.602 -0.3713 -0.0438 -0.2512
 9550SOL    HW140286   3.664   2.976   3.655  0.7782  1.6772  1.3850
 9550SOL    HW240287   3.704   2.928   3.527  0.8103 -2.0758  0.3265
 9551SOL     OW40288   4.272   1.417  11.117  0.7681 -0.2772  0.0590
 9551SOL    HW140289   4.214   1.364  11.063 -0.4361 -1.1205  2.1785
 9551SOL    HW240290   4.327   1.455  11.048  2.5156 -0.6684  1.2314
 9552SOL     OW40291   3.271   3.361   1.502 -0.3929  0.4437 -0.0653
 9552SOL    HW140292   3.365   3.370   1.519 -0.4179  3.5963 -1.5072
 9552SOL    HW240293   3.245   3.302   1.573  0.7246 -0.3628 -0.3194
 9553SOL     OW40294   1.096   1.677   2.822 -0.4293  0.5326  0.3657
 9553SOL    HW140295   1.099   1.653   2.915  0.1031 -0.8502 -0.0038
 9553SOL    HW240296   1.159   1.612   2.790  0.3500  0.7126  1.5468
 9554SOL     OW40297   4.317   4.077   2.225  0.9266  0.0343  0.0071
 9554SOL    HW140298   4.370   4.031   2.160  0.3975 -0.4311 -0.0991
 9554SOL    HW240299   4.319   4.014   2.297  1.9788 -1.5407 -1.3863
 9555SOL     OW40300   0.920   3.808  10.115  0.7939 -0.0050  0.3843
 9555SOL    HW140301   0.860   3.819  10.041  1.3145 -2.3716 -0.4012
 9555SOL    HW240302   0.915   3.713  10.123 -0.5524 -0.0620 -0.9978
 9556SOL     OW40303   0.886   4.364   7.196 -0.1224  0.0741  0.5950
 9556SOL    HW140304   0.966   4.317   7.219 -0.0578  0.4491  1.1357
 9556SOL    HW240305   0.885   4.362   7.100  0.1652  1.1189  0.5655
 9557SOL     OW40306   1.092   0.200   4.404  0.3051  0.0936 -0.3579
 9557SOL    HW140307   1.176   0.203   4.450  0.2647  0.2169 -0.2941
 9557SOL    HW240308   1.113   0.207   4.310  0.9730  0.0793 -0.2131
 9558SOL     OW40309   2.627   2.453  16.722 -0.0089 -0.2703 -0.1647
 9558SOL    HW140310   2.539   2.479  16.696  0.1634  0.2412 -0.2435
 9558SOL    HW240311   2.678   2.515  16.669  0.1761  0.7599  1.2231
 9559SOL     OW40312   0.551   4.579   4.809  0.0094 -0.1229 -0.4034
 9559SOL    HW140313   0.592   4.512   4.754 -2.0435 -1.9078  0.2346
 9559SOL    HW240314   0.597   4.653   4.770  0.2277 -0.9115 -1.6456
 9560SOL     OW40315   4.718   4.229   5.418 -0.1409 -0.0878 -0.2646
 9560SOL    HW140316   4.716   4.141   5.382  0.5186 -1.2185  2.4718
 9560SOL    HW240317   4.664   4.228   5.497  0.8788  1.1131  0.4440
 9561SOL     OW40318   4.076   3.355   1.927  0.0541  0.3090 -0.6282
 9561SOL    HW140319   4.032   3.406   1.995  2.0882  1.4353 -0.1772
 9561SOL    HW240320   4.046   3.273   1.967  0.0636 -0.1201 -1.5008
 9562SOL     OW40321   0.703   0.815   0.715 -0.3903  0.4792 -1.0853
 9562SOL    HW140322   0.688   0.909   0.703 -0.1226  0.7219  0.4447
 9562SOL    HW240323   0.747   0.807   0.800  1.4096 -0.7901 -2.1506
 9563SOL     OW40324   4.078   1.211   3.782 -0.1290 -0.0377 -1.0808
 9563SOL    HW140325   4.045   1.290   3.739 -1.1567 -0.8141 -1.7164
 9563SOL    HW240326   4.130   1.247   3.854 -1.7086 -0.9634  0.5242
 9564SOL     OW40327   0.941   2.733  12.179  0.8013  0.5200  0.4159
 9564SOL    HW140328   0.926   2.694  12.265 -0.6412  1.3924  0.5598
 9564SOL    HW240329   0.893   2.672  12.123 -0.9001  2.3640 -0.1401
 9565SOL     OW40330   2.473   3.779   1.923  0.4211  0.1921  0.8093
 9565SOL    HW140331   2.494   3.700   1.973 -0.7014  1.0893  2.7030
 9565SOL    HW240332   2.453   3.839   1.994 -2.6225 -0.6725  0.7033
 9566SOL     OW40333   1.835   0.357   8.847  0.5799 -0.2966  0.1008
 9566SOL    HW140334   1.778   0.312   8.785  0.9874 -0.7516  0.0572
 9566SOL    HW240335   1.914   0.355   8.793 -0.6080  0.7143 -1.6505
 9567SOL     OW40336   1.842   1.255   4.401  0.4366 -0.7659 -0.3089
 9567SOL    HW140337   1.924   1.208   4.418  1.1897  0.9294  0.7610
 9567SOL    HW240338   1.784   1.216   4.467  0.4493  0.9572  0.7124
 9568SOL     OW40339   1.498   4.690   9.807  0.1102  0.3024  0.0290
 9568SOL    HW140340   1.423   4.714   9.862 -1.0755  0.3734 -1.6274
 9568SOL    HW240341   1.490   0.029   9.746  1.3448  0.9101  0.6011
 9569SOL     OW40342   3.484   3.492   9.411 -0.2067  0.1706  0.0925
 9569SOL    HW140343   3.428   3.418   9.391  0.3477 -0.2615  0.1455
 9569SOL    HW240344   3.489   3.486   9.506 -3.1036 -1.3423  0.1505
   4.73524   4.73524  17.73977
