Membrane in water
40344
    1TMC1    C1    1   2.648   0.586  11.323 -0.9497  0.3951  0.4376
    1TMC1    C2    2   2.569   0.651  11.228 -0.3695  0.1705  0.0450
    1TMC1    C3    3   2.564   0.788  11.232  0.5839 -0.0923  0.3891
    1TMC1    C4    4   2.719   0.653  11.424 -0.6823 -0.1553 -0.7156
    1TMC1    C5    5   2.710   0.789  11.418 -0.6684  0.1336  0.5066
    1TMC1    C6    6   2.633   0.860  11.331 -1.1835 -0.2747 -0.1068
    1TMC1     C    7   2.646   0.438  11.311  0.0931 -0.1850 -0.2156
    1TMC1     O    8   2.549   0.395  11.249 -0.1095  0.3364  0.0281
    1TMC1     H    9   2.512   0.604  11.149  0.7794  0.4712 -0.9730
    1TMC1    H1   10   2.746   0.602  11.516  0.7283  0.0220 -1.0320
    1TMC1    H2   11   2.632   0.968  11.332  0.8828 -0.2798  1.8474
    1TMC1    C7   12   2.799   0.859  11.511 -0.3406 -0.7125  0.3796
    1TMC1    C8   13   2.426   0.832  11.207  0.1343  0.5709 -0.5794
    1TMC1    O1   14   2.891   0.804  11.566 -0.0022  0.7085  0.4166
    1TMC1    O2   15   2.330   0.757  11.197  0.7579  0.1211 -0.4327
    1TMC1    O3   16   2.737   0.962  11.567  0.0475  0.1448 -0.0240
    1TMC1    H3   17   2.659   1.004  11.525 -0.2036  0.1669  0.4717
    1TMC1    O5   18   2.421   0.966  11.208  0.4373 -0.2499 -0.7030
    1TMC1    H5   19   2.504   1.012  11.181  0.0134  0.3564 -0.9801
    2MPD2     C   20   2.668   0.033  11.624  0.4000 -0.6822 -0.0166
    2MPD2    C1   21   2.572   0.061  11.527  0.3700  0.0574  0.4773
    2MPD2    C2   22   2.600   0.166  11.443 -0.6279 -0.0685  0.0431
    2MPD2    C3   23   2.707   0.252  11.464 -0.1546  0.5224  0.0364
    2MPD2    C4   24   2.797   0.221  11.562 -0.1743 -0.0477  0.3608
    2MPD2    C5   25   2.782   0.102  11.634  0.2795  0.1102  0.4664
    2MPD2     H   26   2.532   0.197  11.364 -0.7764 -3.1081 -1.0107
    2MPD2    H1   27   2.873   0.286  11.603  0.8146 -1.2821  0.4584
    2MPD2    H2   28   2.668   4.684  11.690 -2.2323 -0.6598  0.0213
    2MPD2    H3   29   2.854   0.060  11.703 -1.4182  0.5738  2.5437
    2MPD2     N   30   2.725   0.381  11.401 -0.1724  0.5697 -0.1906
    2MPD2    H5   31   2.807   0.434  11.429  0.1918 -1.8653  3.4987
    2MPD2    N1   32   2.456   4.723  11.516 -0.3694  0.4602 -0.1105
    2MPD2    H7   33   2.398   4.731  11.433 -1.2663 -0.6354  0.3990
    3TMC1    C1   34   1.286   0.825  10.702  0.1798 -0.0633 -0.3267
    3TMC1    C2   35   1.281   0.729  10.605 -0.9374  0.3730  0.5414
    3TMC1    C3   36   1.335   0.760  10.487  0.2963  0.1795  0.1603
    3TMC1    C4   37   1.353   0.948  10.691 -0.2943 -0.5371  0.1573
    3TMC1    C5   38   1.410   0.969  10.571 -0.0924 -0.5988 -0.8410
    3TMC1    C6   39   1.390   0.886  10.462 -0.2421 -0.1724 -0.0148
    3TMC1     C   40   1.220   0.795  10.827 -0.1290 -0.0692  0.3422
    3TMC1     O   41   1.176   0.680  10.823 -0.2072 -0.1129 -0.4635
    3TMC1     H   42   1.215   0.644  10.619  0.8065 -1.3851 -1.8453
    3TMC1    H1   43   1.349   1.025  10.767  1.4225  1.2245 -1.5368
    3TMC1    H2   44   1.439   0.920  10.372  0.4159  1.1709  0.8337
    3TMC1    C7   45   1.459   1.094  10.549 -0.1956  0.6300  0.3904
    3TMC1    C8   46   1.271   0.686  10.377  0.3945  0.9172  0.5557
    3TMC1    O1   47   1.504   1.154  10.645  0.3266  0.4123  0.5173
    3TMC1    O2   48   1.155   0.649  10.361  0.6005  0.4710  0.1384
    3TMC1    O3   49   1.380   1.135  10.454  0.0528  0.0131 -0.0911
    3TMC1    H3   50   1.327   1.071  10.403 -1.7720  0.2169  1.5521
    3TMC1    O5   51   1.354   0.709  10.280 -0.0039 -0.4128  0.0612
    3TMC1    H5   52   1.450   0.720  10.294 -0.2308  0.2853  1.0429
    4MPD2     C   53   1.033   0.885  11.301 -0.1768 -0.2956  0.2645
    4MPD2    C1   54   1.073   1.002  11.243 -0.4940  0.0521  0.3152
    4MPD2    C2   55   1.134   1.007  11.119 -0.5421  0.5644 -0.6236
    4MPD2    C3   56   1.152   0.892  11.045  0.6690 -0.1493  0.1021
    4MPD2    C4   57   1.125   0.767  11.108  0.5990 -0.0093 -0.0856
    4MPD2    C5   58   1.065   0.772  11.230  0.0602  0.2965 -0.7107
    4MPD2     H   59   1.161   1.104  11.078 -0.7657  0.4182 -1.1059
    4MPD2    H1   60   1.160   0.675  11.062  0.2256  0.0057 -0.4028
    4MPD2    H2   61   0.986   0.874  11.398 -1.9478 -0.0640 -0.5773
    4MPD2    H3   62   1.043   0.673  11.269  0.7114  0.2921 -0.3615
    4MPD2     N   63   1.216   0.895  10.917 -0.3594 -0.0146  0.2390
    4MPD2    H5   64   1.216   0.990  10.883 -0.0587 -1.0489 -2.6149
    4MPD2    N1   65   1.060   1.131  11.293 -0.1055 -0.2869  0.2653
    4MPD2    H7   66   1.070   1.208  11.227  1.2327  2.1066  3.3043
    5TCq1    O1   67   3.400   2.918  11.634 -0.3574  1.1175 -0.0485
    5TCq1    C1   68   3.426   2.791  11.603  0.0034 -0.0897  0.1271
    5TCq1    O2   69   3.466   2.743  11.498 -0.0276  0.0509 -0.2402
    5TCq1    C2   70   3.331   2.729  11.678 -0.2404 -0.1606 -0.7092
    5TCq1    C3   71   3.334   2.757  11.813  0.0819  0.1063  0.2996
    5TCq1    C4   72   3.226   2.737  11.888  0.0325 -0.0825  0.4007
    5TCq1    C5   73   3.113   2.693  11.831 -0.0273  0.4254  0.6620
    5TCq1    C6   74   3.110   2.664  11.695 -0.0454  0.5361 -0.1755
    5TCq1    C7   75   3.216   2.687  11.617 -0.4836 -0.3008 -0.3170
    5TCq1    C8   76   2.987   2.689  11.629  0.0323 -0.3418  0.5325
    5TCq1    O4   77   2.970   2.618  11.532  0.3959 -0.0913 -0.1369
    5TCq1    C9   78   3.231   2.738  12.032  0.2287 -0.0622  0.4235
    5TCq1    O5   79   3.345   2.737  12.083  0.7053 -0.4819 -0.0364
    5TCq1    O6   80   3.125   2.763  12.094  0.0628  0.2049  0.1357
    5TCq1    H1   81   3.323   2.910  11.695 -0.4109 -0.1242 -0.2821
    5TCq1    H2   82   3.426   2.796  11.856 -1.0284  1.8508  1.0904
    5TCq1    H3   83   3.036   2.654  11.896 -1.9398  2.0401 -0.6253
    5TCq1    H4   84   3.216   2.671  11.509 -1.6681  1.0551 -0.5261
    6MPD2     C   85   2.692   2.879  11.737  0.6024  0.1019  0.1391
    6MPD2    C1   86   2.765   2.795  11.653 -0.2368 -0.0329  0.6876
    6MPD2    C2   87   2.710   2.737  11.541 -0.0022 -0.3382 -0.1977
    6MPD2    C3   88   2.585   2.777  11.499 -0.9446 -0.1487 -0.1601
    6MPD2    C4   89   2.515   2.863  11.582  0.0666 -0.1062  0.0473
    6MPD2    C5   90   2.568   2.916  11.695 -0.1149 -0.1307 -0.4098
    6MPD2     H   91   2.766   2.667  11.479  1.0424  0.3093  0.0133
    6MPD2    H1   92   2.412   2.888  11.561 -0.2694 -1.7978 -0.2993
    6MPD2    H2   93   2.734   2.909  11.833  1.8992  0.0936 -0.4247
    6MPD2    H3   94   2.506   2.981  11.756  0.0307  0.6114 -1.0442
    6MPD2     N   95   2.543   2.743  11.367 -0.4317 -0.0896  0.6474
    6MPD2    H5   96   2.608   2.685  11.314 -2.1708 -0.9145 -0.6359
    6MPD2    N1   97   2.895   2.759  11.700  0.4217 -0.0354 -0.0545
    6MPD2    H7   98   2.934   2.802  11.783  2.6580 -3.2159  0.5721
    7TCq1    O1   99   4.383   2.696  12.697 -0.1701 -0.4787 -0.5470
    7TCq1    C1  100   4.416   2.816  12.753  0.3413  0.0649  0.1987
    7TCq1    O2  101   4.392   2.928  12.707 -0.6796  0.2230 -0.1349
    7TCq1    C2  102   4.478   2.791  12.879  0.1258  0.4874  0.1515
    7TCq1    C3  103   4.532   2.891  12.953  0.0003 -0.1058 -0.2792
    7TCq1    C4  104   4.563   2.869  13.084  0.1063  0.0632  0.0599
    7TCq1    C5  105   4.570   2.746  13.136 -0.3702  0.0709  0.0014
    7TCq1    C6  106   4.516   2.641  13.067 -0.4278  0.3283 -0.1324
    7TCq1    C7  107   4.465   2.666  12.941 -0.3438 -0.1495 -0.2192
    7TCq1    C8  108   4.582   2.512  13.068 -0.4597  0.3543  0.2486
    7TCq1    O4  109   4.529   2.424  13.006 -0.2997  0.5410  0.3151
    7TCq1    C9  110   4.596   2.980  13.163  0.2161 -0.2269  0.0580
    7TCq1    O5  111   4.631   2.956  13.281 -0.0363  0.5420  0.7324
    7TCq1    O6  112   4.596   3.089  13.105  0.2249 -1.2182  0.7173
    7TCq1    H1  113   4.443   2.623  12.722 -1.0452 -0.5727  1.3064
    7TCq1    H2  114   4.520   2.990  12.910 -0.8169  0.0160  0.2276
    7TCq1    H3  115   4.589   2.728  13.241  1.3583  1.0042 -0.1645
    7TCq1    H4  116   4.415   2.579  12.899 -1.8004  0.4693  0.2377
    8MPD2     C  117   0.221   2.191  13.255  0.0085 -0.4487  0.1813
    8MPD2    C1  118   0.119   2.173  13.161  0.6909 -0.0219 -0.6249
    8MPD2    C2  119   0.038   2.276  13.117  0.0502  0.0831  0.1438
    8MPD2    C3  120   0.047   2.396  13.179 -0.6252  0.0033  0.1846
    8MPD2    C4  121   0.142   2.422  13.277 -0.5233 -1.0429 -0.4861
    8MPD2    C5  122   0.231   2.320  13.300  0.7503 -0.7730  0.3174
    8MPD2     H  123   4.708   2.277  13.031  0.3843 -0.7263 -0.1224
    8MPD2    H1  124   0.159   2.521  13.317 -0.8708  0.3444 -3.7941
    8MPD2    H2  125   0.296   2.114  13.267  1.0477  0.7769  1.4657
    8MPD2    H3  126   0.323   2.346  13.353  1.0590 -1.6914  0.2254
    8MPD2     N  127   4.698   2.512  13.151 -0.0514  0.4403  0.3866
    8MPD2    H5  128   4.730   2.598  13.195  0.5314 -1.2413  3.2528
    8MPD2    N1  129   0.095   2.039  13.113  0.6620  0.4460 -0.8311
    8MPD2    H7  130   0.160   1.972  13.153 -0.9453 -1.3735 -1.2941
    9TMC1    C1  131   1.995   1.894  11.591  0.0369  0.5461  0.1875
    9TMC1    C2  132   2.021   2.011  11.651 -0.4135  0.2775 -0.3454
    9TMC1    C3  133   2.090   2.109  11.582 -0.5286 -0.2591 -0.0880
    9TMC1    C4  134   2.035   1.868  11.458 -0.0663  1.1267  0.3974
    9TMC1    C5  135   2.105   1.967  11.394 -0.2024 -0.2572  0.1728
    9TMC1    C6  136   2.134   2.089  11.454  0.0311 -0.6383 -0.6338
    9TMC1     C  137   1.945   1.775  11.669  0.3607 -0.3347 -0.7064
    9TMC1     O  138   1.911   1.805  11.784 -0.1173  0.3420  0.2059
    9TMC1     H  139   2.001   2.032  11.756  2.1568 -1.6525  0.5209
    9TMC1    H1  140   2.005   1.774  11.414 -1.1069  1.5637  0.1538
    9TMC1    H2  141   2.181   2.165  11.392  0.2152 -1.4042 -1.4368
    9TMC1    C7  142   2.110   1.953  11.247 -0.1578 -0.3363 -0.0527
    9TMC1    C8  143   2.157   2.224  11.646 -0.3465 -0.9414 -1.0493
    9TMC1    O1  144   2.109   2.049  11.169 -0.2039  0.2264  0.2582
    9TMC1    O2  145   2.130   2.265  11.758  0.5122  0.4471  0.2635
    9TMC1    O3  146   2.146   1.831  11.206  0.0857 -0.4778 -0.0962
    9TMC1    H3  147   2.185   1.789  11.286 -3.9418 -3.3267  0.3701
    9TMC1    O5  148   2.287   2.202  11.607 -0.6169 -0.4328  0.0353
    9TMC1    H5  149   2.305   2.141  11.533 -0.0122 -0.4166  0.1650
   10MPD2     C  150   1.788   1.549  11.765 -0.4479  0.2801  0.0991
   10MPD2    C1  151   1.890   1.534  11.671 -0.5108  0.4480  0.2103
   10MPD2    C2  152   1.922   1.408  11.617  0.5898 -0.7283  0.1527
   10MPD2    C3  153   1.868   1.297  11.683  0.1222 -0.3804  0.3057
   10MPD2    C4  154   1.778   1.312  11.784 -0.4668 -0.1785  0.3793
   10MPD2    C5  155   1.728   1.435  11.819  0.3455 -0.2406 -0.3617
   10MPD2     H  156   1.993   1.399  11.536  0.6167  0.7148  0.0210
   10MPD2    H1  157   1.736   1.231  11.841 -0.7337  1.0095  1.8771
   10MPD2    H2  158   1.745   1.645  11.788 -0.0657  0.8811 -1.6941
   10MPD2    H3  159   1.638   1.450  11.878 -0.9448  0.6491 -2.5356
   10MPD2     N  160   1.912   1.167  11.659 -0.3073  0.1532 -0.4081
   10MPD2    H5  161   1.882   1.098  11.727 -0.8895 -1.3170 -2.1901
   10MPD2    N1  162   1.940   1.650  11.603  0.8187 -0.0403 -0.1170
   10MPD2    H7  163   1.990   1.633  11.516 -2.1494  1.8737 -2.2248
   11TCq1    O1  164   3.197   0.725  14.105  0.1215  0.1837 -0.3312
   11TCq1    C1  165   3.074   0.665  14.086 -0.0197  0.2673 -0.8062
   11TCq1    O2  166   3.052   0.543  14.080 -0.2544 -0.7228  0.1301
   11TCq1    C2  167   2.974   0.771  14.061 -0.4130 -0.3004  0.2100
   11TCq1    C3  168   2.997   0.897  14.108  0.1432 -0.3345 -0.7991
   11TCq1    C4  169   2.891   0.981  14.092  0.4326 -0.3344  0.2593
   11TCq1    C5  170   2.769   0.948  14.028 -0.1431 -0.0858  0.5271
   11TCq1    C6  171   2.754   0.816  14.000  0.0611  0.0217  0.3347
   11TCq1    C7  172   2.854   0.727  14.018  0.7208  0.2718 -0.0340
   11TCq1    C8  173   2.628   0.768  13.944 -0.0174  0.0862  0.1003
   11TCq1    O4  174   2.546   0.851  13.907 -0.5243  0.3989  0.4036
   11TCq1    C9  175   2.923   1.117  14.120 -0.0391  0.2146 -0.2856
   11TCq1    O5  176   3.005   1.149  14.206  0.4570  0.2777  0.2400
   11TCq1    O6  177   2.827   1.199  14.101 -0.1543  0.4160  0.3710
   11TCq1    H1  178   3.195   0.818  14.075 -0.6241 -0.3943 -2.0543
   11TCq1    H2  179   3.083   0.939  14.160 -1.3284 -1.9502  2.9063
   11TCq1    H3  180   2.690   1.022  14.021 -0.0508  0.0453  0.8712
   11TCq1    H4  181   2.853   0.628  13.973  0.2731  0.8813 -1.3740
   12MPD2     C  182   2.413   0.600  13.849 -0.2879 -0.1246 -0.4221
   12MPD2    C1  183   2.527   0.550  13.908 -0.1544 -0.0331 -0.5106
   12MPD2    C2  184   2.558   0.413  13.900 -0.0359 -1.0238  0.0106
   12MPD2    C3  185   2.479   0.331  13.823 -0.6973  0.1762 -0.4406
   12MPD2    C4  186   2.370   0.387  13.758  0.1151  0.1918 -0.0315
   12MPD2    C5  187   2.337   0.520  13.772  0.1210  0.0375  0.9493
   12MPD2     H  188   2.649   0.386  13.952 -0.6691  2.3283  2.9021
   12MPD2    H1  189   2.301   0.327  13.701 -0.1226 -0.7000  1.2041
   12MPD2    H2  190   2.388   0.704  13.867 -0.7984 -0.1793 -0.7917
   12MPD2    H3  191   2.245   0.560  13.731 -0.6941 -2.7931  0.0344
   12MPD2     N  192   2.499   0.195  13.806 -0.0151 -0.2003  0.0371
   12MPD2    H5  193   2.430   0.146  13.749  0.0105 -0.0201 -0.1472
   12MPD2    N1  194   2.622   0.629  13.970  0.5848 -0.0889  0.3769
   12MPD2    H7  195   2.709   0.595  14.010  0.8444  0.8999  0.6497
   13TCq1    O1  196   2.709   1.341  11.367 -0.3971 -0.2010 -0.0605
   13TCq1    C1  197   2.751   1.378  11.245 -0.3059  0.1936  0.3716
   13TCq1    O2  198   2.812   1.309  11.163  1.2905  0.3901 -0.2865
   13TCq1    C2  199   2.641   1.464  11.206 -0.1132  0.2572  1.0130
   13TCq1    C3  200   2.604   1.563  11.292 -0.2638  0.4478 -0.3221
   13TCq1    C4  201   2.476   1.612  11.283  0.7766  0.5376 -0.3135
   13TCq1    C5  202   2.388   1.560  11.192  0.0908  0.3322 -0.4257
   13TCq1    C6  203   2.428   1.453  11.115 -0.7086 -1.0601 -0.3088
   13TCq1    C7  204   2.557   1.399  11.124 -0.0249  0.8975  0.0891
   13TCq1    C8  205   2.322   1.348  11.089 -1.0477 -0.5161 -0.3641
   13TCq1    O4  206   2.217   1.354  11.155  0.2675  0.6756 -0.2169
   13TCq1    C9  207   2.430   1.716  11.372 -0.3858 -0.8509 -0.1853
   13TCq1    O5  208   2.518   1.781  11.436  0.2675  0.2284 -0.6450
   13TCq1    O6  209   2.310   1.733  11.388 -0.2228 -0.1315  0.1632
   13TCq1    H1  210   2.645   1.407  11.403 -0.8007 -0.6223 -0.0033
   13TCq1    H2  211   2.679   1.601  11.360 -0.6626 -0.1872  0.4735
   13TCq1    H3  212   2.285   1.596  11.192  0.5454  1.6710 -3.0450
   13TCq1    H4  213   2.582   1.301  11.085  0.6721  0.8508  0.6556
   14MPD2     C  214   2.328   1.060  10.856  0.5969 -0.1914  0.4014
   14MPD2    C1  215   2.268   1.157  10.938 -0.3294  0.1213 -0.2689
   14MPD2    C2  216   2.135   1.152  10.956  0.1116  0.0129  0.1643
   14MPD2    C3  217   2.055   1.053  10.899  0.0361  0.9571 -0.8337
   14MPD2    C4  218   2.114   0.952  10.826  0.3286 -0.0755  0.7902
   14MPD2    C5  219   2.247   0.971  10.798 -0.0420  0.9800 -0.5012
   14MPD2     H  220   2.090   1.239  11.005 -0.8646 -0.7241  0.5763
   14MPD2    H1  221   2.060   0.870  10.780  1.4052  0.4397 -1.3857
   14MPD2    H2  222   2.436   1.056  10.851  0.8627  1.7568  4.4364
   14MPD2    H3  223   2.286   0.899  10.727 -1.4014 -1.7959  1.5913
   14MPD2     N  224   1.916   1.058  10.935 -0.3148 -0.5396  0.2943
   14MPD2    H5  225   1.890   1.123  11.008  2.0932  1.3038 -0.4740
   14MPD2    N1  226   2.353   1.266  10.987  0.1813  0.1997  0.9397
   14MPD2    H7  227   2.448   1.266  10.950  0.4757 -1.9841  1.7136
   15TCq1    O1  228   0.604   0.351   1.083  0.0573  0.5017  0.0745
   15TCq1    C1  229   0.632   0.222   1.102  0.0325  0.3173 -0.5866
   15TCq1    O2  230   0.749   0.185   1.122 -0.7264 -0.3202 -0.0954
   15TCq1    C2  231   0.516   0.163   1.163  0.1621  0.0865 -0.0142
   15TCq1    C3  232   0.443   0.226   1.254 -0.6485 -0.0698 -0.5119
   15TCq1    C4  233   0.332   0.159   1.303  0.4599 -0.2526 -0.3505
   15TCq1    C5  234   0.306   0.027   1.270 -0.3729  0.1010  0.7580
   15TCq1    C6  235   0.392   4.703   1.179 -1.3050 -1.0627  0.0713
   15TCq1    C7  236   0.503   0.029   1.134  0.6225 -0.3772 -0.6438
   15TCq1    C8  237   0.387   4.567   1.133 -0.7608 -1.1630  0.1365
   15TCq1    O4  238   0.475   4.521   1.064 -0.3255 -0.0415 -0.6583
   15TCq1    C9  239   0.254   0.230   1.401  0.0009 -0.5702  0.6475
   15TCq1    O5  240   0.276   0.355   1.413  0.0368  0.3782 -0.1433
   15TCq1    O6  241   0.153   0.165   1.449 -0.3710 -0.4211 -0.1427
   15TCq1    H1  242   0.512   0.362   1.051 -0.7602  0.1060  2.2633
   15TCq1    H2  243   0.470   0.328   1.282 -1.2129 -0.0579  0.0072
   15TCq1    H3  244   0.219   4.718   1.316 -1.7019  1.7910 -0.0654
   15TCq1    H4  245   0.567   4.720   1.059  0.5715 -3.7990  1.3721
   16MPD2     C  246   0.076   4.355   1.171 -0.3067 -0.3096 -0.7403
   16MPD2    C1  247   0.202   4.396   1.119  0.8037  0.4270  0.1632
   16MPD2    C2  248   0.271   4.306   1.036  0.6468 -0.3803 -1.0867
   16MPD2    C3  249   0.221   4.171   1.017 -0.1570  0.0057 -0.2796
   16MPD2    C4  250   0.104   4.136   1.081 -1.0126  0.0498 -0.6078
   16MPD2    C5  251   0.033   4.227   1.159  0.1752  0.2866 -0.0972
   16MPD2     H  252   0.366   4.341   0.997  0.6002  2.5828  1.3832
   16MPD2    H1  253   0.060   4.037   1.075 -1.3144  0.0705  1.1280
   16MPD2    H2  254   0.030   4.433   1.231  0.1608 -1.0086  0.5235
   16MPD2    H3  255   4.675   4.201   1.203  0.2713  0.5106  0.2390
   16MPD2     N  256   0.305   4.090   0.935 -0.1839  0.0955  0.6876
   16MPD2    H5  257   0.394   4.131   0.908 -0.9530  2.9910  2.5929
   16MPD2    N1  258   0.251   4.528   1.152 -0.4847 -0.4067 -0.3311
   16MPD2    H7  259   0.194   4.590   1.207  0.1153 -0.1416 -0.0038
   17TMC1    C1  260   1.715   0.469  10.933  0.8201 -0.0875 -0.5277
   17TMC1    C2  261   1.575   0.471  10.957  0.9832 -0.1645 -0.2606
   17TMC1    C3  262   1.531   0.404  11.074  0.6879 -0.4946 -0.2256
   17TMC1    C4  263   1.803   0.390  11.011  0.1681 -0.2601 -0.5186
   17TMC1    C5  264   1.752   0.329  11.118 -0.1316  0.6226  0.0216
   17TMC1    C6  265   1.620   0.334  11.154 -1.0720 -0.4692 -0.3311
   17TMC1     C  266   1.761   0.507  10.800  0.0259 -0.5991  0.8787
   17TMC1     O  267   1.673   0.496  10.715  0.2443  0.0629 -0.0278
   17TMC1     H  268   1.508   0.530  10.895 -0.7120 -0.9167  0.8497
   17TMC1    H1  269   1.907   0.373  10.990  0.4512  0.3030  0.4038
   17TMC1    H2  270   1.594   0.282  11.246 -2.3516 -0.5823 -0.7633
   17TMC1    C7  271   1.847   0.256  11.197 -0.6087  0.3426 -0.1823
   17TMC1    C8  272   1.390   0.383  11.098  0.2801  0.4459 -0.3271
   17TMC1    O1  273   1.970   0.284  11.204  0.2683 -0.2571 -0.0305
   17TMC1    O2  274   1.337   0.278  11.138 -0.7851  0.2614 -0.1734
   17TMC1    O3  275   1.802   0.128  11.185  0.3453 -0.6605 -0.3965
   17TMC1    H3  276   1.708   0.123  11.158  0.3498  0.0300 -0.5538
   17TMC1    O5  277   1.335   0.499  11.130  0.2141 -0.4676  0.1725
   17TMC1    H5  278   1.396   0.573  11.108  0.7955 -0.9783  0.0772
   18MPD2     C  279   1.901   0.537  10.547  0.0048 -0.4464 -0.8813
   18MPD2    C1  280   1.963   0.504  10.665 -0.1584 -0.1230  0.3694
   18MPD2    C2  281   2.095   0.460  10.670 -0.1214 -0.3447  0.2864
   18MPD2    C3  282   2.166   0.445  10.554 -0.2677  0.6450 -0.5167
   18MPD2    C4  283   2.108   0.478  10.436 -0.0907  0.3941  0.8621
   18MPD2    C5  284   1.983   0.530  10.435  0.5874 -0.1358 -0.4989
   18MPD2     H  285   2.131   0.420  10.764  0.3410 -2.4241 -0.7594
   18MPD2    H1  286   2.155   0.474  10.338 -1.2241 -0.0915  0.3271
   18MPD2    H2  287   1.800   0.571  10.530  0.8788  1.8764 -1.4887
   18MPD2    H3  288   1.941   0.557  10.339  0.2925  1.4254  0.0725
   18MPD2     N  289   2.298   0.398  10.555 -0.4405  0.7557  0.3151
   18MPD2    H5  290   2.353   0.401  10.470 -0.3241 -2.3104  0.2707
   18MPD2    N1  291   1.895   0.501  10.784  0.3438 -0.4429  0.3524
   18MPD2    H7  292   1.951   0.493  10.869  1.5028 -0.7133 -0.4301
   19TMC2    C1  293   3.790   0.773  13.635  0.3155  0.2761  0.1780
   19TMC2    C2  294   3.708   0.853  13.568  0.5563 -0.0935 -0.1905
   19TMC2    C3  295   3.571   0.826  13.580 -0.7596 -0.1472  0.4780
   19TMC2    C4  296   3.747   0.676  13.717  0.4594  0.6675 -0.4156
   19TMC2    C5  297   3.615   0.644  13.717  0.0366 -0.3145  0.1568
   19TMC2    C6  298   3.519   0.719  13.649 -0.3476  0.3742 -0.0760
   19TMC2     C  299   3.933   0.768  13.591  0.0374 -0.2843  0.5274
   19TMC2     O  300   3.953   0.834  13.492  0.2580  0.4010  0.2494
   19TMC2     H  301   3.749   0.924  13.497 -1.1619  2.1374  1.0527
   19TMC2    H1  302   3.809   0.613  13.781 -1.0762  0.3980  0.8075
   19TMC2    H2  303   3.414   0.690  13.646  0.2991 -2.1154  1.3631
   19TMC2    C7  304   3.584   0.520  13.789  0.0244 -0.3894  0.4772
   19TMC2    C8  305   3.483   0.886  13.488  0.4041  0.6115 -0.5600
   19TMC2    O1  306   3.673   0.440  13.813 -0.0351 -0.4358  0.4643
   19TMC2    O2  307   3.513   0.909  13.373 -0.3123 -0.5256 -0.2913
   19TMC2    O5  308   3.352   0.896  13.536  0.5281  0.0325  0.5194
   19TMC2    H5  309   3.351   0.898  13.634  2.3787  0.7464  0.5187
   20MPD2     C  310   4.222   0.677  13.510  0.2935  0.8213 -0.4638
   20MPD2    C1  311   4.135   0.625  13.606  0.3974  0.1962  0.5600
   20MPD2    C2  312   4.181   0.511  13.670 -0.9665  0.7644 -0.5279
   20MPD2    C3  313   4.298   0.449  13.633 -0.1469  0.1381  0.0694
   20MPD2    C4  314   4.371   0.507  13.531  0.0041  0.0459 -0.7389
   20MPD2    C5  315   4.336   0.620  13.473  0.4710  0.4281  0.0759
   20MPD2     H  316   4.125   0.473  13.755 -1.0776  1.6147 -0.2207
   20MPD2    H1  317   4.469   0.466  13.507  0.5637 -0.4689  2.4276
   20MPD2    H2  318   4.202   0.769  13.456  0.9474  0.9780 -0.4423
   20MPD2    H3  319   4.406   0.664  13.402  1.1132 -0.9846 -0.1729
   20MPD2     N  320   4.359   0.334  13.696 -0.2730  0.2682 -0.2614
   20MPD2    H5  321   4.443   0.299  13.651  0.8004  0.0626  1.9108
   20MPD2    N1  322   4.008   0.674  13.653  0.4904  0.6124  0.2984
   20MPD2    H7  323   3.966   0.622  13.729 -0.3078  1.4435  0.4224
   21TMC2    C1  324   1.839   1.426  14.526  0.0944 -0.6481  0.3011
   21TMC2    C2  325   1.971   1.399  14.497 -0.3103  0.5679  0.7637
   21TMC2    C3  326   2.030   1.473  14.401 -0.2889  0.0446 -0.4681
   21TMC2    C4  327   1.776   1.528  14.475 -0.3005  0.6180 -0.1529
   21TMC2    C5  328   1.844   1.606  14.383  1.0024 -0.5548  0.0456
   21TMC2    C6  329   1.971   1.576  14.336 -0.1636  0.7830  0.7787
   21TMC2     C  330   1.756   1.311  14.550 -0.0311  0.0986 -0.2116
   21TMC2     O  331   1.646   1.332  14.598 -0.3102  0.3289  0.5515
   21TMC2     H  332   2.030   1.322  14.547 -1.7631 -0.2689  1.1907
   21TMC2    H1  333   1.676   1.547  14.511 -0.2053 -0.9622  0.9169
   21TMC2    H2  334   2.020   1.628  14.254  0.9878 -2.2866 -0.4590
   21TMC2    C7  335   1.774   1.678  14.277  0.1714  0.4758 -0.5018
   21TMC2    C8  336   2.151   1.404  14.355  0.1701 -0.7454  0.9460
   21TMC2    O1  337   1.835   1.761  14.211  0.2902 -0.0882  0.1648
   21TMC2    O2  338   2.218   1.331  14.422  0.2382  0.4591  0.3435
   21TMC2    O5  339   2.173   1.430  14.223  0.7182  0.4038  0.2052
   21TMC2    H5  340   2.098   1.458  14.166  0.0559  1.1306  1.4498
   22MPD2     C  341   1.624   0.813  14.481  0.7407  0.1353  0.1032
   22MPD2    C1  342   1.742   0.841  14.420 -0.2691 -0.2945  0.0119
   22MPD2    C2  343   1.795   0.969  14.424  0.1166 -0.2693  0.1757
   22MPD2    C3  344   1.739   1.069  14.493 -0.3275  0.1098  0.0799
   22MPD2    C4  345   1.626   1.043  14.564 -0.0139 -0.1722 -0.2697
   22MPD2    C5  346   1.565   0.918  14.557  0.4362 -0.1088  0.3957
   22MPD2     H  347   1.884   0.999  14.370  0.3253  0.6616  1.0259
   22MPD2    H1  348   1.577   1.122  14.621 -0.0188 -1.1828  1.1318
   22MPD2    H2  349   1.575   0.717  14.474 -1.8258  1.3434  1.8812
   22MPD2    H3  350   1.473   0.886  14.604 -0.3257  1.8661  0.2086
   22MPD2     N  351   1.807   1.194  14.496  0.0582 -0.2384  0.0625
   22MPD2    H5  352   1.891   1.208  14.441  0.5608  1.8702  1.3489
   22MPD2    N1  353   1.817   0.746  14.357  0.0932 -0.8707  0.3522
   22MPD2    H7  354   1.917   0.761  14.348 -0.0359 -0.5841 -0.5983
   23TMC2    C1  355   3.478   2.522  14.044 -0.0084  1.1532 -0.1973
   23TMC2    C2  356   3.593   2.569  13.981 -0.3579 -0.6478 -0.0762
   23TMC2    C3  357   3.608   2.541  13.847 -0.5519  0.4910  0.5044
   23TMC2    C4  358   3.377   2.457  13.985 -0.5050 -0.4592 -0.5415
   23TMC2    C5  359   3.395   2.438  13.846  0.0106  0.4479  0.2533
   23TMC2    C6  360   3.507   2.473  13.776 -0.1335 -0.8616 -0.1751
   23TMC2     C  361   3.476   2.511  14.189  0.4255 -1.0332  1.4433
   23TMC2     O  362   3.586   2.513  14.251  0.4416  0.3292 -0.1327
   23TMC2     H  363   3.677   2.618  14.028 -0.0438  0.8348 -2.1876
   23TMC2    H1  364   3.297   2.415  14.046 -0.6254  2.0916  1.0626
   23TMC2    H2  365   3.507   2.460  13.669  0.3544 -2.9408  0.0830
   23TMC2    C7  366   3.302   2.361  13.758 -0.3439  0.3070  0.0921
   23TMC2    C8  367   3.746   2.536  13.806  0.1993 -0.6089 -0.1260
   23TMC2    O1  368   3.352   2.301  13.664  0.5019  0.1715 -0.1793
   23TMC2    O2  369   3.835   2.601  13.854 -0.6494 -0.0921  0.1095
   23TMC2    O5  370   3.755   2.418  13.749  0.2542  0.2037  0.0678
   23TMC2    H5  371   3.660   2.400  13.737  0.4669 -0.5988 -0.4092
   24MPD2     C  372   3.190   2.449  14.598 -0.3723 -0.2101  0.5953
   24MPD2    C1  373   3.320   2.414  14.578  0.3459 -0.4292 -0.1440
   24MPD2    C2  374   3.376   2.440  14.458 -0.1651 -0.6999  0.1883
   24MPD2    C3  375   3.312   2.515  14.359 -0.0981 -0.7966 -0.2727
   24MPD2    C4  376   3.184   2.555  14.387  0.2497 -0.0174  0.4645
   24MPD2    C5  377   3.122   2.515  14.498 -0.5881  0.0899 -0.5162
   24MPD2     H  378   3.481   2.426  14.436 -0.5450  0.0668 -2.1077
   24MPD2    H1  379   3.127   2.611  14.313  2.1122  1.6998  0.3259
   24MPD2    H2  380   3.133   2.417  14.684 -0.6201 -2.3797 -0.3981
   24MPD2    H3  381   3.017   2.539  14.511 -1.2280 -1.3891 -3.1044
   24MPD2     N  382   3.352   2.536  14.228  0.0228 -0.4587 -0.6236
   24MPD2    H5  383   3.281   2.565  14.161  0.8044  0.5804 -1.0092
   24MPD2    N1  384   3.395   2.346  14.678 -0.9073 -0.0436 -0.2310
   24MPD2    H7  385   3.489   2.319  14.649 -0.1404  1.3976  0.9125
   25TMC2    C1  386   1.593   4.422  11.471  1.1476 -0.5145 -0.1533
   25TMC2    C2  387   1.584   4.542  11.400 -0.5461 -0.4798 -0.8271
   25TMC2    C3  388   1.483   4.631  11.437  0.2431 -0.0794 -0.0295
   25TMC2    C4  389   1.505   4.401  11.575 -0.5124 -0.0938 -0.0518
   25TMC2    C5  390   1.399   4.482  11.595  0.0895 -0.2651  0.0779
   25TMC2    C6  391   1.382   4.595  11.523 -0.5995  0.3869  0.3991
   25TMC2     C  392   1.711   4.341  11.457 -0.5474  0.3946 -1.3692
   25TMC2     O  393   1.810   4.399  11.413 -0.0831 -0.8796  0.0744
   25TMC2     H  394   1.663   4.556  11.328 -0.6328 -0.9036 -1.0048
   25TMC2    H1  395   1.527   4.313  11.633 -0.6565 -0.1262 -0.0457
   25TMC2    H2  396   1.295   4.658  11.538  0.7861  1.6981  2.8313
   25TMC2    C7  397   1.321   4.457  11.718 -0.2344  0.2496  0.4281
   25TMC2    C8  398   1.487   0.030  11.378  0.5787 -0.2880 -0.0959
   25TMC2    O1  399   1.373   4.446  11.827 -0.0749  0.3429 -0.2493
   25TMC2    O2  400   1.564   0.071  11.289  0.0623  0.0140  0.7637
   25TMC2    O5  401   1.414   0.106  11.462  0.6964 -0.2513 -0.5488
   25TMC2    H5  402   1.377   0.064  11.543 -0.2776  1.0315 -0.3337
   26MPD2     C  403   1.975   3.902  11.500 -0.0679 -0.4318  0.3011
   26MPD2    C1  404   1.839   3.875  11.512  1.2559 -0.2093  0.1827
   26MPD2    C2  405   1.749   3.979  11.513  0.1663  0.2356  0.0540
   26MPD2    C3  406   1.795   4.106  11.492 -0.2899  0.2968  0.3140
   26MPD2    C4  407   1.927   4.135  11.475  0.2961  0.2608 -0.1201
   26MPD2    C5  408   2.024   4.030  11.480  0.1320 -0.1523 -1.0545
   26MPD2     H  409   1.643   3.956  11.521  0.7290 -1.4853  2.7639
   26MPD2    H1  410   1.958   4.235  11.445 -2.4246  0.9018 -0.7464
   26MPD2    H2  411   2.039   3.815  11.498 -0.8372 -1.0613  2.8314
   26MPD2    H3  412   2.132   4.037  11.471  0.1453  2.8967  1.3573
   26MPD2     N  413   1.692   4.203  11.482  0.1573  0.4394 -0.7105
   26MPD2    H5  414   1.597   4.167  11.493  0.7200 -0.5038  1.0462
   26MPD2    N1  415   1.802   3.741  11.515 -0.1990  0.2856  0.0429
   26MPD2    H7  416   1.879   3.678  11.496 -0.6764 -0.8750  1.9643
   27TMC2    C1  417   1.011   1.952  11.705  0.3896  0.0140  0.4110
   27TMC2    C2  418   1.088   2.021  11.617  0.0141 -0.6694 -0.2496
   27TMC2    C3  419   1.204   2.066  11.664  0.2265 -0.4270 -0.1611
   27TMC2    C4  420   1.046   1.922  11.834 -0.1944 -0.5616 -0.1774
   27TMC2    C5  421   1.165   1.966  11.874  0.0600  0.6595 -0.2153
   27TMC2    C6  422   1.241   2.037  11.790 -0.0006 -0.0698  0.1559
   27TMC2     C  423   0.889   1.897  11.648 -0.4234 -0.6396 -0.7288
   27TMC2     O  424   0.900   1.863  11.530  0.5912  0.0299  0.2944
   27TMC2     H  425   1.048   2.044  11.518 -0.0150  0.3982  0.0074
   27TMC2    H1  426   0.989   1.849  11.890  0.1163 -0.3690  0.3906
   27TMC2    H2  427   1.331   2.080  11.833 -1.3757  3.2915 -0.3429
   27TMC2    C7  428   1.200   1.950  12.013 -0.2953  0.2603  0.5704
   27TMC2    C8  429   1.276   2.161  11.582 -0.3003  0.0068  0.3119
   27TMC2    O1  430   1.156   1.841  12.052  0.3377 -0.4872  0.3694
   27TMC2    O2  431   1.284   2.165  11.457 -0.4192 -0.2083  0.0434
   27TMC2    O5  432   1.368   2.221  11.659 -0.0193  0.4167 -0.3521
   27TMC2    H5  433   1.339   2.256  11.746  1.8135 -0.2989  0.5587
   28MPD2     C  434   0.410   1.726  11.630 -0.4862 -0.1913 -0.2022
   28MPD2    C1  435   0.448   1.746  11.767 -0.3224 -0.4651  0.0847
   28MPD2    C2  436   0.582   1.785  11.789 -0.6615 -0.6553 -0.2537
   28MPD2    C3  437   0.669   1.807  11.690 -0.1288 -0.1168  0.2384
   28MPD2    C4  438   0.631   1.797  11.560  0.1633 -0.3599 -1.0085
   28MPD2    C5  439   0.503   1.765  11.537  0.5783 -0.8060  0.5802
   28MPD2     H  440   0.618   1.772  11.890  1.3354  1.2699 -0.7422
   28MPD2    H1  441   0.695   1.821  11.476  1.6705 -3.1725 -0.6460
   28MPD2    H2  442   0.311   1.703  11.593 -1.2459  1.0557  1.0407
   28MPD2    H3  443   0.472   1.775  11.434 -1.5139  2.6345  1.5456
   28MPD2     N  444   0.793   1.855  11.731  0.4850  0.2189  0.0780
   28MPD2    H5  445   0.809   1.886  11.826  0.2455  1.2316 -0.2131
   28MPD2    N1  446   0.346   1.721  11.869  0.7747  0.0132  0.5700
   28MPD2    H7  447   0.256   1.696  11.829  0.7866  1.8890 -0.6066
   29TMC2    C1  448   0.895   4.114  14.054 -0.2826 -0.9556  0.6930
   29TMC2    C2  449   1.013   4.053  14.035  0.0573  0.1702 -0.1838
   29TMC2    C3  450   1.108   4.131  13.980  0.1768  0.0707 -0.1987
   29TMC2    C4  451   0.865   4.246  14.028 -0.5823 -0.2956 -0.5546
   29TMC2    C5  452   0.960   4.315  13.966  0.3034  0.2884  0.1865
   29TMC2    C6  453   1.085   4.264  13.949 -0.5040 -0.0185  0.4649
   29TMC2     C  454   0.792   4.013  14.092  0.4846  0.3463  0.2442
   29TMC2     O  455   0.829   3.917  14.151 -0.8998  0.1470 -0.1970
   29TMC2     H  456   1.032   3.950  14.063 -0.8717 -0.3332 -1.4459
   29TMC2    H1  457   0.769   4.294  14.038 -1.7304 -2.6360 -0.3799
   29TMC2    H2  458   1.155   4.328  13.897 -0.0492 -1.7819 -1.0881
   29TMC2    C7  459   0.926   4.449  13.924  0.1103 -0.1514  0.7798
   29TMC2    C8  460   1.233   4.062  13.943 -0.1539  0.6263  0.2747
   29TMC2    O1  461   0.809   4.482  13.897  0.1552 -0.3081  0.0198
   29TMC2    O2  462   1.265   3.965  14.009 -0.5680 -0.0954 -0.1610
   29TMC2    O5  463   1.315   4.150  13.895  0.8676 -0.3383 -0.3970
   29TMC2    H5  464   1.267   4.199  13.825 -1.8696  0.0994  1.7964
   30MPD2     C  465   0.354   3.761  13.994 -0.1958 -0.7697 -0.7007
   30MPD2    C1  466   0.478   3.710  14.025  1.1300  0.7062 -0.0931
   30MPD2    C2  467   0.583   3.798  14.042  0.2219  0.3397 -0.2001
   30MPD2    C3  468   0.564   3.936  14.021  0.5612  0.5771 -0.1504
   30MPD2    C4  469   0.439   3.978  13.986  0.4110  0.3675 -0.0971
   30MPD2    C5  470   0.337   3.891  13.965 -0.4739 -0.8685  0.1594
   30MPD2     H  471   0.679   3.752  14.062 -0.1669  0.5222  2.1304
   30MPD2    H1  472   0.423   4.081  13.959 -0.2252  0.4893  0.7472
   30MPD2    H2  473   0.269   3.697  13.970  0.6606 -3.3280  3.0538
   30MPD2    H3  474   0.243   3.922  13.921 -0.8568 -1.3510  0.6466
   30MPD2     N  475   0.665   4.037  14.040 -0.4150  0.5161  0.6927
   30MPD2    H5  476   0.638   4.129  14.006  1.7431  0.9453  0.2039
   30MPD2    N1  477   0.497   3.576  14.055 -0.4116  0.0012 -0.3229
   30MPD2    H7  478   0.588   3.552  14.093 -0.5937 -0.8065 -0.3896
   31TMC2    C1  479   3.063   2.953  15.094 -0.3785 -0.8272  0.4005
   31TMC2    C2  480   2.939   3.011  15.106 -0.3624  0.0851 -0.4602
   31TMC2    C3  481   2.867   2.979  15.221 -0.1554 -0.3607 -0.3612
   31TMC2    C4  482   3.116   2.857  15.177  0.4683  0.0030 -0.0768
   31TMC2    C5  483   3.041   2.835  15.287  0.0975 -0.3313 -0.2776
   31TMC2    C6  484   2.916   2.893  15.306  0.0043 -0.1900 -1.1204
   31TMC2     C  485   3.148   3.024  15.005  0.2668  0.0854 -0.2164
   31TMC2     O  486   3.089   3.053  14.901  0.1102 -0.3913 -0.1051
   31TMC2     H  487   2.908   3.095  15.045  1.8323  1.5321  0.3984
   31TMC2    H1  488   3.211   2.808  15.160  0.8588  0.0097  2.0919
   31TMC2    H2  489   2.863   2.873  15.398 -2.6306 -1.9271 -3.0245
   31TMC2    C7  490   3.079   2.728  15.377 -0.6958  0.3227  0.1996
   31TMC2    C8  491   2.761   3.061  15.263 -0.7555 -0.0818 -0.9090
   31TMC2    O1  492   3.055   2.730  15.497  0.2050  0.9286 -0.1033
   31TMC2    O2  493   2.733   3.080  15.379  0.4369  0.2208 -0.1453
   31TMC2    O5  494   2.681   3.078  15.155 -0.4636  0.4499 -0.6691
   31TMC2    H5  495   2.719   3.020  15.086  1.1694 -0.6608  1.1472
   32MPD2     C  496   3.593   3.165  14.803  0.4229 -0.1542 -0.0770
   32MPD2    C1  497   3.467   3.166  14.751  0.5518 -0.2540 -0.1660
   32MPD2    C2  498   3.360   3.128  14.833 -0.7928 -0.2148  0.5648
   32MPD2    C3  499   3.380   3.077  14.959  0.4692 -0.2916  0.5901
   32MPD2    C4  500   3.509   3.080  15.005 -0.4500  0.7246  0.6012
   32MPD2    C5  501   3.607   3.127  14.934  0.4487  0.3569  0.1386
   32MPD2     H  502   3.260   3.141  14.792 -0.1984  1.2839 -0.4323
   32MPD2    H1  503   3.545   3.049  15.102 -0.4469 -1.5319 -0.1174
   32MPD2    H2  504   3.685   3.184  14.748  0.1416 -0.9408 -0.8104
   32MPD2    H3  505   3.708   3.124  14.975 -0.1878 -0.2030  1.6421
   32MPD2     N  506   3.278   3.022  15.040 -0.2024 -0.1384 -0.4531
   32MPD2    H5  507   3.299   2.985  15.132 -1.6490 -1.1955 -0.5417
   32MPD2    N1  508   3.456   3.223  14.625  0.3000 -0.3920 -0.2564
   32MPD2    H7  509   3.542   3.210  14.573  0.8359 -0.6497  0.6944
   33TMC2    C1  510   2.528   0.877   9.874 -0.7042  0.1522  0.4830
   33TMC2    C2  511   2.430   0.813   9.803  0.0693 -0.4446  0.7348
   33TMC2    C3  512   2.354   0.883   9.715 -1.0777 -0.4496  0.1585
   33TMC2    C4  513   2.532   1.014   9.869  0.3255  0.2350 -0.1093
   33TMC2    C5  514   2.458   1.080   9.770 -0.2183  0.6641  0.7604
   33TMC2    C6  515   2.366   1.019   9.685 -0.3650 -0.4097 -0.0506
   33TMC2     C  516   2.617   0.801   9.957  0.3775  0.5011 -0.2915
   33TMC2     O  517   2.605   0.680   9.965  0.6803 -0.0788 -0.2543
   33TMC2     H  518   2.411   0.707   9.819  2.5698 -0.5808  2.8082
   33TMC2    H1  519   2.596   1.076   9.930 -1.4917  1.6892  0.2823
   33TMC2    H2  520   2.319   1.073   9.604  0.8251  1.3765  0.4478
   33TMC2    C7  521   2.514   1.211   9.729 -0.3652 -0.4613 -0.6797
   33TMC2    C8  522   2.261   0.809   9.629 -0.5510  0.2457  0.5261
   33TMC2    O1  523   2.628   1.233   9.765 -0.4299  0.3029 -0.6077
   33TMC2    O2  524   2.271   0.691   9.595 -0.3355  0.2339 -0.3193
   33TMC2    O5  525   2.145   0.878   9.621 -0.2700  0.0680  0.3103
   33TMC2    H5  526   2.147   0.952   9.685 -0.5128 -0.0922  0.4971
   34MPD2     C  527   2.961   0.780  10.350 -0.0046 -0.0572 -0.2798
   34MPD2    C1  528   2.860   0.694  10.314  0.1558  0.3205  0.7148
   34MPD2    C2  529   2.786   0.716  10.199  0.4910 -0.4339  0.6781
   34MPD2    C3  530   2.789   0.839  10.134  0.2814  0.7563 -0.3229
   34MPD2    C4  531   2.879   0.937  10.186  0.1709 -0.4747 -0.5412
   34MPD2    C5  532   2.968   0.903  10.288  0.4092 -0.5721 -0.7377
   34MPD2     H  533   2.708   0.647  10.167  0.5763 -0.2813  0.1336
   34MPD2    H1  534   2.877   1.038  10.146 -0.1014  0.0660  0.8297
   34MPD2    H2  535   3.030   0.763  10.432 -0.8903 -0.7810  0.3194
   34MPD2    H3  536   3.047   0.976  10.302  1.6028 -1.8555 -0.7484
   34MPD2     N  537   2.706   0.882  10.025  0.2927 -0.4040  0.4086
   34MPD2    H5  538   2.710   0.981  10.002  0.0890 -0.2851  0.8885
   34MPD2    N1  539   2.843   0.574  10.393  0.2450 -0.5466 -0.1074
   34MPD2    H7  540   2.888   0.575  10.484 -1.4951  2.0704  0.7210
   35TMC2    C1  541   3.618   1.592  10.857 -0.1952  0.1828  0.8035
   35TMC2    C2  542   3.510   1.620  10.774 -0.2054  0.0044 -0.8283
   35TMC2    C3  543   3.381   1.587  10.807  0.4653  0.7213  0.0364
   35TMC2    C4  544   3.592   1.533  10.972  0.4245 -0.3912 -0.2137
   35TMC2    C5  545   3.462   1.497  11.009 -0.0449  0.5592 -0.3652
   35TMC2    C6  546   3.358   1.524  10.921 -0.1510  0.2402 -1.1677
   35TMC2     C  547   3.748   1.647  10.821  0.8850  0.5581 -0.2926
   35TMC2     O  548   3.745   1.712  10.715 -0.2841  0.1309  0.1791
   35TMC2     H  549   3.531   1.679  10.686 -0.3078 -0.8767 -1.4406
   35TMC2    H1  550   3.670   1.522  11.045  1.5869  1.0709 -1.2344
   35TMC2    H2  551   3.256   1.500  10.948  0.5640  0.9283  2.0523
   35TMC2    C7  552   3.455   1.404  11.119 -0.1207 -0.5009  0.4553
   35TMC2    C8  553   3.286   1.569  10.693 -0.1133 -0.5686  0.5282
   35TMC2    O1  554   3.540   1.317  11.123 -0.0097 -0.0760 -0.2390
   35TMC2    O2  555   3.171   1.539  10.720  0.1312 -0.2217 -0.4627
   35TMC2    O5  556   3.359   1.515  10.593  0.2913 -0.4084  0.0608
   35TMC2    H5  557   3.454   1.521  10.618  1.0343 -0.9932 -2.5999
   36MPD2     C  558   4.247   1.719  10.838  0.0437  0.3537 -0.2230
   36MPD2    C1  559   4.214   1.647  10.951 -0.8733  0.0801  1.1329
   36MPD2    C2  560   4.077   1.610  10.972  0.0652 -0.1370 -0.1199
   36MPD2    C3  561   3.983   1.641  10.875  0.2171 -0.4371  0.1163
   36MPD2    C4  562   4.036   1.685  10.754  0.2408 -0.7024 -0.8366
   36MPD2    C5  563   4.163   1.726  10.734  0.3309 -0.2166  0.1236
   36MPD2     H  564   4.051   1.583  11.073  1.4597 -0.1353  0.2513
   36MPD2    H1  565   3.964   1.686  10.673  0.5306 -0.3758 -1.0919
   36MPD2    H2  566   4.347   1.758  10.826 -0.5388  1.9760  0.2046
   36MPD2    H3  567   4.201   1.756  10.637  3.9439 -2.0860  0.9367
   36MPD2     N  568   3.847   1.622  10.904 -0.2536 -0.3112 -0.5191
   36MPD2    H5  569   3.831   1.559  10.982  1.3218  1.4388  1.2239
   36MPD2    N1  570   4.318   1.636  11.050 -0.2878  0.4077 -0.2925
   36MPD2    H7  571   4.406   1.683  11.032  0.4137 -1.2058 -1.0849
   37TMC2    C1  572   1.366   1.031  11.958  0.5009 -0.7226 -0.0101
   37TMC2    C2  573   1.425   0.912  12.003  0.5755  0.2482 -0.6862
   37TMC2    C3  574   1.467   0.811  11.925 -0.8949 -1.2723  0.4891
   37TMC2    C4  575   1.367   1.049  11.825 -0.1512  0.1854  0.1966
   37TMC2    C5  576   1.426   0.957  11.744  0.3670 -0.1709  0.2076
   37TMC2    C6  577   1.486   0.843  11.794  0.2062  0.1342  0.3372
   37TMC2     C  578   1.388   1.152  12.035  0.0766  0.3060 -0.2618
   37TMC2     O  579   1.319   1.251  12.020  0.0915 -0.2450 -0.1597
   37TMC2     H  580   1.429   0.904  12.111 -0.0721 -0.9884 -0.7479
   37TMC2    H1  581   1.330   1.144  11.788  1.8080  0.7344 -0.3358
   37TMC2    H2  582   1.517   0.764  11.726  1.7303  0.4393  0.6810
   37TMC2    C7  583   1.466   1.013  11.618 -0.0186  0.6911  0.4841
   37TMC2    C8  584   1.428   0.672  11.948  0.5941 -0.1208  0.2118
   37TMC2    O1  585   1.396   1.108  11.577  0.4308 -0.2288 -0.1879
   37TMC2    O2  586   1.470   0.577  11.883  0.1739 -0.2292  0.6953
   37TMC2    O5  587   1.322   0.664  12.028 -0.4700 -0.2403  0.0192
   37TMC2    H5  588   1.294   0.746  12.075  0.7923  0.1274  0.1309
   38MPD2     C  589   1.764   1.464  12.205 -0.7634  0.1791 -0.4248
   38MPD2    C1  590   1.816   1.344  12.150 -0.2635 -0.1192  0.2561
   38MPD2    C2  591   1.727   1.241  12.115  0.5701 -0.3011  0.0758
   38MPD2    C3  592   1.590   1.256  12.135  0.6603 -0.7662  0.4014
   38MPD2    C4  593   1.541   1.381  12.163 -0.0496  0.5072  0.4753
   38MPD2    C5  594   1.628   1.484  12.204  0.2175 -0.2578 -0.1844
   38MPD2     H  595   1.769   1.161  12.056  0.5725 -2.0234  2.4019
   38MPD2    H1  596   1.434   1.395  12.173 -0.1857  1.5321 -2.3568
   38MPD2    H2  597   1.822   1.546  12.244 -1.2379 -0.2353  1.1592
   38MPD2    H3  598   1.585   1.579  12.237  0.9813  0.4044 -1.1134
   38MPD2     N  599   1.511   1.147  12.095 -0.7607 -0.4030 -0.4435
   38MPD2    H5  600   1.567   1.071  12.058 -0.3032 -0.4061  0.2675
   38MPD2    N1  601   1.951   1.324  12.126 -0.8238  0.9128 -0.0447
   38MPD2    H7  602   1.973   1.234  12.084  1.2735  0.8504  1.2009
   39TMC2    C1  603   0.463   4.025   1.300  0.2711 -0.4335  0.1204
   39TMC2    C2  604   0.583   4.013   1.237 -0.3162 -0.4723  0.1315
   39TMC2    C3  605   0.680   4.103   1.264 -0.6464  0.3666 -0.4278
   39TMC2    C4  606   0.437   4.132   1.386  0.4095 -0.0408 -0.2602
   39TMC2    C5  607   0.546   4.213   1.416 -0.7008  0.0832  0.3675
   39TMC2    C6  608   0.666   4.194   1.355  0.8301 -0.6168  0.0220
   39TMC2     C  609   0.355   3.931   1.274 -0.5479 -0.2613 -0.1508
   39TMC2     O  610   0.240   3.961   1.313 -0.3633 -0.4909  0.1768
   39TMC2     H  611   0.594   3.948   1.151 -0.7772 -0.6452  0.2042
   39TMC2    H1  612   0.341   4.141   1.435 -0.2477 -1.7128 -1.2495
   39TMC2    H2  613   0.750   4.260   1.378  0.7035 -0.2719 -0.5167
   39TMC2    C7  614   0.509   4.331   1.489  0.6346 -0.7276 -0.0721
   39TMC2    C8  615   0.811   4.091   1.208 -0.1281 -0.0437 -0.3936
   39TMC2    O1  616   0.397   4.326   1.542 -0.5675 -0.0748 -0.1306
   39TMC2    O2  617   0.880   4.189   1.198  0.0154 -0.0703  0.3339
   39TMC2    O5  618   0.864   3.970   1.242 -0.3422 -0.0901 -0.2779
   39TMC2    H5  619   0.790   3.904   1.245  2.6522 -3.3682  1.2581
   40MPD2     C  620   0.395   3.601   1.124  0.2291  0.1025  0.0202
   40MPD2    C1  621   0.327   3.706   1.181 -0.2686 -0.1363  0.0404
   40MPD2    C2  622   0.189   3.711   1.183 -0.1146  0.2416 -0.2758
   40MPD2    C3  623   0.123   3.602   1.127  0.0591 -0.0947  0.0689
   40MPD2    C4  624   0.196   3.490   1.094  0.9739  0.5664 -0.3521
   40MPD2    C5  625   0.331   3.488   1.100  1.2049 -0.0131 -0.0021
   40MPD2     H  626   0.138   3.806   1.198 -0.2379 -0.0622  1.2985
   40MPD2    H1  627   0.148   3.405   1.047  0.5693 -0.8192  2.5338
   40MPD2    H2  628   0.503   3.590   1.131  0.0115 -0.9041  1.9729
   40MPD2    H3  629   0.391   3.404   1.070  0.6187  0.0578 -1.3687
   40MPD2     N  630   4.725   3.608   1.103  0.4218 -0.0441 -0.1498
   40MPD2    H5  631   4.689   3.533   1.044  0.6641 -0.0046 -0.3451
   40MPD2    N1  632   0.402   3.818   1.215 -0.7392 -0.2752 -0.2163
   40MPD2    H7  633   0.501   3.804   1.200 -0.5891  0.1375  0.4024
   41TMC2    C1  634   4.321   1.829  12.901 -0.1394  0.1254 -0.1029
   41TMC2    C2  635   4.269   1.943  12.956 -0.0400  0.2897  0.3433
   41TMC2    C3  636   4.189   2.023  12.872  0.0160  0.2845  0.1104
   41TMC2    C4  637   4.308   1.796  12.768  0.7580 -0.1619  0.1042
   41TMC2    C5  638   4.214   1.868  12.701 -0.5835  0.8279  0.6216
   41TMC2    C6  639   4.152   1.982  12.752 -0.9185  0.8520  0.1098
   41TMC2     C  640   4.368   1.726  12.993  0.6245 -0.1379  0.8647
   41TMC2     O  641   4.402   1.616  12.943  0.6029  0.6691 -0.1207
   41TMC2     H  642   4.268   1.975  13.060 -0.0177 -2.3831  1.1658
   41TMC2    H1  643   4.350   1.704  12.729  1.8691  0.4190 -0.0483
   41TMC2    H2  644   4.086   2.047  12.695 -2.7281  0.1566  1.3961
   41TMC2    C7  645   4.222   1.841  12.557 -0.7346 -0.2604 -0.2394
   41TMC2    C8  646   4.107   2.116  12.947 -0.2232  0.0617  0.0962
   41TMC2    O1  647   4.323   1.787  12.519 -0.0601  0.8425 -0.4472
   41TMC2    O2  648   3.989   2.121  12.914 -0.8100 -0.1663  0.1897
   41TMC2    O5  649   4.184   2.208  13.007 -0.1619  0.3634 -0.5989
   41TMC2    H5  650   4.278   2.188  12.990 -0.0687  0.8790 -0.6844
   42MPD2     C  651   4.477   1.571  13.230  0.0843 -0.8462 -0.2120
   42MPD2    C1  652   4.423   1.698  13.239 -0.6923  0.1404  0.1794
   42MPD2    C2  653   4.419   1.758  13.356  0.0845  0.1750  0.0092
   42MPD2    C3  654   4.490   1.704  13.462  0.2888  0.2613  0.4188
   42MPD2    C4  655   4.552   1.576  13.458 -0.1025 -0.0565  0.2178
   42MPD2    C5  656   4.534   1.506  13.341  0.5585  0.4035  0.1396
   42MPD2     H  657   4.393   1.863  13.364  1.3869  0.4630  0.4844
   42MPD2    H1  658   4.599   1.530  13.544  0.1626  0.0535  0.1327
   42MPD2    H2  659   4.484   1.514  13.138 -0.9643 -0.5678 -0.4669
   42MPD2    H3  660   4.571   1.405  13.330 -0.2298  0.0074  1.1139
   42MPD2     N  661   4.493   1.763  13.590  0.2238 -0.3718  0.4797
   42MPD2    H5  662   4.548   1.715  13.661  0.8289 -0.3537  0.0170
   42MPD2    N1  663   4.371   1.767  13.126 -0.4445 -0.4139  0.1941
   42MPD2    H7  664   4.329   1.854  13.155 -1.0653 -0.6937  0.1299
   43TMC2    C1  665   0.259   0.076   0.729 -0.4929  0.0461  0.4800
   43TMC2    C2  666   0.147   0.086   0.649 -0.5931 -0.3036  0.2257
   43TMC2    C3  667   0.089   0.205   0.636 -0.0783  0.2940 -0.1101
   43TMC2    C4  668   0.310   0.178   0.801 -0.6830 -0.2383  0.2138
   43TMC2    C5  669   0.253   0.297   0.778  0.0051 -0.2713  0.5674
   43TMC2    C6  670   0.142   0.312   0.702  0.1540  0.0589  0.1528
   43TMC2     C  671   0.333   4.688   0.728 -0.2826 -0.6839 -0.1726
   43TMC2     O  672   0.454   4.687   0.750 -0.2504 -0.0940 -0.3789
   43TMC2     H  673   0.111   0.003   0.589  1.3424  0.2514 -1.7060
   43TMC2    H1  674   0.397   0.165   0.865  0.2505  0.9939 -0.8065
   43TMC2    H2  675   0.095   0.405   0.671  3.1978  1.2014 -0.9858
   43TMC2    C7  676   0.302   0.415   0.851 -0.0023  0.0540  0.1901
   43TMC2    C8  677   4.690   0.219   0.580  0.2622  0.1384  0.8999
   43TMC2    O1  678   0.379   0.393   0.943 -0.1872  0.3725 -0.1010
   43TMC2    O2  679   4.592   0.145   0.599  0.4138  0.1346 -0.5720
   43TMC2    O5  680   4.696   0.306   0.470  0.4163  0.1558 -0.3227
   43TMC2    H5  681   0.043   0.353   0.449  0.1184  0.3882 -0.9993
   44MPD2     C  682   0.295   4.187   0.596  0.0208  0.2803  0.5856
   44MPD2    C1  683   0.404   4.278   0.585 -0.0654 -0.0663 -0.2274
   44MPD2    C2  684   0.392   4.402   0.645 -0.6873 -0.2713 -1.2400
   44MPD2    C3  685   0.270   4.446   0.689 -0.6495  0.5534  1.1334
   44MPD2    C4  686   0.159   4.358   0.702  0.4755  0.4740 -0.2387
   44MPD2    C5  687   0.181   4.232   0.656  0.3067  0.0500 -0.8943
   44MPD2     H  688   0.475   4.469   0.626  0.6714 -1.3903  0.6185
   44MPD2    H1  689   0.060   4.391   0.731 -0.8051 -1.6198 -2.2094
   44MPD2    H2  690   0.283   4.089   0.550  0.1830  0.7667 -0.4890
   44MPD2    H3  691   0.097   4.163   0.652  1.2966 -1.1233 -1.4816
   44MPD2     N  692   0.242   4.583   0.721 -0.3287 -0.0273 -0.4692
   44MPD2    H5  693   0.154   4.603   0.768  0.6351 -0.5750  1.5790
   44MPD2    N1  694   0.536   4.232   0.549  0.5098  0.2605  1.1276
   44MPD2    H7  695   0.612   4.297   0.562  0.8341 -0.4613  2.8383
   45TMC2    C1  696   1.483   1.659  10.170  0.0623  0.1641  0.8906
   45TMC2    C2  697   1.469   1.582  10.284  0.2428  0.3262 -0.5116
   45TMC2    C3  698   1.426   1.642  10.397  0.0662  0.5546 -0.8457
   45TMC2    C4  699   1.457   1.791  10.172 -0.1533  0.3163  0.1968
   45TMC2    C5  700   1.428   1.851  10.291  0.0275  0.0470 -0.1642
   45TMC2    C6  701   1.402   1.775  10.403 -0.2778  0.0012  0.2086
   45TMC2     C  702   1.474   1.579  10.043 -0.4261 -0.0107 -0.1103
   45TMC2     O  703   1.524   1.465  10.064 -0.1182  0.3157  0.3134
   45TMC2     H  704   1.482   1.475  10.271  0.9466  0.2061  1.2523
   45TMC2    H1  705   1.475   1.843  10.079  1.8064 -0.3323  0.2137
   45TMC2    H2  706   1.362   1.824  10.491  0.2433 -3.9478  2.6591
   45TMC2    C7  707   1.400   1.989  10.296 -0.1060 -0.9163 -0.1515
   45TMC2    C8  708   1.363   1.559  10.497  0.2929 -0.0238  1.2525
   45TMC2    O1  709   1.404   2.041  10.406 -0.4969  0.0074  0.4136
   45TMC2    O2  710   1.254   1.570  10.547 -0.8992  0.0291  0.3236
   45TMC2    O5  711   1.449   1.464  10.538  0.3118  0.5551 -0.0157
   45TMC2    H5  712   1.531   1.459  10.484  0.9962  1.4783  0.9372
   46MPD2     C  713   1.387   1.401   9.818 -0.0040  0.2072 -0.1631
   46MPD2    C1  714   1.372   1.539   9.822 -0.4492 -0.0449  0.0078
   46MPD2    C2  715   1.309   1.599   9.715  0.0758 -0.0562  0.0797
   46MPD2    C3  716   1.259   1.528   9.608 -1.1733 -1.0215  0.2299
   46MPD2    C4  717   1.277   1.387   9.606  0.9148 -0.4907 -0.2959
   46MPD2    C5  718   1.342   1.327   9.712 -0.0784 -0.5029 -1.4646
   46MPD2     H  719   1.302   1.707   9.712 -0.3407 -0.0189  2.1841
   46MPD2    H1  720   1.247   1.320   9.526 -2.2499  0.2706  0.2636
   46MPD2    H2  721   1.447   1.343   9.887  0.2796 -1.0067 -1.4368
   46MPD2    H3  722   1.359   1.220   9.721 -1.3334 -0.5446  0.3188
   46MPD2     N  723   1.202   1.595   9.500  0.4432 -0.6773  0.7797
   46MPD2    H5  724   1.207   1.695   9.518  1.1621 -0.3135 -1.5457
   46MPD2    N1  725   1.406   1.621   9.935 -0.2987 -0.5160 -0.1841
   46MPD2    H7  726   1.372   1.717   9.929 -0.9988 -0.9719 -3.4860
   47TMC2    C1  727   3.605   3.602   8.658 -0.3932 -0.6470 -0.4148
   47TMC2    C2  728   3.632   3.638   8.529  0.1150  0.0278  0.4694
   47TMC2    C3  729   3.546   3.715   8.469 -0.2532 -0.7781  0.6346
   47TMC2    C4  730   3.510   3.667   8.731  0.7253  0.2465  0.3773
   47TMC2    C5  731   3.422   3.746   8.659 -0.4894  0.2710 -0.6970
   47TMC2    C6  732   3.432   3.766   8.525  0.2701 -0.0212 -0.1116
   47TMC2     C  733   3.712   3.534   8.718 -0.2671 -0.0788 -0.8672
   47TMC2     O  734   3.821   3.529   8.663  0.1254 -0.2836 -0.8392
   47TMC2     H  735   3.708   3.582   8.475 -0.9288 -1.0197  0.0825
   47TMC2    H1  736   3.495   3.662   8.838  2.1680  0.1983  0.5777
   47TMC2    H2  737   3.360   3.827   8.472  0.9913  1.1695  0.2746
   47TMC2    C7  738   3.310   3.812   8.729  0.1467  0.8550 -0.3521
   47TMC2    C8  739   3.572   3.747   8.327 -0.4015  0.0163  0.8266
   47TMC2    O1  740   3.275   3.913   8.671  0.5287  0.0544 -0.7611
   47TMC2    O2  741   3.483   3.762   8.243 -0.0495 -0.5416 -0.2315
   47TMC2    O5  742   3.701   3.762   8.304  0.1175  0.5006 -0.1546
   47TMC2    H5  743   3.748   3.755   8.390 -0.0019 -0.7081 -0.1832
   48MPD2     C  744   3.874   3.406   8.938  0.6789 -0.3420 -0.2634
   48MPD2    C1  745   3.739   3.384   8.912 -0.4856 -0.0150  0.6909
   48MPD2    C2  746   3.666   3.276   8.971  0.0753 -0.2332  1.1374
   48MPD2    C3  747   3.737   3.194   9.058  0.4463  0.1429  0.5075
   48MPD2    C4  748   3.872   3.223   9.087  0.1064  0.0022 -0.0495
   48MPD2    C5  749   3.939   3.327   9.026 -0.4531  0.1285 -0.0035
   48MPD2     H  750   3.566   3.256   8.936  0.2697  1.1243 -0.1812
   48MPD2    H1  751   3.935   3.162   9.150 -0.6098 -0.3260  0.3579
   48MPD2    H2  752   3.936   3.479   8.887 -0.5843  0.2332 -0.9894
   48MPD2    H3  753   4.043   3.344   9.050  0.0928 -3.6241  0.2369
   48MPD2     N  754   3.695   3.073   9.103 -0.3405 -0.3312  0.7290
   48MPD2    H5  755   3.762   3.017   9.154 -0.9456  2.0981  4.1748
   48MPD2    N1  756   3.661   3.472   8.826 -0.3150 -0.4028  0.1707
   48MPD2    H7  757   3.561   3.459   8.838 -0.6351  0.5429 -1.5253
   49TMC2    C1  758   1.950   4.214   9.670  0.5866 -0.5966 -0.3404
   49TMC2    C2  759   2.048   4.153   9.598  0.2201  0.2672 -0.3737
   49TMC2    C3  760   2.035   4.019   9.577  0.7186 -0.0176  0.8649
   49TMC2    C4  761   1.852   4.139   9.726  0.3277  0.6969 -0.2559
   49TMC2    C5  762   1.845   4.006   9.712  0.1263  0.0549 -0.1199
   49TMC2    C6  763   1.942   3.940   9.633  0.4823  0.2286 -0.5898
   49TMC2     C  764   1.971   4.349   9.714 -0.0898  0.0740 -0.8972
   49TMC2     O  765   2.080   4.397   9.709  0.0450  0.2713 -0.1339
   49TMC2     H  766   2.132   4.203   9.552  1.6778 -1.9000 -0.0426
   49TMC2    H1  767   1.779   4.189   9.788  0.1864  2.6753 -2.0461
   49TMC2    H2  768   1.940   3.834   9.608  1.5883  0.9469 -3.8155
   49TMC2    C7  769   1.746   3.932   9.787  0.4497  0.3655 -0.1051
   49TMC2    C8  770   2.144   3.965   9.499 -0.0087 -0.5606 -0.0950
   49TMC2    O1  771   1.659   4.005   9.838  0.2760 -0.0977  0.0745
   49TMC2    O2  772   2.257   4.016   9.494 -0.7722  0.6837  0.3971
   49TMC2    O5  773   2.124   3.853   9.425 -0.1307 -0.2093 -0.0549
   49TMC2    H5  774   2.033   3.816   9.419 -1.1936  2.3016  0.5246
   50MPD2     C  775   1.941   4.589   9.876 -0.5109  0.3285 -0.1145
   50MPD2    C1  776   1.845   4.547   9.789 -0.5678 -0.3101  0.3956
   50MPD2    C2  777   1.726   4.615   9.778 -0.2400 -0.5750 -1.2003
   50MPD2    C3  778   1.707   0.000   9.849 -0.1302 -0.1685  0.2139
   50MPD2    C4  779   1.803   0.035   9.943 -0.0429  0.0728 -0.4295
   50MPD2    C5  780   1.911   4.687   9.958  0.6619 -1.1871 -0.2889
   50MPD2     H  781   1.652   4.577   9.709 -0.7270 -0.5813 -0.6748
   50MPD2    H1  782   1.798   0.118  10.013 -2.1564 -0.7442  0.3874
   50MPD2    H2  783   2.031   4.534   9.903 -0.8124 -0.0261  0.1781
   50MPD2    H3  784   1.990   4.706  10.030  1.2160 -0.5155 -1.0678
   50MPD2     N  785   1.595   0.089   9.843 -0.3683 -0.2093 -0.0095
   50MPD2    H5  786   1.595   0.143   9.929 -0.0146 -2.1123  1.1974
   50MPD2    N1  787   1.852   4.422   9.721 -0.3310 -0.6021 -0.2737
   50MPD2    H7  788   1.765   4.385   9.684 -0.3662  0.5044 -1.2808
   51TMC2    C1  789   2.225   3.222   0.910 -0.2564  0.5229  0.9436
   51TMC2    C2  790   2.122   3.265   0.984 -0.1405  0.6503  0.6867
   51TMC2    C3  791   2.101   3.396   0.989 -0.1806  0.5104 -0.0486
   51TMC2    C4  792   2.309   3.312   0.857 -0.6801 -0.1802 -0.0162
   51TMC2    C5  793   2.295   3.446   0.865  0.6980 -0.1638 -0.3595
   51TMC2    C6  794   2.186   3.493   0.936  0.3077 -0.6570  0.4747
   51TMC2     C  795   2.284   3.090   0.915 -0.0002  0.3489  0.4660
   51TMC2     O  796   2.365   3.065   0.834  0.3056 -0.3028 -0.6391
   51TMC2     H  797   2.057   3.203   1.045  0.3783 -0.3536  0.2084
   51TMC2    H1  798   2.399   3.268   0.815 -0.3137  1.3752 -0.8268
   51TMC2    H2  799   2.179   3.601   0.937  0.0798 -0.6794  2.1095
   51TMC2    C7  800   2.414   3.524   0.866  0.2094 -0.2994 -0.0829
   51TMC2    C8  801   1.966   3.432   1.034  0.2208 -0.0868  0.0053
   51TMC2    O1  802   2.386   3.644   0.852  0.5633  0.0119  0.2432
   51TMC2    O2  803   1.873   3.379   0.976 -0.4003 -0.1328  0.1804
   51TMC2    O5  804   1.974   3.478   1.160  0.0913 -0.0284  0.3077
   51TMC2    H5  805   2.068   3.490   1.183  0.7555 -0.7133 -2.0618
   52MPD2     C  806   2.482   2.720   1.209 -0.3782  0.1702 -0.2366
   52MPD2    C1  807   2.538   2.790   1.103 -0.0887  0.6216  0.1348
   52MPD2    C2  808   2.468   2.894   1.047  0.2244 -0.3810 -0.1820
   52MPD2    C3  809   2.336   2.927   1.090  0.6921  0.1194 -0.5051
   52MPD2    C4  810   2.297   2.870   1.212 -0.4725 -0.4339  0.4750
   52MPD2    C5  811   2.365   2.765   1.263 -0.9083  0.3097 -0.3716
   52MPD2     H  812   2.524   2.932   0.962  0.7385 -0.8735 -0.0664
   52MPD2    H1  813   2.205   2.893   1.264 -1.5940  0.8394 -2.0756
   52MPD2    H2  814   2.536   2.640   1.259 -0.3245  0.5741  0.3543
   52MPD2    H3  815   2.317   2.705   1.339  0.4917 -1.4214 -0.8542
   52MPD2     N  816   2.257   3.031   1.035  0.2633  0.2062  0.2154
   52MPD2    H5  817   2.179   3.064   1.090  0.8086 -0.3889  1.3398
   52MPD2    N1  818   2.658   2.757   1.043 -0.2293 -0.1818  0.2464
   52MPD2    H7  819   2.692   2.817   0.969 -1.2785  0.5935  0.3811
   53TMC2    C1  820   1.812   1.520  11.174  1.1963  0.0641  0.1772
   53TMC2    C2  821   1.864   1.581  11.061  0.7076  0.9638 -0.2921
   53TMC2    C3  822   1.846   1.712  11.047 -0.5039  0.0517 -0.1540
   53TMC2    C4  823   1.757   1.592  11.283 -0.5098  0.3422  0.5897
   53TMC2    C5  824   1.732   1.726  11.257  0.4503  0.2604 -0.0739
   53TMC2    C6  825   1.783   1.786  11.151  0.0014  0.6277  0.0179
   53TMC2     C  826   1.822   1.374  11.180 -0.0945 -0.5733  0.0654
   53TMC2     O  827   1.875   1.317  11.089  0.2684 -1.1783  0.1961
   53TMC2     H  828   1.880   1.517  10.974 -2.8714  0.5728 -0.6399
   53TMC2    H1  829   1.736   1.545  11.378  0.3100 -0.6934  0.2496
   53TMC2    H2  830   1.757   1.891  11.141  3.2796  1.2192 -2.4049
   53TMC2    C7  831   1.680   1.807  11.357 -0.0280  0.4047 -0.3414
   53TMC2    C8  832   1.887   1.790  10.927  0.1881  0.1369  0.2040
   53TMC2    O1  833   1.703   1.930  11.348 -0.0916 -0.0461 -0.3780
   53TMC2    O2  834   1.872   1.911  10.929  0.3875  0.4566  0.3828
   53TMC2    O5  835   1.982   1.731  10.853 -0.0249 -0.1434  0.4989
   53TMC2    H5  836   2.003   1.636  10.868 -1.6908 -0.2573  2.1551
   54MPD2     C  837   1.833   1.089  11.259 -0.3150  0.3658  0.6969
   54MPD2    C1  838   1.744   1.180  11.318 -0.2963  0.3483  0.8571
   54MPD2    C2  839   1.652   1.135  11.413  0.2042 -0.6873  0.3445
   54MPD2    C3  840   1.659   1.003  11.459 -0.5593  0.0467  0.0973
   54MPD2    C4  841   1.740   0.911  11.388 -0.1519 -0.1274  0.6709
   54MPD2    C5  842   1.820   0.953  11.286 -0.6586  0.7114 -0.0501
   54MPD2     H  843   1.592   1.209  11.464 -1.6211 -1.0126 -1.3415
   54MPD2    H1  844   1.736   0.808  11.421  2.2441 -0.0966  1.0703
   54MPD2    H2  845   1.921   1.119  11.204 -1.3415 -0.7090 -1.5590
   54MPD2    H3  846   1.900   0.888  11.252 -2.4379 -2.3135  1.5563
   54MPD2     N  847   1.574   0.947  11.565  0.0413  0.0598 -0.0388
   54MPD2    H5  848   1.599   0.862  11.614 -1.5348  0.4259  1.3909
   54MPD2    N1  849   1.753   1.318  11.287  0.0753  0.0054  0.5493
   54MPD2    H7  850   1.691   1.383  11.335  0.4333  0.7776 -0.0332
   55TMC2    C1  851   3.628   0.912   0.003  0.4748 -0.8080  0.8400
   55TMC2    C2  852   3.603   0.867  17.617  0.3612  0.2996 -0.1507
   55TMC2    C3  853   3.586   0.734  17.607  0.1544 -0.6373 -0.4744
   55TMC2    C4  854   3.656   0.827   0.102  0.1229 -0.1029 -0.4605
   55TMC2    C5  855   3.660   0.691   0.079  0.4678 -0.2548 -1.0477
   55TMC2    C6  856   3.610   0.645  17.707  0.2760  0.3920  0.4471
   55TMC2     C  857   3.566   1.036   0.044  0.3154  0.1049  0.2267
   55TMC2     O  858   3.538   1.059   0.163 -0.1377  0.4799  0.0271
   55TMC2     H  859   3.586   0.933  17.533  0.5817  0.9862  0.3462
   55TMC2    H1  860   3.671   0.868   0.201 -2.3372  0.2527 -0.2251
   55TMC2    H2  861   3.585   0.541  17.688  0.5104 -0.0580  2.6615
   55TMC2    C7  862   3.654   0.597   0.192  0.6263  0.6875 -0.2590
   55TMC2    C8  863   3.523   0.673  17.499 -0.1834  0.0445 -0.0513
   55TMC2    O1  864   3.621   0.644   0.298  0.2422 -0.3833  0.5213
   55TMC2    O2  865   3.542   0.558  17.456  0.6195 -0.5935 -0.1036
   55TMC2    O5  866   3.420   0.750  17.460 -0.6288  0.3871 -0.4433
   55TMC2    H5  867   3.405   0.829  17.516 -1.0022 -0.1233  0.1761
   56MPD2     C  868   3.479   1.337  17.596  0.4304 -0.2426  0.5735
   56MPD2    C1  869   3.466   1.237  17.698  0.5929  0.2682 -0.1021
   56MPD2    C2  870   3.376   1.247   0.055  1.2285  0.5209  0.9084
   56MPD2    C3  871   3.301   1.361   0.067  0.0020  0.5792 -0.1971
   56MPD2    C4  872   3.308   1.458  17.713  0.3374 -0.1783  0.2210
   56MPD2    C5  873   3.392   1.444  17.607 -0.6211  0.0739  0.1325
   56MPD2     H  874   3.354   1.171   0.130 -0.4339  0.5815  0.4994
   56MPD2    H1  875   3.237   1.539  17.719  1.2491  0.6458 -0.0344
   56MPD2    H2  876   3.558   1.339  17.521 -3.4806 -3.3481 -3.6366
   56MPD2    H3  877   3.387   1.517  17.527  1.3288  0.8610  0.7495
   56MPD2     N  878   3.204   1.366   0.169 -0.6701 -0.3965  0.1342
   56MPD2    H5  879   3.211   1.282   0.226 -1.0278 -1.1206 -0.8968
   56MPD2    N1  880   3.545   1.119  17.679 -0.1172 -0.0047  0.9226
   56MPD2    H7  881   3.584   1.104  17.586  1.9553  2.8736  1.3332
   57TMC2    C1  882   2.535   0.865  13.509 -0.1957  0.7575 -0.2426
   57TMC2    C2  883   2.451   0.786  13.435  0.5041  0.4421 -0.3740
   57TMC2    C3  884   2.458   0.648  13.441 -0.1001  0.5010  0.2455
   57TMC2    C4  885   2.629   0.804  13.599  0.2538 -0.0875  0.8216
   57TMC2    C5  886   2.634   0.665  13.593 -0.3443  0.1289  0.8737
   57TMC2    C6  887   2.548   0.588  13.515 -1.2657  0.0699  0.0770
   57TMC2     C  888   2.483   0.994  13.538  0.2515  0.5711 -0.3931
   57TMC2     O  889   2.428   1.044  13.444  0.2082  0.3584  0.0247
   57TMC2     H  890   2.387   0.829  13.359  1.1128 -0.1985 -1.2533
   57TMC2    H1  891   2.688   0.865  13.666  3.2790 -1.2676 -0.7662
   57TMC2    H2  892   2.546   0.480  13.528 -0.0484  0.1442  0.8562
   57TMC2    C7  893   2.758   0.604  13.628 -0.0721 -0.1067  0.2899
   57TMC2    C8  894   2.345   0.562  13.420 -0.0703 -0.0779  0.4145
   57TMC2    O1  895   2.822   0.629  13.727  0.5969 -0.9064  1.0290
   57TMC2    O2  896   2.344   0.442  13.430  0.4625  0.1282  0.1056
   57TMC2    O5  897   2.231   0.636  13.445 -0.4961  0.0383 -0.2659
   57TMC2    H5  898   2.240   0.733  13.459  0.9284 -0.2411  0.7970
   58MPD2     C  899   2.243   1.339  13.832 -0.2356 -0.5031 -0.5611
   58MPD2    C1  900   2.215   1.292  13.704  0.5111  0.1315  0.0625
   58MPD2    C2  901   2.286   1.185  13.658  0.7876  0.3136  0.6617
   58MPD2    C3  902   2.388   1.123  13.732 -0.0641  0.8722  0.4808
   58MPD2    C4  903   2.401   1.162  13.866 -0.5139 -0.1305  0.6821
   58MPD2    C5  904   2.329   1.274  13.914  0.2498 -0.4873  0.6453
   58MPD2     H  905   2.262   1.153  13.557  0.6659 -1.0195  1.1215
   58MPD2    H1  906   2.481   1.109  13.915  0.8545  0.9926 -0.3490
   58MPD2    H2  907   2.198   1.426  13.879  0.6991 -0.8967  1.0607
   58MPD2    H3  908   2.342   1.310  14.015  0.6313  2.6171 -0.4745
   58MPD2     N  909   2.466   1.018  13.676  0.0975 -0.0408 -0.1485
   58MPD2    H5  910   2.508   0.959  13.747  0.7213  0.5352 -0.0343
   58MPD2    N1  911   2.112   1.344  13.627 -0.1568 -0.3355  0.2961
   58MPD2    H7  912   2.090   1.304  13.536 -1.8475  0.2467  0.4336
   59TMC2    C1  913   0.420   1.278  12.176  0.5544  0.1238  0.1169
   59TMC2    C2  914   0.511   1.179  12.179  0.0935  0.3408  0.4543
   59TMC2    C3  915   0.535   1.110  12.061 -0.1096 -0.4372  0.0254
   59TMC2    C4  916   0.338   1.299  12.073  0.0717 -0.1643  0.4939
   59TMC2    C5  917   0.360   1.228  11.953  0.0314  0.1949 -0.4201
   59TMC2    C6  918   0.465   1.142  11.944  0.2026 -0.0854  0.1735
   59TMC2     C  919   0.435   1.382  12.275  0.7010 -0.6931 -0.8009
   59TMC2     O  920   0.402   1.492  12.223  0.5490  0.1993 -0.2935
   59TMC2     H  921   0.582   1.172  12.260 -0.9638 -1.4494  1.2196
   59TMC2    H1  922   0.274   1.387  12.073  2.0822  1.3008 -0.1332
   59TMC2    H2  923   0.496   1.099  11.850 -3.1055 -0.7470 -0.5912
   59TMC2    C7  924   0.279   1.267  11.840  0.6113  0.5804  0.0808
   59TMC2    C8  925   0.610   0.989  12.075 -0.0400 -0.1869 -0.0475
   59TMC2    O1  926   0.210   1.366  11.850 -0.5246  0.1519 -0.4646
   59TMC2    O2  927   0.619   0.929  11.968 -0.4498 -0.2137  0.1355
   59TMC2    O5  928   0.581   0.933  12.192 -0.0742  0.6594 -0.3890
   59TMC2    H5  929   0.531   0.991  12.254 -2.2410 -0.0768 -1.4377
   60MPD2     C  930   0.492   1.570  12.497  0.1411  0.1517 -0.5468
   60MPD2    C1  931   0.501   1.436  12.504  0.3995 -0.1941  0.7171
   60MPD2    C2  932   0.558   1.381  12.618  0.3707 -0.0260  0.1378
   60MPD2    C3  933   0.598   1.461  12.723 -0.0752 -0.3236 -0.3806
   60MPD2    C4  934   0.576   1.598  12.717 -0.1779 -0.1704  0.2282
   60MPD2    C5  935   0.528   1.652  12.604  0.3766 -0.5203  0.6067
   60MPD2     H  936   0.550   1.273  12.618 -0.9837  0.0798 -1.3100
   60MPD2    H1  937   0.608   1.670  12.792 -0.8295  1.8895 -1.4701
   60MPD2    H2  938   0.426   1.612  12.422 -2.2499  0.4002  1.7225
   60MPD2    H3  939   0.505   1.758  12.599  0.1711 -0.5881  0.1165
   60MPD2     N  940   0.641   1.402  12.847  0.5016  0.2270  0.1655
   60MPD2    H5  941   0.672   1.472  12.914  1.4024  1.6858 -1.7621
   60MPD2    N1  942   0.482   1.346  12.397 -0.1105  0.1339  0.4466
   60MPD2    H7  943   0.495   1.245  12.404 -0.3957  0.0190 -0.5954
   61TMC2    C1  944   4.172   2.640  15.387  1.0201  0.1753  0.6587
   61TMC2    C2  945   4.165   2.589  15.510 -0.7659 -0.1933 -0.4897
   61TMC2    C3  946   4.108   2.665  15.608 -0.7445  0.3634  0.6322
   61TMC2    C4  947   4.117   2.756  15.349 -0.2063  0.1729  0.7766
   61TMC2    C5  948   4.073   2.839  15.458 -0.3179 -0.0398  0.3616
   61TMC2    C6  949   4.073   2.795  15.587 -0.4009 -0.0961  0.7870
   61TMC2     C  950   4.236   2.546  15.292  0.0934  0.3958 -0.7236
   61TMC2     O  951   4.253   2.426  15.323  0.5574  0.7484 -0.0576
   61TMC2     H  952   4.193   2.486  15.530  1.3930  0.5705  0.4799
   61TMC2    H1  953   4.116   2.794  15.247  0.6278 -1.3400  0.2051
   61TMC2    H2  954   4.041   2.847  15.676 -1.1198 -1.8085  1.5356
   61TMC2    C7  955   4.100   2.975  15.433  0.0117  0.8649 -0.1282
   61TMC2    C8  956   4.116   2.610  15.738 -0.3314  0.0937 -0.0539
   61TMC2    O1  957   4.154   3.001  15.325 -0.1135  0.6363  0.1677
   61TMC2    O2  958   4.201   2.530  15.756  0.0633  0.2657  0.0063
   61TMC2    O5  959   4.000   2.634  15.808  0.0359 -0.2052 -0.2963
   61TMC2    H5  960   3.923   2.671  15.759  0.4479  1.2958  0.2032
   62MPD2     C  961   4.300   2.413  15.030  0.5784 -0.4212 -1.0582
   62MPD2    C1  962   4.317   2.549  15.059 -0.5326  0.4937  0.1824
   62MPD2    C2  963   4.360   2.630  14.962 -0.0048  0.1190  0.8946
   62MPD2    C3  964   4.398   2.579  14.840  1.0404 -0.2583 -0.5194
   62MPD2    C4  965   4.391   2.451  14.814 -0.1295 -0.2004  0.6225
   62MPD2    C5  966   4.336   2.367  14.908  0.8135 -0.4503  0.5319
   62MPD2     H  967   4.358   2.737  14.976  1.3962  0.2705 -0.1764
   62MPD2    H1  968   4.424   2.412  14.718 -2.8606 -1.6624  0.2709
   62MPD2    H2  969   4.257   2.338  15.094  0.4346  1.9057  1.5489
   62MPD2    H3  970   4.327   2.260  14.895  0.9056 -0.7403  2.8243
   62MPD2     N  971   4.475   2.654  14.745 -0.2980  0.6532 -0.0101
   62MPD2    H5  972   4.505   2.603  14.663 -4.7478 -1.5156 -0.2660
   62MPD2    N1  973   4.278   2.614  15.176  0.1708 -0.1337  0.1767
   62MPD2    H7  974   4.266   2.714  15.167 -1.0101 -0.3676 -0.8070
   63TMC2    C1  975   3.520   2.366  10.694  0.5418 -0.2656 -0.5221
   63TMC2    C2  976   3.599   2.433  10.782 -0.5226 -0.0456  0.1456
   63TMC2    C3  977   3.668   2.540  10.735 -0.2493 -0.0144  0.0898
   63TMC2    C4  978   3.493   2.414  10.569  0.5169  0.0338 -0.4759
   63TMC2    C5  979   3.565   2.525  10.528 -0.2458 -0.1792  0.1969
   63TMC2    C6  980   3.653   2.584  10.610 -0.2880 -0.2340  0.1445
   63TMC2     C  981   3.418   2.281  10.757  0.4887 -0.2542 -0.5571
   63TMC2     O  982   3.416   2.278  10.878  0.5329  0.2869 -0.3443
   63TMC2     H  983   3.585   2.408  10.887  3.4610  0.7617  0.8742
   63TMC2    H1  984   3.427   2.360  10.503 -0.7161  1.5849 -0.5071
   63TMC2    H2  985   3.696   2.680  10.586 -0.4205 -0.5024 -1.1515
   63TMC2    C7  986   3.515   2.590  10.412  0.0431  0.0122  1.0246
   63TMC2    C8  987   3.777   2.591  10.803  0.0024 -0.3313  0.1034
   63TMC2    O1  988   3.416   2.536  10.366  0.1321  0.4058 -0.0734
   63TMC2    O2  989   3.816   2.704  10.796  0.1495  0.0911  0.7062
   63TMC2    O5  990   3.796   2.500  10.902  1.1729 -0.5363  0.4191
   63TMC2    H5  991   3.755   2.411  10.896 -3.1611  1.4720 -0.1276
   64MPD2     C  992   3.048   1.928  10.725  0.2818 -0.7360  0.8964
   64MPD2    C1  993   3.121   1.922  10.605  0.0998 -0.0320  0.3431
   64MPD2    C2  994   3.227   2.009  10.585 -0.3091 -0.0676 -0.0811
   64MPD2    C3  995   3.257   2.104  10.683 -0.0147  0.8443  0.1889
   64MPD2    C4  996   3.182   2.108  10.800  0.5156 -0.1898  0.1431
   64MPD2    C5  997   3.074   2.017  10.822  0.0721 -0.1307  0.0035
   64MPD2     H  998   3.276   2.020  10.489 -0.1093 -1.9716 -0.2038
   64MPD2    H1  999   3.204   2.177  10.880 -0.2526 -0.5677  0.6757
   64MPD2    H2 1000   2.958   1.868  10.732  0.4883 -0.6733  4.1357
   64MPD2    H3 1001   3.013   2.019  10.912  2.8594  2.0049  1.8349
   64MPD2     N 1002   3.365   2.194  10.659 -0.5896 -0.1355  0.3103
   64MPD2    H5 1003   3.399   2.188  10.563  1.2986  0.5906  0.9546
   64MPD2    N1 1004   3.096   1.822  10.509  0.0766 -0.8703  0.9341
   64MPD2    H7 1005   3.160   1.813  10.431 -0.7367  1.4462  0.0040
   65TMC2    C1 1006   0.190   2.322  15.500 -0.1619  0.0714  0.1420
   65TMC2    C2 1007   0.234   2.277  15.379  0.6069  0.1155 -0.0070
   65TMC2    C3 1008   0.267   2.374  15.283  0.0407  0.0342  0.0532
   65TMC2    C4 1009   0.162   2.448  15.526  0.0448  0.1473  0.6041
   65TMC2    C5 1010   0.175   2.536  15.427  0.0114 -0.4509 -0.1006
   65TMC2    C6 1011   0.229   2.506  15.304 -0.0252 -0.8259 -0.1253
   65TMC2     C 1012   0.161   2.232  15.607 -0.1627 -0.3853 -0.4084
   65TMC2     O 1013   0.129   2.268  15.716  0.4105 -0.1860  0.8041
   65TMC2     H 1014   0.271   2.176  15.368  1.2042  0.4289 -0.9142
   65TMC2    H1 1015   0.122   2.481  15.621  2.7801  2.1478  1.0528
   65TMC2    H2 1016   0.246   2.588  15.235  2.8913 -0.0240  1.5447
   65TMC2    C7 1017   0.162   2.680  15.457 -0.6759  0.0708 -0.5905
   65TMC2    C8 1018   0.296   2.328  15.151 -0.0323  0.0173  0.6933
   65TMC2    O1 1019   0.196   2.753  15.363 -0.6485 -0.4689 -1.2615
   65TMC2    O2 1020   0.282   2.211  15.117 -0.3630 -0.0040  0.7108
   65TMC2    O5 1021   0.390   2.418  15.103 -0.6579 -0.6137  0.4116
   65TMC2    H5 1022   0.393   2.494  15.165  0.5775 -2.1545  2.2663
   66MPD2     C 1023   0.132   1.964  15.742  0.3871 -0.0897  0.3219
   66MPD2    C1 1024   0.127   1.977  15.607  0.5851 -0.3782  0.6176
   66MPD2    C2 1025   0.084   1.873  15.524 -0.3769 -0.2471 -0.1250
   66MPD2    C3 1026   0.053   1.749  15.587 -0.4245 -0.0554  0.4133
   66MPD2    C4 1027   0.044   1.741  15.723  0.0562 -0.0948 -0.1042
   66MPD2    C5 1028   0.099   1.846  15.799  0.6138  0.1103  0.3525
   66MPD2     H 1029   0.083   1.890  15.417 -1.0192  0.9280  0.0688
   66MPD2    H1 1030   4.733   1.658  15.773  1.8518 -0.0181  1.7278
   66MPD2    H2 1031   0.168   2.043  15.806  0.2957  0.6794 -0.5815
   66MPD2    H3 1032   0.111   1.840  15.906 -0.3158 -0.7736  0.4158
   66MPD2     N 1033   0.003   1.638  15.506  0.3812  0.6550  0.2585
   66MPD2    H5 1034   4.707   1.553  15.552 -1.1091  1.5851  0.8809
   66MPD2    N1 1035   0.147   2.107  15.544  0.3586 -0.6715  0.0764
   66MPD2    H7 1036   0.148   2.116  15.443  0.1070  0.6912  0.1890
   67TMC2    C1 1037   0.393   1.184  13.976 -0.1881 -0.4657 -0.0258
   67TMC2    C2 1038   0.410   1.317  13.971 -0.3597  0.4766 -0.5022
   67TMC2    C3 1039   0.464   1.388  14.076  0.2894  0.4177  0.1036
   67TMC2    C4 1040   0.405   1.112  14.090 -0.6209  0.2565 -0.6921
   67TMC2    C5 1041   0.462   1.178  14.197  0.6645  0.5910 -0.0154
   67TMC2    C6 1042   0.490   1.316  14.192  0.4691 -0.1752 -0.5053
   67TMC2     C 1043   0.345   1.111  13.861  0.4846 -0.1903  0.4345
   67TMC2     O 1044   0.410   1.011  13.828  0.0571  0.1865 -0.0068
   67TMC2     H 1045   0.416   1.357  13.871  2.3378 -0.4349 -0.7228
   67TMC2    H1 1046   0.374   1.008  14.092 -1.5119  0.5410  0.0604
   67TMC2    H2 1047   0.537   1.363  14.278  0.0451  0.2463 -0.5006
   67TMC2    C7 1048   0.447   1.107  14.324 -0.1596  0.7388 -0.2935
   67TMC2    C8 1049   0.559   1.483  14.027  0.2339 -0.4268  0.2365
   67TMC2    O1 1050   0.401   0.992  14.312  0.1735 -0.5598 -0.1480
   67TMC2    O2 1051   0.523   1.559  13.937  0.7076  0.1667  0.1886
   67TMC2    O5 1052   0.678   1.428  14.034 -0.4727  0.0586 -0.0421
   67TMC2    H5 1053   0.696   1.368  14.110 -0.5877  0.1978  0.0944
   68MPD2     C 1054   0.230   1.053  13.600 -0.3152 -0.3454  0.4616
   68MPD2    C1 1055   0.176   1.150  13.684 -0.3646 -0.9320  0.0875
   68MPD2    C2 1056   0.050   1.209  13.652  0.4474  0.5900  0.2331
   68MPD2    C3 1057   4.718   1.174  13.536  0.0221  0.5780 -0.6615
   68MPD2    C4 1058   0.040   1.084  13.452  0.0060  0.3307  0.4442
   68MPD2    C5 1059   0.159   1.016  13.489 -0.1227  0.0292  0.3624
   68MPD2     H 1060   0.006   1.275  13.725 -0.8577  0.6765 -0.6256
   68MPD2    H1 1061   4.723   1.052  13.363  1.0853  0.9164 -0.4096
   68MPD2    H2 1062   0.329   1.011  13.609 -0.0388  0.4160  1.0035
   68MPD2    H3 1063   0.200   0.942  13.421  2.2478 -0.0582  1.8886
   68MPD2     N 1064   4.582   1.213  13.518 -0.4462  0.5094  0.1969
   68MPD2    H5 1065   4.532   1.175  13.438  0.8651  0.8477 -0.7686
   68MPD2    N1 1066   0.244   1.181  13.801 -0.1365 -0.2123 -0.5022
   68MPD2    H7 1067   0.204   1.246  13.867  0.9661 -0.1816  0.1363
   69TMC2    C1 1068   2.834   2.414  12.358  0.9307 -0.3350  0.4844
   69TMC2    C2 1069   2.860   2.543  12.391 -0.2334  0.2811  0.1781
   69TMC2    C3 1070   2.973   2.593  12.340 -0.0300 -0.2104 -0.3555
   69TMC2    C4 1071   2.902   2.334  12.276 -0.3752  0.1426  0.5509
   69TMC2    C5 1072   3.016   2.385  12.224 -0.8536  0.5501 -0.4659
   69TMC2    C6 1073   3.052   2.516  12.256  0.5922 -0.0970 -0.3950
   69TMC2     C 1074   2.701   2.368  12.376 -0.3432 -0.4932  0.8277
   69TMC2     O 1075   2.670   2.246  12.385  0.3517 -0.3548 -0.1067
   69TMC2     H 1076   2.804   2.607  12.459  1.1509  1.8282 -0.1337
   69TMC2    H1 1077   2.870   2.231  12.265 -0.0711  0.3418 -2.1825
   69TMC2    H2 1078   3.139   2.553  12.205  1.9179 -1.1107  1.1371
   69TMC2    C7 1079   3.060   2.337  12.095 -0.3522  0.4054  0.6521
   69TMC2    C8 1080   3.039   2.694  12.418 -0.8028  0.2249 -0.0377
   69TMC2    O1 1081   3.100   2.420  12.009 -0.0671  0.4990  0.0662
   69TMC2    O2 1082   2.999   2.714  12.533 -0.7746 -0.4519 -0.7926
   69TMC2    O5 1083   3.127   2.767  12.350  0.7181 -0.4821  0.0182
   69TMC2    H5 1084   3.124   2.753  12.253  4.7202 -0.7023 -0.0487
   70MPD2     C 1085   2.389   2.555  12.417  0.2469 -0.2361  0.4733
   70MPD2    C1 1086   2.474   2.464  12.360  0.1553 -0.5464 -0.6389
   70MPD2    C2 1087   2.423   2.352  12.300  0.1881  0.2262  0.0231
   70MPD2    C3 1088   2.292   2.343  12.277  0.0352 -0.4406 -0.8649
   70MPD2    C4 1089   2.202   2.439  12.331 -0.2137  0.0123  0.1077
   70MPD2    C5 1090   2.251   2.540  12.405 -0.8758  0.0375 -0.4993
   70MPD2     H 1091   2.486   2.276  12.254  0.0373  0.0003  0.1889
   70MPD2    H1 1092   2.095   2.427  12.330 -0.2036 -0.1287  0.8947
   70MPD2    H2 1093   2.420   2.638  12.479  0.0188  1.0013 -1.0594
   70MPD2    H3 1094   2.191   2.614  12.456  0.2791  0.3933  0.3444
   70MPD2     N 1095   2.248   2.231  12.202  0.2813  0.3054 -0.4779
   70MPD2    H5 1096   2.314   2.156  12.186  3.2469  2.6684  0.7590
   70MPD2    N1 1097   2.614   2.473  12.382  0.0287 -0.2375 -0.2843
   70MPD2    H7 1098   2.654   2.566  12.393 -3.3687  1.2466 -0.6694
   71TMC2    C1 1099   3.733   2.483   1.325 -0.1922  0.4373 -0.7867
   71TMC2    C2 1100   3.775   2.379   1.402  0.8410 -0.6904 -0.3187
   71TMC2    C3 1101   3.683   2.331   1.498  0.3443 -0.2263 -0.3365
   71TMC2    C4 1102   3.606   2.534   1.346  0.5211  0.4581  0.3086
   71TMC2    C5 1103   3.514   2.476   1.430  0.1156 -0.1054  0.0609
   71TMC2    C6 1104   3.553   2.371   1.502  0.1060 -0.3509  0.0967
   71TMC2     C 1105   3.824   2.554   1.236 -0.0387  0.5989 -0.1674
   71TMC2     O 1106   3.817   2.674   1.233 -0.0473  0.0488 -0.5199
   71TMC2     H 1107   3.880   2.353   1.396  0.5640 -2.2745  1.7032
   71TMC2    H1 1108   3.574   2.621   1.290 -1.5591  0.2181  1.1299
   71TMC2    H2 1109   3.478   2.326   1.566  0.1245  0.1924  0.4970
   71TMC2    C7 1110   3.375   2.518   1.437 -0.4099  0.1458 -0.0762
   71TMC2    C8 1111   3.729   2.216   1.575 -0.0428  0.3356  0.4336
   71TMC2    O1 1112   3.308   2.481   1.529  0.0057 -0.1609 -0.2526
   71TMC2    O2 1113   3.808   2.129   1.533 -0.6201 -0.0982  0.4258
   71TMC2    O5 1114   3.654   2.203   1.681  0.6316  0.1409 -0.1917
   71TMC2    H5 1115   3.606   2.285   1.704  1.9476  1.2150 -1.3064
   72MPD2     C 1116   4.252   2.576   0.940  0.0782 -0.0775  0.3996
   72MPD2    C1 1117   4.187   2.674   1.013  0.5279 -0.1124  0.2426
   72MPD2    C2 1118   4.080   2.640   1.094  0.7518 -0.1551 -0.4200
   72MPD2    C3 1119   4.039   2.512   1.109  0.1194  0.1198 -0.5284
   72MPD2    C4 1120   4.106   2.412   1.049  0.2982 -0.4088 -0.0741
   72MPD2    C5 1121   4.209   2.446   0.963  0.2404  0.4399  0.4518
   72MPD2     H 1122   4.034   2.724   1.145 -0.0976 -1.5232  1.0900
   72MPD2    H1 1123   4.081   2.306   1.052 -0.9189 -0.1461 -0.7270
   72MPD2    H2 1124   4.328   2.597   0.866 -0.8680 -0.3905 -0.6607
   72MPD2    H3 1125   4.242   2.367   0.896 -0.7122  0.3324  0.0935
   72MPD2     N 1126   3.923   2.471   1.185  0.1869  0.7345 -0.7187
   72MPD2    H5 1127   3.918   2.372   1.206 -1.2335  0.5361 -1.9978
   72MPD2    N1 1128   4.220   2.812   1.005  0.3568  0.1203  0.3442
   72MPD2    H7 1129   4.158   2.875   1.056 -0.1909  1.7749 -2.3823
   73TMC2    C1 1130   3.897   0.080  13.832  0.5816  0.4503  0.7365
   73TMC2    C2 1131   3.889   0.185  13.923 -0.4626  0.3512 -0.0215
   73TMC2    C3 1132   3.942   0.155  14.050  0.5353  0.2993 -0.1782
   73TMC2    C4 1133   3.967   4.704  13.863 -0.0878 -0.1770  0.0441
   73TMC2    C5 1134   4.053   4.712  13.964  0.2356 -0.2420  0.2713
   73TMC2    C6 1135   4.033   0.061  14.068  0.0387  0.1131 -0.6234
   73TMC2     C 1136   3.899   0.113  13.691  0.1960  0.2761 -0.7396
   73TMC2     O 1137   3.976   0.046  13.626 -0.5379  0.0926 -0.3851
   73TMC2     H 1138   3.838   0.278  13.903 -0.6386 -0.1050 -1.6723
   73TMC2    H1 1139   3.976   4.631  13.783  0.4121  0.5942 -0.6020
   73TMC2    H2 1140   4.090   0.072  14.160 -0.9927 -2.4220  0.3018
   73TMC2    C7 1141   4.192   4.673  13.942  0.6654  0.5253  0.7183
   73TMC2    C8 1142   3.921   0.248  14.161  0.3383  0.6204  0.8086
   73TMC2    O1 1143   4.278   4.688  14.028  0.1526 -0.0890 -0.7768
   73TMC2    O2 1144   3.996   0.275  14.254  0.6999  0.1674  0.8540
   73TMC2    O5 1145   3.799   0.300  14.133 -0.5008 -0.1541  0.3628
   73TMC2    H5 1146   3.750   0.236  14.077 -1.1988 -1.0894  2.0487
   74MPD2     C 1147   3.902   0.475  13.327  0.0131 -0.0124  0.2475
   74MPD2    C1 1148   3.990   0.377  13.358 -0.1787 -1.3661 -0.0572
   74MPD2    C2 1149   3.966   0.297  13.473  0.0515  0.4485  0.4411
   74MPD2    C3 1150   3.847   0.298  13.544 -0.0777 -0.4059 -0.1001
   74MPD2    C4 1151   3.752   0.393  13.501 -0.8119 -0.3772  0.1890
   74MPD2    C5 1152   3.783   0.478  13.401  0.4962 -0.1706 -0.0714
   74MPD2     H 1153   4.050   0.240  13.510  0.2428  1.6682  1.8949
   74MPD2    H1 1154   3.654   0.396  13.547 -1.2849  2.0921 -0.9749
   74MPD2    H2 1155   3.925   0.546  13.249  0.3482 -2.0351 -1.4790
   74MPD2    H3 1156   3.703   0.543  13.368  1.6194  0.4590 -1.5457
   74MPD2     N 1157   3.829   0.226  13.666 -0.1041  0.2780 -0.3750
   74MPD2    H5 1158   3.759   0.263  13.728 -0.6413  0.5487 -1.1436
   74MPD2    N1 1159   4.114   0.372  13.293  0.2970  0.2154  0.0247
   74MPD2    H7 1160   4.132   0.455  13.237  1.1065  1.8123  2.6639
   75TMC2    C1 1161   4.365   1.277  13.579 -0.5808  0.7142 -0.5130
   75TMC2    C2 1162   4.277   1.288  13.687 -0.0096 -0.2142  0.6031
   75TMC2    C3 1163   4.147   1.318  13.665  0.0532 -0.8862 -0.3627
   75TMC2    C4 1164   4.321   1.288  13.454  0.5471 -0.4076 -0.0056
   75TMC2    C5 1165   4.198   1.338  13.436 -0.4019  0.4681 -0.0341
   75TMC2    C6 1166   4.111   1.359  13.540 -0.0792 -0.5826  0.0326
   75TMC2     C 1167   4.507   1.264  13.616  0.0768 -0.3226  0.1509
   75TMC2     O 1168   4.526   1.286  13.735 -0.0834 -0.1096  0.1847
   75TMC2     H 1169   4.304   1.261  13.788  1.7879  2.9110  0.9799
   75TMC2    H1 1170   4.386   1.300  13.368 -1.0464  0.4436 -1.0985
   75TMC2    H2 1171   4.013   1.403  13.524 -0.3030 -0.8144  0.8023
   75TMC2    C7 1172   4.160   1.371  13.296  1.0024  1.0104  0.0713
   75TMC2    C8 1173   4.067   1.334  13.777 -0.2679  0.1082  0.6426
   75TMC2    O1 1174   4.187   1.295  13.207  0.3827  0.6387 -0.4327
   75TMC2    O2 1175   3.970   1.409  13.778  0.3482  0.1680 -0.1210
   75TMC2    O5 1176   4.079   1.221  13.857 -0.0908 -0.0033  0.3705
   75TMC2    H5 1177   4.143   1.154  13.827  1.3274  0.3556  2.6045
   76TMC2    C1 1178   3.680   1.397  11.488 -0.0583 -0.3199 -0.3382
   76TMC2    C2 1179   3.592   1.328  11.561  0.4372 -0.1824 -0.3137
   76TMC2    C3 1180   3.635   1.213  11.628 -0.6480  0.3373  0.4963
   76TMC2    C4 1181   3.814   1.354  11.482 -0.4454  0.2539  0.2104
   76TMC2    C5 1182   3.847   1.238  11.548  0.0738 -0.2288  0.8293
   76TMC2    C6 1183   3.762   1.167  11.630 -0.4044 -0.0468 -0.4564
   76TMC2     C 1184   3.631   1.519  11.430  0.0786  0.2154  0.4136
   76TMC2     O 1185   3.517   1.554  11.460 -0.6051 -0.4049 -0.1566
   76TMC2     H 1186   3.484   1.340  11.557  0.0583 -2.0617  3.5267
   76TMC2    H1 1187   3.890   1.408  11.427 -0.4133  0.3234  0.3219
   76TMC2    H2 1188   3.794   1.091  11.700 -1.8135  0.9428  1.2376
   76TMC2    C7 1189   3.987   1.196  11.544  0.5998  0.7788  0.1631
   76TMC2    C8 1190   3.546   1.166  11.729 -0.4402 -0.4979  1.0260
   76TMC2    O1 1191   4.014   1.079  11.570  0.6443 -0.4736 -0.2048
   76TMC2    O2 1192   3.568   1.056  11.767  0.1942 -0.7130  0.8950
   76TMC2    O5 1193   3.527   1.281  11.802 -0.7121  0.0091 -0.3765
   76TMC2    H5 1194   3.522   1.359  11.743  1.4365  1.3108  1.1466
   77MPD2     C 1195   3.749   1.959  11.179  0.2665 -0.2697  0.2498
   77MPD2    C1 1196   3.641   1.925  11.255 -0.3551 -0.3729 -0.3553
   77MPD2    C2 1197   3.621   1.787  11.292 -0.5924 -0.5036  0.4582
   77MPD2    C3 1198   3.725   1.695  11.284  0.0180 -0.1106 -0.0684
   77MPD2    C4 1199   3.839   1.741  11.221  0.1824 -0.5866  0.1256
   77MPD2    C5 1200   3.849   1.871  11.173  0.1593 -0.0967  0.0936
   77MPD2     H 1201   3.524   1.746  11.314 -0.0839 -2.3357 -0.7834
   77MPD2    H1 1202   3.928   1.681  11.206  0.2715  0.1363 -2.1837
   77MPD2    H2 1203   3.755   2.049  11.118 -0.8705  1.5974  2.8972
   77MPD2    H3 1204   3.946   1.898  11.134 -0.0635 -0.6942 -0.8637
   77MPD2     N 1205   3.720   1.566  11.346 -0.5749  0.1416  0.2614
   77MPD2    H5 1206   3.807   1.514  11.343  0.2081  1.4911 -0.5401
   77MPD2    N1 1207   3.525   2.010  11.260 -0.1201  0.3445  0.6841
   77MPD2    H7 1208   3.441   1.973  11.303 -0.3893 -0.1023 -0.2293
   78TMC2    C1 1209   0.106   3.629   1.495  0.1856 -1.3691 -0.0858
   78TMC2    C2 1210   0.170   3.742   1.538 -0.1671 -0.7709 -0.4797
   78TMC2    C3 1211   0.306   3.735   1.553 -0.1653 -1.1023 -0.3319
   78TMC2    C4 1212   0.178   3.506   1.475 -0.2437  0.3340  0.1209
   78TMC2    C5 1213   0.314   3.504   1.488  0.5628 -0.2229 -0.0927
   78TMC2    C6 1214   0.380   3.622   1.527 -0.6404  0.3071 -0.5722
   78TMC2     C 1215   4.702   3.613   1.516  0.3990 -0.4483  0.7044
   78TMC2     O 1216   4.665   3.499   1.537  0.3596  0.3752  0.0083
   78TMC2     H 1217   0.111   3.820   1.585 -0.5823 -1.8894  0.8567
   78TMC2    H1 1218   0.126   3.420   1.434 -0.3192  0.6287 -0.3969
   78TMC2    H2 1219   0.486   3.614   1.545 -0.7050 -0.7645 -0.6856
   78TMC2    C7 1220   0.399   3.406   1.427  0.0512  0.0640 -0.7350
   78TMC2    C8 1221   0.369   3.848   1.617  0.3214 -0.0039  0.5727
   78TMC2    O1 1222   0.521   3.397   1.436  0.0080  0.1889 -0.2278
   78TMC2    O2 1223   0.319   3.960   1.616  0.5426 -0.0445  0.2198
   78TMC2    O5 1224   0.434   3.799   1.725  0.5850 -0.7452 -0.1011
   78TMC2    H5 1225   0.438   3.701   1.733  1.9173 -0.7092 -0.3460
   79MPD1     C 1226   4.227   3.786   1.613 -0.1496 -0.2260  0.2179
   79MPD1    C1 1227   4.288   3.664   1.643 -0.3311 -0.1573 -0.2057
   79MPD1    C2 1228   4.425   3.652   1.620  0.2543  0.0970 -0.5076
   79MPD1    C3 1229   4.499   3.749   1.559 -0.1352  0.1034 -0.4586
   79MPD1    C4 1230   4.439   3.869   1.539  0.3181  0.6730 -0.3932
   79MPD1    C5 1231   4.299   3.888   1.564  0.1763  0.0129 -1.0937
   79MPD1     H 1232   4.477   3.557   1.630 -0.0653 -0.2425 -2.1770
   79MPD1    H1 1233   4.496   3.957   1.514  1.5292 -0.5874 -2.0389
   79MPD1    H2 1234   4.120   3.794   1.621  0.2040  5.4980 -0.5157
   79MPD1    H3 1235   4.252   3.984   1.544  0.1352  0.2166 -0.0305
   79MPD1     N 1236   4.636   3.734   1.531  0.3404  0.1691  0.2026
   79MPD1    H5 1237   4.678   3.817   1.490  1.1554 -0.6106 -0.5766
   79MPD1    N1 1238   4.207   3.568   1.696 -0.2764  0.2461  0.3428
   79MPD1    H6 1239   4.110   3.573   1.667 -0.3016  1.6393  0.6364
   79MPD1    H7 1240   4.243   3.474   1.684 -2.7742 -0.6700  0.0135
   80TMC2    C1 1241   1.734   0.520  12.039  0.3021  0.6615 -0.1347
   80TMC2    C2 1242   1.723   0.414  11.957  0.5908 -0.0267  0.4827
   80TMC2    C3 1243   1.655   0.312  12.007  0.1879  0.5825 -0.3299
   80TMC2    C4 1244   1.673   0.535  12.160 -0.2382 -0.6791  0.4720
   80TMC2    C5 1245   1.611   0.422  12.207 -0.2458 -0.3597 -0.7931
   80TMC2    C6 1246   1.589   0.310  12.125 -0.1313  0.7054  0.1734
   80TMC2     C 1247   1.821   0.629  11.995 -0.7622  0.0781  0.7880
   80TMC2     O 1248   1.792   0.742  12.036  0.1813  0.0089 -0.2449
   80TMC2     H 1249   1.768   0.414  11.858  1.2769 -2.3035  0.8131
   80TMC2    H1 1250   1.690   0.620  12.226 -1.7244 -1.0941  1.3866
   80TMC2    H2 1251   1.545   0.217  12.158 -0.5789  0.0944 -2.1680
   80TMC2    C7 1252   1.563   0.399  12.345  0.2397 -0.1411  0.6497
   80TMC2    C8 1253   1.597   0.235  11.900 -0.3180  0.0913  0.4961
   80TMC2    O1 1254   1.490   0.305  12.377  0.8032 -0.3080  0.8368
   80TMC2    O2 1255   1.555   0.122  11.904 -0.6069  0.3003  0.1891
   80TMC2    O5 1256   1.528   0.331  11.835  0.1985 -0.3390 -0.0537
   80TMC2    H5 1257   1.543   0.421  11.871 -0.0432  0.4599 -1.9499
   81MPD2     C 1258   2.164   0.538  11.928 -0.0472 -0.5325  0.1735
   81MPD2    C1 1259   2.063   0.628  11.947 -0.5178  0.2196  0.1845
   81MPD2    C2 1260   2.088   0.763  11.957  0.6679 -0.2331  0.2548
   81MPD2    C3 1261   2.219   0.805  11.956 -1.0751  0.4015 -0.0099
   81MPD2    C4 1262   2.324   0.716  11.935 -0.0166  0.4090 -0.2227
   81MPD2    C5 1263   2.297   0.583  11.917 -0.0777 -0.8814  0.3702
   81MPD2     H 1264   2.009   0.836  11.962  1.5722  0.7384  0.2809
   81MPD2    H1 1265   2.422   0.763  11.941  0.3162 -0.3017 -0.1279
   81MPD2    H2 1266   2.137   0.434  11.912 -0.9419 -0.1326 -0.9409
   81MPD2    H3 1267   2.381   0.518  11.896  1.4519  0.9339  0.9375
   81MPD2     N 1268   2.263   0.935  11.980  0.2541  0.0139 -0.3109
   81MPD2    H5 1269   2.364   0.946  11.981  0.3640 -1.1347  0.8075
   81MPD2    N1 1270   1.939   0.568  11.972 -0.1973  0.2630  0.1900
   81MPD2    H7 1271   1.944   0.467  11.967 -1.3432  0.1975  0.5625
   82TMC2    C1 1272   0.169   0.655  10.730 -0.3237  0.2845  0.2201
   82TMC2    C2 1273   0.214   0.757  10.817  0.5285  0.0858  0.1683
   82TMC2    C3 1274   0.236   0.727  10.949 -0.0089 -0.1829 -0.2176
   82TMC2    C4 1275   0.135   0.533  10.784  0.1166  0.4622  0.4290
   82TMC2    C5 1276   0.153   0.507  10.916  0.4957 -0.0539 -0.3884
   82TMC2    C6 1277   0.210   0.603  11.000 -0.4362 -0.1749  0.2490
   82TMC2     C 1278   0.179   0.671  10.585  0.4568 -0.1510  0.2159
   82TMC2     O 1279   0.119   0.598  10.509 -0.5024 -0.3053 -0.7036
   82TMC2     H 1280   0.233   0.858  10.784 -0.2300  0.0937 -0.2568
   82TMC2    H1 1281   0.097   0.457  10.717  0.2288 -0.7615  1.7558
   82TMC2    H2 1282   0.218   0.587  11.107  2.5028  0.7702  0.1681
   82TMC2    C7 1283   0.117   0.375  10.980  0.2270 -0.0266 -0.2057
   82TMC2    C8 1284   0.335   0.798  11.022 -0.0865  0.5572 -0.2493
   82TMC2    O1 1285   0.152   0.356  11.096 -0.0078  0.1257 -0.3576
   82TMC2    O2 1286   0.434   0.846  10.968  0.2597 -0.1143 -0.5390
   82TMC2    O5 1287   0.277   0.835  11.137 -0.1329 -0.2441  0.6931
   82TMC2    H5 1288   0.188   0.802  11.160 -0.5224 -1.0687 -2.0176
   83MPD2     C 1289   0.316   0.900  10.162  0.2362  0.4371  0.2188
   83MPD2    C1 1290   0.195   0.871  10.213  0.0577 -0.0063 -0.2092
   83MPD2    C2 1291   0.177   0.824  10.337 -0.2992  0.0068 -0.5905
   83MPD2    C3 1292   0.285   0.810  10.421 -0.5284  0.3479 -0.0436
   83MPD2    C4 1293   0.408   0.853  10.371 -0.5289 -0.4818 -0.9601
   83MPD2    C5 1294   0.427   0.882  10.235 -0.2032  1.0417  0.1102
   83MPD2     H 1295   0.085   0.782  10.376  0.8043  0.0265  2.0042
   83MPD2    H1 1296   0.492   0.855  10.439 -0.9275 -0.4666 -0.4718
   83MPD2    H2 1297   0.337   0.938  10.062 -1.3498 -1.0764 -0.6701
   83MPD2    H3 1298   0.520   0.902  10.183 -0.2743  1.0687 -0.0054
   83MPD2     N 1299   0.273   0.764  10.552 -0.5300  0.7561 -0.3750
   83MPD2    H5 1300   0.354   0.785  10.609  0.6180 -0.6217 -1.5021
   83MPD2    N1 1301   0.077   0.903  10.143 -0.7952 -0.3250  0.3181
   83MPD2    H7 1302   0.095   0.924  10.046 -1.0985  0.6214  0.4716
   84TMC2    C1 1303   1.233   0.254   9.946  0.0159 -0.6511 -0.2475
   84TMC2    C2 1304   1.122   0.238   9.866 -0.2917  0.0070 -0.4711
   84TMC2    C3 1305   1.139   0.181   9.743  0.4453  0.3124  0.2201
   84TMC2    C4 1306   1.351   0.201   9.915 -0.2448 -0.1494 -0.1044
   84TMC2    C5 1307   1.357   0.128   9.803  0.1172 -0.1198 -0.0344
   84TMC2    C6 1308   1.259   0.129   9.709 -0.7569  0.0034  0.9324
   84TMC2     C 1309   1.205   0.296  10.081 -0.0324  0.5485 -0.5564
   84TMC2     O 1310   1.090   0.319  10.114 -0.1041  0.4535  0.0812
   84TMC2     H 1311   1.027   0.285   9.891  0.2306  0.9207 -0.2056
   84TMC2    H1 1312   1.435   0.205   9.983 -0.4917  0.1460  0.1854
   84TMC2    H2 1313   1.276   0.072   9.618 -1.3367  0.6610  0.4168
   84TMC2    C7 1314   1.484   0.069   9.764  0.2190  0.0854  0.0537
   84TMC2    C8 1315   1.022   0.172   9.653 -0.1458 -0.0176 -0.2999
   84TMC2    O1 1316   1.474   4.732   9.662  0.2643  0.3880 -0.0202
   84TMC2    O2 1317   0.908   0.195   9.694 -0.4948 -0.2816 -0.3678
   84TMC2    O5 1318   1.048   0.157   9.519 -0.6027 -0.1818 -0.1097
   84TMC2    H5 1319   1.144   0.150   9.498 -0.4528  0.2018  0.4407
   85TMC2    C1 1320   2.627   3.825  15.982  0.5268 -0.4689  0.2702
   85TMC2    C2 1321   2.529   3.819  15.889 -0.4071 -0.5039 -0.4788
   85TMC2    C3 1322   2.512   3.914  15.794 -0.4184  0.1727  0.5997
   85TMC2    C4 1323   2.704   3.932  15.997 -0.4389 -0.1728 -0.2928
   85TMC2    C5 1324   2.681   4.030  15.905  0.1984 -0.5713  0.5763
   85TMC2    C6 1325   2.590   4.022  15.793 -0.0788  0.1800 -0.5478
   85TMC2     C 1326   2.652   3.709  16.063 -0.2283  0.2726 -0.0668
   85TMC2     O 1327   2.713   3.727  16.168  0.2602 -0.2434  0.1846
   85TMC2     H 1328   2.459   3.738  15.900 -0.1074 -0.3483  2.6093
   85TMC2    H1 1329   2.785   3.927  16.069 -1.0691  0.1032  0.4425
   85TMC2    H2 1330   2.587   4.092  15.710  2.0508  1.5105  0.4982
   85TMC2    C7 1331   2.790   4.124  15.889 -0.1551 -0.2456  0.2356
   85TMC2    C8 1332   2.387   3.901  15.724  0.0081  0.2197  0.8561
   85TMC2    O1 1333   2.836   4.150  15.780 -0.3647 -0.3100  0.2772
   85TMC2    O2 1334   2.290   3.843  15.768 -0.5294 -0.2033 -0.0699
   85TMC2    O5 1335   2.395   3.961  15.601  0.2759 -0.4513 -0.5128
   85TMC2    H5 1336   2.486   3.975  15.569  0.9720  1.5182  2.2711
   86MPD2     C 1337   2.608   3.221  16.212  0.0716  0.1409 -0.1138
   86MPD2    C1 1338   2.501   3.242  16.121  0.3988 -0.9560 -0.0401
   86MPD2    C2 1339   2.502   3.364  16.053  0.5241 -0.4420  0.2826
   86MPD2    C3 1340   2.596   3.463  16.091  0.0174  0.6419  0.6002
   86MPD2    C4 1341   2.696   3.441  16.184 -0.4534  0.0982  0.1628
   86MPD2    C5 1342   2.704   3.316  16.247 -0.2263 -0.4397 -0.3870
   86MPD2     H 1343   2.424   3.375  15.979 -0.4577  3.6677  1.9502
   86MPD2    H1 1344   2.774   3.513  16.204  0.7435 -1.1798  0.0619
   86MPD2    H2 1345   2.614   3.136  16.279 -0.1919 -0.2671 -0.6102
   86MPD2    H3 1346   2.787   3.293  16.314 -0.9491  2.3521  1.4763
   86MPD2     N 1347   2.590   3.592  16.023  0.1152  0.8465  0.2993
   86MPD2    H5 1348   2.529   3.600  15.941  0.2045  2.5651  0.3941
   86MPD2    N1 1349   2.398   3.146  16.088  0.1218  0.4798  0.7389
   86MPD2    H7 1350   2.337   3.161  16.009 -0.8425 -3.2706  0.7831
   87TMC2    C1 1351   4.302   1.496   0.746  0.1779  0.3981 -0.2233
   87TMC2    C2 1352   4.344   1.523   0.873  0.3118  0.2939  0.6229
   87TMC2    C3 1353   4.293   1.637   0.930 -0.4157 -0.3902  0.0731
   87TMC2    C4 1354   4.240   1.591   0.668 -0.1515  0.2816  0.6950
   87TMC2    C5 1355   4.194   1.702   0.731  0.3329 -0.0950  0.4444
   87TMC2    C6 1356   4.217   1.726   0.868  0.2479  0.2005 -0.3800
   87TMC2     C 1357   4.380   1.399   0.673  0.2562  0.7622 -0.0205
   87TMC2     O 1358   4.360   1.420   0.556 -0.8926  0.1116 -0.6239
   87TMC2     H 1359   4.401   1.449   0.928 -1.3940 -2.3489 -1.1483
   87TMC2    H1 1360   4.220   1.573   0.563 -1.9241  2.5166  0.6331
   87TMC2    H2 1361   4.175   1.812   0.919 -1.1820  0.1793 -1.5003
   87TMC2    C7 1362   4.129   1.810   0.666  0.7598  0.2964  0.6368
   87TMC2    C8 1363   4.321   1.660   1.065 -0.2627  0.2137  0.2230
   87TMC2    O1 1364   4.078   1.898   0.736 -0.1054  0.1319 -0.2474
   87TMC2    O2 1365   4.237   1.697   1.145 -0.2621 -0.7083  0.5190
   87TMC2    O5 1366   4.454   1.638   1.084  0.1855  0.2478  0.4720
   87TMC2    H5 1367   4.511   1.656   1.006 -1.9792 -2.0108 -1.5871
   88MPD2     C 1368   4.155   1.895   0.310  0.4015  0.1067  0.8553
   88MPD2    C1 1369   4.102   1.909   0.436  0.2951  0.7858  0.3836
   88MPD2    C2 1370   4.031   2.024   0.474 -1.2411 -0.2411  0.3420
   88MPD2    C3 1371   4.018   2.129   0.380  0.1711 -0.2455 -0.3623
   88MPD2    C4 1372   4.068   2.114   0.254  0.0453  0.5822 -0.2873
   88MPD2    C5 1373   4.138   1.997   0.217  0.1630 -0.8396  0.4345
   88MPD2     H 1374   3.986   2.028   0.572 -0.8931  2.3796  0.4005
   88MPD2    H1 1375   4.070   2.189   0.175  0.4731  1.4217  0.5163
   88MPD2    H2 1376   4.208   1.805   0.282  3.0745  1.9654  0.0275
   88MPD2    H3 1377   4.183   1.994   0.118 -1.6912  0.0640 -0.4322
   88MPD2     N 1378   3.954   2.250   0.413 -0.0596  0.0916 -0.3770
   88MPD2    H5 1379   3.956   2.322   0.342 -0.4871  2.0078  1.5629
   88MPD2    N1 1380   4.149   1.809   0.529  0.2724  0.1094 -0.1969
   88MPD2    H7 1381   4.213   1.734   0.504  0.0131 -0.8009  1.8509
   89TMC2    C1 1382   0.788   0.379   1.400  0.5240 -0.0830 -0.1987
   89TMC2    C2 1383   0.907   0.319   1.366 -0.3167 -0.3685 -0.0333
   89TMC2    C3 1384   0.993   0.380   1.287 -0.3057 -0.1095  0.5222
   89TMC2    C4 1385   0.739   0.490   1.333  0.2622  0.5668  0.4628
   89TMC2    C5 1386   0.821   0.542   1.232  0.1372 -0.1195  0.5185
   89TMC2    C6 1387   0.949   0.492   1.211  0.0534  0.0230 -0.0835
   89TMC2     C 1388   0.689   0.305   1.472  0.0323 -0.2371 -0.0285
   89TMC2     O 1389   0.593   0.369   1.513  0.6770  0.1213 -0.4238
   89TMC2     H 1390   0.957   0.237   1.415 -2.4141  0.3447  3.2820
   89TMC2    H1 1391   0.635   0.519   1.334 -0.0031 -0.4161  0.8485
   89TMC2    H2 1392   1.021   0.531   1.140 -0.0902 -1.1950 -0.8830
   89TMC2    C7 1393   0.771   0.652   1.164 -0.4489 -0.8058 -0.3521
   89TMC2    C8 1394   1.093   0.301   1.228 -0.9520  0.2107 -1.2733
   89TMC2    O1 1395   0.650   0.672   1.158  0.3849  0.6517  0.5037
   89TMC2    O2 1396   1.212   0.306   1.246  0.3235 -0.3115 -0.0373
   89TMC2    O5 1397   1.037   0.295   1.110 -0.1325 -0.4271 -0.1135
   89TMC2    H5 1398   0.941   0.300   1.129 -0.3738 -1.0887 -1.1361
   90MPD2     C 1399   0.481   4.596   1.616 -1.1609  0.2890  0.6150
   90MPD2    C1 1400   0.573   4.567   1.516 -0.5926 -0.1186 -0.4561
   90MPD2    C2 1401   0.649   4.671   1.470  0.1648  0.3322 -0.3262
   90MPD2    C3 1402   0.634   0.064   1.511 -0.9578 -0.0067 -0.7094
   90MPD2    C4 1403   0.543   0.094   1.607  0.0403  0.1202 -0.2602
   90MPD2    C5 1404   0.475   4.724   1.663 -0.3497  0.6853  0.1992
   90MPD2     H 1405   0.713   4.653   1.384 -0.9304 -3.2958 -0.4092
   90MPD2    H1 1406   0.518   0.189   1.652  0.7853  0.0390  0.3336
   90MPD2    H2 1407   0.419   4.524   1.668 -0.1381 -1.1602 -0.1910
   90MPD2    H3 1408   0.402   4.734   1.742 -1.6119 -1.7053 -0.6526
   90MPD2     N 1409   0.713   0.170   1.460 -0.1579 -0.3134 -0.5741
   90MPD2    H5 1410   0.785   0.135   1.398  0.1419  1.3862 -1.1893
   90MPD2    N1 1411   0.594   4.441   1.464  0.0986 -0.4668  0.2748
   90MPD2    H7 1412   0.667   4.431   1.395  0.6375 -0.2456  0.8051
   91TMC2    C1 1413   2.312   0.035  16.528 -0.1529  0.0974  0.1436
   91TMC2    C2 1414   2.327   0.111  16.419 -0.6029 -0.0355  0.4291
   91TMC2    C3 1415   2.232   0.107  16.322 -0.9692 -0.4327 -0.5757
   91TMC2    C4 1416   2.195   4.696  16.537 -0.4825 -0.3702 -0.4831
   91TMC2    C5 1417   2.105   4.685  16.442  0.2362  0.1939 -0.1362
   91TMC2    C6 1418   2.124   0.025  16.329  0.2735  0.2325 -0.2097
   91TMC2     C 1419   2.438   4.725  16.590  0.9649  0.6288  0.4096
   91TMC2     O 1420   2.435   4.668  16.702  0.4873  0.4559 -0.4586
   91TMC2     H 1421   2.410   0.181  16.416 -0.2205 -0.5263 -0.5610
   91TMC2    H1 1422   2.184   4.628  16.621 -0.6321 -1.4325 -1.3640
   91TMC2    H2 1423   2.054   0.019  16.246  3.4003 -0.4712 -2.8164
   91TMC2    C7 1424   2.029   4.560  16.433  0.4988  0.1256  0.3359
   91TMC2    C8 1425   2.228   0.200  16.210  0.5635  0.6289 -0.1477
   91TMC2    O1 1426   1.995   4.523  16.540 -0.2386  0.2486  0.3717
   91TMC2    O2 1427   2.208   0.163  16.098 -0.4123 -0.5256  0.1647
   91TMC2    O5 1428   2.307   0.305  16.237  0.1669  0.2166 -0.2409
   91TMC2    H5 1429   2.315   0.342  16.327  2.9172 -1.2816  0.1171
   92MPD2     C 1430   2.717   4.658  16.633 -0.1779 -0.5824  0.6195
   92MPD2    C1 1431   2.662   4.667  16.506  0.3520 -0.2988  0.5657
   92MPD2    C2 1432   2.737   4.647  16.392 -0.0890 -0.1340  0.1284
   92MPD2    C3 1433   2.866   4.595  16.398 -0.5546  0.1347 -0.2047
   92MPD2    C4 1434   2.924   4.579  16.528 -0.1781 -0.0064  0.2923
   92MPD2    C5 1435   2.845   4.612  16.636  0.2588 -0.8791  0.0529
   92MPD2     H 1436   2.689   4.670  16.298  1.1596  0.4793 -0.3655
   92MPD2    H1 1437   3.027   4.555  16.551 -0.3345 -1.9847 -1.0811
   92MPD2    H2 1438   2.670   4.671  16.730  2.2368 -2.4350  2.0331
   92MPD2    H3 1439   2.904   4.605  16.727 -0.3805 -1.5504  0.4135
   92MPD2     N 1440   2.947   4.574  16.284 -0.6795 -0.6375  0.1041
   92MPD2    H5 1441   3.047   4.562  16.298 -0.6781 -0.5122  0.2031
   92MPD2    N1 1442   2.534   4.720  16.494 -0.0907  0.4941 -0.2139
   92MPD2    H7 1443   2.517   0.008  16.397  0.9012  1.7242 -0.0706
   93TMC2    C1 1444   4.448   3.848  13.676 -0.2365  0.0494 -0.2281
   93TMC2    C2 1445   4.460   3.743  13.591 -0.8314  0.0453 -0.3741
   93TMC2    C3 1446   4.581   3.718  13.540  0.5453  0.3959  0.0676
   93TMC2    C4 1447   4.551   3.936  13.703 -0.8736  0.3706 -0.2610
   93TMC2    C5 1448   4.677   3.889  13.665 -0.2065 -0.3682  0.8125
   93TMC2    C6 1449   4.694   3.789  13.578 -0.3288  0.2532  0.0403
   93TMC2     C 1450   4.326   3.930  13.659 -0.1931 -0.5298 -0.8062
   93TMC2     O 1451   4.344   4.050  13.672 -0.0507 -0.1758 -0.0360
   93TMC2     H 1452   4.374   3.680  13.576  1.2978 -3.7640  3.3495
   93TMC2    H1 1453   4.538   4.019  13.772  0.5244 -0.0652  0.5388
   93TMC2    H2 1454   0.052   3.763  13.532 -0.3042 -1.4776  1.0682
   93TMC2    C7 1455   0.057   3.969  13.659  0.2001  0.6277 -0.3154
   93TMC2    C8 1456   4.580   3.631  13.421 -0.9486 -0.4953  0.0081
   93TMC2    O1 1457   0.172   3.926  13.639  0.4930 -0.3280 -0.0292
   93TMC2    O2 1458   4.674   3.554  13.401  0.5055  0.2731  0.1420
   93TMC2    O5 1459   4.456   3.619  13.372 -0.2138  0.0660  0.3471
   93TMC2    H5 1460   4.395   3.691  13.399 -1.3869 -0.3414 -1.2459
   94MPD2     C 1461   4.061   4.065  13.581  0.1898 -0.0822  0.2456
   94MPD2    C1 1462   4.079   3.929  13.608  0.3659  0.0863  1.3863
   94MPD2    C2 1463   3.972   3.846  13.605  0.1855 -0.3522  0.5172
   94MPD2    C3 1464   3.846   3.891  13.572 -0.4134  0.7874  0.2346
   94MPD2    C4 1465   3.828   4.025  13.562 -0.7643 -0.7292 -0.0981
   94MPD2    C5 1466   3.935   4.108  13.557 -0.0869  0.0214  0.3864
   94MPD2     H 1467   3.988   3.740  13.621  0.7164 -0.2997  0.3502
   94MPD2    H1 1468   3.726   4.061  13.553 -0.5199  0.2330  1.0650
   94MPD2    H2 1469   4.141   4.138  13.577  0.6640 -0.5549  1.1534
   94MPD2    H3 1470   3.914   4.214  13.552  2.4449  0.4450 -1.3108
   94MPD2     N 1471   3.733   3.805  13.551 -0.4024  0.9067  0.4567
   94MPD2    H5 1472   3.645   3.855  13.540 -0.3016  0.2955 -3.1783
   94MPD2    N1 1473   4.206   3.866  13.627 -0.2644  0.2903 -0.4010
   94MPD2    H7 1474   4.206   3.765  13.640 -2.2715  0.2516 -0.7745
   95TMC2    C1 1475   3.797   1.478  15.484  0.2724 -0.5088 -0.0556
   95TMC2    C2 1476   3.690   1.396  15.512 -0.2442  0.4649  0.1592
   95TMC2    C3 1477   3.605   1.425  15.618  0.0954  0.1020  0.3531
   95TMC2    C4 1478   3.814   1.600  15.552  0.3877  0.0144  0.5492
   95TMC2    C5 1479   3.724   1.617  15.653 -0.3842 -0.0322 -0.2433
   95TMC2    C6 1480   3.615   1.538  15.686 -0.2764  0.1905 -0.0424
   95TMC2     C 1481   3.920   1.413  15.439  0.1325  0.2915 -0.0560
   95TMC2     O 1482   4.019   1.486  15.435 -0.7703 -0.7156 -0.1061
   95TMC2     H 1483   3.670   1.309  15.451 -0.0673  1.1253 -0.8336
   95TMC2    H1 1484   3.902   1.663  15.541 -2.4554  3.5540 -2.0207
   95TMC2    H2 1485   3.543   1.556  15.765  0.5068  1.0609  0.4688
   95TMC2    C7 1486   3.748   1.729  15.740 -0.1710  0.2902  0.8505
   95TMC2    C8 1487   3.475   1.379  15.580 -0.0310 -0.9771 -0.8703
   95TMC2    O1 1488   3.790   1.837  15.699  0.2277 -0.5890 -0.6950
   95TMC2    O2 1489   3.444   1.275  15.520  0.2946 -0.2287  0.2045
   95TMC2    O5 1490   3.391   1.484  15.586  0.1069 -0.2396  0.3677
   95TMC2    H5 1491   3.430   1.567  15.622 -2.9204  0.8867  0.9946
   96MPD2     C 1492   4.203   0.996  15.307 -0.4368  0.1114  0.3214
   96MPD2    C1 1493   4.246   1.125  15.331 -1.0204 -0.2321 -0.1734
   96MPD2    C2 1494   4.142   1.226  15.353 -0.2227 -0.3647  0.0236
   96MPD2    C3 1495   4.002   1.191  15.370  0.6574 -0.2089 -0.2766
   96MPD2    C4 1496   3.969   1.056  15.352 -0.2687 -0.5276 -0.7250
   96MPD2    C5 1497   4.070   0.964  15.308 -0.0007  0.2992  0.6308
   96MPD2     H 1498   4.168   1.332  15.356 -0.1439 -0.3250 -1.9920
   96MPD2    H1 1499   3.868   1.017  15.349 -0.5868  0.2522 -0.0297
   96MPD2    H2 1500   4.269   0.912  15.285 -1.7922 -1.1100  0.9511
   96MPD2    H3 1501   4.038   0.861  15.305 -0.6432  0.5350 -0.9029
   96MPD2     N 1502   3.900   1.282  15.404  0.5167  0.0077 -0.3385
   96MPD2    H5 1503   3.811   1.242  15.434 -0.2600  0.1724 -2.4182
   96MPD2    N1 1504   4.376   1.160  15.318 -0.1744 -0.4667 -0.8879
   96MPD2    H7 1505   4.440   1.101  15.266  0.3992  0.0330 -0.7510
   97TMC2    C1 1506   1.650   4.527  17.221 -0.2606 -0.6840 -0.1172
   97TMC2    C2 1507   1.593   4.630  17.142  0.1966 -0.1690  0.0579
   97TMC2    C3 1508   1.649   0.016  17.157 -0.6246 -0.4168 -0.2077
   97TMC2    C4 1509   1.748   4.548  17.311 -0.6630  0.6163 -0.1297
   97TMC2    C5 1510   1.799   4.675  17.324 -0.4361 -0.9879  0.4122
   97TMC2    C6 1511   1.755   0.040  17.237  0.2032  0.5749 -0.1771
   97TMC2     C 1512   1.596   4.388  17.224  0.6074 -0.4604  0.7934
   97TMC2     O 1513   1.597   4.325  17.327  0.2902 -0.6019  0.7401
   97TMC2     H 1514   1.508   4.626  17.075  0.0793  1.9721  0.0969
   97TMC2    H1 1515   1.779   4.463  17.370 -0.1506  1.3926  0.7202
   97TMC2    H2 1516   1.807   0.135  17.232  1.4144 -0.0386  0.6362
   97TMC2    C7 1517   1.902   4.707  17.421  0.3208  0.4911 -0.0968
   97TMC2    C8 1518   1.601   0.122  17.063  0.1620  1.4006  0.3554
   97TMC2    O1 1519   1.963   0.073  17.392 -0.1205  0.0019  0.0122
   97TMC2    O2 1520   1.553   0.092  16.956  0.3663  0.3187  0.4262
   97TMC2    O5 1521   1.615   0.241  17.119 -0.3622 -0.8296  0.2461
   97TMC2    H5 1522   1.644   0.232  17.212 -1.2049  2.6445  0.8550
   98MPD2     C 1523   1.447   3.967  16.977  0.7221  0.0419  0.5244
   98MPD2    C1 1524   1.504   3.985  17.099 -1.1452  0.1545 -0.6287
   98MPD2    C2 1525   1.530   4.112  17.146  0.8180 -1.1574 -0.2614
   98MPD2    C3 1526   1.517   4.217  17.060  0.0182  0.9048 -0.2390
   98MPD2    C4 1527   1.460   4.195  16.941 -0.3177  0.5012  0.1546
   98MPD2    C5 1528   1.427   4.072  16.899  0.5007  0.1163  0.3027
   98MPD2     H 1529   1.585   4.108  17.240 -0.3805  1.2556  0.5327
   98MPD2    H1 1530   1.429   4.284  16.888 -1.8924 -0.3086 -0.3058
   98MPD2    H2 1531   1.418   3.869  16.940 -2.7359  0.7532  1.3215
   98MPD2    H3 1532   1.385   4.047  16.802 -2.2700  0.7660  1.3180
   98MPD2     N 1533   1.550   4.351  17.104  0.2084  0.4482  0.0519
   98MPD2    H5 1534   1.550   4.427  17.037 -2.1649  1.5837  1.3533
   98MPD2    N1 1535   1.527   3.865  17.168 -0.5225  0.5821  0.0522
   98MPD2    H7 1536   1.508   3.785  17.109 -0.4842  0.7316 -0.1610
   99TMC2    C1 1537   0.583   0.992   1.243  0.2907 -0.6842 -0.4841
   99TMC2    C2 1538   0.690   1.072   1.236 -0.2292  0.6180 -0.6084
   99TMC2    C3 1539   0.775   1.076   1.343  0.2710 -0.5140  0.0501
   99TMC2    C4 1540   0.546   0.920   1.352  0.6316  0.0922 -0.1224
   99TMC2    C5 1541   0.620   0.933   1.466 -0.2138 -0.4010 -0.5251
   99TMC2    C6 1542   0.738   1.007   1.462 -0.0808 -0.3213  0.3705
   99TMC2     C 1543   0.491   0.997   1.130  0.4882 -0.0331  0.0580
   99TMC2     O 1544   0.457   1.106   1.099  0.3804 -0.5508 -0.8965
   99TMC2     H 1545   0.727   1.112   1.142 -0.9186  0.3625 -0.9885
   99TMC2    H1 1546   0.447   0.876   1.352  0.2841  0.9122  1.9188
   99TMC2    H2 1547   0.806   1.023   1.545 -0.5756  1.2928  0.4514
   99TMC2    C7 1548   0.541   0.918   1.597 -0.4175  0.0560 -0.4069
   99TMC2    C8 1549   0.915   1.081   1.313 -0.5646 -0.1880 -0.4531
   99TMC2    O1 1550   0.589   0.976   1.695 -0.1307  0.8910  0.4526
   99TMC2    O2 1551   0.967   1.159   1.237  0.3471 -0.4143  0.0431
   99TMC2    O5 1552   0.980   0.981   1.381 -0.0842  0.3768  0.1334
   99TMC2    H5 1553   0.925   0.909   1.420  1.1980 -0.9863 -0.6015
  100MPD2     C 1554   0.327   0.930   0.892  0.5951 -0.1262 -0.8335
  100MPD2    C1 1555   0.386   0.834   0.976  0.1722  0.3811  0.2702
  100MPD2    C2 1556   0.371   0.700   0.948 -0.1162  0.0791  0.6331
  100MPD2    C3 1557   0.288   0.661   0.835  0.8390 -0.1639 -0.5767
  100MPD2    C4 1558   0.236   0.757   0.751  0.0101  0.3196 -0.2677
  100MPD2    C5 1559   0.249   0.892   0.784  0.1378  0.4461  0.0296
  100MPD2     H 1560   0.417   0.625   1.012  0.3457 -0.7831 -0.6917
  100MPD2    H1 1561   0.201   0.738   0.650 -0.5887 -2.2585  0.4177
  100MPD2    H2 1562   0.329   1.037   0.910 -2.2484 -0.3765  0.9542
  100MPD2    H3 1563   0.207   0.972   0.723  2.2866  0.2258 -1.7381
  100MPD2     N 1564   0.269   0.530   0.788  0.3242  0.3497 -0.3842
  100MPD2    H5 1565   0.210   0.526   0.706 -1.1529 -0.4008  0.7376
  100MPD2    N1 1566   0.471   0.871   1.082  0.4176 -0.1980 -0.1761
  100MPD2    H7 1567   0.513   0.799   1.139 -1.0220  1.6507  3.2575
  101TMC2    C1 1568   1.377   1.950  13.035  0.4855 -0.6157 -0.3077
  101TMC2    C2 1569   1.279   2.031  13.092  0.5044 -0.0438  0.0941
  101TMC2    C3 1570   1.281   2.165  13.068 -0.3972  0.3732  1.0714
  101TMC2    C4 1571   1.481   2.005  12.965  0.4953 -0.9737 -0.0150
  101TMC2    C5 1572   1.469   2.139  12.938 -0.1209 -0.5693 -0.1922
  101TMC2    C6 1573   1.369   2.222  12.982  0.1183  0.0859 -0.3615
  101TMC2     C 1574   1.330   1.817  13.017  0.2921 -0.1870 -0.9272
  101TMC2     O 1575   1.208   1.805  13.037  0.2135  0.0138 -0.4007
  101TMC2     H 1576   1.232   1.985  13.177  0.2973  0.2937  0.1594
  101TMC2    H1 1577   1.540   1.940  12.902  1.5893  1.2897 -1.3466
  101TMC2    H2 1578   1.360   2.329  12.967 -0.5914  0.3059  1.7103
  101TMC2    C7 1579   1.530   2.192  12.818  0.1054  0.3024  0.0917
  101TMC2    C8 1580   1.198   2.255  13.149 -0.5099 -0.6248 -0.6899
  101TMC2    O1 1581   1.459   2.245  12.735  0.1045  0.3495  0.8951
  101TMC2    O2 1582   1.093   2.231  13.201  0.1490 -0.3527 -0.2290
  101TMC2    O5 1583   1.280   2.354  13.191  0.1237 -0.0382  0.0755
  101TMC2    H5 1584   1.371   2.333  13.163  0.5101  0.6981  0.7924
  102MPD2     C 1585   1.471   1.501  12.878  0.2953  0.3360  0.2184
  102MPD2    C1 1586   1.389   1.584  12.952 -0.1647 -0.1145 -0.1139
  102MPD2    C2 1587   1.270   1.521  13.003 -0.3091 -0.2249 -0.7195
  102MPD2    C3 1588   1.241   1.391  12.980  0.3599  0.1831  0.5980
  102MPD2    C4 1589   1.326   1.314  12.906 -0.7666 -0.0264  0.0154
  102MPD2    C5 1590   1.448   1.369  12.859  0.3979  0.2213  0.2913
  102MPD2     H 1591   1.197   1.576  13.062 -0.9269 -1.0982 -0.6704
  102MPD2    H1 1592   1.298   1.211  12.884 -4.1894  1.4109 -2.2201
  102MPD2    H2 1593   1.566   1.538  12.841 -0.0424 -0.8808 -1.8731
  102MPD2    H3 1594   1.521   1.305  12.810 -1.3007 -0.8257 -0.9050
  102MPD2     N 1595   1.127   1.334  13.043  0.8682 -0.9483 -0.1064
  102MPD2    H5 1596   1.075   1.391  13.109  1.6349 -1.9089  1.3327
  102MPD2    N1 1597   1.419   1.725  12.968  0.4980  0.2882 -0.0346
  102MPD2    H7 1598   1.516   1.753  12.959  0.2337  1.6617  1.5096
  103TMC2    C1 1599   4.478   1.757  11.755 -0.0228 -0.9908 -1.0225
  103TMC2    C2 1600   4.603   1.792  11.721  0.2648 -0.4082  0.2322
  103TMC2    C3 1601   4.664   1.894  11.798 -0.7943  0.3073  0.5622
  103TMC2    C4 1602   4.402   1.820  11.847 -0.3778 -0.2433 -0.2222
  103TMC2    C5 1603   4.475   1.908  11.930 -0.7495  0.1231  0.6578
  103TMC2    C6 1604   4.599   1.959  11.904 -0.8636  0.0837 -0.3550
  103TMC2     C 1605   4.407   1.674  11.666  0.8247 -0.3243 -0.2283
  103TMC2     O 1606   4.293   1.701  11.623 -0.1547  0.4193  0.0540
  103TMC2     H 1607   4.657   1.743  11.641 -0.7969 -0.9151 -0.1684
  103TMC2    H1 1608   4.308   1.774  11.873  0.6132 -1.4500  1.2358
  103TMC2    H2 1609   4.644   2.038  11.962 -0.5040 -0.9128  0.7362
  103TMC2    C7 1610   4.415   1.927  12.053  0.4779 -0.3595 -0.4153
  103TMC2    C8 1611   0.065   1.924  11.782 -0.2236 -0.3506  0.4793
  103TMC2    O1 1612   4.482   1.927  12.154  0.1691 -0.7158  0.1512
  103TMC2    O2 1613   0.130   1.973  11.877  0.3424  0.2434  0.1117
  103TMC2    O5 1614   0.094   1.925  11.650 -0.4089  0.2188  0.7628
  103TMC2    H5 1615   0.019   1.915  11.587  0.4972  0.4474 -0.3542
  104MPD2     C 1616   4.485   1.313  11.642 -0.1878  0.1729  0.3481
  104MPD2    C1 1617   4.409   1.433  11.630  0.2818 -0.1528  0.4647
  104MPD2    C2 1618   4.278   1.418  11.586  0.4981  0.0974 -0.0438
  104MPD2    C3 1619   4.214   1.294  11.560  0.0021 -0.3147  0.3563
  104MPD2    C4 1620   4.289   1.183  11.597 -0.0735 -0.3378  0.0004
  104MPD2    C5 1621   4.420   1.197  11.630  0.3392  0.0733  0.3356
  104MPD2     H 1622   4.217   1.504  11.557 -0.5946 -1.8152 -3.4604
  104MPD2    H1 1623   4.252   1.087  11.564 -0.7587 -0.4035  0.9558
  104MPD2    H2 1624   4.584   1.320  11.686  0.3665  0.3104 -0.9316
  104MPD2    H3 1625   4.469   1.103  11.652 -2.0894 -1.0741  0.8232
  104MPD2     N 1626   4.075   1.298  11.557  0.6098 -0.1769 -0.6010
  104MPD2    H5 1627   4.038   1.393  11.553  0.4087 -0.3748 -3.6762
  104MPD2    N1 1628   4.475   1.557  11.660  0.0623 -0.0028 -0.4866
  104MPD2    H7 1629   4.573   1.552  11.689 -0.2128 -1.7694  0.1575
  105TMC2    C1 1630   0.186   1.174  17.711  0.1208  0.8287  0.1604
  105TMC2    C2 1631   0.103   1.267  17.645  0.1970 -0.2729  0.1141
  105TMC2    C3 1632   0.006   1.315  17.729 -0.0624 -0.9072  0.3594
  105TMC2    C4 1633   0.158   1.110   0.082  0.3146  0.8396 -0.6345
  105TMC2    C5 1634   0.050   1.140   0.151 -0.7144 -1.0535 -0.2585
  105TMC2    C6 1635   4.703   1.242   0.098 -0.6335 -1.3787  0.3480
  105TMC2     C 1636   0.304   1.134  17.636  0.6214  0.0961  0.1563
  105TMC2     O 1637   0.346   1.022  17.661  1.0064 -0.2490  0.3474
  105TMC2     H 1638   0.120   1.324  17.554 -0.5135  0.6446  0.5597
  105TMC2    H1 1639   0.231   1.036   0.114  0.1615  0.2279 -1.7020
  105TMC2    H2 1640   4.608   1.267   0.143 -0.0381 -1.0792  1.4351
  105TMC2    C7 1641   0.034   1.071   0.285  0.2331  0.8390  0.1917
  105TMC2    C8 1642   4.684   1.444  17.703  0.0525  0.1000 -0.7964
  105TMC2    O1 1643   0.109   0.981   0.306 -0.3431 -0.0779  0.2918
  105TMC2    O2 1644   4.690   1.489  17.588  0.6140  0.3562  0.2313
  105TMC2    O5 1645   4.703   1.521   0.069  0.6602 -0.4106  0.0018
  105TMC2    H5 1646   4.735   1.474   0.149  0.9616 -0.5522 -0.1982
  106MPD2     C 1647   0.637   1.206  17.244  0.6966  0.1132 -0.3755
  106MPD2    C1 1648   0.589   1.330  17.283 -0.0824  0.0776  0.3353
  106MPD2    C2 1649   0.500   1.331  17.389 -0.7908 -0.3471 -0.0749
  106MPD2    C3 1650   0.441   1.212  17.441 -0.2985 -0.2570  0.4055
  106MPD2    C4 1651   0.482   1.091  17.384 -0.7522  0.3392 -0.0907
  106MPD2    C5 1652   0.588   1.093  17.298  0.3780 -0.2973  0.0302
  106MPD2     H 1653   0.469   1.428  17.425 -0.1160  0.1609 -0.9022
  106MPD2    H1 1654   0.431   1.000  17.414 -2.6424  1.7751  1.0880
  106MPD2    H2 1655   0.706   1.194  17.161 -1.1523  0.7162 -1.9992
  106MPD2    H3 1656   0.621   1.000  17.253 -3.2766 -1.8613  0.5609
  106MPD2     N 1657   0.352   1.227  17.549 -0.2446 -0.0711  0.0834
  106MPD2    H5 1658   0.323   1.321  17.574 -1.0858 -0.4974  0.7397
  106MPD2    N1 1659   0.634   1.456  17.224  0.2496  0.1099  0.2020
  106MPD2    H7 1660   0.584   1.536  17.261 -0.7815 -0.2437 -0.4247
  107TMC2    C1 1661   0.918   0.315  11.005  0.0650  0.3901 -0.7759
  107TMC2    C2 1662   0.809   0.256  10.942  0.6962 -0.3837  0.6470
  107TMC2    C3 1663   0.829   0.201  10.816 -0.1032 -0.1423 -0.2412
  107TMC2    C4 1664   1.032   0.336  10.938  0.3353  0.4243 -0.0641
  107TMC2    C5 1665   1.048   0.282  10.809  0.3692  0.2359 -0.3479
  107TMC2    C6 1666   0.945   0.209  10.746  0.3703 -0.5680  0.2616
  107TMC2     C 1667   0.896   0.370  11.141  0.4468 -0.3613 -0.0022
  107TMC2     O 1668   0.783   0.404  11.177  0.3511 -0.1252 -0.8301
  107TMC2     H 1669   0.718   0.247  11.000  0.0757  1.6059 -0.0084
  107TMC2    H1 1670   1.111   0.389  10.990  0.8560  0.1442 -0.5630
  107TMC2    H2 1671   0.960   0.150  10.656  1.4037 -1.4546  1.0146
  107TMC2    C7 1672   1.169   0.313  10.741  0.2633  0.0421 -0.0362
  107TMC2    C8 1673   0.736   0.112  10.761  0.1278 -0.5001 -0.0333
  107TMC2    O1 1674   1.266   0.341  10.808  0.5715  0.1792  0.0588
  107TMC2    O2 1675   0.724   0.091  10.640 -0.0806  0.3775  0.4731
  107TMC2    O5 1676   0.715   0.018  10.858 -0.3098  0.2663 -0.6161
  107TMC2    H5 1677   0.767   0.042  10.938 -0.6150 -1.2509  0.0332
  108MPD2     C 1678   1.134   0.331  11.406 -0.2581  0.1438 -0.5425
  108MPD2    C1 1679   1.014   0.372  11.357 -0.5509  0.0883 -0.6485
  108MPD2    C2 1680   0.922   0.424  11.445 -1.0561 -0.1610 -0.3945
  108MPD2    C3 1681   0.941   0.426  11.587  0.2022  0.2285  0.4635
  108MPD2    C4 1682   1.068   0.398  11.626  0.6226 -0.5175 -0.4511
  108MPD2    C5 1683   1.158   0.351  11.537  0.0724  0.2709 -0.0077
  108MPD2     H 1684   0.830   0.458  11.400 -0.6429  1.5320  0.0331
  108MPD2    H1 1685   1.096   0.414  11.730 -1.0000  0.3444 -0.1593
  108MPD2    H2 1686   1.220   0.306  11.345  0.6449 -3.6582  2.2830
  108MPD2    H3 1687   1.261   0.337  11.568 -0.0417  2.6631  1.4416
  108MPD2     N 1688   0.855   0.479  11.684  0.3097  0.9885  0.6582
  108MPD2    H5 1689   0.885   0.469  11.780  0.3402 -0.3231  0.5099
  108MPD2    N1 1690   1.009   0.363  11.212  0.1066 -0.1663  0.3759
  108MPD2    H7 1691   1.087   0.317  11.165  0.2950  0.2895  0.2379
  109TMC2    C1 1692   0.987   2.678   0.023  0.4317  0.1443  0.2955
  109TMC2    C2 1693   0.921   2.584  17.692  0.6347  0.0534 -0.7000
  109TMC2    C3 1694   0.936   2.592  17.557  0.0646  0.7889  0.1696
  109TMC2    C4 1695   1.059   2.786  17.715  0.0077  0.6943 -0.0803
  109TMC2    C5 1696   1.059   2.796  17.575  0.6073  0.1975 -0.0772
  109TMC2    C6 1697   1.004   2.694  17.495 -0.1077 -0.3042  0.0548
  109TMC2     C 1698   1.046   2.627   0.147 -0.1512 -0.0186 -0.3135
  109TMC2     O 1699   1.061   2.504   0.139  0.2984  0.2142  0.0628
  109TMC2     H 1700   0.875   2.499  17.741 -0.0236  0.9437  0.2137
  109TMC2    H1 1701   1.104   2.859   0.035  2.1041  0.7640 -1.6255
  109TMC2    H2 1702   1.004   2.708  17.388 -1.0552 -3.1196 -0.3158
  109TMC2    C7 1703   1.148   2.897  17.509  0.3312  0.1801 -0.2066
  109TMC2    C8 1704   0.883   2.482  17.477 -0.5573  0.6038  0.4951
  109TMC2    O1 1705   1.168   2.995  17.575 -0.1595 -0.3584 -0.3875
  109TMC2    O2 1706   0.932   2.442  17.373 -0.6456 -0.1186  0.3697
  109TMC2    O5 1707   0.759   2.466  17.515 -0.0726 -0.1194 -0.3436
  109TMC2    H5 1708   0.729   2.511  17.597  0.7677 -1.2311  0.5679
  110MPD2     C 1709   1.102   2.603   0.652 -0.4287  0.6186 -0.2373
  110MPD2    C1 1710   1.064   2.723   0.621  0.3774  0.1278 -0.6516
  110MPD2    C2 1711   1.040   2.764   0.489  0.7090 -0.2093  0.6657
  110MPD2    C3 1712   1.072   2.675   0.394  0.5655 -0.3130  0.4006
  110MPD2    C4 1713   1.108   2.549   0.426  0.0774 -0.9683  0.2301
  110MPD2    C5 1714   1.127   2.516   0.556 -0.7216  0.4450  0.2657
  110MPD2     H 1715   1.012   2.868   0.478 -0.5690 -0.5309  0.9509
  110MPD2    H1 1716   1.123   2.471   0.352  4.3947  0.3115 -0.2443
  110MPD2    H2 1717   1.104   2.579   0.758  0.0729 -1.5721 -0.7517
  110MPD2    H3 1718   1.155   2.414   0.583  0.5811 -0.5281 -4.8796
  110MPD2     N 1719   1.042   2.707   0.259 -0.3378  0.3207  0.6297
  110MPD2    H5 1720   1.009   2.802   0.244 -0.2683  0.5005  1.5989
  110MPD2    N1 1721   1.033   2.814   0.725 -0.1944 -0.7001 -1.1013
  110MPD2    H7 1722   1.044   2.786   0.822 -0.2129 -0.5230 -1.0467
  111TMC2    C1 1723   0.572   2.124  11.692  0.4676  0.3637  0.1705
  111TMC2    C2 1724   0.466   2.117  11.777 -0.9496 -0.6720  0.3323
  111TMC2    C3 1725   0.492   2.151  11.905  0.1540  0.1690 -0.1278
  111TMC2    C4 1726   0.707   2.155  11.727  0.3556 -0.2004  0.1050
  111TMC2    C5 1727   0.720   2.191  11.858  0.4735  0.9605 -0.5376
  111TMC2    C6 1728   0.619   2.187  11.948 -0.5466 -0.1577  0.4756
  111TMC2     C 1729   0.547   2.122  11.546 -0.2971  0.3579 -0.3798
  111TMC2     O 1730   0.639   2.158  11.473  0.3593 -0.5331 -0.2051
  111TMC2     H 1731   0.360   2.101  11.758 -1.1936  0.5579  0.6480
  111TMC2    H1 1732   0.786   2.185  11.660  1.2838  0.3170  1.4226
  111TMC2    H2 1733   0.628   2.219  12.051 -1.4820 -0.5972  0.6931
  111TMC2    C7 1734   0.840   2.265  11.885  0.1295  0.2851 -0.4490
  111TMC2    C8 1735   0.380   2.170  11.994  0.6123  0.5931 -0.0455
  111TMC2    O1 1736   0.933   2.260  11.807  0.2488 -0.5149 -0.0499
  111TMC2    O2 1737   0.389   2.151  12.118  0.4102  0.3269 -0.1259
  111TMC2    O5 1738   0.326   2.287  11.948  0.5112 -0.7710 -0.0859
  111TMC2    H5 1739   0.330   2.292  11.850 -1.2361 -0.6818 -0.1524
  112MPD2     C 1740   0.271   2.057  11.124  0.2143 -0.1820 -0.6298
  112MPD2    C1 1741   0.369   2.154  11.153  0.1645  0.7497  0.0331
  112MPD2    C2 1742   0.429   2.154  11.281 -0.1624 -0.4402  0.2819
  112MPD2    C3 1743   0.374   2.074  11.383  0.2036  0.1531  0.5053
  112MPD2    C4 1744   0.274   1.982  11.355  0.2089 -0.4198  0.8033
  112MPD2    C5 1745   0.225   1.968  11.224  0.2210  0.2568 -0.0384
  112MPD2     H 1746   0.508   2.223  11.309 -2.9495  2.8292  0.1255
  112MPD2    H1 1747   0.227   1.928  11.437  1.0123  0.8491  2.1059
  112MPD2    H2 1748   0.203   2.055  11.040 -2.5017 -2.2631  1.6210
  112MPD2    H3 1749   0.138   1.906  11.206  0.6888  0.3887 -2.7078
  112MPD2     N 1750   0.425   2.075  11.509 -0.2835  0.1115  0.2715
  112MPD2    H5 1751   0.362   2.036  11.579 -0.4096 -0.9758 -0.4532
  112MPD2    N1 1752   0.402   2.258  11.060 -0.5462  0.0601 -0.4530
  112MPD2    H7 1753   0.470   2.326  11.094  0.3200 -0.7824 -0.5005
  113TMC2    C1 1754   4.179   0.798   0.934  0.3112  0.4403  0.1692
  113TMC2    C2 1755   4.093   0.906   0.949 -0.2438  0.1858  0.5110
  113TMC2    C3 1756   3.991   0.922   0.863 -0.0753  0.6823  0.2172
  113TMC2    C4 1757   4.154   0.706   0.842  0.1047  0.1361  0.1609
  113TMC2    C5 1758   4.039   0.721   0.764 -0.0601 -0.0815 -0.4125
  113TMC2    C6 1759   3.968   0.831   0.765 -0.1934 -0.2050 -0.0596
  113TMC2     C 1760   4.319   0.825   0.982  0.2215  0.1128 -0.1151
  113TMC2     O 1761   4.333   0.937   1.024  0.1480  0.6260 -0.6103
  113TMC2     H 1762   4.115   0.987   1.017 -1.6299  2.3337 -1.5771
  113TMC2    H1 1763   4.223   0.630   0.807  2.0798  1.3954  1.3482
  113TMC2    H2 1764   3.871   0.837   0.715  0.1039 -1.1326 -0.7479
  113TMC2    C7 1765   3.979   0.598   0.703  0.1453  0.5352  0.4359
  113TMC2    C8 1766   3.893   1.006   0.914 -0.7731  0.9188  0.4088
  113TMC2    O1 1767   3.930   0.612   0.593  0.3251  0.2140  0.0690
  113TMC2    O2 1768   3.935   1.120   0.938  0.1820 -0.0215 -0.9077
  113TMC2    O5 1769   3.843   0.935   1.015 -0.7005  0.5906  0.5488
  113TMC2    H5 1770   3.843   0.841   0.986 -0.1915  1.3215 -1.7859
  114MPD2     C 1771   0.057   0.721   1.129 -0.8705 -0.1851 -0.0633
  114MPD2    C1 1772   4.698   0.806   1.183 -1.1442  0.1794  0.1271
  114MPD2    C2 1773   4.567   0.811   1.132  0.1626  0.0808  0.2430
  114MPD2    C3 1774   4.533   0.714   1.043 -0.5700  0.5407 -0.0592
  114MPD2    C4 1775   4.627   0.625   1.005 -0.2351 -0.0044  0.2996
  114MPD2    C5 1776   0.020   0.627   1.041 -0.9290 -0.1930  0.4679
  114MPD2     H 1777   4.494   0.875   1.181  0.6768 -0.0714  1.2089
  114MPD2    H1 1778   4.604   0.557   0.925 -1.9066 -1.7749  2.2933
  114MPD2    H2 1779   0.161   0.744   1.147 -1.2012  1.9865 -0.9858
  114MPD2    H3 1780   0.081   0.550   0.994 -3.9886 -1.3702 -1.5966
  114MPD2     N 1781   4.403   0.713   0.986 -0.4480  0.0990 -0.0587
  114MPD2    H5 1782   4.378   0.635   0.925  0.4316  2.8181 -3.9509
  114MPD2    N1 1783   4.719   0.907   1.275 -0.2242  0.4734 -0.2700
  114MPD2    H7 1784   4.641   0.968   1.295 -3.1492 -2.8148 -1.6712
  115TMC2    C1 1785   0.167   3.519  17.600 -0.1919 -0.2412 -0.1180
  115TMC2    C2 1786   0.302   3.507  17.623 -0.7217 -0.2021 -0.1059
  115TMC2    C3 1787   0.388   3.608  17.593 -0.1878 -0.2055 -0.0197
  115TMC2    C4 1788   0.118   3.631  17.534  0.2537 -0.5563 -0.2184
  115TMC2    C5 1789   0.206   3.729  17.509 -0.3943 -0.4152 -0.4007
  115TMC2    C6 1790   0.340   3.724  17.539 -1.0468  0.2233  0.5389
  115TMC2     C 1791   0.082   3.399  17.607  0.5846 -0.1794  0.0590
  115TMC2     O 1792   4.718   3.396  17.535  0.0278  0.1541 -0.6101
  115TMC2     H 1793   0.348   3.415  17.657  2.2776  1.1797 -0.4499
  115TMC2    H1 1794   0.015   3.634  17.500  0.1689 -4.5090 -0.2579
  115TMC2    H2 1795   0.412   3.799  17.509 -0.1214  0.2000  2.7317
  115TMC2    C7 1796   0.161   3.845  17.438  0.3255 -0.9024 -0.0605
  115TMC2    C8 1797   0.534   3.589  17.582 -0.4641 -0.0307 -0.1532
  115TMC2    O1 1798   0.041   3.849  17.427 -0.3775 -0.9816 -0.2713
  115TMC2    O2 1799   0.611   3.682  17.598 -0.2982 -0.6127 -1.0215
  115TMC2    O5 1800   0.565   3.453  17.572  0.3353 -0.3072 -0.0230
  115TMC2    H5 1801   0.491   3.408  17.526  1.2034 -1.6477 -0.0883
  116MPD2     C 1802   0.041   2.906  17.721  0.6986  0.2168  0.7519
  116MPD2    C1 1803   4.732   2.970  17.617 -0.5788  0.3033  0.2790
  116MPD2    C2 1804   0.020   3.106  17.615 -0.8068  0.0895 -0.0513
  116MPD2    C3 1805   0.095   3.174  17.714 -0.4350 -0.2367 -0.0582
  116MPD2    C4 1806   0.149   3.095   0.069  0.1695 -0.1839  0.4122
  116MPD2    C5 1807   0.125   2.961   0.070  0.9953 -0.0492  0.2055
  116MPD2     H 1808   4.722   3.180  17.544 -1.8101  0.4668  0.8361
  116MPD2    H1 1809   0.209   3.142   0.146 -0.3735  1.7775 -0.3479
  116MPD2    H2 1810   0.010   2.804  17.742 -0.1076  0.3809  0.3541
  116MPD2    H3 1811   0.148   2.910   0.162  1.5283 -3.4270 -1.7886
  116MPD2     N 1812   0.142   3.307  17.699  0.4858  0.2813 -0.1413
  116MPD2    H5 1813   0.215   3.347   0.013  1.0273  0.6721 -1.0786
  116MPD2    N1 1814   4.649   2.908  17.523 -1.0375 -0.4329 -0.5952
  116MPD2    H7 1815   4.643   2.807  17.516 -0.9440 -0.5385  0.7588
  117TMC2    C1 1816   3.536   4.379  14.055 -1.2804 -0.3931 -0.0619
  117TMC2    C2 1817   3.639   4.355  14.138  0.4963 -0.7106  0.1615
  117TMC2    C3 1818   3.728   4.451  14.162 -0.0599  0.0368 -0.4905
  117TMC2    C4 1819   3.521   4.500  13.990 -0.6843  0.2245  0.0620
  117TMC2    C5 1820   3.606   4.602  14.021  0.6853  0.0834  1.0133
  117TMC2    C6 1821   3.714   4.575  14.099  0.2082  0.1472  0.6275
  117TMC2     C 1822   3.460   4.259  14.015  0.0178  0.4264 -0.4447
  117TMC2     O 1823   3.501   4.142  14.015 -0.2228 -0.3933  0.0943
  117TMC2     H 1824   3.634   4.266  14.201 -1.0650 -0.1460  0.8327
  117TMC2    H1 1825   3.433   4.511  13.927 -0.2390 -2.4587 -1.0589
  117TMC2    H2 1826   3.791   4.650  14.114 -0.8415  1.3294  0.0603
  117TMC2    C7 1827   3.572   0.003  14.002 -0.2198 -0.3582  0.0137
  117TMC2    C8 1828   3.863   4.411  14.205  0.2261  0.2280  0.2014
  117TMC2    O1 1829   3.663   0.082  14.035  0.0268 -0.3354 -0.2332
  117TMC2    O2 1830   3.897   4.295  14.196  0.3708  0.0627 -0.9104
  117TMC2    O5 1831   3.945   4.516  14.224 -0.2513 -0.4998  0.1390
  117TMC2    H5 1832   3.898   4.594  14.260 -1.4969  0.3649 -3.3694
  118MPD2     C 1833   3.243   0.150  13.923  0.9213  0.1244 -0.6228
  118MPD2    C1 1834   3.380   0.144  13.929  0.3090  0.1462  0.8081
  118MPD2    C2 1835   3.459   0.257  13.893  0.3581 -0.0797  0.7742
  118MPD2    C3 1836   3.389   0.375  13.848  0.0776  0.4091 -0.5100
  118MPD2    C4 1837   3.253   0.372  13.839  0.1307  0.2986 -0.4558
  118MPD2    C5 1838   3.181   0.264  13.882  0.2514  0.4388  0.2487
  118MPD2     H 1839   3.567   0.256  13.898  0.4443  0.1974 -1.3627
  118MPD2    H1 1840   3.200   0.462  13.809 -0.6088 -0.4694 -1.4232
  118MPD2    H2 1841   3.183   0.068  13.962  0.2723  1.0176  0.2662
  118MPD2    H3 1842   3.074   0.271  13.863  0.2095  2.6921  1.3300
  118MPD2     N 1843   3.450   0.498  13.814 -0.0020 -0.8199 -0.0954
  118MPD2    H5 1844   3.394   0.582  13.815  0.6224 -0.4169  0.5238
  118MPD2    N1 1845   3.442   0.024  13.965  0.9056  0.1418  0.4208
  118MPD2    H7 1846   3.382   4.678  13.960 -0.1396  0.9876 -1.0523
  119TMC2    C1 1847   1.578   0.892  12.817  0.9886 -0.1984  0.3895
  119TMC2    C2 1848   1.582   0.875  12.682 -0.0151 -0.0811 -1.0458
  119TMC2    C3 1849   1.467   0.806  12.634 -0.0757  0.0240  0.4418
  119TMC2    C4 1850   1.484   0.839  12.900  0.0027 -0.0658 -0.3413
  119TMC2    C5 1851   1.373   0.785  12.843  0.4048 -0.7941  0.8114
  119TMC2    C6 1852   1.362   0.758  12.705  0.2467  0.1065 -0.7168
  119TMC2     C 1853   1.679   0.972  12.891  0.5446  0.5089 -0.4247
  119TMC2     O 1854   1.676   0.982  13.012  0.1477 -0.4104 -0.3502
  119TMC2     H 1855   1.664   0.902  12.617 -0.5569  1.0869 -1.2462
  119TMC2    H1 1856   1.493   0.864  13.005 -3.6023 -0.2701  0.0141
  119TMC2    H2 1857   1.272   0.707  12.675 -0.1341  0.4769 -0.1953
  119TMC2    C7 1858   1.253   0.758  12.924 -0.3076  0.2863 -0.4145
  119TMC2    C8 1859   1.468   0.785  12.489 -0.3273  0.1928  0.1270
  119TMC2    O1 1860   1.156   0.709  12.867  0.0812 -0.0648  0.2779
  119TMC2    O2 1861   1.572   0.801  12.428  0.4307  0.3936 -0.2127
  119TMC2    O5 1862   1.360   0.731  12.432 -0.0797 -0.1523  0.4946
  119TMC2    H5 1863   1.286   0.724  12.496 -0.3835 -0.9970  0.0469
  120MPD2     C 1864   2.019   1.360  12.902 -0.2868  0.1193  0.0504
  120MPD2    C1 1865   1.929   1.311  12.993  0.1138 -0.2872 -0.2011
  120MPD2    C2 1866   1.853   1.202  12.965 -0.5859  0.5338 -0.6463
  120MPD2    C3 1867   1.847   1.149  12.838  0.4452  0.1848  0.4717
  120MPD2    C4 1868   1.933   1.205  12.743  0.2757  0.4893 -0.3657
  120MPD2    C5 1869   2.021   1.306  12.775 -0.6345  0.6042 -1.3784
  120MPD2     H 1870   1.780   1.170  13.039  1.7049 -0.1645  1.3029
  120MPD2    H1 1871   1.933   1.160  12.645 -0.3299  1.1882 -0.6886
  120MPD2    H2 1872   2.086   1.442  12.922 -0.1572 -0.2489  1.1385
  120MPD2    H3 1873   2.088   1.346  12.699  1.8295 -1.6079 -0.3558
  120MPD2     N 1874   1.754   1.051  12.805  0.0429  0.0131 -0.3764
  120MPD2    H5 1875   1.756   1.023  12.708  0.8848  1.6035 -0.8324
  120MPD2    N1 1876   1.925   1.373  13.121 -0.3999 -0.8316  0.2749
  120MPD2    H7 1877   2.003   1.431  13.149  1.2220 -2.4117 -1.0175
  121TMC2    C1 1878   3.391   2.871  14.380  0.2501  0.0327 -0.1859
  121TMC2    C2 1879   3.432   2.846  14.510 -0.2524  0.0772  0.2126
  121TMC2    C3 1880   3.343   2.840  14.615  0.3326 -0.9528 -0.1612
  121TMC2    C4 1881   3.255   2.883  14.359  0.2446  0.4672  0.4394
  121TMC2    C5 1882   3.172   2.899  14.471  0.4039  0.4762  0.9908
  121TMC2    C6 1883   3.214   2.883  14.601  0.4863  0.2574  0.5996
  121TMC2     C 1884   3.488   2.919  14.287 -0.2610 -0.6767  0.6549
  121TMC2     O 1885   3.593   2.967  14.328 -0.0068 -0.1134  0.3364
  121TMC2     H 1886   3.532   2.810  14.532 -0.0535 -0.1489 -1.0732
  121TMC2    H1 1887   3.222   2.906  14.258 -0.5184 -1.4043  0.2453
  121TMC2    H2 1888   3.149   2.895  14.687 -1.1992  1.2751 -0.8456
  121TMC2    C7 1889   3.027   2.876  14.458  0.3516  0.5904 -0.4989
  121TMC2    C8 1890   3.393   2.794  14.744  0.1274 -0.1375 -0.4527
  121TMC2    O1 1891   2.973   2.809  14.547  0.3205 -0.1258  0.0010
  121TMC2    O2 1892   3.507   2.763  14.772 -0.0011 -0.1435  0.3013
  121TMC2    O5 1893   3.280   2.747  14.803  0.4161 -0.1730 -0.0478
  121TMC2    H5 1894   3.193   2.763  14.760  0.6066  0.1993 -0.2923
  122MPD2     C 1895   3.636   3.002  14.050  0.4624 -0.2009  0.1545
  122MPD2    C1 1896   3.500   2.963  14.044  0.4568 -0.5794 -0.1444
  122MPD2    C2 1897   3.429   2.957  13.923 -0.6976 -0.1950  0.9308
  122MPD2    C3 1898   3.493   3.031  13.818 -0.9896  0.4988 -0.3747
  122MPD2    C4 1899   3.624   3.066  13.827 -0.5008  0.1994 -0.8406
  122MPD2    C5 1900   3.701   3.054  13.943 -0.2643  0.0342 -0.2531
  122MPD2     H 1901   3.326   2.924  13.916 -0.8552  0.9144 -1.7118
  122MPD2    H1 1902   3.671   3.113  13.741  1.1736 -2.1419 -1.2190
  122MPD2    H2 1903   3.700   2.978  14.135  1.5747 -3.2175 -1.5369
  122MPD2    H3 1904   3.807   3.074  13.941 -0.6161  2.0999  1.3036
  122MPD2     N 1905   3.435   3.051  13.693  0.7012 -0.4083 -0.4257
  122MPD2    H5 1906   3.494   3.097  13.625  0.0987 -0.2122 -0.8121
  122MPD2    N1 1907   3.438   2.912  14.157  0.0775  0.2380  0.0072
  122MPD2    H7 1908   3.354   2.868  14.121  0.9700  0.1649 -1.9770
  123TMC2    C1 1909   2.258   4.298   9.206 -0.2460  0.2201  0.2584
  123TMC2    C2 1910   2.328   4.219   9.113  0.4517 -0.1588 -0.1736
  123TMC2    C3 1911   2.268   4.104   9.062 -0.2355  0.1956 -0.4373
  123TMC2    C4 1912   2.134   4.264   9.248 -0.1913  0.5725 -0.0173
  123TMC2    C5 1913   2.075   4.163   9.177 -0.9656 -0.3039 -0.3837
  123TMC2    C6 1914   2.138   4.075   9.090 -0.7645 -0.4149  0.1850
  123TMC2     C 1915   2.314   4.420   9.249  0.3930 -0.3346 -0.8042
  123TMC2     O 1916   2.434   4.424   9.243 -0.0407  0.2536 -0.3981
  123TMC2     H 1917   2.427   4.246   9.081 -0.2388 -0.5101 -2.6286
  123TMC2    H1 1918   2.081   4.304   9.334 -0.2793  1.0101 -0.2761
  123TMC2    H2 1919   2.087   4.000   9.030  1.2582 -2.2679  0.7798
  123TMC2    C7 1920   1.951   4.113   9.233  0.0520  0.5022 -0.2937
  123TMC2    C8 1921   2.321   4.040   8.946  0.1727 -0.1358 -0.1277
  123TMC2    O1 1922   1.927   3.992   9.243  0.0284  0.1355  0.9328
  123TMC2    O2 1923   2.256   4.043   8.842 -0.3819 -0.4352 -0.2465
  123TMC2    O5 1924   2.448   4.074   8.930 -0.1547  0.2414 -0.0352
  123TMC2    H5 1925   2.505   4.067   9.010  0.1615 -0.7996 -0.3471
  124MPD2     C 1926   2.306   0.065   9.587 -0.1441  0.2752 -0.4412
  124MPD2    C1 1927   2.180   0.035   9.558 -0.1547 -0.1948  0.7711
  124MPD2    C2 1928   2.156   4.669   9.466 -0.4710  0.0550  0.8038
  124MPD2    C3 1929   2.264   4.591   9.413  0.1103  0.1932 -0.1933
  124MPD2    C4 1930   2.393   4.631   9.454  0.5055  0.6407 -0.2940
  124MPD2    C5 1931   2.417   4.735   9.538  0.5202  0.2051 -0.8055
  124MPD2     H 1932   2.058   4.640   9.431  0.5258 -1.2488 -0.9268
  124MPD2    H1 1933   2.478   4.587   9.403  1.2819  2.5170 -0.6242
  124MPD2    H2 1934   2.320   0.150   9.653  0.9998  0.1085 -0.4598
  124MPD2    H3 1935   2.514   0.032   9.572 -0.3950  0.3221  1.6381
  124MPD2     N 1936   2.228   4.492   9.320 -0.6332  0.2347  0.0623
  124MPD2    H5 1937   2.128   4.490   9.302 -0.4344  2.8356 -1.2469
  124MPD2    N1 1938   2.085   0.118   9.606  0.5365 -0.1397  0.0044
  124MPD2    H7 1939   2.116   0.202   9.654 -0.9707  0.1615  0.4457
  125TMC2    C1 1940   2.707   3.360   9.325 -0.7562  0.6075  0.4000
  125TMC2    C2 1941   2.619   3.388   9.424  0.8396 -0.0344  0.1425
  125TMC2    C3 1942   2.580   3.519   9.451 -0.0380  0.3233 -0.3687
  125TMC2    C4 1943   2.773   3.459   9.255  0.6613 -0.5364 -0.2559
  125TMC2    C5 1944   2.730   3.583   9.290 -0.2736  0.4997 -0.3386
  125TMC2    C6 1945   2.641   3.622   9.391  0.0671  0.0453  0.6736
  125TMC2     C 1946   2.730   3.220   9.281  0.5083  0.1519  0.2585
  125TMC2     O 1947   2.818   3.219   9.201  0.2943  0.1894  0.4578
  125TMC2     H 1948   2.578   3.308   9.484 -3.5302  0.8425 -1.6660
  125TMC2    H1 1949   2.844   3.441   9.175  1.7251 -0.4704  0.6633
  125TMC2    H2 1950   2.625   3.724   9.423  1.8897  0.3346  0.6711
  125TMC2    C7 1951   2.782   3.694   9.213 -0.5373 -0.9064 -0.2555
  125TMC2    C8 1952   2.496   3.542   9.570  1.0008 -0.5363 -0.0791
  125TMC2    O1 1953   2.723   3.803   9.220  0.6740 -0.3655 -0.4562
  125TMC2    O2 1954   2.476   3.450   9.646  0.3235 -0.4826  0.2564
  125TMC2    O5 1955   2.432   3.660   9.565  0.5987 -0.1783  0.0278
  125TMC2    H5 1956   2.462   3.701   9.480  0.5070  0.9749  0.5484
  126MPD1     C 1957   2.611   2.729   9.227  0.0030 -0.3046  0.2890
  126MPD1    C1 1958   2.576   2.772   9.355  0.6526  0.3202  0.2188
  126MPD1    C2 1959   2.611   2.896   9.393  1.5601  0.0357 -0.2229
  126MPD1    C3 1960   2.655   2.990   9.306 -0.2177 -0.3330  0.4027
  126MPD1    C4 1961   2.692   2.949   9.178  0.5949 -0.4776 -0.1828
  126MPD1    C5 1962   2.689   2.811   9.148 -0.1850  0.1824  0.3694
  126MPD1     H 1963   2.583   2.920   9.495 -1.6862  0.6196 -1.2614
  126MPD1    H1 1964   2.730   3.012   9.099 -1.5133 -1.1816 -1.7675
  126MPD1    H2 1965   2.599   2.625   9.199 -3.3402  0.6750 -1.8643
  126MPD1    H3 1966   2.726   2.779   9.051 -0.5993  0.4413  0.1246
  126MPD1     N 1967   2.658   3.124   9.345  0.4375 -0.3667  0.4107
  126MPD1    H5 1968   2.619   3.150   9.435 -1.1650  1.3567 -0.7698
  126MPD1    N1 1969   2.543   2.681   9.452  0.4531  0.0783  0.2974
  126MPD1    H6 1970   2.503   2.728   9.533 -1.1397  0.3408 -0.6367
  126MPD1    H7 1971   2.486   2.605   9.415  0.4350  0.7070 -0.9607
  127TMC2    C1 1972   3.102   1.921   9.449  0.1952 -0.0989  0.0355
  127TMC2    C2 1973   3.162   1.886   9.567  0.2587 -0.5123  0.3711
  127TMC2    C3 1974   3.095   1.783   9.630 -0.5519  0.6911 -0.6643
  127TMC2    C4 1975   2.987   1.872   9.392  0.7564 -0.5715 -0.5715
  127TMC2    C5 1976   2.926   1.770   9.467  0.1801 -0.3340  0.0590
  127TMC2    C6 1977   2.972   1.731   9.591 -0.1937 -0.2027  0.3119
  127TMC2     C 1978   3.166   2.035   9.394 -0.0076 -0.4991 -0.5228
  127TMC2     O 1979   3.251   2.093   9.462  0.0748 -0.4585 -0.0206
  127TMC2     H 1980   3.252   1.931   9.606 -1.0579  1.3043  1.3437
  127TMC2    H1 1981   2.958   1.890   9.290  0.5642 -1.8890 -0.7406
  127TMC2    H2 1982   2.925   1.652   9.648  0.3413 -0.6653  0.1216
  127TMC2    C7 1983   2.794   1.736   9.430 -0.0761  0.6763  0.1257
  127TMC2    C8 1984   3.145   1.726   9.756 -0.3158 -0.4017 -0.0070
  127TMC2    O1 1985   2.752   1.765   9.321  0.0070 -0.0803 -0.1232
  127TMC2    O2 1986   3.119   1.612   9.793  0.0578 -0.1186 -0.3072
  127TMC2    O5 1987   3.211   1.817   9.830 -0.3881 -0.1446 -0.1616
  127TMC2    H5 1988   3.197   1.907   9.793 -2.2783 -0.4053 -0.0814
  128MPD2     C 1989   3.108   2.161   9.057 -0.3462  0.8255 -0.4657
  128MPD2    C1 1990   3.168   2.160   9.183 -0.2934  0.1176 -0.8695
  128MPD2    C2 1991   3.248   2.265   9.226 -0.4305  0.1162 -0.3264
  128MPD2    C3 1992   3.271   2.367   9.142  0.1975  0.3748 -0.3245
  128MPD2    C4 1993   3.222   2.371   9.015  0.4548 -0.5443  0.2526
  128MPD2    C5 1994   3.145   2.264   8.980 -0.1667 -0.1499 -0.2171
  128MPD2     H 1995   3.280   2.275   9.329  1.5694 -0.3439 -0.9048
  128MPD2    H1 1996   3.238   2.445   8.937 -1.2228  1.4513  1.7837
  128MPD2    H2 1997   3.037   2.086   9.025 -0.7969  0.6364  0.9852
  128MPD2    H3 1998   3.093   2.272   8.885  2.0302  0.3716 -1.3611
  128MPD2     N 1999   3.345   2.483   9.188 -0.9445  0.1462  0.0825
  128MPD2    H5 2000   3.405   2.464   9.267  2.5356 -1.2787 -2.8909
  128MPD2    N1 2001   3.134   2.052   9.260 -0.1619  0.0454 -0.2634
  128MPD2    H7 2002   3.072   1.986   9.215 -2.1844  0.0894  2.4439
  129TMC2    C1 2003   3.026   1.676   1.325 -0.3977 -0.6282 -0.4538
  129TMC2    C2 2004   3.076   1.593   1.418  0.3176  0.2897  1.6853
  129TMC2    C3 2005   3.016   1.482   1.448 -0.6337 -0.4842 -0.1045
  129TMC2    C4 2006   2.926   1.632   1.238 -0.2650  0.3098 -0.0703
  129TMC2    C5 2007   2.870   1.508   1.275 -0.0930  0.7417  0.9360
  129TMC2    C6 2008   2.911   1.434   1.378 -0.2476  0.5105 -0.0927
  129TMC2     C 2009   3.118   1.779   1.276  0.1745 -0.1918 -0.5505
  129TMC2     O 2010   3.236   1.757   1.287 -0.0182  0.0291  0.4330
  129TMC2     H 2011   3.162   1.627   1.475  0.0079  1.3676  1.4961
  129TMC2    H1 2012   2.886   1.696   1.161  0.5977  1.9235  0.8122
  129TMC2    H2 2013   2.863   1.340   1.404  0.1117  1.0981  2.7036
  129TMC2    C7 2014   2.753   1.469   1.195  0.6001 -0.6275  0.1086
  129TMC2    C8 2015   3.084   1.389   1.532 -0.8453 -0.4409  0.1981
  129TMC2    O1 2016   2.680   1.556   1.143  0.3550  0.1807  0.1838
  129TMC2    O2 2017   3.064   1.269   1.525  0.3131 -0.0362  0.2490
  129TMC2    O5 2018   3.141   1.457   1.633 -0.1339  0.4706  0.1000
  129TMC2    H5 2019   3.115   1.552   1.627 -0.3528  0.3504 -0.7643
  130MPD2     C 2020   3.267   1.959   1.098  0.6755 -0.2665 -0.6840
  130MPD2    C1 2021   3.133   1.982   1.141 -0.6520 -0.6245 -0.2562
  130MPD2    C2 2022   3.069   2.106   1.106  0.3545  0.5720  0.3067
  130MPD2    C3 2023   3.137   2.203   1.037 -0.3062  0.3716  1.0788
  130MPD2    C4 2024   3.267   2.178   1.003 -1.2650  0.6817 -0.0880
  130MPD2    C5 2025   3.328   2.058   1.031 -0.2556  0.7647 -0.1227
  130MPD2     H 2026   2.968   2.121   1.142  0.2171  0.0171  0.1411
  130MPD2    H1 2027   3.325   2.253   0.951 -1.4780  0.5709 -0.4882
  130MPD2    H2 2028   3.326   1.871   1.123  0.4146  0.1272  1.3282
  130MPD2    H3 2029   3.428   2.032   0.998 -0.3906  0.7521 -0.5237
  130MPD2     N 2030   3.080   2.335   1.021 -0.0698  0.2607  0.3019
  130MPD2    H5 2031   2.983   2.342   1.049 -0.7783 -1.1859 -1.7736
  130MPD2    N1 2032   3.062   1.892   1.218 -0.0317 -0.8218  0.2008
  130MPD2    H7 2033   2.963   1.913   1.217 -0.1288 -1.1892  1.9698
  131TMC2    C1 2034   2.038   1.160  10.017 -0.6667  0.1287 -0.2312
  131TMC2    C2 2035   2.079   1.186  10.144  0.5255  0.2892  0.1917
  131TMC2    C3 2036   2.019   1.296  10.196 -0.4265  0.0471  0.4326
  131TMC2    C4 2037   1.956   1.242   9.941  0.6155 -0.1352  0.0295
  131TMC2    C5 2038   1.912   1.362  10.000  0.1541 -0.1709  0.1327
  131TMC2    C6 2039   1.931   1.384  10.133  0.5965  0.2576 -0.3781
  131TMC2     C 2040   2.091   1.043   9.954 -1.0921  0.1839  0.3047
  131TMC2     O 2041   2.061   1.021   9.835 -0.0060 -0.3831  0.4077
  131TMC2     H 2042   2.136   1.127  10.215  1.4082 -2.0351 -2.4837
  131TMC2    H1 2043   1.925   1.207   9.844  0.3678  0.7669 -0.2112
  131TMC2    H2 2044   1.895   1.471  10.186  1.4522 -0.0449  0.6981
  131TMC2    C7 2045   1.840   1.463   9.908  0.9722  0.1768 -0.4466
  131TMC2    C8 2046   2.047   1.330  10.324 -0.3634 -0.2153  0.2968
  131TMC2    O1 2047   1.833   1.438   9.790  0.1708 -0.0660  1.2892
  131TMC2    O2 2048   2.064   1.247  10.417 -0.6815  0.2103 -0.3409
  131TMC2    O5 2049   2.099   1.453  10.313 -0.0999  0.4610 -0.1091
  131TMC2    H5 2050   2.114   1.481  10.220 -0.6306  0.5977 -0.1543
  132MPD2     C 2051   2.292   0.772  10.101 -0.3198 -0.1406  0.3135
  132MPD2    C1 2052   2.193   0.829  10.034  0.7523 -0.6032 -0.5505
  132MPD2    C2 2053   2.116   0.753   9.949  0.2242 -0.1175 -0.4532
  132MPD2    C3 2054   2.146   0.615   9.950  0.1782 -0.2094 -0.0150
  132MPD2    C4 2055   2.253   0.563  10.013  0.3945 -0.2316  0.0561
  132MPD2    C5 2056   2.328   0.639  10.090  0.1827  0.0316 -0.8323
  132MPD2     H 2057   2.032   0.793   9.894 -0.1339 -1.9202 -1.2240
  132MPD2    H1 2058   2.271   0.456  10.020  0.9968 -0.0808  0.7784
  132MPD2    H2 2059   2.355   0.836  10.162 -0.4726  0.1256  0.1917
  132MPD2    H3 2060   2.413   0.604  10.148  1.2529 -0.3188 -2.6228
  132MPD2     N 2061   2.066   0.520   9.876  0.4190 -0.4416 -0.2048
  132MPD2    H5 2062   2.100   0.425   9.858  1.5847 -0.5732  2.6512
  132MPD2    N1 2063   2.170   0.970  10.038 -0.2774  0.0237  0.6735
  132MPD2    H7 2064   2.221   1.020  10.109  1.5042  0.5619 -0.9826
  133TMC2    C1 2065   1.459   2.519   9.549  0.7004 -0.1406  0.0434
  133TMC2    C2 2066   1.589   2.483   9.532 -0.5947  0.5977  0.5588
  133TMC2    C3 2067   1.679   2.583   9.567  0.0313  0.3738 -0.6577
  133TMC2    C4 2068   1.409   2.628   9.625 -0.2998 -0.3820 -0.7899
  133TMC2    C5 2069   1.501   2.723   9.662  0.0393  0.0189  0.0021
  133TMC2    C6 2070   1.631   2.693   9.636 -0.1079  0.3776 -0.4941
  133TMC2     C 2071   1.363   2.426   9.483 -0.4588  0.5894  0.3797
  133TMC2     O 2072   1.393   2.305   9.484  0.5071  0.0086 -0.6128
  133TMC2     H 2073   1.616   2.399   9.469 -0.2759 -0.2809  1.8813
  133TMC2    H1 2074   1.302   2.645   9.630 -0.3372 -1.2075  1.1898
  133TMC2    H2 2075   1.705   2.762   9.676 -1.4536 -0.6701  3.7960
  133TMC2    C7 2076   1.452   2.841   9.744 -0.0076 -0.3106  0.1863
  133TMC2    C8 2077   1.823   2.579   9.537 -0.7135 -0.0131  0.8458
  133TMC2    O1 2078   1.347   2.832   9.812 -0.5719  0.0653  0.6540
  133TMC2    O2 2079   1.911   2.601   9.616 -0.2800  0.2253  0.6843
  133TMC2    O5 2080   1.851   2.526   9.420 -0.4621 -0.3388  0.7029
  133TMC2    H5 2081   1.771   2.513   9.364  1.1906  0.5801 -1.8986
  134MPD2     C 2082   1.089   2.511   9.252 -0.1085  0.4438  0.0604
  134MPD2    C1 2083   1.167   2.431   9.329  0.1843  0.2462  0.1189
  134MPD2    C2 2084   1.139   2.291   9.330 -0.0823 -0.3312 -0.1118
  134MPD2    C3 2085   1.028   2.241   9.268 -0.3362 -0.0006 -0.3762
  134MPD2    C4 2086   0.945   2.327   9.199 -0.0868  0.3399  0.8767
  134MPD2    C5 2087   0.974   2.463   9.200 -0.4613  0.0201  0.4407
  134MPD2     H 2088   1.202   2.232   9.397  1.1387  0.4688 -0.5669
  134MPD2    H1 2089   0.854   2.297   9.149  1.2415  0.0525 -1.3689
  134MPD2    H2 2090   1.116   2.615   9.241  0.4007  0.4019  0.9398
  134MPD2    H3 2091   0.897   2.527   9.159 -0.9574 -1.6057 -1.1230
  134MPD2     N 2092   0.996   2.104   9.265 -0.3807  0.3146  0.1196
  134MPD2    H5 2093   0.918   2.067   9.212  0.5327 -1.6361  0.1260
  134MPD2    N1 2094   1.276   2.489   9.401 -0.6527  0.4876  0.1894
  134MPD2    H7 2095   1.277   2.590   9.414  0.1714  0.8170 -2.6171
  135TMC2    C1 2096   2.786   3.726   9.748 -0.5927  0.9086  0.0415
  135TMC2    C2 2097   2.688   3.760   9.838 -0.3678 -0.2977 -0.3351
  135TMC2    C3 2098   2.643   3.660   9.922  0.6400  0.3454 -0.3024
  135TMC2    C4 2099   2.815   3.591   9.730 -0.5479  0.1572  0.3803
  135TMC2    C5 2100   2.758   3.497   9.807 -0.3894  0.0188 -0.6167
  135TMC2    C6 2101   2.674   3.529   9.906 -0.1162 -0.1746  0.2422
  135TMC2     C 2102   2.836   3.831   9.663 -0.0051  0.4911 -1.3063
  135TMC2     O 2103   2.810   3.945   9.697  0.3954  0.8188 -0.9549
  135TMC2     H 2104   2.671   3.864   9.863 -0.6529 -0.9211  2.0542
  135TMC2    H1 2105   2.883   3.555   9.653 -0.4920  0.0683  0.4725
  135TMC2    H2 2106   2.632   3.462   9.980  1.2957  1.4756  2.5392
  135TMC2    C7 2107   2.773   3.361   9.761 -0.4820  0.1467  0.3261
  135TMC2    C8 2108   2.531   3.683  10.013 -0.2737 -0.2563 -0.4078
  135TMC2    O1 2109   2.865   3.332   9.691 -0.1015  0.1032  1.0581
  135TMC2    O2 2110   2.480   3.587  10.074 -0.2719 -0.2340  0.3504
  135TMC2    O5 2111   2.536   3.810  10.055  0.2411 -0.2725 -0.5079
  135TMC2    H5 2112   2.466   3.836  10.119  1.4836  0.9272  0.3851
  136MPD2     C 2113   2.956   3.984   9.437  1.0757  0.0242  0.2784
  136MPD2    C1 2114   3.007   3.867   9.489 -0.7523 -0.3967 -0.4386
  136MPD2    C2 2115   3.123   3.820   9.440 -0.4253  0.6547  0.2916
  136MPD2    C3 2116   3.189   3.889   9.341 -0.5522  0.2848  0.0942
  136MPD2    C4 2117   3.136   4.009   9.289  0.3305 -0.1544  0.2479
  136MPD2    C5 2118   3.021   4.056   9.343  0.1819 -0.1061  0.0933
  136MPD2     H 2119   3.164   3.735   9.493  2.2671  1.6506 -0.2210
  136MPD2    H1 2120   3.182   4.065   9.209  0.6822 -0.6439  0.1043
  136MPD2    H2 2121   2.862   4.031   9.463  1.0429 -0.3242  0.7778
  136MPD2    H3 2122   2.968   4.138   9.296  1.0450  0.8674  0.8234
  136MPD2     N 2123   3.314   3.847   9.282  0.4732 -0.1234  0.1782
  136MPD2    H5 2124   3.355   3.905   9.209 -0.5895  0.6655  0.2003
  136MPD2    N1 2125   2.936   3.791   9.575  0.4041  0.4557  0.2561
  136MPD2    H7 2126   2.969   3.695   9.584 -0.5062  0.0875 -0.3622
  137TMC2    C1 2127   2.179   2.818   9.387  0.4769 -0.3070 -0.2449
  137TMC2    C2 2128   2.250   2.914   9.323 -0.2167 -0.1852  0.3151
  137TMC2    C3 2129   2.239   3.044   9.370 -0.1796 -1.1333  0.4188
  137TMC2    C4 2130   2.095   2.840   9.488  0.1426 -0.4525  0.2306
  137TMC2    C5 2131   2.084   2.974   9.530 -0.5279  0.3567 -0.1744
  137TMC2    C6 2132   2.155   3.079   9.472  0.5879  0.2080 -0.5409
  137TMC2     C 2133   2.238   2.688   9.388 -0.2264  0.3631 -0.0243
  137TMC2     O 2134   2.216   2.624   9.488 -0.2988  0.0003  0.1266
  137TMC2     H 2135   2.315   2.882   9.242 -0.6732  0.0662 -0.1410
  137TMC2    H1 2136   2.042   2.757   9.534  1.2074 -1.3803 -0.2363
  137TMC2    H2 2137   2.138   3.183   9.494  0.4381 -0.3830  2.1329
  137TMC2    C7 2138   2.015   3.015   9.653 -0.3367 -1.3115  0.2186
  137TMC2    C8 2139   2.326   3.143   9.317 -0.6070  0.4481  0.0179
  137TMC2    O1 2140   2.011   3.136   9.670  0.1006  0.1334 -0.0884
  137TMC2    O2 2141   2.364   3.143   9.201 -0.3143 -0.2382 -0.3044
  137TMC2    O5 2142   2.358   3.222   9.416  0.0867 -0.5350  1.0495
  137TMC2    H5 2143   2.320   3.198   9.503  1.5108  0.3843  1.9195
  138MPD2     C 2144   2.364   2.465   9.122 -0.6444  0.5547  0.5371
  138MPD2    C1 2145   2.337   2.508   9.251 -0.8309 -0.2911 -0.1200
  138MPD2    C2 2146   2.369   2.418   9.355 -0.3331  0.1144 -0.0639
  138MPD2    C3 2147   2.410   2.288   9.334  0.0163  0.4871 -0.0483
  138MPD2    C4 2148   2.414   2.242   9.199  0.0033  1.0288  0.6833
  138MPD2    C5 2149   2.396   2.331   9.095  0.3195 -0.0296 -0.2847
  138MPD2     H 2150   2.358   2.439   9.461  1.0908 -0.0832  0.1284
  138MPD2    H1 2151   2.446   2.139   9.185 -1.6265  0.4756  1.0435
  138MPD2    H2 2152   2.357   2.536   9.041 -0.4698 -1.3511 -1.1717
  138MPD2    H3 2153   2.417   2.308   8.991  0.6241 -0.8543 -0.0354
  138MPD2     N 2154   2.437   2.204   9.446  0.3703  0.2641  0.1063
  138MPD2    H5 2155   2.425   2.244   9.538  1.7112  1.9018 -0.4267
  138MPD2    N1 2156   2.279   2.637   9.270 -0.3399  0.7429  0.6599
  138MPD2    H7 2157   2.268   2.696   9.187  0.6268  1.2543  0.8868
  139TMC2    C1 2158   3.314   0.678  13.212 -0.0207 -0.1040  0.2417
  139TMC2    C2 2159   3.374   0.756  13.115 -0.8292  0.6570 -0.0883
  139TMC2    C3 2160   3.312   0.871  13.075  0.4581  0.5627  0.6435
  139TMC2    C4 2161   3.194   0.715  13.270 -0.0672 -0.1077  0.0530
  139TMC2    C5 2162   3.136   0.821  13.212 -0.3958 -0.2270  0.6647
  139TMC2    C6 2163   3.187   0.905  13.115 -0.3146 -0.1720 -0.3080
  139TMC2     C 2164   3.371   0.552  13.240 -0.2786 -0.1646  0.2612
  139TMC2     O 2165   3.452   0.499  13.163  0.3033 -0.3335 -0.0591
  139TMC2     H 2166   3.472   0.724  13.082  1.0651  3.8435  2.4387
  139TMC2    H1 2167   3.137   0.655  13.340  1.3836 -0.8156  0.6140
  139TMC2    H2 2168   3.136   0.998  13.089 -0.5129  0.1398  1.1896
  139TMC2    C7 2169   3.020   0.876  13.280  0.3874 -0.3551  0.0756
  139TMC2    C8 2170   3.367   0.940  12.961 -0.2007 -0.0048  0.2368
  139TMC2    O1 2171   2.932   0.935  13.219 -0.1457  0.6793  0.0695
  139TMC2    O2 2172   3.406   0.884  12.859 -0.1266  0.3208  0.9138
  139TMC2    O5 2173   3.325   1.065  12.983  0.0051  0.2181  0.5122
  139TMC2    H5 2174   3.324   1.083  13.079 -2.6513 -0.6289  0.6442
  140MPD2     C 2175   3.281   0.320  13.496  0.4835 -0.3526 -0.4918
  140MPD2    C1 2176   3.356   0.368  13.393 -0.0121  0.2090  0.7741
  140MPD2    C2 2177   3.471   0.295  13.354 -0.3610 -0.4189 -0.2488
  140MPD2    C3 2178   3.496   0.168  13.407 -0.2462 -0.1692  0.9060
  140MPD2    C4 2179   3.423   0.129  13.520 -0.7916 -0.2621  0.0679
  140MPD2    C5 2180   3.310   0.200  13.549  0.0276  0.4328  0.3876
  140MPD2     H 2181   3.532   0.336  13.275 -2.7033 -0.3565 -2.0018
  140MPD2    H1 2182   3.431   0.041  13.582 -0.8877  0.3255  0.9209
  140MPD2    H2 2183   3.206   0.378  13.547  1.3066 -2.5481  3.2398
  140MPD2    H3 2184   3.253   0.164  13.634  0.8039 -0.3440  0.5753
  140MPD2     N 2185   3.605   0.097  13.356 -0.3660 -0.1537  0.1859
  140MPD2    H5 2186   3.658   0.135  13.279 -0.1798 -0.5364  0.1209
  140MPD2    N1 2187   3.320   0.499  13.354 -0.1916  0.3136 -0.2035
  140MPD2    H7 2188   3.247   0.539  13.413  0.0861  1.0729 -0.3754
  141TMC2    C1 2189   4.456   1.925  13.750 -0.5890  0.5585  0.2079
  141TMC2    C2 2190   4.449   1.843  13.859 -0.1285  0.2073  0.5784
  141TMC2    C3 2191   4.470   1.898  13.984  0.5343  0.5439  0.4212
  141TMC2    C4 2192   4.450   2.060  13.771  0.0941  0.2527 -0.2063
  141TMC2    C5 2193   4.462   2.116  13.892  0.5006 -0.0607  0.4238
  141TMC2    C6 2194   4.487   2.031  13.999  0.1875  1.0311  0.4651
  141TMC2     C 2195   4.418   1.872  13.623  0.2457  0.0048  0.3732
  141TMC2     O 2196   4.325   1.927  13.571 -0.1450 -0.3979  0.4453
  141TMC2     H 2197   4.439   1.736  13.841  1.3102 -0.1662  2.0690
  141TMC2    H1 2198   4.456   2.120  13.681 -1.1319  1.9136  0.8132
  141TMC2    H2 2199   4.517   2.077  14.093 -1.0166  0.1937  1.2433
  141TMC2    C7 2200   4.543   2.240  13.880  0.0557  0.3589  0.5381
  141TMC2    C8 2201   4.554   1.825  14.070  0.3197 -0.4090 -0.4893
  141TMC2    O1 2202   4.589   2.271  13.768  0.3493  0.1127  0.3205
  141TMC2    O2 2203   4.634   1.878  14.145 -0.5188 -0.0899 -0.2276
  141TMC2    O5 2204   4.487   1.708  14.095 -0.2840  0.3014 -0.3143
  141TMC2    H5 2205   4.395   1.709  14.061  0.3264  1.0426 -1.9444
  142TMC2    C1 2206   1.251   3.692   9.660 -0.2997 -0.3686 -0.5242
  142TMC2    C2 2207   1.228   3.571   9.596 -0.0576 -0.0296 -0.9075
  142TMC2    C3 2208   1.300   3.551   9.477 -0.5394  0.5135  1.3171
  142TMC2    C4 2209   1.346   3.781   9.612 -0.0355 -0.5314  0.2287
  142TMC2    C5 2210   1.423   3.746   9.506  0.6445 -0.9872  0.6954
  142TMC2    C6 2211   1.400   3.633   9.428 -0.4846 -0.1879 -0.1115
  142TMC2     C 2212   1.211   3.691   9.797 -0.0434  0.3894  0.5295
  142TMC2     O 2213   1.159   3.588   9.838 -0.4943  0.3418 -0.0657
  142TMC2     H 2214   1.151   3.504   9.634  0.4457 -0.6164 -0.9205
  142TMC2    H1 2215   1.364   3.867   9.676  0.1878  0.2355 -0.8624
  142TMC2    H2 2216   1.468   3.607   9.348  1.5591 -0.9322  1.8739
  142TMC2    C7 2217   1.529   3.839   9.464  0.2867 -0.4341 -0.2694
  142TMC2    C8 2218   1.273   3.422   9.417  0.0274  0.7047 -0.4425
  142TMC2    O1 2219   1.598   3.793   9.377  0.1694 -0.5999 -0.5820
  142TMC2    O2 2220   1.216   3.332   9.476  0.5501 -0.7100 -0.6558
  142TMC2    O5 2221   1.281   3.433   9.283  0.1744 -0.5649 -0.2416
  142TMC2    H5 2222   1.308   3.522   9.253 -0.0270 -0.2413  0.5548
  143MPD2     C 2223   1.184   3.853  10.278 -0.7966 -0.4208  0.0357
  143MPD2    C1 2224   1.137   3.737  10.220  0.2200  0.3170 -0.5177
  143MPD2    C2 2225   1.153   3.726  10.084 -0.3768  0.4712 -0.1406
  143MPD2    C3 2226   1.193   3.826  10.003  0.2806  0.1399  0.3302
  143MPD2    C4 2227   1.224   3.952  10.058  0.2881  0.1110 -0.0944
  143MPD2    C5 2228   1.216   3.960  10.198 -0.7499 -0.3576 -0.6688
  143MPD2     H 2229   1.127   3.628  10.046  1.3789 -0.1165  0.1754
  143MPD2    H1 2230   1.277   4.022   9.995  1.8055 -1.4257 -0.5308
  143MPD2    H2 2231   1.195   3.868  10.385  0.3631  1.5931 -0.3627
  143MPD2    H3 2232   1.256   4.046  10.251 -1.6179 -0.3419 -0.0456
  143MPD2     N 2233   1.213   3.812   9.862  0.2056 -0.6071  0.1444
  143MPD2    H5 2234   1.239   3.894   9.808  1.6843 -1.9876 -1.1989
  143MPD2    N1 2235   1.078   3.641  10.303  0.4551  0.0052  0.0756
  143MPD2    H7 2236   1.096   3.657  10.401  0.4109 -2.2077  0.4385
  144TMC2    C1 2237   4.350   4.498   0.637 -0.3353 -0.8812  0.2118
  144TMC2    C2 2238   4.372   4.365   0.660  0.6632  0.3466  0.0180
  144TMC2    C3 2239   4.468   4.328   0.745  0.3161 -0.3024  0.0247
  144TMC2    C4 2240   4.415   4.594   0.710 -0.0562  0.4904 -0.7334
  144TMC2    C5 2241   4.501   4.556   0.811  0.8684  0.7928 -0.5315
  144TMC2    C6 2242   4.532   4.421   0.825 -0.5811 -0.5229 -0.0206
  144TMC2     C 2243   4.263   4.535   0.522 -0.0702  0.5561  0.0145
  144TMC2     O 2244   4.244   4.436   0.451  0.1097  0.7578 -0.5340
  144TMC2     H 2245   4.300   4.295   0.618  1.9170 -1.4560  0.8653
  144TMC2    H1 2246   4.414   4.698   0.681 -3.5773  0.4951 -0.6218
  144TMC2    H2 2247   4.611   4.398   0.896 -0.3754 -0.6015 -0.2780
  144TMC2    C7 2248   4.613   4.646   0.839 -0.2615 -0.5120  0.1526
  144TMC2    C8 2249   4.496   4.186   0.777 -0.7228 -0.4665  0.1353
  144TMC2    O1 2250   4.725   4.591   0.827 -0.2227 -0.1851 -0.2380
  144TMC2    O2 2251   4.472   4.091   0.702  0.4804 -0.0476  0.3022
  144TMC2    O5 2252   4.519   4.181   0.907 -0.4803 -0.1194  0.0235
  144TMC2    H5 2253   4.525   4.269   0.949 -0.7477  0.9013 -2.1217
  145MPD2     C 2254   3.948   0.078   0.211 -0.3962  0.1558 -0.0444
  145MPD2    C1 2255   3.990   4.685   0.208  0.4640 -0.3134 -0.0324
  145MPD2    C2 2256   4.067   4.629   0.308  1.1589 -0.2181 -0.3554
  145MPD2    C3 2257   4.110   4.705   0.413  0.2376 -0.0229 -0.7769
  145MPD2    C4 2258   4.070   0.099   0.419  0.7994 -0.3286 -0.3527
  145MPD2    C5 2259   3.993   0.158   0.314  1.0285  0.4198 -0.2339
  145MPD2     H 2260   4.099   4.526   0.299  0.6924 -0.5112  1.3034
  145MPD2    H1 2261   4.092   0.163   0.503 -1.4970 -1.2781  0.9492
  145MPD2    H2 2262   3.897   0.128   0.130  0.4011 -0.6769 -1.0653
  145MPD2    H3 2263   3.950   0.258   0.318  0.4969  0.2429 -1.4843
  145MPD2     N 2264   4.202   4.661   0.516  0.1770 -0.2631 -0.0171
  145MPD2    H5 2265   4.225   4.724   0.592 -1.8768  0.6431 -0.1596
  145MPD2    N1 2266   3.953   4.595   0.099  0.0114  0.4246  0.3503
  145MPD2    H7 2267   3.990   4.501   0.105  2.3324  1.2990  0.0587
  146TMC2    C1 2268   0.725   3.171  12.927  0.6866  0.1714  0.0731
  146TMC2    C2 2269   0.749   3.233  12.812 -0.0904  0.0108  0.1680
  146TMC2    C3 2270   0.725   3.179  12.689 -0.3840 -0.0894  0.4062
  146TMC2    C4 2271   0.680   3.047  12.922  0.2561 -0.1509 -0.4870
  146TMC2    C5 2272   0.661   2.982  12.798 -0.2541  0.4619  0.2121
  146TMC2    C6 2273   0.678   3.050  12.678 -0.1598 -0.0971  0.4308
  146TMC2     C 2274   0.745   3.244  13.050 -1.2863 -0.5917  0.0186
  146TMC2     O 2275   0.754   3.370  13.045 -0.0029  0.1918 -0.2245
  146TMC2     H 2276   0.787   3.334  12.821 -0.5727  0.2015  0.0887
  146TMC2    H1 2277   0.662   2.995  13.016  3.9603  2.5787  1.7565
  146TMC2    H2 2278   0.651   2.990  12.592  0.2395  1.1810 -0.5729
  146TMC2    C7 2279   0.664   2.837  12.793  0.1602 -0.9365  0.5123
  146TMC2    C8 2280   0.793   3.225  12.573  0.3138  0.7184  0.2428
  146TMC2    O1 2281   0.648   2.779  12.686 -0.1006  0.0273  0.2153
  146TMC2    O2 2282   0.842   3.146  12.491  0.5614 -0.1914 -0.0897
  146TMC2    O5 2283   0.834   3.349  12.596  0.5857 -0.3034  0.2209
  146TMC2    H5 2284   0.767   3.391  12.654  2.6738  1.9325  1.0093
  147MPD2     C 2285   0.846   2.402  13.029 -0.5404 -0.2294  0.0857
  147MPD2    C1 2286   0.873   2.506  13.108 -0.2586  0.0718 -0.5171
  147MPD2    C2 2287   0.817   2.626  13.075 -0.7294 -0.9636 -0.0301
  147MPD2    C3 2288   0.754   2.646  12.951 -0.0351  0.4278 -0.1309
  147MPD2    C4 2289   0.732   2.539  12.871  0.8678  0.1452  0.3319
  147MPD2    C5 2290   0.779   2.414  12.910  0.2266 -0.0963  0.3557
  147MPD2     H 2291   0.822   2.711  13.142 -0.1571  0.2754 -1.6323
  147MPD2    H1 2292   0.672   2.545  12.781  0.6582  1.3963  0.5597
  147MPD2    H2 2293   0.884   2.305  13.060  0.1991 -0.6700 -2.1940
  147MPD2    H3 2294   0.742   2.328  12.856 -1.5970  1.3610 -0.7195
  147MPD2     N 2295   0.713   2.784  12.913  0.0633  0.3558 -0.2615
  147MPD2    H5 2296   0.766   2.846  12.973  0.2696 -0.3086  0.2331
  147MPD2    N1 2297   0.961   2.491  13.218  0.4427  0.3046  0.4506
  147MPD2    H7 2298   0.999   2.401  13.247 -0.1363 -0.2528 -0.5210
  148TMC2    C1 2299   0.724   1.702  10.372 -0.6039 -0.0976  0.5889
  148TMC2    C2 2300   0.729   1.803  10.466  0.1179 -0.0805  0.0635
  148TMC2    C3 2301   0.745   1.759  10.598 -0.5807 -0.2491  0.7553
  148TMC2    C4 2302   0.722   1.569  10.406  0.7012 -0.4325 -0.2860
  148TMC2    C5 2303   0.758   1.535  10.531  0.5813 -0.0352 -0.2221
  148TMC2    C6 2304   0.772   1.630  10.630  0.0029 -0.4946  0.1413
  148TMC2     C 2305   0.710   1.745  10.234  0.0679  0.1070 -0.6052
  148TMC2     O 2306   0.699   1.863  10.209 -0.0493 -0.4912 -0.2987
  148TMC2     H 2307   0.735   1.906  10.431 -0.8385  1.0938  3.3619
  148TMC2    H1 2308   0.711   1.496  10.327 -0.5614 -0.3087 -0.2274
  148TMC2    H2 2309   0.804   1.610  10.731 -1.5406  1.0820  0.9293
  148TMC2    C7 2310   0.811   1.401  10.549  0.9277 -0.0397  0.4447
  148TMC2    C8 2311   0.800   1.864  10.677 -0.3449  0.0398  0.1412
  148TMC2    O1 2312   0.831   1.337  10.445  0.2660 -0.9348 -0.5673
  148TMC2    O2 2313   0.735   1.967  10.673 -0.0869 -0.1110 -0.1739
  148TMC2    O5 2314   0.906   1.828  10.755 -0.3774  0.3309  0.0868
  148TMC2    H5 2315   0.943   1.740  10.733  1.2003  1.2667 -1.0338
  149MPD2     C 2316   0.629   1.763   9.942  0.4913 -0.1099  0.1212
  149MPD2    C1 2317   0.640   1.646  10.015 -0.0558 -0.3486  0.4649
  149MPD2    C2 2318   0.621   1.525   9.950 -0.2435 -0.5960  0.4532
  149MPD2    C3 2319   0.581   1.525   9.818  0.3172  0.3476 -0.4972
  149MPD2    C4 2320   0.582   1.639   9.742  0.6069 -0.3745 -0.1226
  149MPD2    C5 2321   0.607   1.758   9.806  0.1871  0.3663  0.0730
  149MPD2     H 2322   0.636   1.432  10.005 -1.1376  0.2033  2.0566
  149MPD2    H1 2323   0.552   1.637   9.638  0.9278 -1.7772 -0.1928
  149MPD2    H2 2324   0.644   1.856   9.995  0.9257  0.3816 -0.8613
  149MPD2    H3 2325   0.600   1.849   9.748 -0.5055  1.1027  1.2909
  149MPD2     N 2326   0.535   1.411   9.753  0.2719 -0.1870 -0.3245
  149MPD2    H5 2327   0.533   1.402   9.652 -0.7176 -0.0096 -0.3192
  149MPD2    N1 2328   0.680   1.640  10.152 -0.9947  0.1480 -0.3999
  149MPD2    H7 2329   0.693   1.547  10.192 -0.1276 -0.2265 -1.5451
  150TMC2    C1 2330   3.040   0.819  11.904  0.6520  0.2217  0.0035
  150TMC2    C2 2331   3.007   0.937  11.844  0.0122  0.4316 -0.6624
  150TMC2    C3 2332   3.092   1.043  11.864 -0.2732  0.1250  0.1405
  150TMC2    C4 2333   3.140   0.803  11.994  0.6805  0.5611 -0.4308
  150TMC2    C5 2334   3.214   0.918  12.028 -0.1812 -0.3241 -0.3774
  150TMC2    C6 2335   3.191   1.036  11.961 -0.4597 -0.2331  0.5031
  150TMC2     C 2336   2.954   0.695  11.881 -0.5849  0.9421 -0.7163
  150TMC2     O 2337   2.983   0.589  11.939 -0.1100  0.1023  0.7567
  150TMC2     H 2338   2.944   0.948  11.757  2.1206 -0.1888 -2.2807
  150TMC2    H1 2339   3.166   0.711  12.045 -2.1347 -1.5476 -2.7905
  150TMC2    H2 2340   3.266   1.114  11.972  0.7859 -1.3663  0.0908
  150TMC2    C7 2341   3.326   0.921  12.132  0.3122 -0.0927 -0.2556
  150TMC2    C8 2342   3.050   1.181  11.825  0.8851 -0.1112  0.6044
  150TMC2    O1 2343   3.401   1.016  12.122  0.0916 -0.1967  0.3036
  150TMC2    O2 2344   3.128   1.267  11.784  0.2359  0.0081  0.6381
  150TMC2    O5 2345   2.919   1.181  11.790  0.4183  0.3625 -0.0631
  150TMC2    H5 2346   2.875   1.109  11.841  0.4566  0.7532  0.5117
  151MPD2     C 2347   2.533   0.487  11.685 -0.1620  0.2118  0.0378
  151MPD2    C1 2348   2.522   0.624  11.681 -0.6198 -0.0115  0.3657
  151MPD2    C2 2349   2.627   0.704  11.735  0.0571  0.0184 -0.0695
  151MPD2    C3 2350   2.734   0.647  11.794 -0.0728  0.1367 -1.3058
  151MPD2    C4 2351   2.745   0.507  11.802 -0.9155 -0.5420  0.2336
  151MPD2    C5 2352   2.646   0.432  11.747  0.1052  0.2856 -0.4019
  151MPD2     H 2353   2.623   0.813  11.730  3.1761  0.1494  0.6109
  151MPD2    H1 2354   2.837   0.456  11.827 -0.5838  1.0377  2.2396
  151MPD2    H2 2355   2.458   0.420  11.643  0.8180 -0.7325 -0.1938
  151MPD2    H3 2356   2.648   0.324  11.745  0.7011  0.2598  1.7065
  151MPD2     N 2357   2.834   0.738  11.837 -0.4341 -0.0294  0.2131
  151MPD2    H5 2358   2.822   0.838  11.822  2.1367  0.4188  1.0239
  151MPD2    N1 2359   2.407   0.681  11.619 -0.2021 -0.3551  0.4062
  151MPD2    H7 2360   2.341   0.625  11.567 -0.9557  0.6878  0.2273
  152TMC2    C1 2361   2.990   0.667  12.890  0.5570  0.0551 -0.0112
  152TMC2    C2 2362   3.094   0.575  12.897  0.0557  0.2343 -0.5547
  152TMC2    C3 2363   3.193   0.587  12.810  0.0736 -1.2124  0.2410
  152TMC2    C4 2364   2.998   0.781  12.819  0.2160 -0.5286 -0.4858
  152TMC2    C5 2365   3.117   0.800  12.753  0.0746  0.1924 -0.2825
  152TMC2    C6 2366   3.214   0.701  12.739  0.5675  0.2956 -0.2560
  152TMC2     C 2367   2.856   0.628  12.912  0.1480 -0.8149 -0.5352
  152TMC2     O 2368   2.770   0.689  12.859  0.4271  0.2692  0.2099
  152TMC2     H 2369   3.094   0.492  12.966  1.6307  2.2887  1.9081
  152TMC2    H1 2370   2.918   0.854  12.814  0.9255  0.3360  0.7244
  152TMC2    H2 2371   3.302   0.705  12.675  1.2142 -1.1343  0.5593
  152TMC2    C7 2372   3.119   0.912  12.659 -0.1980  0.0695  0.7025
  152TMC2    C8 2373   3.299   0.493  12.823  0.1783 -0.4071  0.5749
  152TMC2    O1 2374   3.010   0.934  12.614 -0.0930  0.5033 -0.2909
  152TMC2    O2 2375   3.414   0.531  12.821  0.5136 -0.3347  0.1474
  152TMC2    O5 2376   3.261   0.366  12.855  0.5913 -0.7844  0.2907
  152TMC2    H5 2377   3.163   0.358  12.849  0.7482 -1.7299 -0.9994
  153MPD2     C 2378   2.704   0.347  13.101  1.2442  0.4759  0.6411
  153MPD2    C1 2379   2.717   0.465  13.039  0.5659 -0.4472 -0.2979
  153MPD2    C2 2380   2.601   0.544  13.046  0.0293 -0.7873  0.3546
  153MPD2    C3 2381   2.485   0.504  13.101 -0.0618 -0.1376 -0.0960
  153MPD2    C4 2382   2.477   0.386  13.168  0.4044  0.2879 -0.3116
  153MPD2    C5 2383   2.592   0.304  13.162  0.1973 -0.4008  0.1193
  153MPD2     H 2384   2.607   0.646  13.011 -2.3691 -1.0194 -0.7414
  153MPD2    H1 2385   2.388   0.344  13.213  1.1399  0.8045  1.6162
  153MPD2    H2 2386   2.793   0.285  13.097 -0.1551 -1.4111 -1.4392
  153MPD2    H3 2387   2.588   0.211  13.216 -1.0825 -0.6932 -0.4891
  153MPD2     N 2388   2.382   0.598  13.089  0.0204 -0.2351  0.5072
  153MPD2    H5 2389   2.403   0.689  13.048 -1.6765  0.6856  1.6803
  153MPD2    N1 2390   2.838   0.517  12.988  0.1040 -0.8051 -0.7890
  153MPD2    H7 2391   2.918   0.454  12.986 -1.1970 -2.5334  2.8530
  154TMC2    C1 2392   4.365   0.878   0.467  0.3625 -0.2452  0.4788
  154TMC2    C2 2393   4.450   0.801   0.550  0.3899  0.5347  0.6694
  154TMC2    C3 2394   4.534   0.710   0.498  0.5887  0.0120  0.4860
  154TMC2    C4 2395   4.358   0.859   0.334  0.3549  0.4333  0.0761
  154TMC2    C5 2396   4.454   0.770   0.284 -0.4603 -0.2325  0.0605
  154TMC2    C6 2397   4.544   0.694   0.362  0.1641  0.1678  0.2129
  154TMC2     C 2398   4.274   0.967   0.534 -0.1403 -0.3109 -0.7534
  154TMC2     O 2399   4.258   0.959   0.655 -0.2399  0.2502 -0.5327
  154TMC2     H 2400   4.449   0.820   0.656  2.2954  1.1193  0.5869
  154TMC2    H1 2401   4.283   0.907   0.273 -0.7886  1.2574  2.1128
  154TMC2    H2 2402   4.606   0.619   0.314  1.7752  1.2003  0.6928
  154TMC2    C7 2403   4.458   0.742   0.140 -0.6655 -0.3315 -0.0531
  154TMC2    C8 2404   4.595   0.628   0.601  0.2934  0.5374 -0.3844
  154TMC2    O1 2405   4.538   0.656   0.099  0.0050 -0.4844 -0.0961
  154TMC2    O2 2406   4.528   0.597   0.700 -0.0683  0.4663  0.5844
  154TMC2    O5 2407   4.719   0.599   0.560 -0.6664 -0.2785 -0.4887
  154TMC2    H5 2408   0.011   0.651   0.482  1.7101 -3.1053 -1.5149
  155MPD2     C 2409   4.111   1.263   0.373  0.0354 -0.0237  0.1041
  155MPD2    C1 2410   4.143   1.177   0.480 -0.3949  0.0521  0.1640
  155MPD2    C2 2411   4.097   1.217   0.603  0.3339 -0.1584 -0.2796
  155MPD2    C3 2412   4.021   1.327   0.621 -0.3008 -0.6513  0.0825
  155MPD2    C4 2413   3.978   1.404   0.517 -0.4580  0.1723  0.8377
  155MPD2    C5 2414   4.030   1.375   0.399  0.6418  0.3476 -0.5396
  155MPD2     H 2415   4.126   1.160   0.691  5.3154  1.4503 -0.9025
  155MPD2    H1 2416   3.913   1.490   0.528  0.1420  0.7119  0.1170
  155MPD2    H2 2417   4.139   1.254   0.269 -0.0903 -0.1894  0.0842
  155MPD2    H3 2418   4.012   1.435   0.311 -0.1836  0.0455 -0.5812
  155MPD2     N 2419   3.989   1.362   0.761 -0.9710 -0.7100 -0.2084
  155MPD2    H5 2420   4.026   1.303   0.834  0.3316 -0.1793 -0.4317
  155MPD2    N1 2421   4.219   1.057   0.448  0.2584  0.4273 -1.0277
  155MPD2    H7 2422   4.245   1.041   0.351  2.1341  0.6720 -0.5705
  156TMC2    C1 2423   2.393   3.297  11.285 -0.2807  0.5750 -0.1999
  156TMC2    C2 2424   2.331   3.190  11.234 -0.2164 -1.1265 -0.0256
  156TMC2    C3 2425   2.213   3.210  11.169  0.4299  0.1407  0.2762
  156TMC2    C4 2426   2.345   3.423  11.273  0.5410  0.2936 -0.5402
  156TMC2    C5 2427   2.220   3.436  11.228 -0.3366 -0.4668 -0.3057
  156TMC2    C6 2428   2.156   3.333  11.172  0.1024 -0.0381  0.4293
  156TMC2     C 2429   2.523   3.285  11.353  0.6431 -0.1952 -0.8493
  156TMC2     O 2430   2.544   3.363  11.439 -0.2099  0.4883  0.3859
  156TMC2     H 2431   2.373   3.090  11.228 -2.7970 -2.2408  0.7156
  156TMC2    H1 2432   2.404   3.494  11.330 -0.1514 -1.2384  2.1230
  156TMC2    H2 2433   2.058   3.344  11.127  0.9731  3.2743 -0.6216
  156TMC2    C7 2434   2.175   3.572  11.248 -0.0685 -0.4934 -0.3291
  156TMC2    C8 2435   2.133   3.087  11.167  0.1164 -0.3150 -0.0886
  156TMC2    O1 2436   2.244   3.651  11.307  0.3677 -0.2743 -0.0365
  156TMC2    O2 2437   2.014   3.092  11.162 -0.6434  1.2670 -0.3694
  156TMC2    O5 2438   2.207   3.006  11.092  0.1200  0.1938  0.6874
  156TMC2    H5 2439   2.298   3.034  11.072 -0.2899 -0.0438 -1.4587
  157MPD2     C 2440   2.762   3.010  11.313  0.3999 -0.1202 -0.0476
  157MPD2    C1 2441   2.705   3.116  11.381 -0.3314 -0.5296 -0.0331
  157MPD2    C2 2442   2.765   3.166  11.497 -0.0909  0.3010 -0.1830
  157MPD2    C3 2443   2.877   3.106  11.542  0.0962 -0.4055 -0.4031
  157MPD2    C4 2444   2.938   3.010  11.470 -0.2302 -0.6554 -0.3748
  157MPD2    C5 2445   2.879   2.954  11.359 -0.6354 -0.0696  0.0806
  157MPD2     H 2446   2.721   3.253  11.544 -2.7277 -1.1933  0.0943
  157MPD2    H1 2447   3.029   2.957  11.496 -0.5326  0.4780  2.9615
  157MPD2    H2 2448   2.717   2.966  11.225  1.1685  0.3879 -0.6852
  157MPD2    H3 2449   2.930   2.877  11.303  0.9208  0.3373  0.9494
  157MPD2     N 2450   2.935   3.154  11.665 -0.6673 -0.5579 -0.4069
  157MPD2    H5 2451   2.872   3.211  11.720 -1.4087 -1.5834 -0.1877
  157MPD2    N1 2452   2.586   3.166  11.320 -0.0106  0.9196  0.1158
  157MPD2    H7 2453   2.539   3.118  11.244 -1.3437 -1.0215  2.1576
  158TMC2    C1 2454   3.453   1.712  12.750 -0.3875 -0.2470 -0.2803
  158TMC2    C2 2455   3.517   1.714  12.635  0.6302  0.0236 -0.0195
  158TMC2    C3 2456   3.461   1.688  12.520 -0.3120 -0.2601  0.0461
  158TMC2    C4 2457   3.328   1.656  12.756 -0.3077 -0.2811  0.2096
  158TMC2    C5 2458   3.271   1.613  12.635 -0.1915  0.0758  0.1663
  158TMC2    C6 2459   3.337   1.630  12.514 -0.4733  0.1584  0.5647
  158TMC2     C 2460   3.528   1.743  12.868  1.4395 -0.2740 -0.3754
  158TMC2     O 2461   3.648   1.763  12.860  0.5925  0.0810 -0.3688
  158TMC2     H 2462   3.624   1.730  12.641  0.9127 -1.6943 -0.4808
  158TMC2    H1 2463   3.286   1.644  12.855 -3.3592 -0.8564 -1.1498
  158TMC2    H2 2464   3.290   1.615  12.418 -0.5635  0.3839  0.5723
  158TMC2    C7 2465   3.133   1.598  12.627 -0.5251  0.3380  0.4768
  158TMC2    C8 2466   3.531   1.700  12.400 -0.3197 -0.1387 -0.4967
  158TMC2    O1 2467   3.079   1.563  12.526 -0.7485 -1.0912  0.3307
  158TMC2    O2 2468   3.511   1.613  12.317  0.4146  0.2406  0.6974
  158TMC2    O5 2469   3.641   1.775  12.416  0.4118  0.0484 -0.4529
  158TMC2    H5 2470   3.622   1.840  12.487 -0.4332  0.0555 -0.6911
  159MPD2     C 2471   3.588   1.770  13.380  0.0541 -0.0539  0.1219
  159MPD2    C1 2472   3.452   1.763  13.348 -0.1182  0.1541  1.2742
  159MPD2    C2 2473   3.411   1.775  13.219  0.2031 -0.5924 -0.4433
  159MPD2    C3 2474   3.500   1.775  13.116  0.3414 -0.6979  0.6629
  159MPD2    C4 2475   3.634   1.777  13.145 -0.3168  0.6349 -0.9484
  159MPD2    C5 2476   3.678   1.764  13.272 -0.2660 -0.2718 -0.0464
  159MPD2     H 2477   3.306   1.776  13.192  0.4706  0.6259 -1.4439
  159MPD2    H1 2478   3.718   1.765  13.077  0.2538 -0.0694 -0.1295
  159MPD2    H2 2479   3.628   1.772  13.480  0.2208  0.5200  0.0469
  159MPD2    H3 2480   3.784   1.750  13.291 -0.1126 -2.0348 -2.1576
  159MPD2     N 2481   3.458   1.760  12.983  0.0844  0.1880  0.4185
  159MPD2    H5 2482   3.357   1.769  12.976  0.3554  1.1826 -2.0245
  159MPD2    N1 2483   3.368   1.768  13.467 -0.6840  0.4067  0.0470
  159MPD2    H7 2484   3.417   1.762  13.555 -2.1472 -1.3316  0.7449
  160TMC2    C1 2485   3.192   0.186   1.233 -0.5409  0.9221 -0.1294
  160TMC2    C2 2486   3.209   0.055   1.252 -0.5512  0.1242  0.5217
  160TMC2    C3 2487   3.327   0.008   1.202 -0.1750  0.3677  0.7099
  160TMC2    C4 2488   3.267   0.264   1.147 -0.5251 -0.0730 -0.3453
  160TMC2    C5 2489   3.377   0.201   1.091  0.4273 -0.0445  0.4790
  160TMC2    C6 2490   3.409   0.076   1.126 -0.1928 -0.0788  0.1152
  160TMC2     C 2491   3.053   0.226   1.254  0.8532  0.1672  1.1027
  160TMC2     O 2492   2.979   0.141   1.315 -0.5458  0.2317  0.3075
  160TMC2     H 2493   3.151   4.729   1.318  0.0656 -1.2742 -0.2544
  160TMC2    H1 2494   3.236   0.363   1.117 -1.7992  0.1279  1.6328
  160TMC2    H2 2495   3.509   0.043   1.099  0.2057 -0.4816  2.0536
  160TMC2    C7 2496   3.455   0.271   0.988 -1.0511 -0.1951  0.3407
  160TMC2    C8 2497   3.364   4.611   1.219 -0.8384  0.3737 -0.6207
  160TMC2    O1 2498   3.500   0.202   0.895  0.0320 -0.8789 -0.6808
  160TMC2    O2 2499   3.478   4.570   1.214  0.5190  0.1310 -0.2387
  160TMC2    O5 2500   3.253   4.532   1.227  0.4258 -0.0456  0.1318
  160TMC2    H5 2501   3.177   4.590   1.202  1.5812  0.6516 -1.8024
  161MPD2     C 2502   2.773   0.312   1.204  0.0359 -0.1107 -0.2526
  161MPD2    C1 2503   2.882   0.388   1.173 -0.2929 -0.2554  0.1463
  161MPD2    C2 2504   2.869   0.514   1.129 -0.2006 -0.1077 -1.4061
  161MPD2    C3 2505   2.742   0.561   1.095 -0.3640  0.1115  0.0514
  161MPD2    C4 2506   2.632   0.479   1.113  0.0893  0.3227 -0.5457
  161MPD2    C5 2507   2.654   0.357   1.171 -0.2577 -0.3698 -0.4207
  161MPD2     H 2508   2.949   0.585   1.117  0.2850 -0.2876  0.7360
  161MPD2    H1 2509   2.528   0.504   1.100  0.0502  0.5644  0.2331
  161MPD2    H2 2510   2.783   0.215   1.251  1.1237  1.3718  2.5452
  161MPD2    H3 2511   2.573   0.287   1.190  1.0961 -1.8276 -0.0212
  161MPD2     N 2512   2.727   0.678   1.020 -0.0254  0.1004 -0.6300
  161MPD2    H5 2513   2.633   0.696   0.984 -0.6962 -0.1038  1.0164
  161MPD2    N1 2514   3.016   0.351   1.201  0.0714 -0.4752 -0.2171
  161MPD2    H7 2515   3.091   0.416   1.179 -2.1646  1.0306 -3.4155
  162TMC2    C1 2516   1.782   2.405   1.222  0.4107  0.7730  0.8534
  162TMC2    C2 2517   1.708   2.508   1.290  0.3838  0.4111  1.0957
  162TMC2    C3 2518   1.674   2.489   1.420 -0.5565 -0.0111  0.3845
  162TMC2    C4 2519   1.808   2.283   1.280 -0.2084 -0.3821  0.4236
  162TMC2    C5 2520   1.783   2.273   1.413 -0.0434  0.9612  0.0286
  162TMC2    C6 2521   1.724   2.377   1.490  0.3317 -0.3245  0.4191
  162TMC2     C 2522   1.774   2.419   1.080  0.0419  0.0924  0.1189
  162TMC2     O 2523   1.682   2.484   1.030 -0.6979 -0.3534  0.2196
  162TMC2     H 2524   1.671   2.595   1.237 -3.1635 -2.4854 -1.1606
  162TMC2    H1 2525   1.843   2.200   1.220  2.3790 -0.3852  1.9257
  162TMC2    H2 2526   1.694   2.349   1.590 -0.0044  0.1423  0.4490
  162TMC2    C7 2527   1.837   2.158   1.489  0.7929 -0.1879  0.4408
  162TMC2    C8 2528   1.598   2.591   1.498 -0.0044 -0.4127 -0.1275
  162TMC2    O1 2529   1.876   2.177   1.602 -0.2127  0.3746  0.1023
  162TMC2    O2 2530   1.492   2.645   1.463 -0.2891  0.0771 -0.0046
  162TMC2    O5 2531   1.665   2.604   1.616  0.0436 -0.1090 -0.3872
  162TMC2    H5 2532   1.750   2.555   1.629  0.9682  1.3796 -0.8247
  163MPD2     C 2533   1.868   2.233   0.629  0.3608 -0.0829 -0.2952
  163MPD2    C1 2534   1.787   2.337   0.662 -0.3009 -0.4180 -0.0788
  163MPD2    C2 2535   1.797   2.387   0.787 -0.2244 -0.0400  0.2820
  163MPD2    C3 2536   1.880   2.321   0.880  0.2412  0.4615  0.2815
  163MPD2    C4 2537   1.979   2.232   0.840  0.7714  0.2503  0.7784
  163MPD2    C5 2538   1.959   2.181   0.716  0.0549 -0.2162  0.0166
  163MPD2     H 2539   1.723   2.459   0.821 -0.1813  0.6299 -1.0627
  163MPD2    H1 2540   2.057   2.191   0.902  1.0554 -1.4176 -0.7090
  163MPD2    H2 2541   1.857   2.186   0.532 -0.1763  0.0784 -0.3127
  163MPD2    H3 2542   2.012   2.091   0.688  1.5611  1.1635 -1.6098
  163MPD2     N 2543   1.863   2.343   1.020  0.1714  0.8864 -1.1471
  163MPD2    H5 2544   1.939   2.307   1.076  0.1138 -0.8677 -2.2136
  163MPD2    N1 2545   1.680   2.369   0.572 -0.0351  0.2666 -0.1653
  163MPD2    H7 2546   1.678   2.308   0.491 -1.8687 -0.5941  0.5386
  164TMC2    C1 2547   0.995   1.290  11.436  0.5282 -0.1707 -0.3502
  164TMC2    C2 2548   1.003   1.329  11.567 -0.8899  0.0795 -0.5518
  164TMC2    C3 2549   0.958   1.456  11.589  0.4668 -0.2956  0.5314
  164TMC2    C4 2550   0.941   1.366  11.334  0.4477  0.1118 -0.6266
  164TMC2    C5 2551   0.901   1.499  11.366  0.4363  0.2119  0.2471
  164TMC2    C6 2552   0.913   1.547  11.498 -0.6962 -0.3263  0.0573
  164TMC2     C 2553   1.021   1.150  11.420 -0.0457 -0.0367 -0.1640
  164TMC2     O 2554   1.029   1.074  11.518 -0.0639  0.6503 -0.0275
  164TMC2     H 2555   1.045   1.266  11.645 -2.6712  1.7587  1.7528
  164TMC2    H1 2556   0.926   1.324  11.235 -1.6213  2.3759 -1.2844
  164TMC2    H2 2557   0.845   1.627  11.526 -1.5892  0.0336 -3.1072
  164TMC2    C7 2558   0.829   1.576  11.267 -0.3596 -0.5339 -0.0488
  164TMC2    C8 2559   0.977   1.506  11.725 -0.1469 -0.3820 -0.2659
  164TMC2    O1 2560   0.760   1.514  11.184 -0.4830  0.1737 -0.2809
  164TMC2    O2 2561   0.953   1.440  11.824  0.1088 -0.1344 -0.1689
  164TMC2    O5 2562   1.039   1.624  11.712  0.0790  0.2578 -0.1833
  164TMC2    H5 2563   1.041   1.652  11.619  0.1991  0.5114 -0.1030
  165TMC2    C1 2564   2.803   4.088   0.902 -0.3916  0.6590  0.0461
  165TMC2    C2 2565   2.708   4.180   0.928 -0.3858 -0.2344 -0.8697
  165TMC2    C3 2566   2.750   4.305   0.944 -0.5659 -0.1286 -0.6740
  165TMC2    C4 2567   2.940   4.112   0.879 -0.0755  0.1216 -0.0622
  165TMC2    C5 2568   2.975   4.237   0.913 -0.3351 -0.2593  0.5638
  165TMC2    C6 2569   2.885   4.333   0.946 -0.3277 -0.0806 -0.3889
  165TMC2     C 2570   2.746   3.958   0.893  0.0634  0.0440  0.0892
  165TMC2     O 2571   2.625   3.952   0.885  0.0258 -0.5279 -0.3676
  165TMC2     H 2572   2.604   4.158   0.949 -1.1732  2.0842 -2.3035
  165TMC2    H1 2573   3.007   4.029   0.859  1.6592  1.2981  0.8910
  165TMC2    H2 2574   2.917   4.435   0.965  0.1877 -0.5812  1.4015
  165TMC2    C7 2575   3.116   4.287   0.902 -0.4169  0.3323 -0.0894
  165TMC2    C8 2576   2.648   4.404   0.944 -0.1123  0.1134 -0.1866
  165TMC2    O1 2577   3.142   4.401   0.931 -0.0089  0.2018  0.1176
  165TMC2    O2 2578   2.546   4.397   0.882 -0.0770 -0.2011  0.0511
  165TMC2    O5 2579   2.696   4.510   1.015  0.1826 -0.6039  0.3709
  165TMC2    H5 2580   2.776   4.498   1.071  0.8883 -0.4482 -0.5988
  166MPD2     C 2581   2.751   3.451   0.965  0.3489 -0.1845  1.3598
  166MPD2    C1 2582   2.650   3.529   0.908  0.0495  1.2271  0.2794
  166MPD2    C2 2583   2.675   3.665   0.885  0.2350  0.3978 -0.2392
  166MPD2    C3 2584   2.798   3.719   0.912 -0.3648  0.1756  0.2675
  166MPD2    C4 2585   2.901   3.632   0.942 -0.4403 -0.3636 -0.0856
  166MPD2    C5 2586   2.879   3.497   0.967 -0.0736 -0.3877 -0.9140
  166MPD2     H 2587   2.600   3.733   0.847  0.6953  0.6242 -0.7416
  166MPD2    H1 2588   2.997   3.681   0.941  0.0190 -1.3163 -2.3297
  166MPD2    H2 2589   2.731   3.350   0.999 -1.2662 -0.1563  0.4843
  166MPD2    H3 2590   2.958   3.426   0.991  0.5151  0.4903 -0.2663
  166MPD2     N 2591   2.837   3.854   0.907  0.3504  0.2206  0.0685
  166MPD2    H5 2592   2.931   3.882   0.935 -0.0745  0.5390  1.1687
  166MPD2    N1 2593   2.526   3.463   0.900 -0.3301 -0.8316 -0.0526
  166MPD2    H7 2594   2.516   3.371   0.941 -0.0250 -1.0182 -0.3994
  167TMC2    C1 2595   1.116   1.741  12.714 -0.2837 -0.3483 -0.7502
  167TMC2    C2 2596   1.019   1.758  12.815 -0.8779  0.0610  0.3545
  167TMC2    C3 2597   0.933   1.657  12.843  0.6446 -0.5382  0.0286
  167TMC2    C4 2598   1.133   1.626  12.641  0.9669 -0.2038  0.3877
  167TMC2    C5 2599   1.058   1.521  12.688  0.3199 -0.4741 -0.7567
  167TMC2    C6 2600   0.962   1.534  12.791 -0.1640  0.3176  0.1386
  167TMC2     C 2601   1.187   1.862  12.665  0.8544 -0.4232  0.4261
  167TMC2     O 2602   1.205   1.958  12.743  0.0354  0.2491  0.3480
  167TMC2     H 2603   0.997   1.855  12.860 -0.3214  0.3408  0.0246
  167TMC2    H1 2604   1.206   1.621  12.560  2.2109  2.3672  1.3595
  167TMC2    H2 2605   0.916   1.444  12.829  0.2199 -0.0029 -0.1534
  167TMC2    C7 2606   1.080   1.403  12.619  0.6560 -0.3852  0.2646
  167TMC2    C8 2607   0.869   1.651  12.970 -0.0516  0.0182  0.1968
  167TMC2    O1 2608   0.982   1.327  12.613 -0.1588  0.0725 -0.2211
  167TMC2    O2 2609   0.789   1.563  13.001  0.5906  0.6086 -0.0244
  167TMC2    O5 2610   0.962   1.683  13.062 -0.1035 -0.1194 -0.3617
  167TMC2    H5 2611   1.044   1.723  13.026  0.2880 -1.1465 -0.6236
  168MPD2     C 2612   1.277   2.092  12.491 -0.1969  0.5181  0.3391
  168MPD2    C1 2613   1.244   1.971  12.444 -0.0648 -0.2029  0.1581
  168MPD2    C2 2614   1.250   1.955  12.306 -0.3963  0.0379 -0.1340
  168MPD2    C3 2615   1.273   2.061  12.223  0.3502 -0.5423 -0.2437
  168MPD2    C4 2616   1.311   2.182  12.277  0.1245 -0.3383  0.0105
  168MPD2    C5 2617   1.307   2.191  12.412  0.3108 -0.3066  0.4768
  168MPD2     H 2618   1.223   1.862  12.258  0.7969  0.2212 -1.1641
  168MPD2    H1 2619   1.333   2.273  12.222 -0.6946 -0.0041  0.2390
  168MPD2    H2 2620   1.282   2.116  12.596 -0.1798 -1.2450  0.7447
  168MPD2    H3 2621   1.336   2.283  12.461  1.1920 -1.1740  1.5742
  168MPD2     N 2622   1.249   2.056  12.085 -0.1011 -0.1792 -0.5173
  168MPD2    H5 2623   1.274   2.141  12.036  0.9005 -0.3940 -0.3611
  168MPD2    N1 2624   1.196   1.868  12.525 -0.3689  0.4126  0.2122
  168MPD2    H7 2625   1.170   1.786  12.471  0.3480  0.5021 -0.2772
  169MPD1     C 2626   2.059   1.887   8.953 -0.1126 -0.2567  0.3146
  169MPD1    C1 2627   2.143   1.925   9.054  0.2869  0.5720  0.0226
  169MPD1    C2 2628   2.235   1.826   9.093 -0.2033 -0.3488 -0.1331
  169MPD1    C3 2629   2.215   1.696   9.066  0.0527  0.1056  0.0166
  169MPD1    C4 2630   2.116   1.655   8.971 -0.8171  0.7332 -0.1276
  169MPD1    C5 2631   2.046   1.762   8.920  0.5108 -0.2482  0.2435
  169MPD1     H 2632   2.309   1.849   9.168 -1.9782  1.7185  0.9751
  169MPD1    H1 2633   2.113   1.553   8.935 -1.0791  0.5230  0.4917
  169MPD1    H2 2634   1.990   1.957   8.908 -0.8184 -0.0280  1.7383
  169MPD1    H3 2635   1.972   1.748   8.842  0.8820 -1.3392  0.0890
  169MPD1     N 2636   2.318   1.607   9.096  0.7921 -0.0725  0.2342
  169MPD1    H5 2637   2.403   1.642   9.139 -0.2252  0.4294  1.8271
  169MPD1    N1 2638   2.146   2.060   9.098  0.5548 -0.1168 -0.1590
  169MPD1    H6 2639   2.187   2.069   9.191 -0.8556  2.9235  0.1596
  169MPD1    H7 2640   2.053   2.102   9.093  0.0632 -1.2722 -0.6942
  170MPD1     C 2641   1.469   3.797  12.726  0.4686  0.1810 -0.7878
  170MPD1    C1 2642   1.358   3.852  12.789 -0.1138  1.0339  0.0909
  170MPD1    C2 2643   1.362   3.901  12.916  0.5070 -0.6370  0.1062
  170MPD1    C3 2644   1.468   3.867  12.992  0.1833  0.6334  0.4806
  170MPD1    C4 2645   1.568   3.787  12.945  0.0322  0.2137 -0.8146
  170MPD1    C5 2646   1.563   3.750  12.812 -0.8849 -0.8917  0.5210
  170MPD1     H 2647   1.274   3.950  12.956  1.8669  2.0946 -0.2984
  170MPD1    H1 2648   1.655   3.755  13.000 -0.9154  0.4108  0.8087
  170MPD1    H2 2649   1.462   3.754  12.627 -1.2092  1.5938 -1.2895
  170MPD1    H3 2650   1.636   3.685  12.766 -0.6677 -0.1230 -0.2096
  170MPD1     N 2651   1.466   3.914  13.123 -0.0065 -0.5816 -0.1204
  170MPD1    H5 2652   1.383   3.967  13.151 -1.5576 -1.2614 -3.3709
  170MPD1    N1 2653   1.254   3.886  12.699  0.0730 -0.5517  0.4119
  170MPD1    H6 2654   1.167   3.899  12.749  0.6630 -0.7869  1.4986
  170MPD1    H7 2655   1.251   3.835  12.611 -0.9512  1.8555 -0.9512
  171MPD1     C 2656   0.593   0.501  14.678  0.5276  0.2402  0.2901
  171MPD1    C1 2657   0.476   0.516  14.757 -0.1298  1.4744  0.1659
  171MPD1    C2 2658   0.478   0.480  14.892 -0.0018  0.0868  0.1000
  171MPD1    C3 2659   0.584   0.411  14.943  0.4568 -0.0184  0.1535
  171MPD1    C4 2660   0.693   0.388  14.857  0.1842  0.7442 -0.0092
  171MPD1    C5 2661   0.701   0.432  14.727 -0.0677 -0.6127  0.0231
  171MPD1     H 2662   0.384   0.495  14.943  0.5520  2.2540  0.4864
  171MPD1    H1 2663   0.783   0.336  14.888  0.3617  2.0263  1.6100
  171MPD1    H2 2664   0.600   0.554  14.583  0.2236  2.2006  1.3627
  171MPD1    H3 2665   0.789   0.420  14.665  0.4131 -0.6519  0.7117
  171MPD1     N 2666   0.594   0.377  15.078  0.4953 -0.5916 -0.3147
  171MPD1    H5 2667   0.675   0.321  15.101  0.2566 -1.6268 -2.0150
  171MPD1    N1 2668   0.376   0.605  14.710  0.7741 -0.2354  1.0592
  171MPD1    H6 2669   0.281   0.584  14.738  0.2344 -0.0685 -0.6614
  171MPD1    H7 2670   0.381   0.608  14.608 -2.5566  0.6122  0.9393
  172MPD1     C 2671   4.624   4.175   0.282  0.8493  0.4821  0.6177
  172MPD1    C1 2672   0.004   4.245   0.313  0.1560 -0.3781  0.3617
  172MPD1    C2 2673   0.009   4.384   0.311 -0.4029  0.7990  0.0705
  172MPD1    C3 2674   4.621   4.447   0.292 -0.3059  0.4067 -0.0185
  172MPD1    C4 2675   4.508   4.379   0.266 -0.2531 -0.5003 -0.1695
  172MPD1    C5 2676   4.506   4.243   0.260 -0.5558  0.2763 -0.2125
  172MPD1     H 2677   0.101   4.441   0.309 -0.3153  0.6610  0.1740
  172MPD1    H1 2678   4.413   4.431   0.256  0.5967  0.8241 -1.4184
  172MPD1    H2 2679   4.613   4.068   0.279  1.2209  0.4505  0.3499
  172MPD1    H3 2680   4.410   4.194   0.261 -0.6350  0.4221 -1.2331
  172MPD1     N 2681   4.597   4.592   0.286 -0.6818 -0.5995  0.5526
  172MPD1    H5 2682   4.512   4.621   0.239  1.7940 -1.4005 -4.4485
  172MPD1    N1 2683   0.123   4.177   0.320  0.1712 -0.4114  0.3455
  172MPD1    H6 2684   0.115   4.079   0.345  2.1346 -0.4246  0.9542
  172MPD1    H7 2685   0.182   4.227   0.386 -0.6138  1.2404 -0.2032
  173MPD1     C 2686   1.762   4.547  13.700 -0.4317  0.4409  1.5502
  173MPD1    C1 2687   1.625   4.515  13.684  0.2594  0.1844 -0.8288
  173MPD1    C2 2688   1.558   4.485  13.793 -0.5287 -0.0412 -0.0928
  173MPD1    C3 2689   1.612   4.475  13.922  0.1159  0.8831  0.1750
  173MPD1    C4 2690   1.738   4.508  13.936 -0.6974  0.6104 -0.1990
  173MPD1    C5 2691   1.814   4.543  13.825 -0.1833 -0.8534 -0.2456
  173MPD1     H 2692   1.456   4.452  13.774 -1.0323  1.4855 -0.0613
  173MPD1    H1 2693   1.792   4.501  14.030 -1.3959  1.2414  0.2426
  173MPD1    H2 2694   1.828   4.584  13.623 -2.5530 -0.9068 -0.8869
  173MPD1    H3 2695   1.915   4.575  13.847 -0.7352 -0.0927  1.1755
  173MPD1     N 2696   1.544   4.425  14.032  0.0820  0.2930  0.2297
  173MPD1    H5 2697   1.597   4.400  14.115  0.6245  0.0668 -0.1895
  173MPD1    N1 2698   1.568   4.522  13.557  0.0767 -0.0471 -0.3598
  173MPD1    H6 2699   1.568   4.617  13.520  1.9255 -0.0713 -0.4297
  173MPD1    H7 2700   1.471   4.496  13.541  0.4854 -2.4972  1.2398
  174MPD1     C 2701   1.674   3.588  14.176  0.1369  0.4782 -0.0143
  174MPD1    C1 2702   1.623   3.629  14.297  0.0284  0.4336  0.4928
  174MPD1    C2 2703   1.566   3.752  14.314  1.0838  0.7525  0.1079
  174MPD1    C3 2704   1.574   3.842  14.214 -0.3650 -0.2084  0.5383
  174MPD1    C4 2705   1.623   3.807  14.091  0.0676 -0.1271 -0.4671
  174MPD1    C5 2706   1.671   3.679  14.076  0.1569  0.2085  0.4232
  174MPD1     H 2707   1.539   3.779  14.415 -0.0641 -0.6875  0.1851
  174MPD1    H1 2708   1.612   3.868  14.003 -1.8717  1.1691  0.6770
  174MPD1    H2 2709   1.711   3.487  14.160  3.1326  1.4790  0.5577
  174MPD1    H3 2710   1.698   3.657  13.974  0.2210 -0.3740  0.5667
  174MPD1     N 2711   1.512   3.968  14.217 -0.0295  0.0643 -0.2008
  174MPD1    H5 2712   1.515   4.012  14.126 -1.8751 -0.4494 -0.5152
  174MPD1    N1 2713   1.605   3.529  14.397  0.8349  0.8067  0.4144
  174MPD1    H6 2714   1.677   3.458  14.402 -1.5145 -1.6473 -1.0358
  174MPD1    H7 2715   1.605   3.562  14.494  2.8495 -1.2289  1.0967
  175MPD1     C 2716   3.839   0.817  14.893  0.6757 -0.6728 -0.2463
  175MPD1    C1 2717   3.911   0.710  14.940  0.6081 -0.3818 -0.8486
  175MPD1    C2 2718   3.899   0.677  15.076 -0.4064  1.4276  0.3875
  175MPD1    C3 2719   3.832   0.756  15.167 -0.4409 -0.0531 -0.7317
  175MPD1    C4 2720   3.768   0.871  15.112 -0.2392 -0.5964 -0.0704
  175MPD1    C5 2721   3.771   0.899  14.976 -0.1446  0.2894 -0.0319
  175MPD1     H 2722   3.963   0.596  15.110 -1.4955 -0.1964 -1.4647
  175MPD1    H1 2723   3.702   0.931  15.174 -1.0800 -0.7044 -0.8551
  175MPD1    H2 2724   3.838   0.846  14.788  0.4760 -1.2964 -0.4179
  175MPD1    H3 2725   3.712   0.986  14.948 -0.1341  0.2731 -0.1040
  175MPD1     N 2726   3.820   0.731  15.305 -0.3229 -0.0562  0.3561
  175MPD1    H5 2727   3.773   0.805  15.356 -1.9958 -0.3222 -0.7929
  175MPD1    N1 2728   3.974   0.616  14.857 -0.9414  0.1373 -0.8080
  175MPD1    H6 2729   4.038   0.551  14.900  0.7694  0.8827 -2.2106
  175MPD1    H7 2730   4.016   0.660  14.775  1.1820 -1.2615 -0.4577
  176MPD1     C 2731   0.418   2.592  17.360  0.1412 -1.0482  0.6196
  176MPD1    C1 2732   0.385   2.664  17.473  0.4147  0.1310 -0.1922
  176MPD1    C2 2733   0.461   2.768  17.514 -0.5890  0.1429 -0.4832
  176MPD1    C3 2734   0.584   2.806  17.449 -0.2267  0.3505  0.1457
  176MPD1    C4 2735   0.618   2.726  17.338  0.5533  0.0202 -0.4031
  176MPD1    C5 2736   0.534   2.621  17.300  0.2996 -0.4960 -0.3333
  176MPD1     H 2737   0.428   2.835  17.593  0.6924  1.4736 -1.0750
  176MPD1    H1 2738   0.712   2.722  17.284  1.2372  0.9553  0.7036
  176MPD1    H2 2739   0.354   2.512  17.322  0.8366 -1.2930 -0.0285
  176MPD1    H3 2740   0.565   2.551  17.223  0.4729  1.6759 -2.2482
  176MPD1     N 2741   0.660   2.921  17.486  0.3893  0.3085 -0.2929
  176MPD1    H5 2742   0.623   2.969  17.567 -0.1733  0.0633 -0.4002
  176MPD1    N1 2743   0.261   2.633  17.539 -0.0648 -0.5298  0.7350
  176MPD1    H6 2744   0.229   2.537  17.548 -0.1579 -0.2573  3.4615
  176MPD1    H7 2745   0.265   2.666  17.636  1.2994 -0.9410  0.8194
  177MPD1     C 2746   4.019   2.466   9.719  0.4455 -0.9195  0.1767
  177MPD1    C1 2747   3.950   2.389   9.635 -0.1243 -0.5685 -0.0727
  177MPD1    C2 2748   3.838   2.441   9.577 -0.3832  0.7632 -0.0769
  177MPD1    C3 2749   3.811   2.578   9.568 -0.2540 -0.1647 -0.1537
  177MPD1    C4 2750   3.893   2.664   9.650 -0.1974 -0.4198 -0.4543
  177MPD1    C5 2751   3.992   2.604   9.724 -0.0908  0.1270  0.0031
  177MPD1     H 2752   3.781   2.366   9.524  1.3759 -0.6651  0.0212
  177MPD1    H1 2753   3.876   2.771   9.655  0.4093 -0.2844 -1.1754
  177MPD1    H2 2754   4.092   2.418   9.784  0.7927  1.0004  1.2058
  177MPD1    H3 2755   4.047   2.665   9.795 -2.1973  2.3383 -0.2671
  177MPD1     N 2756   3.702   2.623   9.484 -0.3616 -0.1782 -0.2164
  177MPD1    H5 2757   3.677   2.552   9.415 -2.2910  1.1754 -0.9143
  177MPD1    N1 2758   3.955   2.247   9.653  1.0386 -0.0572  0.3777
  177MPD1    H6 2759   4.050   2.225   9.684  1.6001 -0.3118 -1.5638
  177MPD1    H7 2760   3.928   2.205   9.565 -0.1384 -2.1367  1.7380
  178MPD1     C 2761   2.157   3.942  17.703 -0.7354  0.8522 -0.3208
  178MPD1    C1 2762   2.080   3.829  17.693 -0.1555 -0.3988  0.1055
  178MPD1    C2 2763   2.077   3.759  17.570 -0.3607  0.2687 -0.1877
  178MPD1    C3 2764   2.138   3.818  17.455 -0.2776 -0.6789  0.0982
  178MPD1    C4 2765   2.202   3.939  17.472 -0.0395  0.4020 -0.7605
  178MPD1    C5 2766   2.212   3.997  17.598  0.1228 -0.4521  0.0172
  178MPD1     H 2767   2.026   3.664  17.575 -2.2426  1.2156 -1.3445
  178MPD1    H1 2768   2.253   3.993  17.394 -0.9957 -0.1842 -1.7766
  178MPD1    H2 2769   2.177   3.990   0.053 -0.7654 -0.9397  0.6061
  178MPD1    H3 2770   2.277   4.082  17.614 -0.3461 -0.3975  1.6331
  178MPD1     N 2771   2.139   3.751  17.329 -0.0611 -0.1084 -0.0001
  178MPD1    H5 2772   2.196   3.793  17.256  0.4491 -1.2705 -0.2715
  178MPD1    N1 2773   2.027   3.775   0.072 -0.1744  0.2722  0.1275
  178MPD1    H6 2774   2.001   3.842   0.144  0.5606 -1.9425  2.4619
  178MPD1    H7 2775   1.941   3.730   0.043  1.9755 -1.9983 -2.7591
  179MPD1     C 2776   1.990   0.571  14.713  0.2270 -0.0483 -0.5126
  179MPD1    C1 2777   1.857   0.533  14.692 -0.7639  0.4298 -0.2637
  179MPD1    C2 2778   1.760   0.610  14.751 -0.3585 -0.7197  0.7834
  179MPD1    C3 2779   1.794   0.731  14.810 -0.4355 -0.4896  0.1755
  179MPD1    C4 2780   1.928   0.774  14.819  0.3035 -0.0739 -0.2345
  179MPD1    C5 2781   2.020   0.689  14.769  0.0051  0.4036  0.3302
  179MPD1     H 2782   1.659   0.571  14.748 -1.1815  1.4712 -0.3805
  179MPD1    H1 2783   1.960   0.868  14.862  0.8531  0.7179 -2.3939
  179MPD1    H2 2784   2.079   0.514  14.688  1.2847  0.9515  0.9355
  179MPD1    H3 2785   2.125   0.714  14.782  0.1221 -0.6055  1.3390
  179MPD1     N 2786   1.698   0.799  14.881  0.4382  0.0673 -0.2366
  179MPD1    H5 2787   1.733   0.880  14.932  2.4228 -1.1752  0.3705
  179MPD1    N1 2788   1.834   0.400  14.649 -0.5222 -0.1525  0.3324
  179MPD1    H6 2789   1.877   0.399  14.557 -0.2728  0.3326  0.4433
  179MPD1    H7 2790   1.736   0.386  14.627 -0.6455  0.2694  0.6267
  180MPD1     C 2791   2.110   1.852  15.661 -0.1150 -0.0197  0.1201
  180MPD1    C1 2792   1.978   1.899  15.641  0.3315 -0.4361  0.0658
  180MPD1    C2 2793   1.927   1.906  15.512 -0.2557  0.2064 -0.5317
  180MPD1    C3 2794   1.993   1.841  15.409 -0.5044  0.1458  0.0163
  180MPD1    C4 2795   2.126   1.802  15.432  0.2612  0.2419 -0.9774
  180MPD1    C5 2796   2.187   1.824  15.552  0.2769  0.5775  1.2262
  180MPD1     H 2797   1.827   1.940  15.491  0.2899  0.9047 -2.0067
  180MPD1    H1 2798   2.183   1.775  15.344  0.6271  1.0247 -0.9755
  180MPD1    H2 2799   2.156   1.840  15.758 -1.2659  0.0406  0.6739
  180MPD1    H3 2800   2.287   1.784  15.564 -0.0893 -0.3790  1.0647
  180MPD1     N 2801   1.925   1.827  15.286 -0.7711 -0.1588  0.2240
  180MPD1    H5 2802   1.829   1.859  15.290 -0.3669  1.0104  0.9473
  180MPD1    N1 2803   1.906   1.962  15.746  0.0968  0.5018  0.2732
  180MPD1    H6 2804   1.808   1.964  15.720  0.2383 -0.3812 -0.3186
  180MPD1    H7 2805   1.912   1.896  15.822 -0.9936  0.1494  0.0517
  181MPD1     C 2806   2.446   4.199  10.199 -0.1819  0.0600 -0.0080
  181MPD1    C1 2807   2.458   4.324  10.260 -0.4722  0.4741  0.3062
  181MPD1    C2 2808   2.569   4.403  10.227 -0.3496  0.4749 -0.5332
  181MPD1    C3 2809   2.655   4.365  10.124 -0.0346 -0.5034 -0.5514
  181MPD1    C4 2810   2.641   4.244  10.067  0.3404  0.4834 -0.1789
  181MPD1    C5 2811   2.532   4.163  10.100  0.8262 -0.6011 -0.0387
  181MPD1     H 2812   2.571   4.498  10.278 -1.0467  0.5032 -0.5580
  181MPD1    H1 2813   2.708   4.207   9.991  3.7119  4.2108  1.0358
  181MPD1    H2 2814   2.365   4.133  10.227  0.0291 -0.2103 -0.0414
  181MPD1    H3 2815   2.519   4.070  10.046 -1.1803  0.4899 -1.4214
  181MPD1     N 2816   2.763   4.449  10.078 -0.7834 -0.1710  0.0079
  181MPD1    H5 2817   2.824   4.410  10.007 -0.4976  0.2843  0.0060
  181MPD1    N1 2818   2.339   4.371  10.330 -0.1869 -0.9165  0.0504
  181MPD1    H6 2819   2.354   4.445  10.398 -0.7469 -1.3105  0.6074
  181MPD1    H7 2820   2.292   4.291  10.372 -4.4951  1.0366 -1.0132
  182MPD1     C 2821   4.117   4.533   0.892  0.2811  0.1752  0.1201
  182MPD1    C1 2822   4.096   4.396   0.898 -0.0589 -0.2486 -0.0560
  182MPD1    C2 2823   3.988   4.338   0.823 -0.1131  0.1132 -0.4209
  182MPD1    C3 2824   3.926   4.415   0.732  0.1200 -0.4138  0.5502
  182MPD1    C4 2825   3.950   4.550   0.728  0.2899  0.3638  0.1418
  182MPD1    C5 2826   4.044   4.611   0.806 -0.3429 -0.8252  0.0337
  182MPD1     H 2827   3.966   4.233   0.836  1.7711  0.0502  2.3831
  182MPD1    H1 2828   3.901   4.609   0.652  1.4433 -0.4212 -1.2120
  182MPD1    H2 2829   4.190   4.586   0.953 -0.6358  0.7057  0.7596
  182MPD1    H3 2830   4.063   4.718   0.797  2.4372 -1.6507 -3.5348
  182MPD1     N 2831   3.829   4.369   0.639 -0.3007 -0.3316 -0.1926
  182MPD1    H5 2832   3.770   4.437   0.591  2.1192  1.3734 -0.7409
  182MPD1    N1 2833   4.159   4.328   0.997  0.1790  0.3972 -0.2569
  182MPD1    H6 2834   4.161   4.227   0.987 -2.0016  0.3557 -0.2587
  182MPD1    H7 2835   4.250   4.364   1.025 -0.5545  0.0620  2.5356
  183MPD1     C 2836   3.564   3.694   9.686  0.3879  0.0574  0.0327
  183MPD1    C1 2837   3.693   3.658   9.689 -0.2420  0.5087 -0.2753
  183MPD1    C2 2838   3.776   3.714   9.595  0.6526 -0.4054  0.4362
  183MPD1    C3 2839   3.737   3.815   9.507 -0.1783  0.0375  0.2436
  183MPD1    C4 2840   3.610   3.851   9.510 -0.3386  1.2298 -0.6218
  183MPD1    C5 2841   3.525   3.793   9.598 -0.0383  0.4354  1.0462
  183MPD1     H 2842   3.876   3.672   9.594  1.5911  1.7449  1.6497
  183MPD1    H1 2843   3.556   3.921   9.448 -1.8244  0.7936  0.1747
  183MPD1    H2 2844   3.495   3.649   9.757  0.2931  0.6533  0.3272
  183MPD1    H3 2845   3.419   3.812   9.584  0.6977  0.7180 -4.0495
  183MPD1     N 2846   3.835   3.872   9.430 -0.2507 -0.5267 -0.4335
  183MPD1    H5 2847   3.929   3.835   9.440 -0.7180 -1.9406 -1.1144
  183MPD1    N1 2848   3.733   3.554   9.775  0.1550 -0.5505 -0.3968
  183MPD1    H6 2849   3.833   3.562   9.795  0.2539 -0.6349 -0.8567
  183MPD1    H7 2850   3.683   3.538   9.862 -0.9676  2.5751 -0.4911
  184MPD1     C 2851   2.728   1.964   9.953  0.5648  0.4608  0.7067
  184MPD1    C1 2852   2.733   1.919   9.831 -0.1521 -0.6107 -0.1162
  184MPD1    C2 2853   2.781   1.992   9.721  0.4485 -1.0409 -0.1689
  184MPD1    C3 2854   2.817   2.123   9.734  0.0797  0.6685 -0.2428
  184MPD1    C4 2855   2.812   2.173   9.862  0.8075  0.2654  0.3838
  184MPD1    C5 2856   2.772   2.093   9.972  0.0771  0.1940  0.4845
  184MPD1     H 2857   2.786   1.947   9.622 -0.6904 -0.2584 -0.5761
  184MPD1    H1 2858   2.842   2.277   9.875  1.2122  0.3795 -1.5269
  184MPD1    H2 2859   2.704   1.903  10.039 -1.0307 -0.6605 -0.5223
  184MPD1    H3 2860   2.764   2.137  10.071 -2.0333 -1.3011  0.9696
  184MPD1     N 2861   2.839   2.217   9.627 -0.3876 -0.2536 -0.2938
  184MPD1    H5 2862   2.851   2.317   9.643 -1.0218 -0.2066 -0.1335
  184MPD1    N1 2863   2.700   1.786   9.810  0.1569  0.7274 -0.2454
  184MPD1    H6 2864   2.653   1.764   9.722 -0.9513 -0.2156  0.5808
  184MPD1    H7 2865   2.639   1.756   9.885  0.2911 -0.0411 -0.4492
  185MPD1     C 2866   2.547   2.167   8.655  0.6369 -0.3928  0.5813
  185MPD1    C1 2867   2.586   2.297   8.672  0.1766  0.8311  0.6299
  185MPD1    C2 2868   2.655   2.328   8.783  0.6577  0.2611 -0.5667
  185MPD1    C3 2869   2.666   2.245   8.890 -0.1939  0.4516 -0.1082
  185MPD1    C4 2870   2.602   2.124   8.885 -0.7388 -0.6218 -0.2421
  185MPD1    C5 2871   2.540   2.084   8.771 -0.6307  0.2545 -0.4810
  185MPD1     H 2872   2.693   2.429   8.797 -2.5301  0.9258  3.1729
  185MPD1    H1 2873   2.603   2.054   8.968 -3.1411  0.0668  0.3749
  185MPD1    H2 2874   2.515   2.128   8.559  2.1221 -1.3079  0.4638
  185MPD1    H3 2875   2.499   1.984   8.760  0.5967 -0.3015  0.0507
  185MPD1     N 2876   2.731   2.267   9.012 -0.5033  0.0973  0.5302
  185MPD1    H5 2877   2.732   2.186   9.072 -0.6570  0.2190  0.6956
  185MPD1    N1 2878   2.582   2.380   8.561  0.0032 -0.2926  0.4499
  185MPD1    H6 2879   2.495   2.362   8.510  2.1967 -2.2495 -2.5986
  185MPD1    H7 2880   2.589   2.477   8.591  0.8911  0.3166 -1.6922
  186MPD1     C 2881   1.887   1.274  16.042  0.6121  0.0190  0.1685
  186MPD1    C1 2882   1.923   1.369  15.952  0.0448  0.0017 -0.3396
  186MPD1    C2 2883   1.926   1.500  15.995 -0.3428  0.1140 -0.0758
  186MPD1    C3 2884   1.892   1.533  16.122 -0.5493  0.6032 -0.0820
  186MPD1    C4 2885   1.854   1.441  16.212  0.1106  0.0787 -0.3007
  186MPD1    C5 2886   1.849   1.309  16.164  0.1002  0.4239  0.4011
  186MPD1     H 2887   1.963   1.576  15.928  2.2202 -0.2788  0.8700
  186MPD1    H1 2888   1.832   1.469  16.315 -1.8233 -0.6450 -0.5187
  186MPD1    H2 2889   1.906   1.170  16.020  0.2070 -0.1280  0.5109
  186MPD1    H3 2890   1.823   1.235  16.238 -0.6483 -1.1411 -1.4355
  186MPD1     N 2891   1.902   1.663  16.165  0.2028  0.2410  0.0171
  186MPD1    H5 2892   1.898   1.681  16.265  1.3289 -3.6806  0.7921
  186MPD1    N1 2893   1.979   1.321  15.835 -0.5524  0.4555 -0.1609
  186MPD1    H6 2894   1.988   1.374  15.749 -1.6650  0.1431 -0.4728
  186MPD1    H7 2895   1.942   1.232  15.800  0.6642  0.5854 -1.7806
  187MPD1     C 2896   1.571   3.808   0.192  0.0781 -0.4630 -0.1562
  187MPD1    C1 2897   1.456   3.737   0.183 -0.2287  0.0368  0.0313
  187MPD1    C2 2898   1.390   3.755   0.063 -0.0926  0.6785  0.1146
  187MPD1    C3 2899   1.430   3.840  17.705  1.0333 -0.0494  0.1961
  187MPD1    C4 2900   1.558   3.893  17.720  0.4834  0.2202  0.3917
  187MPD1    C5 2901   1.628   3.876   0.089 -0.4888  0.1901  0.3363
  187MPD1     H 2902   1.293   3.707   0.064  0.6039 -0.7252  2.6700
  187MPD1    H1 2903   1.602   3.949  17.637 -1.5167 -1.8569 -2.0752
  187MPD1    H2 2904   1.618   3.803   0.290  1.0088  1.5336 -0.5119
  187MPD1    H3 2905   1.726   3.920   0.091 -0.2680 -0.3390  0.9851
  187MPD1     N 2906   1.372   3.841  17.576 -0.5400  0.0575  0.5491
  187MPD1    H5 2907   1.426   3.892  17.506  1.3966 -0.6231  1.5329
  187MPD1    N1 2908   1.397   3.676   0.300 -0.1191  0.4135 -0.6529
  187MPD1    H6 2909   1.330   3.600   0.287 -0.4327  0.8195 -1.3983
  187MPD1    H7 2910   1.470   3.631   0.355  0.4678 -0.3994 -2.0795
  188MPD1     C 2911   1.136   3.187  10.439  0.0557 -0.4191 -0.1178
  188MPD1    C1 2912   1.148   3.137  10.314 -0.1761  0.0935  0.8500
  188MPD1    C2 2913   1.078   3.020  10.275  0.0505  0.1822 -0.2321
  188MPD1    C3 2914   1.001   2.948  10.368 -0.3915 -0.3283  0.0665
  188MPD1    C4 2915   0.996   2.995  10.497 -0.0299  0.1462  0.5853
  188MPD1    C5 2916   1.068   3.112  10.531  0.9036 -0.3827 -0.1033
  188MPD1     H 2917   1.089   2.993  10.171  2.8374 -2.0358  0.6592
  188MPD1    H1 2918   0.936   2.941  10.570 -0.7561  0.8645  0.5145
  188MPD1    H2 2919   1.195   3.272  10.471  2.8060 -0.2354 -5.7198
  188MPD1    H3 2920   1.060   3.157  10.629 -1.7356 -3.0712  0.9226
  188MPD1     N 2921   0.917   2.841  10.335  0.1879  0.4097  0.1469
  188MPD1    H5 2922   0.879   2.799  10.419 -2.1145  1.6113 -0.3076
  188MPD1    N1 2923   1.220   3.201  10.215  0.1667  0.3754  0.3250
  188MPD1    H6 2924   1.268   3.131  10.158  0.1141  0.4146  0.2313
  188MPD1    H7 2925   1.288   3.267  10.251  0.7458 -0.2250  0.3330
  189MPD1     C 2926   2.953   0.085   0.462  0.2087  0.0345 -0.2696
  189MPD1    C1 2927   2.900   0.024   0.353 -0.3170  0.0979  0.3167
  189MPD1    C2 2928   2.808   0.090   0.276 -0.2730  0.5002 -0.0779
  189MPD1    C3 2929   2.763   0.217   0.321  0.2568 -0.5938 -0.6629
  189MPD1    C4 2930   2.832   0.278   0.427  0.3765 -0.0735 -0.2826
  189MPD1    C5 2931   2.932   0.219   0.491  0.1180 -0.1617 -0.1989
  189MPD1     H 2932   2.772   0.050   0.182 -3.6427 -1.8628  2.2072
  189MPD1    H1 2933   2.788   0.372   0.458  0.7749  1.0058 -3.0144
  189MPD1    H2 2934   3.029   0.037   0.523  0.2777  2.6336  1.7173
  189MPD1    H3 2935   2.986   0.275   0.566  2.0627 -1.8248 -0.3764
  189MPD1     N 2936   2.655   0.274   0.236  0.4091 -0.0768  0.0678
  189MPD1    H5 2937   2.611   0.212   0.169 -2.1815  1.6251  0.1906
  189MPD1    N1 2938   2.943   4.631   0.315  0.1037  0.4418  0.1148
  189MPD1    H6 2939   2.983   4.583   0.396 -0.3249  0.7552  0.5144
  189MPD1    H7 2940   2.876   4.572   0.267 -0.2031  1.2933 -0.5082
  190MPD1     C 2941   1.406   2.660  15.441  0.8014  0.3956 -0.4617
  190MPD1    C1 2942   1.524   2.668  15.376  0.5399  0.0348 -0.1333
  190MPD1    C2 2943   1.618   2.738  15.436  0.3739 -0.0792 -1.1788
  190MPD1    C3 2944   1.602   2.805  15.551  0.0590 -0.0208  0.2675
  190MPD1    C4 2945   1.482   2.832  15.593 -0.0758  0.1724  0.9981
  190MPD1    C5 2946   1.383   2.753  15.543  0.2458  0.0302  0.7220
  190MPD1     H 2947   1.716   2.746  15.390  0.9819  2.8871  0.6246
  190MPD1    H1 2948   1.450   2.908  15.664 -1.4089  0.2114  0.3601
  190MPD1    H2 2949   1.329   2.594  15.404  0.0975  1.4687 -0.9229
  190MPD1    H3 2950   1.279   2.774  15.565  0.4099  2.6201 -0.9636
  190MPD1     N 2951   1.728   2.867  15.601  0.8327  0.3237  0.2750
  190MPD1    H5 2952   1.812   2.834  15.556  1.1681  0.3254  0.8968
  190MPD1    N1 2953   1.556   2.579  15.275  0.1369  0.3188 -0.6468
  190MPD1    H6 2954   1.473   2.566  15.219 -1.3664  1.9461  1.1827
  190MPD1    H7 2955   1.625   2.605  15.205  0.7610 -1.6462 -0.7493
  191MPD1     C 2956   4.719   4.701  12.584 -0.2608 -0.0845  0.1056
  191MPD1    C1 2957   4.717   4.579  12.520  0.4784  0.2697 -0.2619
  191MPD1    C2 2958   0.087   4.542  12.437  0.4142 -0.3870  0.6937
  191MPD1    C3 2959   0.199   4.624  12.416  0.1515 -0.2766  0.5990
  191MPD1    C4 2960   0.195   0.007  12.485  0.0894  0.8003 -0.0202
  191MPD1    C5 2961   0.097   0.042  12.569  0.4161  0.5583 -0.5796
  191MPD1     H 2962   0.078   4.460  12.367  1.9247  0.7953 -0.8757
  191MPD1    H1 2963   0.275   0.080  12.475  2.8983 -2.2688 -0.2104
  191MPD1    H2 2964   4.635   0.005  12.640 -1.3068 -1.9628 -0.0834
  191MPD1    H3 2965   0.112   0.139  12.614 -0.8598 -0.0781  1.2724
  191MPD1     N 2966   0.297   4.596  12.316  0.6364  0.3769  0.0528
  191MPD1    H5 2967   0.279   4.518  12.254  1.7304  1.4614 -1.6305
  191MPD1    N1 2968   4.603   4.494  12.522 -0.5689  0.6281  0.0995
  191MPD1    H6 2969   4.554   4.502  12.611 -0.2915  0.5354  0.2598
  191MPD1    H7 2970   4.624   4.397  12.499 -3.0072  0.6308 -2.1385
  192MPD1     C 2971   0.396   4.111  11.536  0.2524  0.5723 -0.4992
  192MPD1    C1 2972   0.408   4.244  11.514 -0.3978  0.5157 -1.0611
  192MPD1    C2 2973   0.442   4.329  11.618  0.1954 -0.0227  0.1227
  192MPD1    C3 2974   0.454   4.282  11.746  0.4519 -0.0622 -0.4151
  192MPD1    C4 2975   0.439   4.149  11.767  0.6681  0.5863  0.6917
  192MPD1    C5 2976   0.422   4.060  11.660 -0.0170  0.8362 -0.1487
  192MPD1     H 2977   0.449   4.435  11.597  2.0302 -0.0498  0.5714
  192MPD1    H1 2978   0.444   4.114  11.870  0.1717 -2.6576 -0.3921
  192MPD1    H2 2979   0.383   4.032  11.463  0.4050  0.2854 -0.2155
  192MPD1    H3 2980   0.409   3.956  11.685 -0.1588  0.6981 -0.7892
  192MPD1     N 2981   0.487   4.362  11.858  0.4324  0.3923 -0.4200
  192MPD1    H5 2982   0.511   4.315  11.944 -1.5985 -0.2506 -0.2033
  192MPD1    N1 2983   0.391   4.295  11.384 -0.3392  0.5274  0.0464
  192MPD1    H6 2984   0.311   4.252  11.337 -1.7543 -0.8624  3.6406
  192MPD1    H7 2985   0.385   4.396  11.381 -0.4585  0.4263 -3.1679
  193MPD1     C 2986   0.131   0.391  16.276 -0.4241 -0.5217 -0.0024
  193MPD1    C1 2987   0.261   0.354  16.252 -0.4324  0.8228  0.7135
  193MPD1    C2 2988   0.348   0.448  16.293 -0.1704 -0.0851 -0.6062
  193MPD1    C3 2989   0.314   0.562  16.368 -0.3799 -0.2675  0.5715
  193MPD1    C4 2990   0.185   0.582  16.401  0.1443 -0.1249 -0.1773
  193MPD1    C5 2991   0.094   0.496  16.351 -0.3606  0.1045 -0.1530
  193MPD1     H 2992   0.450   0.417  16.272  0.2900 -0.7947  2.7179
  193MPD1    H1 2993   0.152   0.664  16.463 -0.0799  0.3475 -0.9170
  193MPD1    H2 2994   0.051   0.331  16.232 -0.3010 -1.4566  1.0311
  193MPD1    H3 2995   4.726   0.512  16.374 -0.3095  0.9089 -0.4775
  193MPD1     N 2996   0.405   0.646  16.428  0.5951 -0.2801 -0.3020
  193MPD1    H5 2997   0.376   0.733  16.472  4.6284  0.1668  1.4448
  193MPD1    N1 2998   0.296   0.249  16.164 -0.3344 -0.2678 -0.5342
  193MPD1    H6 2999   0.235   0.168  16.168 -0.5778 -0.0204  0.7890
  193MPD1    H7 3000   0.391   0.215  16.179 -0.2931 -0.6024 -1.5679
  194MPD1     C 3001   4.093   2.518  16.240 -0.9596 -0.2342  0.6718
  194MPD1    C1 3002   3.975   2.468  16.184  0.2952 -0.6266 -0.5960
  194MPD1    C2 3003   3.891   2.399  16.268  0.5580 -0.8743 -0.1728
  194MPD1    C3 3004   3.930   2.365  16.395  0.2705 -0.2073 -0.6648
  194MPD1    C4 3005   4.050   2.413  16.450 -0.3488  0.4064  0.3790
  194MPD1    C5 3006   4.125   2.490  16.374 -0.6971 -0.3644  0.3004
  194MPD1     H 3007   3.802   2.359  16.221 -1.0434  2.1016  0.3626
  194MPD1    H1 3008   4.076   2.403  16.554  0.3186 -0.0588  0.1635
  194MPD1    H2 3009   4.159   2.587  16.189 -0.2176 -1.0927  0.4621
  194MPD1    H3 3010   4.208   2.543  16.419  1.7404 -3.6011 -0.3945
  194MPD1     N 3011   3.842   2.296  16.486  0.1906 -0.1151 -0.2879
  194MPD1    H5 3012   3.861   2.297  16.586 -1.5808  2.3306  0.0119
  194MPD1    N1 3013   3.942   2.507  16.054  0.0572  0.0203  0.1368
  194MPD1    H6 3014   3.881   2.438  16.010  0.6443 -0.2598 -0.2382
  194MPD1    H7 3015   4.017   2.543  15.994 -0.6848  1.3897  0.0258
  195MPD1     C 3016   0.796   4.467  17.319 -0.3214 -0.4001  0.2698
  195MPD1    C1 3017   0.689   4.526  17.383  0.4097  0.0805 -0.3152
  195MPD1    C2 3018   0.606   4.447  17.460  0.1752  0.2022 -0.1690
  195MPD1    C3 3019   0.643   4.311  17.477 -0.2810  0.0058  0.5813
  195MPD1    C4 3020   0.758   4.266  17.422  0.4117 -0.4079  0.3636
  195MPD1    C5 3021   0.833   4.339  17.341  0.1867  0.0611 -0.6819
  195MPD1     H 3022   0.514   4.485  17.502  2.0988  1.4392  2.9063
  195MPD1    H1 3023   0.779   4.161  17.439 -0.7453 -0.7561 -0.3193
  195MPD1    H2 3024   0.857   4.525  17.251 -2.5624  3.9341  1.9653
  195MPD1    H3 3025   0.913   4.287  17.288  0.3570  0.1828 -0.5412
  195MPD1     N 3026   0.573   4.218  17.555  0.0166  0.4600  0.0054
  195MPD1    H5 3027   0.622   4.129  17.552 -1.0064 -0.0042 -2.6079
  195MPD1    N1 3028   0.670   4.669  17.382 -0.7345  0.5974 -0.4264
  195MPD1    H6 3029   0.568   4.680  17.381 -0.8336 -0.0386  2.6484
  195MPD1    H7 3030   0.724   4.720  17.313 -0.6521  0.2024 -0.6575
  196MPD1     C 3031   3.952   3.686   1.334  0.4564 -0.8489  0.1216
  196MPD1    C1 3032   3.964   3.568   1.396  0.3268  0.8413  0.6798
  196MPD1    C2 3033   4.029   3.468   1.325  0.5330  0.5689  0.0743
  196MPD1    C3 3034   4.091   3.493   1.205  0.1435 -0.1784 -0.2540
  196MPD1    C4 3035   4.070   3.617   1.143 -0.3385 -0.3459 -0.3625
  196MPD1    C5 3036   4.013   3.722   1.214  0.0140  1.1514 -0.5402
  196MPD1     H 3037   4.047   3.371   1.371  1.3598  1.2832  1.2836
  196MPD1    H1 3038   4.107   3.634   1.043  0.5951  0.2104  0.0712
  196MPD1    H2 3039   3.904   3.762   1.395 -0.6982 -0.1822 -1.6192
  196MPD1    H3 3040   3.999   3.824   1.181  2.2952  2.4023  2.3237
  196MPD1     N 3041   4.177   3.408   1.137 -0.3552 -0.3899  0.4200
  196MPD1    H5 3042   4.221   3.435   1.049 -1.1807 -0.7548 -0.1031
  196MPD1    N1 3043   3.904   3.537   1.521 -0.0873  0.1665  0.5229
  196MPD1    H6 3044   3.943   3.451   1.560  0.5538 -0.2600 -1.0845
  196MPD1    H7 3045   3.909   3.613   1.588  2.1128  0.7106 -0.2791
  197MPD1     C 3046   3.927   0.009  17.125  0.9571 -0.4303 -0.1279
  197MPD1    C1 3047   4.026   0.082  17.189 -0.1379  0.7639  0.3343
  197MPD1    C2 3048   4.059   0.205  17.132 -0.0709 -0.4257 -0.3768
  197MPD1    C3 3049   4.000   0.256  17.014 -0.9176 -0.1420 -0.2420
  197MPD1    C4 3050   3.910   0.178  16.952 -0.3319  0.2190 -0.1028
  197MPD1    C5 3051   3.876   0.052  17.005 -0.4185  0.7808 -0.1273
  197MPD1     H 3052   4.130   0.270  17.182  0.1872 -1.8235  1.0754
  197MPD1    H1 3053   3.869   0.213  16.858 -1.7331  0.0747  0.4666
  197MPD1    H2 3054   3.887   4.655  17.168 -0.1954  0.5761  0.9167
  197MPD1    H3 3055   3.801   4.725  16.960 -0.5483 -0.5971  2.0422
  197MPD1     N 3056   4.030   0.385  16.967 -0.6602 -0.3641 -0.5658
  197MPD1    H5 3057   3.991   0.402  16.875 -1.3449  0.8976 -0.0362
  197MPD1    N1 3058   4.060   0.052  17.326  0.0749  0.6639  0.1043
  197MPD1    H6 3059   4.065   4.689  17.347 -0.6095  0.4511 -0.7895
  197MPD1    H7 3060   4.149   0.089  17.360 -0.2834  3.6367 -2.2530
  198MPD1     C 3061   1.380   3.840  15.093  0.1201 -0.1552  0.0426
  198MPD1    C1 3062   1.502   3.792  15.128 -0.7171 -0.2897  0.5673
  198MPD1    C2 3063   1.566   3.873  15.225  0.7096  0.5468 -0.6002
  198MPD1    C3 3064   1.491   3.961  15.303 -0.1068 -1.2812 -0.0869
  198MPD1    C4 3065   1.363   3.990  15.268  0.0446 -0.0480 -0.1094
  198MPD1    C5 3066   1.308   3.925  15.164 -0.7345 -0.0439  0.2886
  198MPD1     H 3067   1.667   3.846  15.252 -0.2068 -3.1556 -0.8397
  198MPD1    H1 3068   1.304   4.068  15.314 -1.0257 -1.4064  0.8121
  198MPD1    H2 3069   1.330   3.820  14.999  0.7373 -1.3271 -0.0400
  198MPD1    H3 3070   1.206   3.944  15.133 -0.9052 -1.6239 -0.1177
  198MPD1     N 3071   1.560   4.030  15.403 -0.1329  0.0414 -0.0790
  198MPD1    H5 3072   1.658   4.010  15.393 -0.2659  0.6215 -2.5012
  198MPD1    N1 3073   1.566   3.700  15.045 -0.0930  0.1989  0.4817
  198MPD1    H6 3074   1.505   3.628  15.008 -1.7886  0.8110  2.1338
  198MPD1    H7 3075   1.652   3.661  15.085  0.4860 -0.4794 -1.4126
  199MPD1     C 3076   3.564   0.852  10.495 -0.2512 -0.0619 -0.0480
  199MPD1    C1 3077   3.496   0.953  10.432 -0.4189  0.3530  0.2736
  199MPD1    C2 3078   3.423   0.921  10.323  0.9513  0.2356  0.3050
  199MPD1    C3 3079   3.429   0.790  10.267 -0.7841  0.3722 -0.2830
  199MPD1    C4 3080   3.515   0.694  10.319 -0.0194 -0.0979  0.1381
  199MPD1    C5 3081   3.576   0.724  10.441  0.4088  0.4638  0.2635
  199MPD1     H 3082   3.356   0.995  10.280 -2.3924 -3.2247 -0.4089
  199MPD1    H1 3083   3.522   0.593  10.279 -0.4996  0.8579 -2.3260
  199MPD1    H2 3084   3.618   0.861  10.589  0.5111 -1.2879 -0.3707
  199MPD1    H3 3085   3.633   0.646  10.491 -0.0812 -0.6681 -0.9218
  199MPD1     N 3086   3.361   0.747  10.151  0.0254  0.4100  0.4575
  199MPD1    H5 3087   3.392   0.653  10.130 -2.6500 -0.0780 -1.3122
  199MPD1    N1 3088   3.481   1.074  10.499 -0.4645  0.4068  0.4750
  199MPD1    H6 3089   3.475   1.152  10.434 -0.7770  1.9654  2.3500
  199MPD1    H7 3090   3.557   1.097  10.564 -0.9944 -3.0626  2.3043
  200MPD1     C 3091   2.268   0.454  14.935  0.8429  0.2835  0.0833
  200MPD1    C1 3092   2.309   0.371  14.834  0.0621  0.1141  0.1771
  200MPD1    C2 3093   2.437   0.382  14.787 -0.4307 -0.1676 -0.2710
  200MPD1    C3 3094   2.519   0.486  14.822 -0.2274 -1.0612  0.2393
  200MPD1    C4 3095   2.471   0.585  14.909  0.0574  0.1240  0.0087
  200MPD1    C5 3096   2.345   0.566  14.962  0.9213  0.3811 -0.2714
  200MPD1     H 3097   2.470   0.306  14.718  4.5837 -0.1787  2.0744
  200MPD1    H1 3098   2.529   0.672  14.936 -0.9829  1.4023 -1.8429
  200MPD1    H2 3099   2.176   0.443  14.989 -0.0038  1.2525 -1.1643
  200MPD1    H3 3100   2.307   0.638  15.034 -3.2411 -0.6491 -1.3877
  200MPD1     N 3101   2.645   0.495  14.761 -0.4707  0.3940  1.0616
  200MPD1    H5 3102   2.671   0.417  14.701 -2.1186  1.0357 -0.4700
  200MPD1    N1 3103   2.221   0.261  14.813  0.2957  0.0175 -0.0004
  200MPD1    H6 3104   2.126   0.278  14.846  0.6330  2.6184 -0.3383
  200MPD1    H7 3105   2.228   0.236  14.714 -3.5277  0.6022 -0.4440
  201MPD1     C 3106   4.495   3.571  13.899 -0.0062  0.4003 -0.0231
  201MPD1    C1 3107   4.603   3.645  13.931 -0.6264  0.6504  0.8526
  201MPD1    C2 3108   4.729   3.614  13.872 -0.2284 -0.4044 -0.8043
  201MPD1    C3 3109   0.007   3.534  13.763 -0.7373 -0.6954  1.3096
  201MPD1    C4 3110   4.633   3.460  13.726  0.3744 -0.1838 -0.5869
  201MPD1    C5 3111   4.516   3.481  13.799 -0.0981  0.0916  0.8118
  201MPD1     H 3112   0.082   3.662  13.908 -0.2113 -2.9255  2.4519
  201MPD1    H1 3113   4.628   3.386  13.647  1.7576  0.2604 -1.0935
  201MPD1    H2 3114   4.396   3.590  13.940 -1.0051 -0.5907 -1.9879
  201MPD1    H3 3115   4.431   3.423  13.766  1.6098 -1.1230 -1.4373
  201MPD1     N 3116   0.139   3.519  13.707 -0.1378  0.3952  0.5387
  201MPD1    H5 3117   0.215   3.571  13.749 -0.7363  0.7377  1.1928
  201MPD1    N1 3118   4.596   3.732  14.046  0.2743 -0.2901  0.7388
  201MPD1    H6 3119   4.501   3.753  14.075  0.5026  2.7147 -0.7161
  201MPD1    H7 3120   4.655   3.811  14.021 -0.2028 -0.0233  0.4402
  202MPD1     C 3121   3.632   2.485   8.982  0.6802  0.1093 -0.1268
  202MPD1    C1 3122   3.658   2.620   8.956  0.1426 -0.6827  0.0282
  202MPD1    C2 3123   3.750   2.686   9.037 -0.2797  0.0004 -0.4083
  202MPD1    C3 3124   3.823   2.622   9.141 -0.3457  0.1750 -0.2232
  202MPD1    C4 3125   3.795   2.485   9.157 -0.1257 -0.5529 -0.7204
  202MPD1    C5 3126   3.693   2.421   9.088 -0.2083 -0.5400  0.3348
  202MPD1     H 3127   3.783   2.782   9.000  1.0742  0.3819  1.7914
  202MPD1    H1 3128   3.849   2.432   9.234 -0.6078  1.0726  0.7277
  202MPD1    H2 3129   3.558   2.432   8.923 -0.2692 -0.8887  1.9612
  202MPD1    H3 3130   3.659   2.321   9.110  0.3556 -0.2501  2.5346
  202MPD1     N 3131   3.927   2.676   9.223  0.1893  0.0482 -1.0785
  202MPD1    H5 3132   3.987   2.615   9.277  0.2863  1.2207  0.1429
  202MPD1    N1 3133   3.633   2.671   8.832  0.0345 -0.1678 -0.5098
  202MPD1    H6 3134   3.645   2.772   8.831  2.3419 -0.4513 -0.2794
  202MPD1    H7 3135   3.536   2.660   8.802 -0.1340  1.2151 -0.4766
  203MPD1     C 3136   3.234   4.342  12.296 -0.4396  0.4677  0.1409
  203MPD1    C1 3137   3.208   4.263  12.182  0.7365  0.3633 -0.4863
  203MPD1    C2 3138   3.195   4.129  12.192  0.0596  0.3816 -0.4892
  203MPD1    C3 3139   3.206   4.067  12.313  0.0217 -0.0447  0.2422
  203MPD1    C4 3140   3.215   4.135  12.431  0.2818 -0.0965  0.2423
  203MPD1    C5 3141   3.238   4.269  12.413  0.9972  0.6925  0.2938
  203MPD1     H 3142   3.181   4.075  12.100  0.2439 -1.3893  0.5181
  203MPD1    H1 3143   3.223   4.096  12.532 -0.5411 -3.0414 -0.8281
  203MPD1    H2 3144   3.270   4.444  12.291 -0.4810  0.4364 -0.9096
  203MPD1    H3 3145   3.263   4.335  12.496  2.6530 -0.2410  0.5523
  203MPD1     N 3146   3.199   3.930  12.316  0.2240  0.4204  0.4436
  203MPD1    H5 3147   3.199   3.872  12.232 -1.1097  0.4660  0.4133
  203MPD1    N1 3148   3.221   4.325  12.059 -0.5933  0.2434  0.1167
  203MPD1    H6 3149   3.182   4.419  12.063 -0.4408  0.3733 -1.4421
  203MPD1    H7 3150   3.162   4.269  11.998 -0.0086 -0.0587 -0.1787
  204MPD1     C 3151   3.070   1.582  17.368 -0.3207 -0.2897  0.0619
  204MPD1    C1 3152   3.086   1.530  17.244  0.8936  0.5194  0.5794
  204MPD1    C2 3153   3.102   1.394  17.223  0.2134  0.3370 -1.1617
  204MPD1    C3 3154   3.095   1.308  17.329  0.1306 -0.0328 -0.0040
  204MPD1    C4 3155   3.090   1.355  17.457  0.3392  0.3905  0.4238
  204MPD1    C5 3156   3.077   1.494  17.474 -0.4571  0.0277 -0.4757
  204MPD1     H 3157   3.107   1.354  17.122  0.1605 -0.5744 -0.8010
  204MPD1    H1 3158   3.091   1.298  17.549  2.4415 -0.9249 -0.4200
  204MPD1    H2 3159   3.050   1.687  17.386 -0.0879 -0.1307 -0.5891
  204MPD1    H3 3160   3.070   1.542  17.571  0.4411 -0.5443 -0.1284
  204MPD1     N 3161   3.099   1.173  17.288  0.3137  0.0251  0.0505
  204MPD1    H5 3162   3.103   1.154  17.188  2.5023  1.4216 -0.1411
  204MPD1    N1 3163   3.099   1.619  17.138 -0.2734 -0.1274 -0.0791
  204MPD1    H6 3164   3.068   1.586  17.047 -0.0646 -1.8465  0.4694
  204MPD1    H7 3165   3.054   1.710  17.147  0.1111 -0.0412  1.0388
  205MPD1     C 3166   3.721   4.373   0.234 -0.3173 -0.1838  0.4439
  205MPD1    C1 3167   3.662   4.301   0.138  0.1302  0.0508  0.1257
  205MPD1    C2 3168   3.541   4.346   0.090 -0.0856  0.2672 -0.3069
  205MPD1    C3 3169   3.472   4.449   0.150  0.0642 -0.2340  0.1331
  205MPD1    C4 3170   3.533   4.517   0.251 -0.4024 -0.4418 -0.5445
  205MPD1    C5 3171   3.664   4.488   0.287  0.7643 -0.1486  0.6254
  205MPD1     H 3172   3.495   4.296   0.005 -0.0663  2.5474 -1.6796
  205MPD1    H1 3173   3.478   4.595   0.303 -0.6920 -0.7051 -0.4559
  205MPD1    H2 3174   3.822   4.343   0.261  0.4282  0.0902 -2.0878
  205MPD1    H3 3175   3.715   4.530   0.373  0.3553 -1.6619  1.6077
  205MPD1     N 3176   3.337   4.487   0.113  0.0997  0.2392  0.2745
  205MPD1    H5 3177   3.291   4.556   0.171  1.5936  1.0257  0.5154
  205MPD1    N1 3178   3.736   4.202   0.071 -0.6742 -0.0035  0.7854
  205MPD1    H6 3179   3.690   4.133   0.012  0.7279 -0.9950  0.8377
  205MPD1    H7 3180   3.796   4.152   0.136  1.9371  2.6822  0.4326
  206MPD1     C 3181   3.317   2.576  16.591  0.4113 -0.0271 -0.6749
  206MPD1    C1 3182   3.325   2.441  16.592 -0.2571  0.1930  0.0472
  206MPD1    C2 3183   3.323   2.380  16.471 -0.2269  0.2494 -1.0602
  206MPD1    C3 3184   3.289   2.448  16.352  0.2668  0.3705 -0.6257
  206MPD1    C4 3185   3.277   2.584  16.352  0.1396 -0.3517  0.4203
  206MPD1    C5 3186   3.283   2.646  16.473 -0.4112  0.2681  0.2504
  206MPD1     H 3187   3.338   2.273  16.466  2.4606  0.4916  1.4825
  206MPD1    H1 3188   3.250   2.647  16.268 -0.2775  1.8433  2.1764
  206MPD1    H2 3189   3.328   2.621  16.690 -0.8525  0.2605 -0.6703
  206MPD1    H3 3190   3.269   2.754  16.474 -1.0075  0.1923  0.4112
  206MPD1     N 3191   3.270   2.381  16.229  0.1754 -0.2688 -0.1181
  206MPD1    H5 3192   3.256   2.437  16.146 -0.0821 -3.5004 -2.2274
  206MPD1    N1 3193   3.358   2.362  16.707  0.2283  0.0995 -0.3445
  206MPD1    H6 3194   3.323   2.389  16.799 -1.2360  1.1024 -1.1723
  206MPD1    H7 3195   3.324   2.266  16.708 -1.0427  0.5602  2.0090
  207MPD1     C 3196   0.494   2.822  10.149 -0.9461 -0.1919 -0.2316
  207MPD1    C1 3197   0.477   2.851  10.282  0.1074 -0.0233  0.1406
  207MPD1    C2 3198   0.526   2.963  10.336  0.1668 -0.1596 -0.6895
  207MPD1    C3 3199   0.599   3.056  10.257  0.6375 -0.8547 -0.0316
  207MPD1    C4 3200   0.606   3.031  10.125  0.0709  0.0903  0.1169
  207MPD1    C5 3201   0.554   2.913  10.071 -0.1369  0.6443 -0.7533
  207MPD1     H 3202   0.525   2.980  10.443  1.1946 -0.2885 -0.6554
  207MPD1    H1 3203   0.649   3.101  10.054  1.2162 -1.2791 -0.5380
  207MPD1    H2 3204   0.444   2.736  10.107 -0.1235  0.4045 -2.4086
  207MPD1    H3 3205   0.562   2.894   9.965  2.2415 -1.6109 -0.1720
  207MPD1     N 3206   0.656   3.175  10.308  0.7192  0.4906 -0.4348
  207MPD1    H5 3207   0.671   3.254  10.246  2.7360 -0.9071 -1.7295
  207MPD1    N1 3208   0.399   2.763  10.359 -0.5299  0.6251 -0.1432
  207MPD1    H6 3209   0.350   2.796  10.441 -0.1945  0.5461  0.0906
  207MPD1    H7 3210   0.339   2.695  10.313 -0.6331  1.2727 -0.9642
  208MPD1     C 3211   2.647   2.874  17.716 -0.6705 -0.0413  0.0964
  208MPD1    C1 3212   2.580   2.987  17.691  0.2069 -0.1638 -0.2363
  208MPD1    C2 3213   2.653   3.104  17.669  0.3305 -0.2777 -0.1322
  208MPD1    C3 3214   2.791   3.104  17.658 -0.4577 -0.4880  0.3110
  208MPD1    C4 3215   2.852   2.978  17.653  0.5179  0.6297  0.0748
  208MPD1    C5 3216   2.778   2.872  17.688  0.5190 -0.4298  0.0148
  208MPD1     H 3217   2.599   3.198  17.683  0.9981 -0.0590  0.9523
  208MPD1    H1 3218   2.959   2.964  17.643  0.5795 -0.4568  2.2537
  208MPD1    H2 3219   2.597   2.782   0.001 -1.5419  0.2853 -0.3519
  208MPD1    H3 3220   2.833   2.780  17.707  1.2103 -0.0822 -0.3044
  208MPD1     N 3221   2.866   3.226  17.652 -0.5009 -0.0768 -0.4226
  208MPD1    H5 3222   2.811   3.312  17.645 -1.5347 -0.6459  0.6838
  208MPD1    N1 3223   2.435   2.984  17.685 -0.2131  0.4429 -0.5667
  208MPD1    H6 3224   2.382   2.907  17.723 -1.2524  1.0572 -0.7552
  208MPD1    H7 3225   2.403   3.078  17.709 -1.6137  0.7338 -3.6225
  209MPD1     C 3226   1.494   3.875  11.978  0.2211  0.3025 -1.0132
  209MPD1    C1 3227   1.550   3.929  11.864  0.3293  0.7121 -0.1435
  209MPD1    C2 3228   1.468   3.991  11.765  0.2198  0.2171 -0.5496
  209MPD1    C3 3229   1.332   3.983  11.769  0.0150  1.0308  0.0735
  209MPD1    C4 3230   1.277   3.925  11.883 -0.4364  0.0188 -0.0807
  209MPD1    C5 3231   1.356   3.877  11.985  0.1759  0.0270 -0.2393
  209MPD1     H 3232   1.517   4.031  11.677 -0.0442 -0.8465 -1.1868
  209MPD1    H1 3233   1.172   3.935  11.908 -0.5266 -1.2006  0.0153
  209MPD1    H2 3234   1.557   3.837  12.058 -0.6769 -1.3868 -1.0996
  209MPD1    H3 3235   1.306   3.841  12.074 -1.3291 -0.2734 -1.2061
  209MPD1     N 3236   1.252   4.029  11.660 -0.1207 -0.5588  0.1833
  209MPD1    H5 3237   1.300   4.069  11.580  0.0769  0.5693  0.8572
  209MPD1    N1 3238   1.694   3.933  11.859 -0.0303  0.0086  0.4519
  209MPD1    H6 3239   1.742   3.851  11.896  1.0020  0.2751 -0.3056
  209MPD1    H7 3240   1.725   3.948  11.763 -1.0613  0.8113  0.2444
  210MPD1     C 3241   1.214   4.703  10.995 -0.4287  0.1297 -0.8626
  210MPD1    C1 3242   1.182   4.701  11.128  0.2975 -0.0524 -0.4404
  210MPD1    C2 3243   1.142   4.584  11.186 -0.3200  0.1400  0.0884
  210MPD1    C3 3244   1.147   4.463  11.119  0.1245  0.3277 -0.1688
  210MPD1    C4 3245   1.183   4.466  10.985 -0.6013 -0.1106  0.2725
  210MPD1    C5 3246   1.211   4.586  10.921 -0.2705 -0.2366  0.2411
  210MPD1     H 3247   1.102   4.595  11.286  0.6272 -2.1747  0.7163
  210MPD1    H1 3248   1.192   4.374  10.929 -0.4493  0.6886 -1.0125
  210MPD1    H2 3249   1.228   0.062  10.947  2.4391 -0.9511 -2.1764
  210MPD1    H3 3250   1.223   4.595  10.813  2.1976  0.6575  0.6131
  210MPD1     N 3251   1.116   4.341  11.177  0.4723 -0.5547 -0.3995
  210MPD1    H5 3252   1.109   4.260  11.116 -0.1459  0.0903 -1.1927
  210MPD1    N1 3253   1.155   0.083  11.197  0.8781 -0.2415 -0.4927
  210MPD1    H6 3254   1.158   0.055  11.295  1.4751  0.9377 -0.1788
  210MPD1    H7 3255   1.229   0.150  11.179  1.0706  0.4695  2.9170
  211MPD1     C 3256   3.764   4.348  15.752 -0.3385  0.3785 -0.3024
  211MPD1    C1 3257   3.791   4.386  15.883  0.7273  0.1346 -0.1529
  211MPD1    C2 3258   3.691   4.435  15.966 -0.7591  0.3428 -0.5493
  211MPD1    C3 3259   3.562   4.451  15.911  0.5638  0.2938  0.2948
  211MPD1    C4 3260   3.537   4.411  15.784 -0.3721  0.0278 -0.5268
  211MPD1    C5 3261   3.638   4.358  15.707  0.5088 -0.4588 -0.2215
  211MPD1     H 3262   3.711   4.467  16.067 -0.7592 -0.8915 -0.1539
  211MPD1    H1 3263   3.441   4.419  15.734  0.1443 -0.0204 -1.5229
  211MPD1    H2 3264   3.840   4.320  15.680 -0.9351 -0.4324 -0.6156
  211MPD1    H3 3265   3.621   4.344  15.601 -3.0414 -1.1930  0.4223
  211MPD1     N 3266   3.463   4.514  15.996  0.2407  0.2574 -0.0600
  211MPD1    H5 3267   3.495   4.531  16.091 -0.5365  0.8773  0.0967
  211MPD1    N1 3268   3.926   4.363  15.930  0.0130  0.3290  0.3666
  211MPD1    H6 3269   3.982   4.434  15.977  2.6037 -0.2698 -1.8173
  211MPD1    H7 3270   3.996   4.325  15.866 -1.1523 -1.3329  0.0747
  212MPD1     C 3271   2.925   2.883  16.248  0.2796  0.9590 -0.1951
  212MPD1    C1 3272   2.789   2.883  16.244  0.5916  0.6459  0.0939
  212MPD1    C2 3273   2.725   2.822  16.346  0.1456  0.0599  0.1445
  212MPD1    C3 3274   2.797   2.753  16.444  0.4834  0.3142  0.3302
  212MPD1    C4 3275   2.940   2.743  16.430  0.4947  0.6312  0.1730
  212MPD1    C5 3276   2.997   2.822  16.339  0.4774 -0.2924 -0.0889
  212MPD1     H 3277   2.617   2.814  16.344  0.2304 -0.7730 -0.8978
  212MPD1    H1 3278   3.006   2.685  16.494  1.6459 -0.4339 -1.9847
  212MPD1    H2 3279   2.972   2.936  16.166  0.8922 -0.2604 -0.6406
  212MPD1    H3 3280   3.105   2.816  16.329  0.2776 -0.4156 -2.2026
  212MPD1     N 3281   2.736   2.680  16.543 -0.0818  0.0093 -0.0670
  212MPD1    H5 3282   2.793   2.603  16.577 -0.6771 -0.8267 -0.9560
  212MPD1    N1 3283   2.720   2.942  16.132  0.0527  0.2368 -0.1243
  212MPD1    H6 3284   2.768   3.027  16.104  3.6575 -1.2065  1.6524
  212MPD1    H7 3285   2.623   2.971  16.148 -0.1938  0.1188 -1.4548
  213MPD1     C 3286   1.359   3.561  16.179 -0.3999  0.9037 -0.7507
  213MPD1    C1 3287   1.375   3.434  16.137 -0.5210 -0.3721  0.0542
  213MPD1    C2 3288   1.298   3.397  16.029 -0.0890 -0.1560  0.2432
  213MPD1    C3 3289   1.191   3.470  15.980 -0.2168  0.4150  0.5325
  213MPD1    C4 3290   1.169   3.594  16.035  0.2549 -0.8490 -0.0521
  213MPD1    C5 3291   1.255   3.640  16.130 -0.0952 -0.8695 -0.3138
  213MPD1     H 3292   1.332   3.311  15.973 -0.0408  0.3440 -0.4937
  213MPD1    H1 3293   1.090   3.660  16.001 -1.2687 -1.8958  1.4298
  213MPD1    H2 3294   1.439   3.602  16.239 -0.5909 -0.9114  0.7532
  213MPD1    H3 3295   1.244   3.742  16.164 -1.3603 -0.7566 -1.0515
  213MPD1     N 3296   1.107   3.412  15.877  0.5168  0.3650 -0.3341
  213MPD1    H5 3297   1.127   3.320  15.841  0.3438 -0.2838  1.2372
  213MPD1    N1 3298   1.503   3.375  16.138  0.8980  0.2973  0.2168
  213MPD1    H6 3299   1.475   3.278  16.128  1.2370  0.2852 -0.6324
  213MPD1    H7 3300   1.551   3.383  16.228  0.4692 -0.5578  0.5209
  214MPD1     C 3301   0.738   2.563  15.764  0.0119  0.3953  0.8979
  214MPD1    C1 3302   0.750   2.648  15.870 -0.6392  0.5741 -0.3923
  214MPD1    C2 3303   0.747   2.781  15.842  0.4906  0.1335  0.9612
  214MPD1    C3 3304   0.733   2.836  15.717 -0.3444  0.5814  0.0406
  214MPD1    C4 3305   0.702   2.745  15.619 -0.0725 -0.3564 -0.2953
  214MPD1    C5 3306   0.705   2.614  15.638 -0.2506  0.0093 -0.2889
  214MPD1     H 3307   0.777   2.841  15.928 -0.8634 -0.2044  1.6642
  214MPD1    H1 3308   0.671   2.787  15.524 -2.1563  1.6471  1.2785
  214MPD1    H2 3309   0.748   2.457  15.785 -1.4820  0.3706  1.4520
  214MPD1    H3 3310   0.672   2.554  15.554 -1.4207 -2.4604  1.9441
  214MPD1     N 3311   0.733   2.971  15.688 -0.5694 -0.0854 -0.1780
  214MPD1    H5 3312   0.712   2.991  15.591 -0.2950 -1.2778 -0.4852
  214MPD1    N1 3313   0.789   2.600  15.998  0.0784 -0.0693  0.2736
  214MPD1    H6 3314   0.756   2.504  16.006  1.2406 -0.4136  0.9486
  214MPD1    H7 3315   0.748   2.655  16.074 -0.7394 -0.1243 -0.1303
  215MPD1     C 3316   0.451   3.352  10.503 -0.1127  0.1399  0.8671
  215MPD1    C1 3317   0.494   3.475  10.472 -0.0544  0.2752  0.2549
  215MPD1    C2 3318   0.509   3.568  10.573 -0.7505 -0.0712  0.2227
  215MPD1    C3 3319   0.481   3.532  10.706 -0.2530  0.0380 -0.0422
  215MPD1    C4 3320   0.455   3.402  10.735 -0.0366 -0.2474 -0.1564
  215MPD1    C5 3321   0.425   3.316  10.633 -0.7263  0.0272  0.1402
  215MPD1     H 3322   0.547   3.665  10.541 -1.3021  0.6888  1.8320
  215MPD1    H1 3323   0.423   3.367  10.833  0.9844  0.6295  0.4909
  215MPD1    H2 3324   0.423   3.277  10.430  1.3887 -2.1525  2.6539
  215MPD1    H3 3325   0.393   3.213  10.644  2.0498 -0.6072  2.3465
  215MPD1     N 3326   0.499   3.634  10.809  0.5072 -0.0163 -0.1338
  215MPD1    H5 3327   0.537   3.723  10.779 -1.8455 -0.0487 -3.2233
  215MPD1    N1 3328   0.506   3.513  10.340 -0.2267 -0.0805 -0.1624
  215MPD1    H6 3329   0.571   3.589  10.320  0.4809 -0.2016  1.6840
  215MPD1    H7 3330   0.542   3.441  10.277 -0.0090  0.3612 -0.5458
  216MPD1     C 3331   2.783   2.675  16.882  0.1785 -0.2393 -0.2645
  216MPD1    C1 3332   2.830   2.548  16.868 -0.5065 -0.2110  0.2297
  216MPD1    C2 3333   2.765   2.452  16.939  0.1310  0.0761 -0.3815
  216MPD1    C3 3334   2.661   2.475  17.022  0.9044 -0.0186 -0.2901
  216MPD1    C4 3335   2.626   2.604  17.056  0.1568 -0.2766 -0.9354
  216MPD1    C5 3336   2.686   2.698  16.974  0.3934 -0.1947 -0.5710
  216MPD1     H 3337   2.797   2.349  16.929  0.8500  0.4264 -1.7758
  216MPD1    H1 3338   2.546   2.632  17.124  1.0736 -0.7084  0.3086
  216MPD1    H2 3339   2.822   2.756  16.822 -0.6614 -0.8232 -1.5858
  216MPD1    H3 3340   2.647   2.799  16.990  1.6336  0.1193  0.4645
  216MPD1     N 3341   2.605   2.361  17.082  0.1955  0.3707 -0.1793
  216MPD1    H5 3342   2.636   2.271  17.049  0.5923  0.9434 -1.3599
  216MPD1    N1 3343   2.906   2.504  16.758 -0.4908 -0.2316 -0.1811
  216MPD1    H6 3344   2.980   2.573  16.742  1.1720 -1.4149  2.5727
  216MPD1    H7 3345   2.953   2.416  16.777  1.3711  0.8600  0.2919
  217MPD1     C 3346   3.606   4.181   8.545 -0.1979 -0.0762  0.0876
  217MPD1    C1 3347   3.704   4.082   8.558  1.2135 -0.1227  0.4090
  217MPD1    C2 3348   3.712   4.014   8.684 -0.6236  0.7124  0.7770
  217MPD1    C3 3349   3.613   4.039   8.782  0.9031 -0.1824 -0.1787
  217MPD1    C4 3350   3.531   4.142   8.764  0.3205  0.2465  0.1005
  217MPD1    C5 3351   3.520   4.208   8.646 -0.0705  0.2060 -0.4524
  217MPD1     H 3352   3.797   3.950   8.699 -2.2382 -1.1645  1.8755
  217MPD1    H1 3353   3.450   4.159   8.834 -1.0634  1.5235 -1.8248
  217MPD1    H2 3354   3.594   4.242   8.457 -2.1765  1.3086  1.3027
  217MPD1    H3 3355   3.449   4.288   8.630  2.6576  1.9793 -3.6370
  217MPD1     N 3356   3.606   3.968   8.904  0.0178 -0.0052 -0.4723
  217MPD1    H5 3357   3.541   3.992   8.978  0.2477 -0.4209 -0.1410
  217MPD1    N1 3358   3.805   4.075   8.461 -0.3668  0.7338 -0.2278
  217MPD1    H6 3359   3.824   3.976   8.452 -1.7995  0.5290 -1.0046
  217MPD1    H7 3360   3.773   4.111   8.371 -0.8388  1.5380  0.2649
  218MPD1     C 3361   0.402   0.124  12.904 -0.0562 -0.3917  0.9407
  218MPD1    C1 3362   0.462   0.045  12.998 -0.1524 -0.1996 -0.0533
  218MPD1    C2 3363   0.515   4.653  12.960  0.1147  0.1479  0.0421
  218MPD1    C3 3364   0.503   4.609  12.831 -0.8294  0.1013  0.1924
  218MPD1    C4 3365   0.445   4.692  12.739  0.0211  0.2920  0.0486
  218MPD1    C5 3366   0.393   0.081  12.774 -0.1110 -0.4376 -0.7848
  218MPD1     H 3367   0.559   4.591  13.037  1.7141 -0.9923 -1.7794
  218MPD1    H1 3368   0.434   4.679  12.632 -1.0991 -0.4755  0.2594
  218MPD1    H2 3369   0.354   0.215  12.937  0.4396  0.2251 -0.0482
  218MPD1    H3 3370   0.358   0.146  12.695 -0.1755  1.2615  0.6419
  218MPD1     N 3371   0.555   4.479  12.800 -0.3087 -0.4512  0.3466
  218MPD1    H5 3372   0.583   4.422  12.879 -1.9436 -1.4643  0.1994
  218MPD1    N1 3373   0.464   0.093  13.130  0.7560  0.9943  0.8934
  218MPD1    H6 3374   0.517   0.038  13.197 -2.2034 -0.9221  1.6655
  218MPD1    H7 3375   0.466   0.194  13.142 -1.3354  1.4531 -2.6153
  219MPD1     C 3376   0.273   3.678  12.120 -0.4219  0.2455  0.4703
  219MPD1    C1 3377   0.351   3.779  12.078 -0.0523  0.4033 -0.6785
  219MPD1    C2 3378   0.394   3.868  12.181 -0.1748  0.3475 -0.1462
  219MPD1    C3 3379   0.374   3.838  12.316  0.2523 -0.4076 -0.2965
  219MPD1    C4 3380   0.283   3.739  12.347  0.6659 -0.1636  0.2794
  219MPD1    C5 3381   0.234   3.653  12.245  0.0255 -0.8523 -0.0698
  219MPD1     H 3382   0.455   3.954  12.156  0.1487  0.1698  0.0176
  219MPD1    H1 3383   0.260   3.714  12.450  0.5443  0.6300  0.4464
  219MPD1    H2 3384   0.235   3.605  12.049  1.1781  0.2188 -0.3588
  219MPD1    H3 3385   0.160   3.575  12.261 -1.8909  0.8741 -0.5199
  219MPD1     N 3386   0.435   3.905  12.427 -0.2884  0.3186 -0.0838
  219MPD1    H5 3387   0.398   3.880  12.518 -0.8841  0.2178 -0.3556
  219MPD1    N1 3388   0.357   3.815  11.943  0.2574 -0.4444  0.1944
  219MPD1    H6 3389   0.375   3.727  11.894  0.3032 -0.2888 -0.0671
  219MPD1    H7 3390   0.438   3.875  11.932  2.1545 -2.3229  3.9631
  220MPD1     C 3391   0.125   0.293   9.758 -0.6792 -0.2178  0.2749
  220MPD1    C1 3392   0.241   0.235   9.785 -0.6901  0.0094 -0.0345
  220MPD1    C2 3393   0.236   0.116   9.846  0.1626  0.2060 -0.1981
  220MPD1    C3 3394   0.120   0.059   9.901 -0.4850 -0.0773  0.2273
  220MPD1    C4 3395   0.007   0.130   9.883 -0.2735 -0.2013 -0.1538
  220MPD1    C5 3396   0.010   0.248   9.812 -0.4122  0.0538 -0.4920
  220MPD1     H 3397   0.322   0.050   9.851  0.0731  0.3982  3.8646
  220MPD1    H1 3398   4.649   0.100   9.926 -0.4058 -2.4317 -2.0525
  220MPD1    H2 3399   0.113   0.393   9.717  0.3519 -0.8334 -1.5204
  220MPD1    H3 3400   4.654   0.301   9.793 -0.1280  0.3029 -1.1800
  220MPD1     N 3401   0.129   4.673   9.967 -0.0421 -0.8355 -0.0133
  220MPD1    H5 3402   0.219   4.629   9.981 -0.5995 -1.5442  1.3890
  220MPD1    N1 3403   0.363   0.282   9.730  0.5437 -0.3815  0.9815
  220MPD1    H6 3404   0.379   0.381   9.714  0.8024 -0.8422 -1.5328
  220MPD1    H7 3405   0.441   0.235   9.776  0.6855 -0.2223  0.9038
  221MPD1     C 3406   2.767   3.047  16.779  0.2071 -0.2064 -0.8599
  221MPD1    C1 3407   2.859   3.114  16.852 -0.4165  0.4995  0.0248
  221MPD1    C2 3408   2.975   3.154  16.796  0.0198 -0.2400  0.4294
  221MPD1    C3 3409   3.003   3.137  16.656  0.6730 -0.2351  0.0547
  221MPD1    C4 3410   2.904   3.067  16.586  0.1429  0.2846 -0.1785
  221MPD1    C5 3411   2.789   3.019  16.642  0.4339  0.2347  0.1813
  221MPD1     H 3412   3.045   3.208  16.859  0.1081 -0.2704  0.3572
  221MPD1    H1 3413   2.924   3.058  16.480  0.3802  1.3495 -0.2282
  221MPD1    H2 3414   2.673   3.020  16.826  0.3223  0.6210 -0.1676
  221MPD1    H3 3415   2.713   2.962  16.590  1.2004 -0.4949 -0.1232
  221MPD1     N 3416   3.108   3.192  16.584  0.1300 -0.8259 -0.2082
  221MPD1    H5 3417   3.099   3.188  16.483 -3.7085 -2.2785  0.1622
  221MPD1    N1 3418   2.842   3.133  16.990 -0.1573  0.2529 -0.0973
  221MPD1    H6 3419   2.744   3.140  17.017 -0.6179  1.3367 -2.0830
  221MPD1    H7 3420   2.891   3.219  17.015  0.7023 -0.4425  0.6728
  222MPD1     C 3421   2.105   2.140  17.399 -0.1553  0.5361 -0.3993
  222MPD1    C1 3422   2.116   2.276  17.364  0.1323 -0.6915  0.2800
  222MPD1    C2 3423   2.125   2.371  17.464 -0.3077 -0.2648 -0.6720
  222MPD1    C3 3424   2.145   2.333  17.602  0.2539 -0.0630  0.7530
  222MPD1    C4 3425   2.150   2.194  17.625  0.2786  0.3263 -0.8625
  222MPD1    C5 3426   2.121   2.099  17.531  0.1384 -0.0238 -0.5818
  222MPD1     H 3427   2.094   2.472  17.436  0.0045  0.1174  0.3621
  222MPD1    H1 3428   2.170   2.158  17.725 -1.8616  1.6800  0.0389
  222MPD1    H2 3429   2.088   2.065  17.322 -1.7746  1.3848 -0.8651
  222MPD1    H3 3430   2.130   1.994  17.554 -0.5931  0.2639  0.9659
  222MPD1     N 3431   2.163   2.420  17.712  0.1401  0.1589 -0.5189
  222MPD1    H5 3432   2.189   2.376   0.055  1.9421 -0.8951 -1.5656
  222MPD1    N1 3433   2.098   2.322  17.232 -0.0111 -0.2440  0.4466
  222MPD1    H6 3434   2.124   2.253  17.162  1.7280  0.8272  0.0634
  222MPD1    H7 3435   2.169   2.393  17.216 -1.3311  1.0367  0.2782
  223MPD1     C 3436   2.436   2.132   0.649  0.2459  0.3455 -0.3320
  223MPD1    C1 3437   2.527   2.172   0.555  0.6705  0.1344 -0.0130
  223MPD1    C2 3438   2.482   2.285   0.484  0.5178 -0.5634 -0.3860
  223MPD1    C3 3439   2.375   2.365   0.513 -0.4482 -0.5833 -0.0180
  223MPD1    C4 3440   2.289   2.321   0.616 -0.1183 -0.0443  0.7186
  223MPD1    C5 3441   2.327   2.213   0.684  0.0369 -0.1522 -0.0965
  223MPD1     H 3442   2.535   2.335   0.404 -0.5998  1.0604 -0.1236
  223MPD1    H1 3443   2.203   2.380   0.646 -0.1443  0.4254 -0.2808
  223MPD1    H2 3444   2.455   2.047   0.713  0.7062  1.3252  0.8356
  223MPD1    H3 3445   2.265   2.183   0.767  1.5292  0.0062  1.0680
  223MPD1     N 3446   2.348   2.473   0.422  0.3460  0.1537  0.1639
  223MPD1    H5 3447   2.416   2.503   0.353 -1.2024 -0.3419 -1.5859
  223MPD1    N1 3448   2.642   2.095   0.530 -0.0945  0.1326  0.1322
  223MPD1    H6 3449   2.709   2.145   0.472 -0.5660 -0.3140 -0.8025
  223MPD1    H7 3450   2.690   2.070   0.617  1.2091  0.8511 -0.3769
  224MPD1     C 3451   3.692   0.409   9.022 -0.5389 -0.2265  0.4420
  224MPD1    C1 3452   3.775   0.311   8.967  0.3518  0.2173 -0.8653
  224MPD1    C2 3453   3.807   0.197   9.043  0.4585 -0.3682 -0.9226
  224MPD1    C3 3454   3.762   0.187   9.174  0.0216  0.5264  0.2980
  224MPD1    C4 3455   3.684   0.285   9.233 -0.8307 -0.4876  0.1259
  224MPD1    C5 3456   3.651   0.395   9.154 -1.3025 -0.1991 -0.3420
  224MPD1     H 3457   3.867   0.119   8.999 -1.1219 -1.5250 -1.0000
  224MPD1    H1 3458   3.643   0.273   9.332 -0.5054 -2.6560 -0.0122
  224MPD1    H2 3459   3.646   0.489   8.966  1.1772 -0.0397 -0.6958
  224MPD1    H3 3460   3.578   0.465   9.193 -1.9829 -0.3941 -1.2953
  224MPD1     N 3461   3.795   0.083   9.262  0.2128  0.1584 -0.2028
  224MPD1    H5 3462   3.757   0.091   9.356  1.2212  0.3641  0.1933
  224MPD1    N1 3463   3.803   0.305   8.829 -0.5319 -0.2869 -0.7863
  224MPD1    H6 3464   3.881   0.243   8.807 -0.2289 -0.7637  1.6123
  224MPD1    H7 3465   3.808   0.396   8.785 -0.7733 -0.4760 -1.2026
  225MPD1     C 3466   0.539   0.246  11.955  0.4142 -0.0115  0.0376
  225MPD1    C1 3467   0.473   0.152  11.876  0.4743 -0.4088 -0.5397
  225MPD1    C2 3468   0.357   0.099  11.927  0.1132 -0.3021  0.2994
  225MPD1    C3 3469   0.301   0.138  12.044 -0.5627 -0.6245 -0.2309
  225MPD1    C4 3470   0.367   0.235  12.117 -0.1332  0.6703 -0.1340
  225MPD1    C5 3471   0.489   0.271  12.083 -0.0398 -0.3537 -0.0254
  225MPD1     H 3472   0.302   0.024  11.870  2.9293 -2.1819  0.0600
  225MPD1    H1 3473   0.328   0.283  12.206 -0.7518  1.1692 -0.6691
  225MPD1    H2 3474   0.636   0.285  11.929  0.8224 -0.4509  0.9043
  225MPD1    H3 3475   0.546   0.326  12.157 -0.0333 -0.4675  0.0551
  225MPD1     N 3476   0.179   0.095  12.095 -0.4420  0.2420  0.0364
  225MPD1    H5 3477   0.158   0.136  12.186 -1.9216  0.9848 -0.6406
  225MPD1    N1 3478   0.520   0.110  11.750  0.0555  0.9570  0.3127
  225MPD1    H6 3479   0.619   0.127  11.733  0.4164 -1.1928  0.1914
  225MPD1    H7 3480   0.503   0.011  11.732 -1.4449  1.0398  1.2214
  226MPD1     C 3481   4.018   4.650   9.786  0.1049 -0.2021 -0.3523
  226MPD1    C1 3482   4.131   4.615   9.715  0.4684 -0.1006  0.2965
  226MPD1    C2 3483   4.162   4.693   9.604 -0.6221 -0.0386 -0.1483
  226MPD1    C3 3484   4.078   0.054   9.555 -0.8040  0.1735 -0.3367
  226MPD1    C4 3485   3.965   0.087   9.631 -0.8094 -0.2852 -0.8536
  226MPD1    C5 3486   3.938   0.016   9.748  0.3250 -0.0182 -0.0317
  226MPD1     H 3487   4.255   4.675   9.551 -1.4043 -1.9768 -0.8887
  226MPD1    H1 3488   3.903   0.173   9.606  1.2840  1.5230  0.1725
  226MPD1    H2 3489   3.981   4.601   9.876  1.6392 -0.4281  0.1496
  226MPD1    H3 3490   3.848   0.043   9.802  1.2246  1.8877  0.4991
  226MPD1     N 3491   4.108   0.124   9.435 -0.6439  0.2690 -0.0973
  226MPD1    H5 3492   4.184   0.079   9.384 -1.5718 -0.8107 -0.5314
  226MPD1    N1 3493   4.229   4.526   9.771  0.6435  0.5817  0.4076
  226MPD1    H6 3494   4.190   4.453   9.831  1.0331 -1.1816 -1.4861
  226MPD1    H7 3495   4.278   4.494   9.688 -3.4007 -1.5868 -1.1690
  227MPD1     C 3496   4.044   1.064   9.064  0.4834 -0.0225 -0.5607
  227MPD1    C1 3497   4.056   1.010   9.189 -0.2747 -0.4139  0.1922
  227MPD1    C2 3498   4.058   0.871   9.203 -1.1002 -0.2602  0.2987
  227MPD1    C3 3499   4.070   0.798   9.093 -0.1352  0.1386 -0.1959
  227MPD1    C4 3500   4.077   0.858   8.965 -0.0209 -0.6441 -0.3830
  227MPD1    C5 3501   4.053   0.989   8.951  0.2938 -0.4482  0.6859
  227MPD1     H 3502   4.075   0.826   9.301 -1.2693 -0.9368  0.0150
  227MPD1    H1 3503   4.083   0.808   8.869 -4.0191  1.0572 -1.5217
  227MPD1    H2 3504   4.040   1.172   9.049 -2.0681  0.2692  2.3433
  227MPD1    H3 3505   4.054   1.041   8.856  0.2177  0.6369  1.2782
  227MPD1     N 3506   4.103   0.662   9.113  0.6705  0.3539  0.3105
  227MPD1    H5 3507   4.118   0.641   9.212  0.9910  0.4961  0.2920
  227MPD1    N1 3508   4.033   1.076   9.311 -0.3131 -0.0761 -0.4560
  227MPD1    H6 3509   4.061   1.173   9.299 -0.1146  0.0623  1.0640
  227MPD1    H7 3510   4.079   1.041   9.395 -0.9649  0.2863  0.0558
  228MPD1     C 3511   1.817   2.999  13.333 -0.4053 -0.0047 -0.9898
  228MPD1    C1 3512   1.692   3.061  13.316  0.1058  0.2556  0.2656
  228MPD1    C2 3513   1.577   2.988  13.333  0.3547 -0.2503 -0.2834
  228MPD1    C3 3514   1.584   2.862  13.385 -0.3795 -0.7265 -1.2225
  228MPD1    C4 3515   1.710   2.815  13.422  0.3677  0.2242 -0.4909
  228MPD1    C5 3516   1.828   2.874  13.387  0.6457  0.4890  0.2490
  228MPD1     H 3517   1.479   3.031  13.324 -0.5428 -2.1715  0.2929
  228MPD1    H1 3518   1.729   2.718  13.467  0.9614  0.2009 -0.7906
  228MPD1    H2 3519   1.909   3.054  13.318 -0.5336 -0.0535 -1.9566
  228MPD1    H3 3520   1.925   2.832  13.410 -0.3657 -0.9075  1.9612
  228MPD1     N 3521   1.467   2.791  13.426 -0.1388 -0.1122  0.0269
  228MPD1    H5 3522   1.378   2.839  13.415 -0.9334 -1.4520  0.5801
  228MPD1    N1 3523   1.683   3.187  13.269 -0.3619  0.8504 -0.6112
  228MPD1    H6 3524   1.767   3.241  13.288  0.0254  0.3770 -1.0105
  228MPD1    H7 3525   1.607   3.237  13.315 -0.4550 -0.7801  1.0325
  229MPD1     C 3526   1.406   1.354  15.136 -0.4048 -0.3961  0.3856
  229MPD1    C1 3527   1.464   1.278  15.039  0.1588  0.2689  0.8222
  229MPD1    C2 3528   1.573   1.202  15.072  1.1700  0.1671  0.2388
  229MPD1    C3 3529   1.607   1.184  15.209  0.2498 -0.0531  0.4015
  229MPD1    C4 3530   1.551   1.264  15.305  0.0261 -0.1134  0.0863
  229MPD1    C5 3531   1.444   1.340  15.269 -0.6721  0.6626  0.4385
  229MPD1     H 3532   1.635   1.157  14.996  0.7301 -0.4437  0.2472
  229MPD1    H1 3533   1.589   1.262  15.407 -1.7105 -1.6879  0.7057
  229MPD1    H2 3534   1.336   1.433  15.111  0.5643  0.5795  0.7842
  229MPD1    H3 3535   1.398   1.404  15.343 -2.3535 -0.0337  0.0126
  229MPD1     N 3536   1.719   1.102  15.238  0.2728 -0.0151 -0.1367
  229MPD1    H5 3537   1.755   1.105  15.333 -1.3650  2.3931  0.4112
  229MPD1    N1 3538   1.434   1.305  14.902 -0.1670  0.8663  0.4784
  229MPD1    H6 3539   1.339   1.340  14.888  0.1477  1.7702  0.6609
  229MPD1    H7 3540   1.455   1.227  14.839 -1.3877  0.0649  1.0511
  230MPD1     C 3541   2.314   0.928  15.984 -0.2273 -0.0114 -0.0334
  230MPD1    C1 3542   2.397   0.895  15.880  0.3842 -0.0162 -0.5730
  230MPD1    C2 3543   2.335   0.891  15.759 -0.3869  0.9946 -0.1101
  230MPD1    C3 3544   2.197   0.913  15.745  0.1694 -0.1038  0.0367
  230MPD1    C4 3545   2.121   0.953  15.842  0.7335 -0.2940 -0.6390
  230MPD1    C5 3546   2.182   0.965  15.963 -0.0231  0.2882  0.6525
  230MPD1     H 3547   2.391   0.863  15.670  0.1243 -0.7246  0.7565
  230MPD1    H1 3548   2.018   0.988  15.834  0.5952 -0.7645 -0.9298
  230MPD1    H2 3549   2.348   0.919  16.087 -1.1473  0.0317  0.2711
  230MPD1    H3 3550   2.116   0.976  16.048  0.8561  3.1206  0.9629
  230MPD1     N 3551   2.151   0.891  15.611  0.1554 -0.5466 -0.8096
  230MPD1    H5 3552   2.216   0.847  15.547  0.3447 -1.5435  0.0866
  230MPD1    N1 3553   2.521   0.831  15.897  0.4687 -0.0996  0.8065
  230MPD1    H6 3554   2.573   0.863  15.978 -1.3994  0.7861  1.6371
  230MPD1    H7 3555   2.577   0.831  15.812 -0.0467 -1.0974  0.4742
  231MPD1     C 3556   0.105   3.476  15.479 -0.6554  0.5831 -0.2749
  231MPD1    C1 3557   0.082   3.435  15.346  0.1054 -0.4735  0.4856
  231MPD1    C2 3558   0.153   3.492  15.249 -0.2523  0.6933  0.0057
  231MPD1    C3 3559   0.229   3.605  15.267  0.6907  0.7583 -0.0163
  231MPD1    C4 3560   0.234   3.659  15.393 -0.0326  0.0892 -0.5268
  231MPD1    C5 3561   0.175   3.590  15.500 -0.2280  0.6083  0.1759
  231MPD1     H 3562   0.138   3.444  15.154  1.4448  0.8270 -0.3401
  231MPD1    H1 3563   0.286   3.751  15.414  0.0969  0.0666 -0.7450
  231MPD1    H2 3564   0.056   3.432  15.566  0.7178 -2.5877 -1.1136
  231MPD1    H3 3565   0.182   3.633  15.599 -1.4477  2.4618 -0.5609
  231MPD1     N 3566   0.285   3.660  15.155 -0.1639  0.4775 -0.4117
  231MPD1    H5 3567   0.272   3.614  15.065  0.1828 -0.4038 -0.0096
  231MPD1    N1 3568   0.008   3.322  15.308 -0.4199  0.5934  0.2090
  231MPD1    H6 3569   4.681   3.309  15.387  0.5026 -1.5053  0.6002
  231MPD1    H7 3570   4.698   3.333  15.218 -0.7291  0.7080  0.3814
  232MPD1     C 3571   2.090   2.113   0.386 -0.0855  0.5778  0.6641
  232MPD1    C1 3572   2.023   2.190   0.286 -0.1176 -0.3075  0.5919
  232MPD1    C2 3573   1.977   2.119   0.177  0.0595  0.0942 -0.0382
  232MPD1    C3 3574   1.990   1.977   0.166 -0.1571 -0.4671 -0.3183
  232MPD1    C4 3575   2.053   1.908   0.271  0.0176 -0.2980 -0.2522
  232MPD1    C5 3576   2.097   1.977   0.378 -0.7192 -0.6104  0.8327
  232MPD1     H 3577   1.937   2.174   0.092 -0.2274 -0.2151 -0.1035
  232MPD1    H1 3578   2.055   1.799   0.273 -2.0800 -0.3573 -1.5361
  232MPD1    H2 3579   2.137   2.164   0.469  0.0844 -1.6748  1.9329
  232MPD1    H3 3580   2.142   1.923   0.460 -1.9107 -0.4105  1.6246
  232MPD1     N 3581   1.943   1.922   0.041 -0.6964 -0.4625  0.1233
  232MPD1    H5 3582   1.899   1.980  17.716 -1.6409  0.1845  1.2523
  232MPD1    N1 3583   2.042   2.330   0.287  0.5687 -0.7673  0.4207
  232MPD1    H6 3584   1.959   2.372   0.247 -0.3607 -0.1102  3.0384
  232MPD1    H7 3585   2.047   2.359   0.384 -0.9291 -1.3639  0.6767
  233MPD1     C 3586   1.828   4.067   0.319 -0.1504  0.6421 -0.2152
  233MPD1    C1 3587   1.929   4.133   0.250  0.1649  0.1868  0.4450
  233MPD1    C2 3588   2.066   4.092   0.271 -0.6478  0.1846  0.1085
  233MPD1    C3 3589   2.097   3.990   0.352 -0.5943  0.1450  0.1684
  233MPD1    C4 3590   1.994   3.912   0.399  0.2059  0.2100  0.5930
  233MPD1    C5 3591   1.866   3.950   0.386 -0.5672  0.3901  0.1131
  233MPD1     H 3592   2.141   4.143   0.213 -0.5964  1.7634  1.5564
  233MPD1    H1 3593   2.011   3.819   0.453 -1.5579 -0.1483  0.5349
  233MPD1    H2 3594   1.722   4.087   0.310 -0.2674  1.0731  2.0357
  233MPD1    H3 3595   1.795   3.890   0.442 -1.9333  0.8862 -1.0815
  233MPD1     N 3596   2.225   3.949   0.385  0.2980  0.0465  0.1187
  233MPD1    H5 3597   2.226   3.861   0.435 -1.5319  0.1783  0.4125
  233MPD1    N1 3598   1.895   4.260   0.193  0.1684 -0.3656  0.0050
  233MPD1    H6 3599   1.807   4.247   0.143  1.0328 -0.2359 -1.5233
  233MPD1    H7 3600   1.969   4.276   0.126 -1.4222 -1.5805 -2.0568
  234MPD1     C 3601   0.177   2.921   9.578 -0.5299 -0.4585  0.7385
  234MPD1    C1 3602   0.042   2.900   9.555 -0.7146  0.4738 -1.0435
  234MPD1    C2 3603   4.700   3.010   9.529  0.0064 -0.4335  0.8650
  234MPD1    C3 3604   0.012   3.139   9.524 -0.1709  0.0945 -0.4162
  234MPD1    C4 3605   0.148   3.158   9.557  0.1180 -0.0028 -0.3410
  234MPD1    C5 3606   0.223   3.051   9.582  0.3551 -0.0542  1.2404
  234MPD1     H 3607   4.595   2.990   9.515  0.1891 -0.5693 -0.2909
  234MPD1    H1 3608   0.205   3.250   9.553 -0.8102  0.5029 -1.9641
  234MPD1    H2 3609   0.247   2.840   9.597  0.6569  0.4160  0.1093
  234MPD1    H3 3610   0.330   3.062   9.600  1.0027 -2.9357 -0.8030
  234MPD1     N 3611   4.660   3.238   9.500 -0.0517  0.8397 -0.0613
  234MPD1    H5 3612   4.575   3.224   9.446  0.8106  0.1526 -1.2499
  234MPD1    N1 3613   4.726   2.769   9.540 -0.1680 -0.1650  0.2742
  234MPD1    H6 3614   0.023   2.699   9.605  2.0060  2.0076  1.4437
  234MPD1    H7 3615   4.624   2.770   9.540 -0.1407  1.7784 -1.5171
  235MPD1     C 3616   1.081   0.553   9.608 -0.2575 -0.2513  0.0319
  235MPD1    C1 3617   1.137   0.568   9.730  0.0014 -0.1509 -0.4688
  235MPD1    C2 3618   1.272   0.538   9.738 -0.7917  0.1214  0.1474
  235MPD1    C3 3619   1.351   0.483   9.630  0.5535  0.5201 -0.1566
  235MPD1    C4 3620   1.285   0.475   9.512  1.1563  0.3508  0.2831
  235MPD1    C5 3621   1.153   0.506   9.505 -0.1892 -0.8256  0.6034
  235MPD1     H 3622   1.335   0.560   9.824 -1.2530  2.9015 -0.2184
  235MPD1    H1 3623   1.326   0.446   9.416  0.0449  2.1071 -0.7334
  235MPD1    H2 3624   0.984   0.593   9.581 -0.4784 -0.9404 -0.2048
  235MPD1    H3 3625   1.110   0.495   9.406  1.4381  0.2588 -0.2232
  235MPD1     N 3626   1.488   0.438   9.657  0.3272 -0.4089 -0.4098
  235MPD1    H5 3627   1.516   0.454   9.754  0.0537  0.3750 -0.4588
  235MPD1    N1 3628   1.066   0.656   9.819  0.6186  0.4880 -0.0423
  235MPD1    H6 3629   0.965   0.659   9.820  0.5681 -1.1022 -1.0192
  235MPD1    H7 3630   1.090   0.634   9.916 -2.6268  1.1936  0.9066
  236MPD1     C 3631   0.650   1.129   8.930 -0.4613  0.2004  0.1488
  236MPD1    C1 3632   0.608   1.013   8.989 -0.2951 -0.3727  0.2055
  236MPD1    C2 3633   0.572   1.008   9.119 -0.5543 -0.2607 -0.2750
  236MPD1    C3 3634   0.585   1.127   9.193 -0.0558 -0.4587  0.0934
  236MPD1    C4 3635   0.641   1.242   9.138  0.4912 -0.1775 -0.6820
  236MPD1    C5 3636   0.669   1.242   9.005 -0.0637  0.0973 -0.0697
  236MPD1     H 3637   0.534   0.918   9.164 -0.9097  0.4443  0.8396
  236MPD1    H1 3638   0.648   1.329   9.202 -2.8250 -1.3768  1.2521
  236MPD1    H2 3639   0.656   1.136   8.822  1.1093 -3.4734  0.0053
  236MPD1    H3 3640   0.700   1.337   8.962  2.3646 -1.7386 -2.3457
  236MPD1     N 3641   0.538   1.140   9.329 -0.3468 -0.3281  0.3415
  236MPD1    H5 3642   0.544   1.226   9.383  0.2522  0.2595 -0.6444
  236MPD1    N1 3643   0.575   0.900   8.912 -0.4612 -0.0963  0.0243
  236MPD1    H6 3644   0.567   0.813   8.965 -2.9707 -0.2164 -0.5333
  236MPD1    H7 3645   0.642   0.886   8.837 -1.0105  1.4773 -0.7505
  237MPD1     C 3646   0.569   4.617  15.020 -0.2948 -0.4102  0.2787
  237MPD1    C1 3647   0.515   4.706  14.924  0.0513  0.3741 -0.7896
  237MPD1    C2 3648   0.386   0.017  14.937  0.2394 -0.3890  0.2851
  237MPD1    C3 3649   0.317   4.731  15.059  0.3876 -0.6718  0.4221
  237MPD1    C4 3650   0.379   4.661  15.153  0.5129  0.3908 -0.6933
  237MPD1    C5 3651   0.494   4.605  15.135  0.9114 -0.2220 -0.0427
  237MPD1     H 3652   0.352   0.076  14.853  0.6391  0.2002  0.5332
  237MPD1    H1 3653   0.320   4.639  15.241  0.3879  1.7291 -0.4310
  237MPD1    H2 3654   0.668   4.574  15.011 -0.4223 -0.5986 -0.2427
  237MPD1    H3 3655   0.541   4.554  15.219  0.7857  2.2280  1.5362
  237MPD1     N 3656   0.183   0.036  15.069 -0.0618  0.0107 -0.0737
  237MPD1    H5 3657   0.136   0.019  15.157  1.7038 -1.0865  0.6422
  237MPD1    N1 3658   0.586   4.715  14.800 -0.0397 -0.2044  0.5229
  237MPD1    H6 3659   0.586   0.076  14.769 -0.0648  0.4707  2.6376
  237MPD1    H7 3660   0.686   4.699  14.813 -0.3152  0.3054  3.3717
  238MPD1     C 3661   1.817   3.428  15.751  0.3099  0.2430  0.7108
  238MPD1    C1 3662   1.708   3.356  15.784  0.0834 -1.1840 -0.1335
  238MPD1    C2 3663   1.636   3.289  15.686 -0.5851 -0.3706  0.1700
  238MPD1    C3 3664   1.682   3.286  15.551 -0.4128  0.6621 -0.2687
  238MPD1    C4 3665   1.796   3.360  15.527 -0.0983  0.4685 -0.0786
  238MPD1    C5 3666   1.861   3.438  15.620  0.3541 -0.2878  0.1520
  238MPD1     H 3667   1.553   3.223  15.710  0.1692 -2.0365 -1.7809
  238MPD1    H1 3668   1.836   3.370  15.427 -0.4021 -2.7874 -0.5295
  238MPD1    H2 3669   1.882   3.476  15.823 -0.6247  1.2258  0.9112
  238MPD1    H3 3670   1.943   3.499  15.586  1.6050 -0.9074  1.9983
  238MPD1     N 3671   1.627   3.208  15.447 -0.1888 -0.0322  0.1485
  238MPD1    H5 3672   1.673   3.209  15.356 -1.6844  2.0087 -0.5641
  238MPD1    N1 3673   1.697   3.318  15.918 -0.3950  0.1564  0.2420
  238MPD1    H6 3674   1.733   3.385  15.986  1.0542  0.5075 -0.8776
  238MPD1    H7 3675   1.599   3.312  15.942  0.1277 -0.5846  2.2441
  239MPD1     C 3676   2.065   3.680  14.853 -0.2455 -0.5728 -0.0705
  239MPD1    C1 3677   2.137   3.658  14.738 -0.0310 -0.0868 -0.1464
  239MPD1    C2 3678   2.099   3.734  14.629 -0.0114  0.3097 -0.4373
  239MPD1    C3 3679   1.970   3.800  14.625  0.0880 -0.5838  0.4523
  239MPD1    C4 3680   1.894   3.802  14.741 -0.5007  0.1372  0.6721
  239MPD1    C5 3681   1.948   3.744  14.849  0.8747  0.2832 -0.4548
  239MPD1     H 3682   2.163   3.727  14.542  1.2437  0.3746  0.4765
  239MPD1    H1 3683   1.809   3.867  14.753 -1.3479 -1.1180  1.4509
  239MPD1    H2 3684   2.080   3.632  14.949  0.2198  1.5826  0.9304
  239MPD1    H3 3685   1.894   3.759  14.942 -2.4580 -3.0927 -1.8415
  239MPD1     N 3686   1.922   3.868  14.518  0.3566  0.4504 -0.5535
  239MPD1    H5 3687   1.836   3.918  14.539  0.5927  1.0967 -1.1355
  239MPD1    N1 3688   2.255   3.588  14.758  0.5646 -0.2151 -0.0903
  239MPD1    H6 3689   2.246   3.508  14.821 -0.5765 -0.7285 -0.8984
  239MPD1    H7 3690   2.285   3.549  14.669 -1.3142  0.5213 -1.0395
  240MPD1     C 3691   1.043   3.681  14.195 -0.3452  0.0198 -0.7279
  240MPD1    C1 3692   0.973   3.577  14.252  0.7266  0.2312  0.4179
  240MPD1    C2 3693   1.017   3.531  14.380 -0.0692  0.4553 -0.0163
  240MPD1    C3 3694   1.143   3.576  14.422  0.0894 -0.4922  0.3941
  240MPD1    C4 3695   1.205   3.684  14.362  1.1015 -0.3809  0.2086
  240MPD1    C5 3696   1.156   3.731  14.251  0.7192  0.0287 -0.3666
  240MPD1     H 3697   0.963   3.457  14.437 -0.9413  2.1649  1.3821
  240MPD1    H1 3698   1.294   3.735  14.396  1.6473 -1.1084 -0.1315
  240MPD1    H2 3699   1.012   3.728  14.103  0.5838  2.2352  0.0879
  240MPD1    H3 3700   1.213   3.809  14.201 -0.9122  1.0227 -0.6828
  240MPD1     N 3701   1.188   3.513  14.540 -0.1833 -0.3666 -0.6917
  240MPD1    H5 3702   1.138   3.429  14.568 -0.6620  0.0459 -0.3113
  240MPD1    N1 3703   0.851   3.534  14.204 -0.1665 -0.1923  0.2213
  240MPD1    H6 3704   0.874   3.507  14.108  1.5228  0.0127  0.5711
  240MPD1    H7 3705   0.800   3.468  14.262  2.6817 -2.1735  0.4915
  241MPD1     C 3706   1.134   3.592  15.463 -0.0773  0.0064 -0.7365
  241MPD1    C1 3707   1.215   3.481  15.444  0.3398  0.5186 -0.5293
  241MPD1    C2 3708   1.243   3.444  15.311 -0.7760  0.6041 -0.2158
  241MPD1    C3 3709   1.194   3.514  15.204 -0.3992  0.6716 -0.6342
  241MPD1    C4 3710   1.121   3.628  15.224  0.0300 -0.3449  0.5810
  241MPD1    C5 3711   1.091   3.662  15.354  0.2451 -0.4618  0.2935
  241MPD1     H 3712   1.300   3.356  15.286 -1.8389 -0.1913  0.1266
  241MPD1    H1 3713   1.073   3.687  15.147  0.5074  0.0787  0.6098
  241MPD1    H2 3714   1.111   3.623  15.564  0.5518 -1.0426 -0.2663
  241MPD1    H3 3715   1.029   3.746  15.383  0.7589 -0.7890  2.3844
  241MPD1     N 3716   1.214   3.479  15.066  0.1421 -0.3378 -0.9649
  241MPD1    H5 3717   1.189   3.541  14.990  0.2855 -0.3080 -0.9885
  241MPD1    N1 3718   1.290   3.431  15.556  0.3394 -0.1708 -0.2902
  241MPD1    H6 3719   1.248   3.451  15.646 -2.0766 -1.5844 -1.1017
  241MPD1    H7 3720   1.330   3.337  15.558 -0.7539 -0.6531 -1.2036
  242MPD1     C 3721   1.121   2.427  15.680  0.6038 -0.5848 -0.3191
  242MPD1    C1 3722   1.122   2.458  15.547 -0.2939 -0.2402  0.3854
  242MPD1    C2 3723   1.155   2.350  15.455  0.0224  0.3924 -0.3148
  242MPD1    C3 3724   1.214   2.230  15.495  0.3111  0.3580  0.3626
  242MPD1    C4 3725   1.210   2.203  15.635  0.0540  0.0794 -0.1414
  242MPD1    C5 3726   1.157   2.300  15.722  0.6144  0.0818 -0.3142
  242MPD1     H 3727   1.153   2.371  15.348 -2.0184  1.1259 -0.1308
  242MPD1    H1 3728   1.236   2.106  15.676 -0.0843  0.9357  1.9852
  242MPD1    H2 3729   1.081   2.495  15.754  1.1668 -1.4103  0.7493
  242MPD1    H3 3730   1.145   2.275  15.827 -0.1434  0.9472 -0.1946
  242MPD1     N 3731   1.248   2.126  15.405 -0.3396  0.6215 -0.0578
  242MPD1    H5 3732   1.277   2.038  15.447  0.3157  1.1726  0.6450
  242MPD1    N1 3733   1.061   2.574  15.505  0.0152  0.1720  0.1093
  242MPD1    H6 3734   1.086   2.648  15.571 -0.1003  1.6732 -1.5213
  242MPD1    H7 3735   1.082   2.603  15.410  0.2031 -0.4015 -0.0248
  243MPD1     C 3736   2.351   1.708   0.072 -0.3358  0.4009  0.4254
  243MPD1    C1 3737   2.317   1.582   0.026 -0.2530  0.7508  0.5934
  243MPD1    C2 3738   2.399   1.524  17.676 -0.1122  0.4926  0.2488
  243MPD1    C3 3739   2.502   1.592  17.613  0.1606 -0.0580 -0.4144
  243MPD1    C4 3740   2.532   1.724  17.654  0.2456 -0.3294 -0.0749
  243MPD1    C5 3741   2.455   1.772   0.011 -0.9355  0.3169  0.0596
  243MPD1     H 3742   2.378   1.423  17.641  0.8724  0.1475  0.6469
  243MPD1    H1 3743   2.607   1.792  17.617 -0.5033  0.9703  0.8249
  243MPD1    H2 3744   2.295   1.766   0.144  0.7296  2.2051 -0.2138
  243MPD1    H3 3745   2.482   1.871   0.047 -3.4627 -0.5711  4.3015
  243MPD1     N 3746   2.579   1.519  17.514 -0.2417 -0.2179 -0.0086
  243MPD1    H5 3747   2.549   1.423  17.500 -0.0123 -0.1523 -0.8974
  243MPD1    N1 3748   2.214   1.507   0.089  0.3829 -0.3014  0.4608
  243MPD1    H6 3749   2.180   1.429   0.033  1.1703  0.1768 -0.6797
  243MPD1    H7 3750   2.131   1.564   0.096  1.3617  1.2085 -0.1501
  244MPD1     C 3751   2.765   0.666  17.562  0.2380  0.2357 -0.3813
  244MPD1    C1 3752   2.766   0.773  17.652  0.6332 -0.3818 -0.1445
  244MPD1    C2 3753   2.770   0.902  17.601  0.0030 -0.1984 -0.7146
  244MPD1    C3 3754   2.769   0.927  17.465 -0.0018  0.1035  0.2816
  244MPD1    C4 3755   2.769   0.821  17.380 -0.1603 -0.2539  0.9300
  244MPD1    C5 3756   2.767   0.690  17.430  0.7021  0.6058  0.2260
  244MPD1     H 3757   2.774   0.975  17.681 -4.6620  0.8083 -1.3787
  244MPD1    H1 3758   2.762   0.831  17.272  2.0209  0.8276  0.8932
  244MPD1    H2 3759   2.755   0.564  17.597  4.2605 -0.1396 -0.3726
  244MPD1    H3 3760   2.743   0.607  17.365 -2.0045  0.8490  0.9450
  244MPD1     N 3761   2.768   1.063  17.422 -0.1916  0.5306 -0.1186
  244MPD1    H5 3762   2.780   1.139  17.488 -1.4533  0.6158  0.0181
  244MPD1    N1 3763   2.756   0.750   0.043 -0.1539 -0.4816 -0.2523
  244MPD1    H6 3764   2.798   0.661   0.070  3.0018  1.6291  1.8268
  244MPD1    H7 3765   2.805   0.821   0.096 -1.8576 -0.1292  0.8067
  245MPD1     C 3766   0.071   1.290  12.347  0.8077 -0.1818  0.5480
  245MPD1    C1 3767   0.006   1.222  12.452  0.0386  0.0986  0.3250
  245MPD1    C2 3768   4.727   1.287  12.572 -0.2873 -0.1358  0.7378
  245MPD1    C3 3769   0.019   1.423  12.579 -0.7868  0.4647  0.8064
  245MPD1    C4 3770   0.076   1.487  12.474 -0.2949 -0.5476  0.2735
  245MPD1    C5 3771   0.103   1.424  12.359 -0.2047  0.0232 -0.2126
  245MPD1     H 3772   4.685   1.240  12.661 -0.9379  4.2566  2.7354
  245MPD1    H1 3773   0.107   1.590  12.470 -1.5998 -0.0837  1.8447
  245MPD1    H2 3774   0.087   1.248  12.249 -1.3747  0.0517  0.0861
  245MPD1    H3 3775   0.154   1.477  12.280  2.2314  0.3885  1.5938
  245MPD1     N 3776   4.726   1.498  12.699  0.6208 -0.3508 -0.2230
  245MPD1    H5 3777   4.686   1.450  12.779 -0.0467  1.9188  0.8075
  245MPD1    N1 3778   4.714   1.088  12.444 -0.2053 -0.5320 -0.1726
  245MPD1    H6 3779   4.692   1.059  12.349 -1.3107  2.9382 -0.9639
  245MPD1    H7 3780   4.633   1.077  12.504  0.5220  0.4348  0.9852
  246MPD1     C 3781   1.447   3.359   9.809  0.1399 -0.1886  0.3988
  246MPD1    C1 3782   1.569   3.319   9.758 -0.6613  0.6530 -0.1895
  246MPD1    C2 3783   1.590   3.184   9.730 -0.0353  0.5743  1.2902
  246MPD1    C3 3784   1.500   3.084   9.764 -0.3513  0.6550  0.7796
  246MPD1    C4 3785   1.380   3.126   9.822 -0.0003  0.7420 -1.4926
  246MPD1    C5 3786   1.360   3.262   9.849 -0.1510 -0.3374 -0.3359
  246MPD1     H 3787   1.675   3.167   9.665  0.6278  2.2866  1.7031
  246MPD1    H1 3788   1.288   3.069   9.815 -2.0434  3.7626  1.0145
  246MPD1    H2 3789   1.404   3.457   9.830  1.0885  0.9309 -3.0036
  246MPD1    H3 3790   1.258   3.287   9.877 -0.0186  1.1872 -1.2125
  246MPD1     N 3791   1.529   2.951   9.717  0.3899  0.4550 -0.2986
  246MPD1    H5 3792   1.615   2.939   9.664  1.2352 -0.9461  1.4007
  246MPD1    N1 3793   1.656   3.420   9.727 -0.1669 -0.1769  0.0006
  246MPD1    H6 3794   1.745   3.385   9.764 -0.4017 -1.2688 -0.4762
  246MPD1    H7 3795   1.644   3.499   9.790  1.3501  0.3228 -0.3312
  247MPD1     C 3796   3.640   1.931  16.197  0.0241  0.1766 -0.3233
  247MPD1    C1 3797   3.669   1.994  16.078 -0.6080  0.6120  0.0640
  247MPD1    C2 3798   3.689   1.918  15.965  0.2321  0.6191 -0.2580
  247MPD1    C3 3799   3.700   1.784  15.973 -0.2325 -0.3921 -0.0439
  247MPD1    C4 3800   3.687   1.721  16.091  0.3657 -0.6185 -0.5807
  247MPD1    C5 3801   3.656   1.790  16.206  1.1169  0.2419 -0.1528
  247MPD1     H 3802   3.687   1.963  15.866  1.6606  2.3411  0.4917
  247MPD1    H1 3803   3.683   1.612  16.097 -0.2382 -0.5845 -0.4030
  247MPD1    H2 3804   3.622   1.992  16.285 -2.4983 -2.7457  1.1795
  247MPD1    H3 3805   3.649   1.735  16.299 -0.6978 -0.3899 -0.6676
  247MPD1     N 3806   3.715   1.696  15.866 -0.1975 -0.1997  0.3704
  247MPD1    H5 3807   3.716   1.596  15.881  1.1384 -0.0047  1.6483
  247MPD1    N1 3808   3.651   2.132  16.078  0.1513  0.0995 -0.4401
  247MPD1    H6 3809   3.709   2.184  16.013  0.6384  0.7305  0.4977
  247MPD1    H7 3810   3.656   2.178  16.169  0.0468 -0.4921 -0.1373
  248MPD1     C 3811   4.252   0.789  17.417 -0.1136  0.0203 -0.4344
  248MPD1    C1 3812   4.240   0.909  17.486 -0.3980 -0.2856 -0.0789
  248MPD1    C2 3813   4.276   0.915  17.623 -0.1207  0.4018 -0.0474
  248MPD1    C3 3814   4.335   0.814  17.680  0.4024 -0.0139  0.2210
  248MPD1    C4 3815   4.350   0.695  17.613  0.2356  0.3881 -0.0404
  248MPD1    C5 3816   4.314   0.684  17.484 -0.2761 -0.5181  0.9256
  248MPD1     H 3817   4.272   1.016  17.663  0.3617  0.4994 -0.2470
  248MPD1    H1 3818   4.389   0.611  17.669 -0.6638 -0.1224 -0.1788
  248MPD1    H2 3819   4.235   0.784  17.310  1.2136  3.0923 -0.7874
  248MPD1    H3 3820   4.333   0.597  17.423  0.3916 -0.3678  0.9134
  248MPD1     N 3821   4.373   0.827   0.068  0.3719 -0.5313 -0.0046
  248MPD1    H5 3822   4.360   0.918   0.112 -0.3131 -1.1731  1.1255
  248MPD1    N1 3823   4.168   1.016  17.430 -0.1542 -0.0191  0.2230
  248MPD1    H6 3824   4.220   1.100  17.456 -0.3716  0.0240  0.5087
  248MPD1    H7 3825   4.185   1.008  17.330  1.4454 -1.3080  0.5911
  249MPD1     C 3826   1.580   3.544  10.087  0.0295  0.8150 -0.2823
  249MPD1    C1 3827   1.706   3.513  10.052  0.0865 -0.0441 -0.3712
  249MPD1    C2 3828   1.767   3.596   9.963 -1.0064 -0.2106 -0.9415
  249MPD1    C3 3829   1.713   3.711   9.905 -0.4624 -0.1323 -0.0159
  249MPD1    C4 3830   1.582   3.744   9.943 -0.4355 -0.2820 -0.3326
  249MPD1    C5 3831   1.519   3.650  10.028 -0.5124  0.4170 -0.4024
  249MPD1     H 3832   1.867   3.573   9.926 -1.0520  1.1867 -1.9476
  249MPD1    H1 3833   1.531   3.837   9.920  0.8589  0.8966  1.6382
  249MPD1    H2 3834   1.528   3.491  10.166  3.3964 -0.2790  1.2168
  249MPD1    H3 3835   1.422   3.672  10.072  1.0700  1.0177  2.7393
  249MPD1     N 3836   1.786   3.798   9.817 -0.8923 -0.5410  0.3771
  249MPD1    H5 3837   1.882   3.771   9.801 -0.6935  1.2167 -1.4677
  249MPD1    N1 3838   1.766   3.406  10.120 -0.2679 -0.0369 -0.2682
  249MPD1    H6 3839   1.855   3.378  10.079 -0.6871  0.2738 -1.3764
  249MPD1    H7 3840   1.703   3.332  10.152  0.0764  0.5662  1.8161
  250MPD2     C 3841   3.244   4.167  13.007  0.1947 -0.6206 -0.2079
  250MPD2    C1 3842   3.149   4.263  12.986 -0.3533  0.5263  0.0013
  250MPD2    C2 3843   3.045   4.231  12.899 -0.2899 -0.3247 -0.5079
  250MPD2    C3 3844   3.044   4.115  12.819 -0.4394 -0.5230 -0.2909
  250MPD2    C4 3845   3.148   4.023  12.843 -0.1877  0.3017  0.1109
  250MPD2    C5 3846   3.241   4.046  12.937 -0.8529 -0.2444  0.4471
  250MPD2     H 3847   2.964   4.301  12.882  0.0548  0.2947  0.4059
  250MPD2    H1 3848   3.158   3.932  12.785  1.1988  0.4573  0.1016
  250MPD2    H2 3849   3.326   4.191  13.074  0.7678 -1.2376 -0.7012
  250MPD2    H3 3850   3.316   3.968  12.950 -0.4398 -0.0196 -0.6249
  250MPD2     N 3851   2.954   4.083  12.721 -0.2238  0.4048 -0.3262
  250MPD2    H5 3852   2.991   4.005  12.668 -0.1295 -0.9141  1.6978
  250MPD2    N1 3853   3.172   4.385  13.044  0.0693  0.0343 -0.6514
  250MPD2    H7 3854   3.252   4.393  13.106  0.4394 -1.3647 -0.9578
  251TMC3    C1 3855   3.160   4.624  13.063  0.8866 -0.1230  0.5325
  251TMC3    C2 3856   3.075   4.730  13.094 -0.0332 -0.2004  0.2081
  251TMC3    C3 3857   3.122   0.118  13.095 -0.0131  0.1150 -0.4632
  251TMC3    C4 3858   3.293   4.642  13.036 -0.0503  0.3567  0.5507
  251TMC3    C5 3859   3.335   0.035  13.039 -0.4089 -0.0931 -0.1235
  251TMC3    C6 3860   3.255   0.137  13.081 -0.1458  0.2635 -0.2210
  251TMC3     C 3861   3.095   4.500  13.017 -0.3509  0.6647 -0.0819
  251TMC3     O 3862   2.991   4.513  12.954 -0.3373 -0.2284  0.2490
  251TMC3     H 3863   2.978   4.702  13.133 -0.9936  0.5732 -1.6472
  251TMC3    H1 3864   3.360   4.563  13.007 -1.0544 -0.1330 -0.4264
  251TMC3    H2 3865   3.287   0.240  13.092  3.3399 -0.9248  0.8458
  251TMC3    C7 3866   3.479   0.057  13.039 -0.6989  0.0202  0.1520
  251TMC3    C8 3867   3.054   0.214  13.185 -0.1175 -0.2932 -0.1549
  251TMC3    O1 3868   3.551   4.695  13.061 -0.4506 -0.4037  0.4847
  251TMC3    O2 3869   3.059   0.330  13.162  0.6312 -0.1623  0.0035
  252TMC3    C1 3870   2.418   1.407   9.166  0.6524 -0.2655  0.7725
  252TMC3    C2 3871   2.543   1.456   9.142  0.8106  0.3620  0.9906
  252TMC3    C3 3872   2.652   1.393   9.192  0.2666 -0.4876  0.1112
  252TMC3    C4 3873   2.398   1.285   9.237 -0.9740  0.4146  0.6019
  252TMC3    C5 3874   2.515   1.221   9.274  0.1578  0.4707 -0.4378
  252TMC3    C6 3875   2.636   1.274   9.260  0.3346  0.6171  0.0533
  252TMC3     C 3876   2.306   1.471   9.107 -0.6540 -0.2564  0.4060
  252TMC3     O 3877   2.200   1.404   9.105  0.4226 -0.4123  0.3659
  252TMC3     H 3878   2.558   1.550   9.090 -0.9215  0.4254  0.6194
  252TMC3    H1 3879   2.301   1.238   9.250 -1.7853  0.7980 -4.0481
  252TMC3    H2 3880   2.715   1.208   9.293  0.9773  0.7438 -1.2093
  252TMC3    C7 3881   2.499   1.091   9.329  0.1143  0.0897  0.1411
  252TMC3    C8 3882   2.783   1.455   9.179 -0.0637  0.3647  0.9118
  252TMC3    O1 3883   2.387   1.042   9.322 -0.2744 -0.0190 -0.6190
  252TMC3    O2 3884   2.802   1.521   9.076 -0.2674  0.0852 -0.0026
  253MPD2     C 3885   4.383   0.435  14.970 -0.6596 -0.3967 -0.1886
  253MPD2    C1 3886   4.274   0.347  14.973 -0.2399  0.7025  0.0570
  253MPD2    C2 3887   4.217   0.309  15.089 -0.3334  0.6304  0.2483
  253MPD2    C3 3888   4.279   0.350  15.210  0.4475 -0.2333 -0.1929
  253MPD2    C4 3889   4.397   0.417  15.205  0.1725 -0.5676 -0.4450
  253MPD2    C5 3890   4.446   0.464  15.088  0.4581  0.1697 -0.1242
  253MPD2     H 3891   4.151   0.223  15.082 -1.5250  1.5159  0.6153
  253MPD2    H1 3892   4.451   0.446  15.294 -1.6775 -2.4501  1.2797
  253MPD2    H2 3893   4.435   0.462  14.879  1.9170  1.8525  1.9457
  253MPD2    H3 3894   4.535   0.526  15.092  0.5218  0.0484  0.3994
  253MPD2     N 3895   4.227   0.313  15.338  0.4271 -0.2554  0.0988
  253MPD2    H5 3896   4.275   0.351  15.419  0.5757 -1.2859  0.4829
  253MPD2    N1 3897   4.206   0.308  14.852  0.5992  0.0475  0.0242
  253MPD2    H7 3898   4.127   0.245  14.859 -0.2114  1.2114  1.3887
  254TMC3    C1 3899   4.081   0.230  15.504 -0.2415  0.1708 -0.1652
  254TMC3    C2 3900   3.948   0.233  15.543 -0.3118  0.4243  0.3365
  254TMC3    C3 3901   3.916   0.183  15.670 -0.0269 -0.0124  0.5711
  254TMC3    C4 3902   4.176   0.190  15.587  0.6390 -0.3282  0.4404
  254TMC3    C5 3903   4.144   0.158  15.713  0.2322  0.5551 -0.9713
  254TMC3    C6 3904   4.016   0.161  15.763 -0.1451 -0.1983  0.0337
  254TMC3     C 3905   4.112   0.243  15.361  0.2951 -0.1221 -0.2411
  254TMC3     O 3906   4.026   0.214  15.280 -0.4316 -0.0504  0.4928
  254TMC3     H 3907   3.880   0.272  15.469 -1.1703 -1.3682  0.1651
  254TMC3    H1 3908   4.280   0.196  15.556  0.2812  1.5432 -0.3764
  254TMC3    H2 3909   3.994   0.136  15.866  0.4739  1.3182  0.5326
  254TMC3    C7 3910   4.246   0.132  15.807  0.1936 -0.5264 -0.5969
  254TMC3    C8 3911   3.799   0.244  15.731  1.2366  0.5158  0.3732
  254TMC3    O1 3912   4.206   0.067  15.908  0.3325 -0.0405 -0.7809
  254TMC3    O2 3913   3.777   0.220  15.846  0.2650 -0.0335  0.5556
  255MPD2     C 3914   2.080   2.290   9.478  0.2435  0.3759  0.1820
  255MPD2    C1 3915   2.079   2.260   9.615 -0.7325 -0.0446 -0.3696
  255MPD2    C2 3916   2.058   2.127   9.657 -0.1486 -0.0596 -0.6157
  255MPD2    C3 3917   2.043   2.034   9.561  0.1456  0.1008 -0.8472
  255MPD2    C4 3918   2.017   2.070   9.429 -0.3724 -0.1653 -0.4080
  255MPD2    C5 3919   2.027   2.199   9.393 -0.3775 -0.4508 -0.2640
  255MPD2     H 3920   2.055   2.097   9.761 -0.0204 -0.7181 -0.8042
  255MPD2    H1 3921   1.988   2.000   9.351 -0.0272 -0.2916 -0.4271
  255MPD2    H2 3922   2.102   2.388   9.436  2.1973  0.6231  1.7982
  255MPD2    H3 3923   2.010   2.225   9.289 -2.5665 -0.8793  0.0085
  255MPD2     N 3924   2.040   1.898   9.599 -0.4318 -0.0191  0.8066
  255MPD2    H5 3925   2.005   1.827   9.535  0.0625 -0.1374  0.6634
  255MPD2    N1 3926   2.100   2.371   9.696 -0.4512 -0.4011  0.2370
  255MPD2    H7 3927   2.106   2.460   9.648 -3.2256 -0.6459 -0.5690
  256TMC3    C1 3928   2.140   2.497   9.889  0.6412 -0.0412 -0.5043
  256TMC3    C2 3929   2.225   2.571   9.811 -0.2528  0.6016  0.1351
  256TMC3    C3 3930   2.268   2.689   9.860 -0.4796  0.0925 -0.0310
  256TMC3    C4 3931   2.104   2.528  10.016  0.5669  0.0722 -0.3823
  256TMC3    C5 3932   2.152   2.653  10.068  0.3083  0.6434 -0.3155
  256TMC3    C6 3933   2.232   2.726   9.991 -0.0666  0.7203 -0.0180
  256TMC3     C 3934   2.103   2.366   9.839  0.0611  1.2848 -0.5463
  256TMC3     O 3935   2.075   2.273   9.921 -0.0062 -0.4336 -0.0573
  256TMC3     H 3936   2.264   2.547   9.713  2.0892  2.9632  0.4850
  256TMC3    H1 3937   2.030   2.471  10.069  1.2147  0.4913  0.9772
  256TMC3    H2 3938   2.268   2.821  10.030  1.6324  0.6212 -1.3312
  256TMC3    C7 3939   2.123   2.715  10.200  0.1452  0.0587 -0.7327
  256TMC3    C8 3940   2.392   2.736   9.798 -0.1583  0.0622  0.1488
  256TMC3    O1 3941   2.156   2.828  10.223 -0.0778  0.1782 -0.4640
  256TMC3    O2 3942   2.458   2.649   9.738 -0.2138  0.4706  0.6370
  257MPD2     C 3943   1.235   4.682  13.387 -0.6727 -0.9678 -0.0579
  257MPD2    C1 3944   1.273   4.616  13.271  0.2591  0.1913  0.4882
  257MPD2    C2 3945   1.305   4.477  13.280  0.3850 -1.1995  0.2618
  257MPD2    C3 3946   1.289   4.412  13.401  0.1135 -0.2389  0.2021
  257MPD2    C4 3947   1.242   4.477  13.518 -0.5009  0.5477 -0.6951
  257MPD2    C5 3948   1.220   4.612  13.507  0.0087  0.4693  0.0020
  257MPD2     H 3949   1.333   4.429  13.188 -0.9133  1.4007 -1.5025
  257MPD2    H1 3950   1.230   4.431  13.615 -0.4086 -1.2514 -1.5277
  257MPD2    H2 3951   1.208   0.050  13.384  0.1899 -0.7485 -0.2775
  257MPD2    H3 3952   1.166   4.663  13.586 -1.6221 -0.7822 -0.3046
  257MPD2     N 3953   1.341   4.279  13.404  0.1850  0.5342 -0.1031
  257MPD2    H5 3954   1.375   4.247  13.313 -1.8804  0.9363 -1.0181
  257MPD2    N1 3955   1.274   4.688  13.144  0.2641 -0.2196 -0.0309
  257MPD2    H7 3956   1.235   0.044  13.145  0.9454  0.0290  2.8735
  258TMC3    C1 3957   1.419   4.071  13.492  0.3866 -0.5120  0.2719
  258TMC3    C2 3958   1.432   4.027  13.368 -0.1277 -0.2657 -0.2924
  258TMC3    C3 3959   1.508   3.914  13.350 -0.3657 -0.5470  0.9231
  258TMC3    C4 3960   1.486   4.014  13.596 -0.0882  0.0747  0.2278
  258TMC3    C5 3961   1.563   3.898  13.576  0.1457  0.2256  0.0910
  258TMC3    C6 3962   1.583   3.858  13.452 -0.3529  0.0161 -0.0375
  258TMC3     C 3963   1.357   4.197  13.521  0.8940 -0.4006 -0.7510
  258TMC3     O 3964   1.316   4.215  13.635 -0.3653 -0.3341  0.0308
  258TMC3     H 3965   1.382   4.077  13.287  0.3713  0.6690 -0.0284
  258TMC3    H1 3966   1.474   4.056  13.696  0.2034  1.2901 -0.2482
  258TMC3    H2 3967   1.665   3.796  13.420 -1.9192 -1.5972 -0.9364
  258TMC3    C7 3968   1.653   3.847  13.674 -0.1739 -0.1549  0.2396
  258TMC3    C8 3969   1.563   3.895  13.218 -0.4926 -0.2748 -0.1825
  258TMC3    O1 3970   1.670   3.920  13.774 -0.0905 -0.5778  0.2114
  258TMC3    O2 3971   1.661   3.826  13.204 -0.1044  0.2297 -0.1252
  259MPD2     C 3972   0.464   1.965   0.641 -0.0529  0.1611 -0.2395
  259MPD2    C1 3973   0.577   1.894   0.605  0.2997 -0.8162 -0.0904
  259MPD2    C2 3974   0.618   1.905   0.468 -0.1885  0.0154 -0.1908
  259MPD2    C3 3975   0.549   1.989   0.381  0.2497 -0.7054 -0.7210
  259MPD2    C4 3976   0.432   2.052   0.426 -0.1065 -0.2481  0.3614
  259MPD2    C5 3977   0.394   2.051   0.554  0.1018 -0.4187 -0.6366
  259MPD2     H 3978   0.709   1.861   0.429 -0.5659 -0.8284 -0.1170
  259MPD2    H1 3979   0.381   2.117   0.355 -1.5990 -0.9657  0.7828
  259MPD2    H2 3980   0.419   1.943   0.737  1.2010  0.4296  0.4138
  259MPD2    H3 3981   0.310   2.114   0.583  0.2206 -0.3332 -0.4796
  259MPD2     N 3982   0.607   1.998   0.251 -0.1489  0.1831  0.5086
  259MPD2    H5 3983   0.700   1.958   0.238  0.5304  1.7362  0.5566
  259MPD2    N1 3984   0.639   1.811   0.703 -0.1164 -0.0681 -0.0998
  259MPD2    H7 3985   0.600   1.811   0.797  0.3330  0.5313  0.0927
  260TMC3    C1 3986   0.601   2.022   0.016  0.2284  0.1427  0.3763
  260TMC3    C2 3987   0.715   2.091   0.005 -0.3515 -0.3656 -0.3408
  260TMC3    C3 3988   0.796   2.046  17.645 -0.2147 -0.0234  0.0035
  260TMC3    C4 3989   0.565   1.908  17.697 -0.2435 -0.5353  0.0465
  260TMC3    C5 3990   0.637   1.880  17.590  0.8622  0.5123 -1.0643
  260TMC3    C6 3991   0.758   1.946  17.561 -0.3403  0.2311  0.7219
  260TMC3     C 3992   0.533   2.036   0.141  0.1346  0.2345  0.8588
  260TMC3     O 3993   0.412   2.044   0.125 -0.0476  0.3972 -0.2655
  260TMC3     H 3994   0.752   2.178   0.059 -0.4309 -0.1527 -0.6322
  260TMC3    H1 3995   0.469   1.867  17.726  0.1449 -0.8852  0.8114
  260TMC3    H2 3996   0.829   1.904  17.490  0.1847  0.8816  0.8576
  260TMC3    C7 3997   0.650   1.740  17.563 -0.0341  0.3967  0.2706
  260TMC3    C8 3998   0.925   2.103  17.631 -0.5981  0.6096 -0.1776
  260TMC3    O1 3999   0.697   1.707  17.460  0.1083  0.0373  0.1621
  260TMC3    O2 4000   0.943   2.210  17.685 -0.3188 -0.6483 -0.0692
  261MPD2     C 4001   2.217   4.223  12.264 -0.2684  0.2379  0.2575
  261MPD2    C1 4002   2.334   4.250  12.191  0.4062  0.2796 -0.6479
  261MPD2    C2 4003   2.332   4.281  12.056  0.3059 -0.1892 -0.0793
  261MPD2    C3 4004   2.209   4.280  11.990 -0.0624  0.6486  0.1498
  261MPD2    C4 4005   2.092   4.241  12.055 -0.1449 -0.4001 -0.4041
  261MPD2    C5 4006   2.097   4.217  12.189 -0.1015  0.7991 -0.1616
  261MPD2     H 4007   2.425   4.297  12.004 -0.1861 -3.6141 -1.9753
  261MPD2    H1 4008   1.996   4.246  12.005 -0.6969 -0.2313  0.6723
  261MPD2    H2 4009   2.216   4.215  12.372  3.5973  1.2871  0.3544
  261MPD2    H3 4010   2.004   4.206  12.243 -1.2210  0.3013 -2.1938
  261MPD2     N 4011   2.209   4.322  11.856 -1.1234 -0.4638  0.4567
  261MPD2    H5 4012   2.297   4.363  11.825  0.2806 -2.4398  1.8470
  261MPD2    N1 4013   2.459   4.226  12.248 -0.1235 -0.1011 -0.7709
  261MPD2    H7 4014   2.533   4.215  12.180  0.0384  1.6333 -0.8603
  262TMC3    C1 4015   2.140   4.398  11.653  0.5791 -0.7757  0.3242
  262TMC3    C2 4016   2.029   4.467  11.604  0.2203  0.1890 -0.2048
  262TMC3    C3 4017   2.054   4.585  11.551  0.3772  0.0352 -0.1828
  262TMC3    C4 4018   2.270   4.434  11.628  0.3021  0.2716  0.1512
  262TMC3    C5 4019   2.292   4.552  11.560 -1.0954  0.2062  0.1903
  262TMC3    C6 4020   2.181   4.627  11.530 -0.7659 -0.7310  0.2670
  262TMC3     C 4021   2.107   4.320  11.770  0.0631 -0.7476  0.2301
  262TMC3     O 4022   1.989   4.285  11.780 -0.2171  0.9501  0.0090
  262TMC3     H 4023   1.926   4.442  11.628  0.0971 -1.3330 -2.3439
  262TMC3    H1 4024   2.355   4.385  11.675  1.7013  0.8864 -1.7778
  262TMC3    H2 4025   2.196   4.728  11.494  0.5024 -0.1525  2.4070
  262TMC3    C7 4026   2.417   4.613  11.595 -0.0276 -0.3302  0.5551
  262TMC3    C8 4027   1.939   4.677  11.547  0.2333 -0.6508 -0.4002
  262TMC3    O1 4028   2.457   4.568  11.703  0.6506  0.3936  0.2033
  262TMC3    O2 4029   1.831   4.639  11.591 -0.1718 -0.1217 -0.7020
  263MPD2     C 4030   2.907   3.867  11.397 -0.0336  0.0739 -0.0966
  263MPD2    C1 4031   3.000   3.855  11.297  0.4530 -0.2726  0.6136
  263MPD2    C2 4032   2.993   3.940  11.188 -0.6946 -0.7591 -0.3241
  263MPD2    C3 4033   2.900   4.047  11.181  0.7479  0.4134 -0.3556
  263MPD2    C4 4034   2.808   4.059  11.284 -0.7074  0.0240 -0.2446
  263MPD2    C5 4035   2.810   3.963  11.388 -0.0429 -0.1166  0.4743
  263MPD2     H 4036   3.062   3.920  11.107  0.2942  0.2396  0.2806
  263MPD2    H1 4037   2.733   4.137  11.287  1.7111  2.2190  2.7142
  263MPD2    H2 4038   2.911   3.796  11.479 -1.1175  0.0361 -0.0844
  263MPD2    H3 4039   2.725   3.959  11.454  0.2511  0.5937  0.8995
  263MPD2     N 4040   2.901   4.136  11.071  0.3574  0.2368 -0.0906
  263MPD2    H5 4041   2.969   4.112  11.000  1.4043  0.3339  0.8788
  263MPD2    N1 4042   3.091   3.747  11.314 -0.1516 -0.3826  0.4186
  263MPD2    H7 4043   3.076   3.690  11.398  0.4627 -0.2401  0.6286
  264TMC3    C1 4044   2.859   4.335  10.943  0.1413 -0.6061 -0.3278
  264TMC3    C2 4045   2.897   4.457  10.995 -0.8682  0.1902  0.1604
  264TMC3    C3 4046   3.003   4.526  10.941  0.2917 -0.6147  0.5311
  264TMC3    C4 4047   2.920   4.283  10.832 -0.1258 -0.3848  0.2266
  264TMC3    C5 4048   3.017   4.361  10.771  0.2114 -0.2924  0.3593
  264TMC3    C6 4049   3.056   4.479  10.825  0.1559  0.9764 -0.1837
  264TMC3     C 4050   2.820   4.246  11.058 -0.4431  0.1289  0.2449
  264TMC3     O 4051   2.741   4.298  11.139  0.3740 -0.0757  0.1499
  264TMC3     H 4052   2.854   4.491  11.089 -1.1529 -2.4715  0.9977
  264TMC3    H1 4053   2.871   4.198  10.786  0.1859 -1.2575  1.5132
  264TMC3    H2 4054   3.129   4.545  10.779 -1.5817  3.4482  0.5980
  264TMC3    C7 4055   3.116   4.303  10.680 -0.2336  0.2518 -0.0237
  264TMC3    C8 4056   3.104   4.552  11.030 -0.0621 -0.0324 -0.4843
  264TMC3    O1 4057   3.190   4.378  10.615  0.5115 -0.2141 -0.5728
  264TMC3    O2 4058   3.215   4.513  11.002 -0.3198 -0.0581  0.0421
  265MPD2     C 4059   0.701   4.460  15.576  0.0729  0.6370  0.4377
  265MPD2    C1 4060   0.721   4.544  15.465 -0.6949 -0.1972 -0.5544
  265MPD2    C2 4061   0.771   4.483  15.346 -0.5363  0.3369 -0.0576
  265MPD2    C3 4062   0.808   4.351  15.350  0.1805 -0.3785 -0.6158
  265MPD2    C4 4063   0.790   4.268  15.459 -0.0784 -0.6688  0.0749
  265MPD2    C5 4064   0.731   4.325  15.570 -0.1732  0.8840 -0.3078
  265MPD2     H 4065   0.791   4.538  15.255  1.3339 -0.1527  0.0561
  265MPD2    H1 4066   0.808   4.161  15.461 -0.9561 -0.8083  0.8605
  265MPD2    H2 4067   0.660   4.504  15.665 -1.4551 -0.9676  0.5166
  265MPD2    H3 4068   0.705   4.267  15.657  1.3309 -1.2610 -1.2988
  265MPD2     N 4069   0.881   4.293  15.248  0.5532 -0.0785 -0.3900
  265MPD2    H5 4070   0.915   4.199  15.261  0.9816 -0.0260 -1.1830
  265MPD2    N1 4071   0.671   4.677  15.484  0.5910  0.4616  1.2151
  265MPD2    H7 4072   0.612   4.699  15.564 -1.9498  1.6113 -0.9756
  266TMC3    C1 4073   0.607   0.152  15.410  0.6187 -0.7589 -0.0796
  266TMC3    C2 4074   0.606   0.209  15.534  0.0466 -0.0474 -0.6313
  266TMC3    C3 4075   0.563   0.339  15.542  0.1731 -0.2117  0.1519
  266TMC3    C4 4076   0.586   0.223  15.298 -0.1167  0.3766 -0.2925
  266TMC3    C5 4077   0.544   0.352  15.308 -0.6865  0.3587 -0.6939
  266TMC3    C6 4078   0.529   0.411  15.428 -0.0267 -0.4641 -0.4997
  266TMC3     C 4079   0.679   0.033  15.381 -0.2584 -0.2420 -0.8891
  266TMC3     O 4080   0.739   0.032  15.274 -0.3353  0.1134  0.3175
  266TMC3     H 4081   0.629   0.156  15.626 -0.5661 -0.9778 -1.0130
  266TMC3    H1 4082   0.568   0.170  15.205  0.1384 -2.7993  1.4655
  266TMC3    H2 4083   0.484   0.510  15.434  3.0832  0.9433 -0.3083
  266TMC3    C7 4084   0.511   0.415  15.181  0.2260 -0.2170 -0.1435
  266TMC3    C8 4085   0.568   0.395  15.680 -0.1754  0.0204 -0.7666
  266TMC3    O1 4086   0.416   0.493  15.182 -0.1435 -0.1241  0.0177
  266TMC3    O2 4087   0.584   0.316  15.770 -0.5818 -0.4031  0.6240
  267MPD2     C 4088   2.909   2.000   0.148  0.2363 -0.1950  0.1083
  267MPD2    C1 4089   2.967   1.976   0.025 -0.3622 -0.6375  0.2602
  267MPD2    C2 4090   2.884   1.974  17.663 -0.2464 -0.3127  0.1675
  267MPD2    C3 4091   2.747   2.013  17.678  0.3109  1.0136  0.0026
  267MPD2    C4 4092   2.691   2.037   0.054 -0.1049 -0.6911 -0.6597
  267MPD2    C5 4093   2.774   2.032   0.166  0.1319  0.3631 -0.4775
  267MPD2     H 4094   2.925   1.958  17.564  0.3502 -1.7973  0.6609
  267MPD2    H1 4095   2.587   2.065   0.065  0.3667  1.2915 -1.2819
  267MPD2    H2 4096   2.978   1.987   0.231  1.5687  3.9732 -0.3442
  267MPD2    H3 4097   2.735   2.059   0.263  0.9189  1.2714 -0.4222
  267MPD2     N 4098   2.670   2.019  17.556 -0.6839 -0.0701  0.2743
  267MPD2    H5 4099   2.713   1.996  17.467 -2.1556 -1.4796 -0.0773
  267MPD2    N1 4100   3.104   1.947   0.017  0.3296  0.1949 -0.9256
  267MPD2    H7 4101   3.142   1.938   0.111 -0.6465  1.2771 -0.4239
  268TMC3    C1 4102   3.294   1.834  17.701 -0.1934 -0.0757  0.7425
  268TMC3    C2 4103   3.401   1.839  17.616  0.4770 -0.9944  0.0281
  268TMC3    C3 4104   3.519   1.794  17.653 -0.1434 -0.0768 -0.0785
  268TMC3    C4 4105   3.308   1.798   0.089  0.2714  0.1239  0.1276
  268TMC3    C5 4106   3.430   1.745   0.126  0.3278 -0.1684 -0.3449
  268TMC3    C6 4107   3.531   1.740   0.034 -0.0480  0.2830  0.2480
  268TMC3     C 4108   3.169   1.897  17.656 -0.7562 -0.5096 -0.2984
  268TMC3     O 4109   3.134   1.894  17.540  0.1946  0.1150  0.3900
  268TMC3     H 4110   3.377   1.874  17.516  1.4398 -1.5090 -0.3767
  268TMC3    H1 4111   3.225   1.786   0.157  1.9954 -0.9614  2.0437
  268TMC3    H2 4112   3.629   1.709   0.069  0.8148  0.8744 -1.6408
  268TMC3    C7 4113   3.451   1.683   0.255  0.6775 -0.3751  0.3294
  268TMC3    C8 4114   3.629   1.792  17.561 -0.6126 -0.6621 -0.4958
  268TMC3    O1 4115   3.537   1.597   0.255  0.0191  0.5315 -0.7568
  268TMC3    O2 4116   3.735   1.767  17.611 -0.1285 -0.6121 -0.1111
  269MPD2     C 4117   3.492   0.506  15.156 -0.4757  0.4487  0.0719
  269MPD2    C1 4118   3.376   0.505  15.224 -0.8066  0.0677 -0.0919
  269MPD2    C2 4119   3.307   0.625  15.221  0.3913 -0.9228 -0.5769
  269MPD2    C3 4120   3.352   0.740  15.160  0.0641 -0.1837  0.3444
  269MPD2    C4 4121   3.466   0.728  15.085  0.0943 -0.3024  0.3647
  269MPD2    C5 4122   3.524   0.606  15.072 -0.6117 -0.3170  0.1655
  269MPD2     H 4123   3.211   0.627  15.272  1.2761  1.0667  1.0132
  269MPD2    H1 4124   3.506   0.812  15.030  3.0353 -0.9006  1.6024
  269MPD2    H2 4125   3.550   0.416  15.173  2.1207  2.4487  1.8083
  269MPD2    H3 4126   3.610   0.597  15.006 -0.0995  0.0862  0.7688
  269MPD2     N 4127   3.276   0.859  15.166 -0.4288 -0.0333 -0.2553
  269MPD2    H5 4128   3.190   0.866  15.218 -1.8808 -1.3551 -2.4553
  269MPD2    N1 4129   3.344   0.388  15.292 -0.3401 -0.1356  0.7306
  269MPD2    H7 4130   3.410   0.311  15.299  0.5361  0.5913  0.4644
  270TMC3    C1 4131   3.219   0.235  15.420  0.2884 -0.1064 -0.8909
  270TMC3    C2 4132   3.092   0.180  15.428  0.2669  0.0712  0.4365
  270TMC3    C3 4133   3.091   0.057  15.488  0.2845 -0.7919 -0.3750
  270TMC3    C4 4134   3.331   0.174  15.473  0.0910  0.6799 -0.0389
  270TMC3    C5 4135   3.320   0.055  15.532 -0.3162  0.1827  0.8460
  270TMC3    C6 4136   3.196   0.001  15.547 -0.6727  0.2748 -0.7081
  270TMC3     C 4137   3.223   0.358  15.343  0.7444  0.4085  0.2728
  270TMC3     O 4138   3.123   0.432  15.331  0.2696  0.1055 -0.3770
  270TMC3     H 4139   3.020   0.209  15.353 -1.6575 -0.3893  2.1126
  270TMC3    H1 4140   3.425   0.228  15.481  0.0848  0.8273 -0.9585
  270TMC3    H2 4141   3.189   4.639  15.591 -0.7329 -0.2110 -1.8211
  270TMC3    C7 4142   3.409   4.699  15.479  0.0584  0.2182 -0.3053
  270TMC3    C8 4143   3.011   4.690  15.422  0.6154 -0.3175  0.2142
  270TMC3    O1 4144   3.528   4.726  15.488  0.8723  0.5264 -0.7967
  270TMC3    O2 4145   3.071   4.587  15.403  0.0196 -0.2282  0.1157
  271MPD2     C 4146   2.352   4.273  13.746 -0.2233  0.7687 -0.2162
  271MPD2    C1 4147   2.384   4.390  13.809 -0.3932  0.2160 -0.4653
  271MPD2    C2 4148   2.318   4.505  13.781  0.3799  0.3853  0.1263
  271MPD2    C3 4149   2.216   4.504  13.682  0.2669 -0.5121  0.0180
  271MPD2    C4 4150   2.177   4.383  13.628 -0.1450 -0.8489 -0.4140
  271MPD2    C5 4151   2.249   4.271  13.658  0.2905 -0.2487  1.0976
  271MPD2     H 4152   2.335   4.594  13.840 -0.3499  0.8786 -0.4003
  271MPD2    H1 4153   2.098   4.377  13.554 -1.4226  0.1771  0.8534
  271MPD2    H2 4154   2.408   4.181  13.758 -1.5951 -0.0520 -0.1136
  271MPD2    H3 4155   2.221   4.171  13.625  0.8316  0.3501 -1.1836
  271MPD2     N 4156   2.142   4.619  13.647  0.3788  0.4633 -1.0627
  271MPD2    H5 4157   2.060   4.607  13.589  0.6039  0.0003 -1.2789
  271MPD2    N1 4158   2.481   4.396  13.914 -0.4882  0.0806  0.1592
  271MPD2    H7 4159   2.479   4.480  13.971  0.3809 -0.1316  0.5105
  272TMC3    C1 4160   2.624   4.305  14.084  0.2956 -0.0866 -0.7727
  272TMC3    C2 4161   2.742   4.238  14.110  0.1178  0.1932  0.1806
  272TMC3    C3 4162   2.796   4.254  14.233  0.0644  0.1751 -0.5858
  272TMC3    C4 4163   2.550   4.378  14.179  0.4204  0.4723 -0.3620
  272TMC3    C5 4164   2.611   4.386  14.298 -0.0858 -0.0690  0.5639
  272TMC3    C6 4165   2.724   4.320  14.331  0.5005  0.5333 -0.4761
  272TMC3     C 4166   2.572   4.297  13.953 -0.9393  0.0531  0.3280
  272TMC3     O 4167   2.605   4.195  13.888 -0.4722  0.7684  0.7903
  272TMC3     H 4168   2.790   4.180  14.032 -2.0653 -2.3450  0.7357
  272TMC3    H1 4169   2.457   4.430  14.164  1.4520  1.6712 -2.5383
  272TMC3    H2 4170   2.771   4.319  14.429  0.3739 -1.0873 -0.4306
  272TMC3    C7 4171   2.535   4.457  14.399 -0.1295  0.1512  0.2338
  272TMC3    C8 4172   2.935   4.282  14.233  0.6562  0.4122 -0.1003
  272TMC3    O1 4173   2.423   4.489  14.368  0.3129 -0.2077  0.5689
  272TMC3    O2 4174   2.980   4.331  14.134 -0.3501  0.2598 -0.1013
  273MPD2     C 4175   4.022   2.786  11.297  0.2161 -1.0679 -0.1488
  273MPD2    C1 4176   4.121   2.866  11.236 -0.1486  0.0730  1.1502
  273MPD2    C2 4177   4.109   2.912  11.104  0.1585 -0.0272  0.5053
  273MPD2    C3 4178   3.996   2.876  11.029 -0.1417 -0.0390  0.0608
  273MPD2    C4 4179   3.902   2.795  11.092 -0.0112 -0.0524  0.2217
  273MPD2    C5 4180   3.911   2.759  11.222 -0.3234 -0.1973 -0.4361
  273MPD2     H 4181   4.179   2.989  11.074 -0.9053  0.4386 -0.8273
  273MPD2    H1 4182   3.816   2.760  11.037  0.7035 -0.0217 -0.9251
  273MPD2    H2 4183   4.033   2.752  11.399 -0.3899  2.6789  1.1506
  273MPD2    H3 4184   3.836   2.697  11.270  1.3841 -0.9790  1.2078
  273MPD2     N 4185   3.978   2.917  10.895  0.3223 -0.3242  0.2620
  273MPD2    H5 4186   3.897   2.877  10.848  0.7850 -2.6986  1.4926
  273MPD2    N1 4187   4.223   2.902  11.322  0.4152  0.4506  0.2721
  273MPD2    H7 4188   4.219   2.869  11.418 -1.2599  0.1716  0.1050
  274TMC3    C1 4189   4.017   3.043  10.694 -0.3514 -0.4226  0.0008
  274TMC3    C2 4190   3.893   3.003  10.650  0.2983  0.3745  1.0822
  274TMC3    C3 4191   3.809   3.096  10.596  0.4425 -0.0234  0.0429
  274TMC3    C4 4192   4.044   3.176  10.678 -0.0462  0.6997 -0.2089
  274TMC3    C5 4193   3.951   3.270  10.650 -0.5796 -0.3241  0.4507
  274TMC3    C6 4194   3.835   3.232  10.587 -0.8288 -0.0478 -0.5297
  274TMC3     C 4195   4.069   2.986  10.817  0.8003 -0.2350  0.8354
  274TMC3     O 4196   4.178   3.032  10.843  0.2613  0.0806 -0.1258
  274TMC3     H 4197   3.860   2.900  10.639 -2.5458  1.3873  0.0594
  274TMC3    H1 4198   4.138   3.211  10.718 -0.0415  0.0805  0.3155
  274TMC3    H2 4199   3.751   3.300  10.583  0.0387  1.1942  2.2268
  274TMC3    C7 4200   3.937   3.364  10.757  0.2342  0.2327 -0.0024
  274TMC3    C8 4201   3.675   3.057  10.548  0.2362 -0.8108 -0.4811
  274TMC3    O1 4202   3.831   3.422  10.763  0.2586 -0.0698 -0.0712
  274TMC3    O2 4203   3.624   2.961  10.606  0.1427  0.0815 -0.3453
  275MPD2     C 4204   4.120   0.745  14.043 -0.4164 -0.3478 -0.0530
  275MPD2    C1 4205   4.016   0.832  14.069 -0.1167 -0.4287  0.2237
  275MPD2    C2 4206   3.890   0.778  14.098  0.4186  0.7925  0.5268
  275MPD2    C3 4207   3.857   0.644  14.080 -0.0351 -0.7255 -0.3070
  275MPD2    C4 4208   3.954   0.569  14.031  0.0301 -0.6050 -1.0676
  275MPD2    C5 4209   4.080   0.616  14.011  0.1292 -0.3397 -0.2427
  275MPD2     H 4210   3.815   0.850  14.129 -1.6876 -0.5523 -1.4759
  275MPD2    H1 4211   3.927   0.467  14.008  1.9131 -0.9138 -1.9452
  275MPD2    H2 4212   4.222   0.777  14.027  0.0541 -2.6765 -1.7062
  275MPD2    H3 4213   4.152   0.549  13.967 -1.4731 -1.8029 -0.6177
  275MPD2     N 4214   3.733   0.589  14.123  0.2112 -0.3575 -0.5427
  275MPD2    H5 4215   3.724   0.488  14.131 -2.2957  0.0081  1.5280
  275MPD2    N1 4216   4.038   0.967  14.094  0.3494  0.1093 -0.4761
  275MPD2    H7 4217   3.957   1.025  14.111  0.0533 -0.4702  0.0971
  276TMC3    C1 4218   4.137   1.151  14.208  0.2270 -0.0076 -0.3883
  276TMC3    C2 4219   4.008   1.179  14.240  0.1170  0.7717 -0.6228
  276TMC3    C3 4220   3.986   1.222  14.366 -0.4317  0.9233  0.6635
  276TMC3    C4 4221   4.241   1.166  14.296  0.4308 -0.5782 -0.1203
  276TMC3    C5 4222   4.217   1.210  14.421  0.9548 -0.5440 -0.4574
  276TMC3    C6 4223   4.087   1.223  14.459 -0.1063 -0.0257  0.3335
  276TMC3     C 4224   4.158   1.035  14.120 -0.3056  0.0703  0.4987
  276TMC3     O 4225   4.272   0.991  14.114  0.5324 -0.2568  0.0959
  276TMC3     H 4226   3.925   1.193  14.173  1.9826  0.3037 -3.0127
  276TMC3    H1 4227   4.338   1.133  14.261  0.0330 -0.7924 -1.0378
  276TMC3    H2 4228   4.067   1.250  14.562  1.1019  1.0215  0.2920
  276TMC3    C7 4229   4.317   1.207  14.521  0.5917  0.2075 -0.5181
  276TMC3    C8 4230   3.869   1.172  14.429 -0.9398 -0.1190 -0.4460
  276TMC3    O1 4231   4.273   1.232  14.633  0.5764  1.0970  0.0123
  276TMC3    O2 4232   3.829   1.223  14.531  0.3477 -1.0316  0.0999
  277MPD2     C 4233   0.901   4.534  12.927 -0.3442  0.1004 -0.0806
  277MPD2    C1 4234   0.900   4.635  13.021 -0.0169 -0.2842  0.7600
  277MPD2    C2 4235   0.917   4.609  13.154  0.7315 -0.0946 -0.1307
  277MPD2    C3 4236   0.935   4.477  13.201  0.3661  0.0049 -0.4607
  277MPD2    C4 4237   0.920   4.375  13.110  0.1440 -0.8037  0.4619
  277MPD2    C5 4238   0.909   4.406  12.975  0.0793  0.1345 -0.4993
  277MPD2     H 4239   0.927   4.686  13.229 -1.4645  1.4084 -1.3918
  277MPD2    H1 4240   0.917   4.269  13.136  1.6130 -1.1511 -0.8099
  277MPD2    H2 4241   0.873   4.553  12.824 -1.1203 -1.0818 -0.0907
  277MPD2    H3 4242   0.898   4.324  12.905 -1.6307 -1.3604  1.5000
  277MPD2     N 4243   0.948   4.445  13.337 -0.5525  0.0821  0.5789
  277MPD2    H5 4244   0.931   4.523  13.400 -2.3777  0.9182 -0.9406
  277MPD2    N1 4245   0.874   0.031  12.976  0.3557 -0.7343  0.4207
  277MPD2    H7 4246   0.856   0.037  12.877 -1.6223 -0.8249  0.7838
  278TMC3    C1 4247   0.937   4.315  13.530  0.3689 -0.4733 -0.2221
  278TMC3    C2 4248   0.977   4.208  13.597  0.7276 -0.6117  0.1464
  278TMC3    C3 4249   0.881   4.132  13.663  0.5712  0.2234 -0.1578
  278TMC3    C4 4250   0.808   4.366  13.544  0.2403  0.6882  0.6818
  278TMC3    C5 4251   0.722   4.295  13.623 -0.1440  1.0202  0.9412
  278TMC3    C6 4252   0.755   4.175  13.681  0.2649 -0.2191  0.0483
  278TMC3     C 4253   0.970   4.318  13.393  0.1929 -0.0718  0.1596
  278TMC3     O 4254   1.001   4.207  13.345 -0.5338  0.4742  0.1458
  278TMC3     H 4255   1.082   4.183  13.594  1.2046  1.1353  1.9356
  278TMC3    H1 4256   0.775   4.446  13.479 -3.9836 -0.0692  1.8894
  278TMC3    H2 4257   0.687   4.120  13.746 -1.0747  0.4769 -0.7712
  278TMC3    C7 4258   0.583   4.333  13.613 -0.2595  0.2104  0.6706
  278TMC3    C8 4259   0.923   3.999  13.702  0.5516  0.8813 -0.3336
  278TMC3    O1 4260   0.574   4.444  13.555  0.3714 -0.1044  0.9460
  278TMC3    O2 4261   1.043   3.987  13.706  0.0454  0.9225 -0.2094
  279MPD2     C 4262   0.095   0.687  17.731 -0.1819  0.0038 -0.2924
  279MPD2    C1 4263   0.101   0.553  17.708 -0.2424 -0.6441  0.3367
  279MPD2    C2 4264   0.163   0.515  17.586 -0.1224  0.3905  0.7008
  279MPD2    C3 4265   0.221   0.610  17.502 -0.0502 -0.1289 -0.4499
  279MPD2    C4 4266   0.208   0.741  17.537  0.1630  0.8205  0.2473
  279MPD2    C5 4267   0.147   0.778  17.649 -0.0209 -0.0523  0.2039
  279MPD2     H 4268   0.158   0.410  17.558  0.6587  0.1130  1.6511
  279MPD2    H1 4269   0.258   0.820  17.482 -0.1177 -0.7565 -2.2459
  279MPD2    H2 4270   0.038   0.726   0.069  0.8430 -1.2965  1.0305
  279MPD2    H3 4271   0.119   0.882  17.662  1.8220  0.3482  0.9487
  279MPD2     N 4272   0.279   0.585  17.374  0.1438 -0.1460  0.0675
  279MPD2    H5 4273   0.308   0.667  17.323  0.6343 -0.1814  0.2922
  279MPD2    N1 4274   0.021   0.469   0.044  0.7686  0.2125 -0.1249
  279MPD2    H7 4275   4.699   0.521   0.108  2.0194  0.6553  0.6725
  280TMC3    C1 4276   4.696   0.271   0.152 -0.0504  0.1348 -0.0836
  280TMC3    C2 4277   0.004   0.158   0.207 -0.0761 -0.2382  0.3851
  280TMC3    C3 4278   4.647   0.077   0.260 -0.5421  0.4710  0.0657
  280TMC3    C4 4279   4.565   0.320   0.145 -0.2463 -0.2927  0.2619
  280TMC3    C5 4280   4.478   0.232   0.200  0.4433 -0.1515  0.2549
  280TMC3    C6 4281   4.514   0.108   0.251 -0.2221  0.3661 -0.0199
  280TMC3     C 4282   0.057   0.334   0.063 -0.1906 -0.1396  0.0826
  280TMC3     O 4283   0.170   0.287   0.060  0.4739  0.6844 -0.0233
  280TMC3     H 4284   0.104   0.118   0.192 -0.8526 -1.8728 -0.4660
  280TMC3    H1 4285   4.532   0.411   0.097  0.0614 -0.8614 -1.0373
  280TMC3    H2 4286   4.444   0.040   0.299 -1.3114  1.6327  0.1584
  280TMC3    C7 4287   4.350   0.292   0.224  0.0737 -0.6284  0.3645
  280TMC3    C8 4288   4.695   4.688   0.308  0.1280  0.7836  0.2115
  280TMC3    O1 4289   4.311   0.302   0.341  0.1702  0.1118  0.0173
  280TMC3    O2 4290   0.074   4.677   0.342 -0.4781  0.0502 -0.1610
  281TMC3    C1 4291   3.751   4.667  13.303  0.2284  0.4395 -0.7479
  281TMC3    C2 4292   3.861   4.730  13.255 -1.1062  0.1029 -0.4033
  281TMC3    C3 4293   3.941   4.671  13.163 -0.2556  0.9143  0.4361
  281TMC3    C4 4294   3.716   4.541  13.264  0.2839  0.5439  0.1536
  281TMC3    C5 4295   3.794   4.488  13.164  0.9535 -0.2943 -0.1706
  281TMC3    C6 4296   3.911   4.544  13.120  0.3047  0.8636 -0.8600
  281TMC3     C 4297   3.650   4.716  13.401  0.7750  0.5535 -0.3476
  281TMC3     O 4298   3.596   4.635  13.475  0.6685  0.0087  0.0357
  281TMC3     H 4299   3.892   0.092  13.288  1.2594 -1.0894  0.9967
  281TMC3    H1 4300   3.628   4.486  13.295 -0.5733  1.6668 -0.3058
  281TMC3    H2 4301   3.966   4.502  13.036  0.1251 -0.2686 -0.4152
  281TMC3    C7 4302   3.772   4.349  13.116  0.6857 -0.1150  0.9551
  281TMC3    C8 4303   4.033   0.002  13.070 -0.1973 -0.1377 -0.4774
  281TMC3    O1 4304   3.848   4.320  13.027 -0.4862  0.2069 -0.0277
  281TMC3    O2 4305   4.137   4.675  13.052 -0.0800  0.2627 -0.3669
  282MPD2     C 4306   0.390   1.038  14.839  0.2041  0.6105 -0.5321
  282MPD2    C1 4307   0.406   1.174  14.814  0.1316  0.1209 -0.1790
  282MPD2    C2 4308   0.413   1.220  14.684 -0.0458 -0.3656 -0.1491
  282MPD2    C3 4309   0.426   1.134  14.570 -0.0631  0.1336  0.2163
  282MPD2    C4 4310   0.418   0.995  14.601  0.3422  0.1462 -0.2372
  282MPD2    C5 4311   0.392   0.953  14.728 -0.1884  0.0948 -0.4307
  282MPD2     H 4312   0.399   1.324  14.657  3.2700  0.3779  0.9065
  282MPD2    H1 4313   0.429   0.918  14.525 -0.3220 -0.7803  0.6232
  282MPD2    H2 4314   0.362   1.014  14.941 -2.3115  3.3610 -0.5892
  282MPD2    H3 4315   0.389   0.846  14.746 -3.1578  0.0002 -1.6229
  282MPD2     N 4316   0.447   1.184  14.440  0.1414  0.4367  0.9035
  282MPD2    H5 4317   0.474   1.282  14.435  3.8287 -0.7718 -2.6600
  282MPD2    N1 4318   0.416   1.260  14.931  0.6143 -0.3648 -0.5672
  282MPD2    H7 4319   0.427   1.210  15.018 -1.5975  0.1745  0.0269
  283TMC3    C1 4320   0.431   1.436  15.074 -0.2551  0.1287 -0.2633
  283TMC3    C2 4321   0.524   1.533  15.115  0.3476 -0.1903  0.5288
  283TMC3    C3 4322   0.532   1.567  15.247 -0.0450  0.2775 -0.3649
  283TMC3    C4 4323   0.361   1.363  15.164  0.3621  1.0048 -0.1158
  283TMC3    C5 4324   0.377   1.408  15.294  0.1927 -0.6048  0.1899
  283TMC3    C6 4325   0.456   1.509  15.337  0.0393  0.4361  0.1210
  283TMC3     C 4326   0.435   1.394  14.933  0.4166 -0.7115  0.6990
  283TMC3     O 4327   0.463   1.471  14.839 -0.0218 -0.1782  0.7314
  283TMC3     H 4328   0.583   1.582  15.040  0.8597 -0.1639  0.9506
  283TMC3    H1 4329   0.278   1.303  15.129 -1.3405  3.0116  0.4931
  283TMC3    H2 4330   0.474   1.551  15.436 -0.6591 -2.5524  1.5290
  283TMC3    C7 4331   0.273   1.367  15.392  0.1602  1.0552 -0.6098
  283TMC3    C8 4332   0.639   1.642  15.293  0.8280  0.7188 -0.2558
  283TMC3    O1 4333   0.252   1.450  15.481 -0.2650  0.0884  0.2312
  283TMC3    O2 4334   0.710   1.615  15.392  0.4313 -0.0158 -0.0116
  284MPD2     C 4335   3.419   0.510  12.052 -0.2860 -0.1798 -0.9141
  284MPD2    C1 4336   3.533   0.595  12.050  0.3570  0.0386  0.1491
  284MPD2    C2 4337   3.639   0.564  12.129  0.0718 -0.4487  0.1243
  284MPD2    C3 4338   3.633   0.441  12.201  0.7789  0.2694 -0.3827
  284MPD2    C4 4339   3.511   0.369  12.214  0.0703 -0.3074  0.6421
  284MPD2    C5 4340   3.406   0.398  12.136  0.7488 -0.5671  0.6449
  284MPD2     H 4341   3.730   0.622  12.118 -0.0566 -0.4600 -1.0033
  284MPD2    H1 4342   3.508   0.278  12.273  1.0699 -2.9560 -3.4058
  284MPD2    H2 4343   3.337   0.533  11.985  0.9669  1.8720 -1.7401
  284MPD2    H3 4344   3.310   0.348  12.148  0.0988 -0.0126 -2.2118
  284MPD2     N 4345   3.755   0.383  12.246 -0.0274  0.1342  0.0520
  284MPD2    H5 4346   3.755   0.284  12.265 -3.0542 -0.2975 -2.2627
  284MPD2    N1 4347   3.565   0.686  11.940  0.4426 -0.3548 -0.1639
  284MPD2    H7 4348   3.657   0.728  11.933 -0.8987  1.9521 -4.0067
  285TMC3    C1 4349   3.552   0.757  11.715 -0.0617  0.0629 -0.2733
  285TMC3    C2 4350   3.664   0.687  11.677 -0.6146 -0.1532 -0.0124
  285TMC3    C3 4351   3.711   0.708  11.549 -0.2901  0.2937  0.0745
  285TMC3    C4 4352   3.477   0.833  11.622  0.1393 -0.5411  0.4701
  285TMC3    C5 4353   3.532   0.852  11.495 -0.2601  0.3474 -0.6121
  285TMC3    C6 4354   3.642   0.784  11.456  0.1989  0.5133  0.5747
  285TMC3     C 4355   3.483   0.717  11.831  0.0170  0.0231 -0.5210
  285TMC3     O 4356   3.363   0.700  11.811  0.0761  0.0922 -0.4077
  285TMC3     H 4357   3.717   0.620  11.744 -1.4647  0.1205  0.9444
  285TMC3    H1 4358   3.393   0.879  11.673 -0.1982  1.5392 -1.9801
  285TMC3    H2 4359   3.686   0.804  11.359 -0.4613  2.0107  0.5784
  285TMC3    C7 4360   3.489   0.961  11.414 -0.0263  0.5646  0.0420
  285TMC3    C8 4361   3.812   0.613  11.504  0.1674  1.0591  0.0216
  285TMC3    O1 4362   3.567   1.007  11.331 -0.0763 -0.0260 -0.4564
  285TMC3    O2 4363   3.808   0.506  11.562  0.0651  0.4264 -0.5240
  286MPD2     C 4364   4.302   4.363   1.454  0.2324  0.6051 -0.5201
  286MPD2    C1 4365   4.211   4.331   1.356 -0.1833  0.1067  0.1306
  286MPD2    C2 4366   4.230   4.220   1.278  0.0858  0.1150 -0.1692
  286MPD2    C3 4367   4.353   4.155   1.284 -0.0721 -0.3799  0.4939
  286MPD2    C4 4368   4.448   4.199   1.372  0.1110  0.5882  0.0807
  286MPD2    C5 4369   4.421   4.298   1.467 -0.0212  0.1789  0.6075
  286MPD2     H 4370   4.154   4.193   1.206  1.0732 -0.7017 -0.9112
  286MPD2    H1 4371   4.544   4.149   1.382 -0.6495 -0.8269  0.3363
  286MPD2    H2 4372   4.282   4.437   1.531  0.1385  0.7675 -0.7008
  286MPD2    H3 4373   4.491   4.310   1.549 -0.2042 -1.8359  1.0593
  286MPD2     N 4374   4.375   4.042   1.202  0.0879  0.1547  0.1216
  286MPD2    H5 4375   4.464   3.995   1.214 -1.7525 -3.3254  0.0810
  286MPD2    N1 4376   4.088   4.395   1.340 -0.0815  0.1645  0.1617
  286MPD2    H7 4377   4.026   4.347   1.274  1.5908  0.9116 -1.9635
  287TMC3    C1 4378   4.339   3.871   1.053 -0.1467 -0.0892 -0.1441
  287TMC3    C2 4379   4.339   3.850   0.922  0.7473  0.5252  0.7300
  287TMC3    C3 4380   4.434   3.767   0.877  0.8304 -0.0580  0.6064
  287TMC3    C4 4381   4.425   3.803   1.139 -0.2520 -0.2351 -0.2486
  287TMC3    C5 4382   4.513   3.708   1.085  0.1042 -0.0859  0.7632
  287TMC3    C6 4383   4.514   3.694   0.953 -0.0062 -0.5081  0.1016
  287TMC3     C 4384   4.289   3.995   1.103  0.6974  0.7981 -0.6018
  287TMC3     O 4385   4.193   4.049   1.051  0.2344 -0.0456  0.8827
  287TMC3     H 4386   4.259   3.891   0.861  1.7117 -1.0823 -1.6212
  287TMC3    H1 4387   4.409   3.820   1.245  1.2910 -0.7329  0.0626
  287TMC3    H2 4388   4.578   3.620   0.907  1.7022 -0.6031  2.6016
  287TMC3    C7 4389   4.639   3.711   1.150 -0.5798 -0.0788 -0.1924
  287TMC3    C8 4390   4.423   3.725   0.741 -0.0754  0.7583 -0.6832
  287TMC3    O1 4391   4.658   3.804   1.229  0.1625 -0.0640  0.4582
  287TMC3    O2 4392   4.451   3.611   0.716 -0.4800 -0.0528  0.1043
  288TMC3    C1 4393   1.372   4.143  14.281 -0.4123 -1.1154  0.0993
  288TMC3    C2 4394   1.254   4.178  14.346  0.0940 -0.2038 -0.4962
  288TMC3    C3 4395   1.192   4.300  14.321 -0.0172 -0.5629  0.1357
  288TMC3    C4 4396   1.423   4.227  14.186  0.1764  0.3922  0.7293
  288TMC3    C5 4397   1.369   4.349  14.170 -0.7614  0.3897  0.6665
  288TMC3    C6 4398   1.247   4.383  14.234 -0.5752  0.0082 -0.7423
  288TMC3     C 4399   1.438   4.023  14.318 -0.2386  0.0042 -0.0632
  288TMC3     O 4400   1.408   3.985  14.430  1.0406 -0.4497 -0.5484
  288TMC3     H 4401   1.217   4.104  14.416 -0.3770 -0.0003 -0.5299
  288TMC3    H1 4402   1.505   4.197  14.121  0.6426  0.0655  1.4735
  288TMC3    H2 4403   1.209   4.479  14.201 -2.2781 -0.1237  0.8195
  288TMC3    C7 4404   1.406   4.421  14.054  0.4762 -0.0956  0.3981
  288TMC3    C8 4405   1.106   4.363  14.423 -0.1146  0.6047  0.4549
  288TMC3    O1 4406   1.317   4.475  13.985  0.6993 -0.4924 -0.1333
  288TMC3    O2 4407   1.089   4.483  14.419 -0.6636 -0.0566 -0.4499
  289MPD2     C 4408   0.937   2.852  14.609  0.1282 -0.1545  0.3269
  289MPD2    C1 4409   0.973   2.976  14.565 -0.2338 -0.1981 -0.4935
  289MPD2    C2 4410   0.901   3.032  14.457  0.8973  0.2912  0.8747
  289MPD2    C3 4411   0.807   2.969  14.385  0.2293  0.2260  0.4981
  289MPD2    C4 4412   0.776   2.840  14.426  0.2415  0.1198 -0.6030
  289MPD2    C5 4413   0.843   2.787  14.536  0.0993  0.2913 -0.4374
  289MPD2     H 4414   0.922   3.135  14.431  0.3006  0.5149  1.2841
  289MPD2    H1 4415   0.706   2.780  14.369 -0.8333  0.5459  0.2583
  289MPD2    H2 4416   0.979   2.800  14.694  3.7240  0.6739 -0.9417
  289MPD2    H3 4417   0.833   2.683  14.566  0.2094  0.2556 -0.5225
  289MPD2     N 4418   0.728   3.029  14.277 -0.1563 -0.1092  0.5566
  289MPD2    H5 4419   0.658   2.969  14.234  0.1336 -0.0691  0.0312
  289MPD2    N1 4420   1.073   3.043  14.639 -0.2014 -0.2304  0.0727
  289MPD2    H7 4421   1.119   2.986  14.709 -0.2020 -1.8670 -1.2381
  290TMC3    C1 4422   0.608   3.188  14.164  0.8934 -0.5889  0.5881
  290TMC3    C2 4423   0.559   3.322  14.159 -0.1487 -0.5100  0.2302
  290TMC3    C3 4424   0.450   3.344  14.082 -0.3531  0.3720 -0.1886
  290TMC3    C4 4425   0.531   3.079  14.111 -0.3094 -0.1005  0.0667
  290TMC3    C5 4426   0.422   3.118  14.041 -0.0090  0.3140 -0.0814
  290TMC3    C6 4427   0.377   3.244  14.024 -0.0256  0.4349  0.5742
  290TMC3     C 4428   0.722   3.164  14.250 -0.3990  0.1165  0.4932
  290TMC3     O 4429   0.785   3.259  14.295 -0.5513  0.0048 -0.1159
  290TMC3     H 4430   0.622   3.401  14.197  0.7303 -1.2710  0.3631
  290TMC3    H1 4431   0.564   2.976  14.106 -0.9111 -0.3291  0.7755
  290TMC3    H2 4432   0.306   3.266  13.946 -0.9840 -2.2426  0.7075
  290TMC3    C7 4433   0.383   3.034  13.926  0.2150  0.2833  0.5199
  290TMC3    C8 4434   0.401   3.476  14.043  0.9219  0.0266 -0.2043
  290TMC3    O1 4435   0.324   3.094  13.837  0.4019 -0.3134 -0.0102
  290TMC3    O2 4436   0.281   3.484  14.026  0.2519  0.4574  0.3493
  291MPD2     C 4437   4.415   3.735  17.701  0.4412 -0.1295 -0.2638
  291MPD2    C1 4438   4.526   3.667   0.006 -0.4794 -0.2168 -0.4924
  291MPD2    C2 4439   4.641   3.743   0.043 -0.1217 -0.0447 -0.6072
  291MPD2    C3 4440   4.648   3.881   0.006 -0.4876  0.0445 -0.1301
  291MPD2    C4 4441   4.534   3.948  17.714  0.5994  0.3660 -0.1204
  291MPD2    C5 4442   4.422   3.875  17.681  0.1846  0.0080  0.3840
  291MPD2     H 4443   4.730   3.688   0.069 -0.8954 -1.3919 -0.8464
  291MPD2    H1 4444   4.534   4.055  17.698  1.2632  0.1238 -1.8383
  291MPD2    H2 4445   4.317   3.690  17.690  0.2861  0.0231  0.5108
  291MPD2    H3 4446   4.335   3.927  17.643 -0.6626 -0.7058  1.3353
  291MPD2     N 4447   0.038   3.952   0.024  0.2417  0.1333 -0.0470
  291MPD2    H5 4448   0.043   4.051   0.003  2.0702 -0.6364 -3.2298
  291MPD2    N1 4449   4.516   3.529   0.041 -0.1537 -0.7634  0.6344
  291MPD2    H7 4450   4.592   3.494   0.098  0.1728  0.7113  1.0840
  292TMC3    C1 4451   4.462   3.309   0.061 -0.0582 -0.7345  0.1345
  292TMC3    C2 4452   4.476   3.310   0.196 -0.2019  0.2032  0.4930
  292TMC3    C3 4453   4.455   3.196   0.265  0.4591  0.1025  0.5776
  292TMC3    C4 4454   4.431   3.193  17.742  0.2292 -0.1098  0.5513
  292TMC3    C5 4455   4.423   3.082   0.066  0.2430 -0.4141  0.4747
  292TMC3    C6 4456   4.428   3.076   0.200 -0.3512 -0.0909  0.5481
  292TMC3     C 4457   4.433   3.432  17.736 -0.4935  0.5710  0.4365
  292TMC3     O 4458   4.343   3.428  17.649 -0.3654 -0.3332 -0.3453
  292TMC3     H 4459   4.502   3.405   0.242 -1.6098 -0.6245  3.0454
  292TMC3    H1 4460   4.435   3.190  17.634 -2.0494 -0.2421  0.4756
  292TMC3    H2 4461   4.388   2.984   0.240 -0.3484 -0.0135  0.7266
  292TMC3    C7 4462   4.397   2.956   0.005  0.4129  0.3649 -0.2523
  292TMC3    C8 4463   4.380   3.217   0.392 -0.0610 -0.1803  0.0951
  292TMC3    O1 4464   4.426   2.855   0.062  0.0297  0.0617 -0.1925
  292TMC3    O2 4465   4.355   3.333   0.416  0.3091 -0.0434 -0.1029
  293MPD2     C 4466   1.483   4.507  12.446 -0.0748  0.4756  0.2064
  293MPD2    C1 4467   1.387   4.501  12.543 -0.2307  0.0410  0.2307
  293MPD2    C2 4468   1.440   4.484  12.672  0.6225 -0.8260  0.8294
  293MPD2    C3 4469   1.573   4.480  12.706 -0.2143  0.4314  0.4011
  293MPD2    C4 4470   1.660   4.479  12.598 -0.1925  0.3723  0.0692
  293MPD2    C5 4471   1.621   4.501  12.472 -0.4921  0.4213  0.2805
  293MPD2     H 4472   1.377   4.477  12.761 -0.7110  0.3156 -0.0248
  293MPD2    H1 4473   1.767   4.464  12.611 -0.3291 -1.1569 -0.5589
  293MPD2    H2 4474   1.468   4.517  12.339 -1.9293  1.2601  0.5549
  293MPD2    H3 4475   1.699   4.507  12.397  0.7799  1.6365  1.7243
  293MPD2     N 4476   1.608   4.471  12.843 -1.3650 -0.4288  0.0887
  293MPD2    H5 4477   1.535   4.474  12.914 -1.9381  3.2831 -0.6945
  293MPD2    N1 4478   1.255   4.499  12.510  0.1747 -0.2329 -0.0575
  293MPD2    H7 4479   1.237   4.488  12.411  1.4455 -1.2995 -0.1566
  294TMC3    C1 4480   1.029   4.456  12.540  0.2793  0.0417 -0.0621
  294TMC3    C2 4481   0.970   4.353  12.616 -0.6962 -0.8019  0.8395
  294TMC3    C3 4482   0.887   4.267  12.551  0.7557  0.5788 -0.0565
  294TMC3    C4 4483   1.010   4.472  12.403  0.4937  0.5415 -0.8915
  294TMC3    C5 4484   0.937   4.371  12.342 -0.4030 -0.4309 -0.4208
  294TMC3    C6 4485   0.877   4.278  12.417 -0.1313  0.2686  0.1524
  294TMC3     C 4486   1.149   4.496  12.600 -0.2065 -1.4703 -0.0117
  294TMC3     O 4487   1.156   4.488  12.719 -0.6681  0.3649  0.5411
  294TMC3     H 4488   0.988   4.331  12.721  0.0384 -1.5726  0.5428
  294TMC3    H1 4489   1.042   4.559  12.347 -0.8951  1.9409  0.4804
  294TMC3    H2 4490   0.822   4.202  12.361  0.0610  1.2158 -1.3220
  294TMC3    C7 4491   0.886   4.381  12.202 -0.4169 -0.4670  0.3496
  294TMC3    C8 4492   0.889   4.141  12.620  0.0163  0.3285  1.2081
  294TMC3    O1 4493   0.766   4.348  12.181 -0.4863 -0.1106 -1.0863
  294TMC3    O2 4494   0.885   4.134  12.743  0.0911  0.2274  0.4431
  295MPD2     C 4495   3.221   3.022   0.300  0.6685  0.5142  0.4626
  295MPD2    C1 4496   3.101   3.045   0.363 -0.6711  0.2358  0.4346
  295MPD2    C2 4497   3.048   2.948   0.447  0.3073  0.0066 -0.3132
  295MPD2    C3 4498   3.114   2.831   0.469 -0.2461 -0.2779 -0.5863
  295MPD2    C4 4499   3.237   2.808   0.412  0.2155 -0.2704  0.0043
  295MPD2    C5 4500   3.290   2.900   0.323  0.1245 -0.5515  0.3615
  295MPD2     H 4501   2.953   2.974   0.491  0.0396 -0.3335 -0.6887
  295MPD2    H1 4502   3.298   2.719   0.424  2.4463  1.2296 -0.0625
  295MPD2    H2 4503   3.271   3.101   0.246 -1.5349 -0.3354 -2.8499
  295MPD2    H3 4504   3.388   2.884   0.277 -0.1180  1.3547 -0.8058
  295MPD2     N 4505   3.065   2.740   0.566  0.8128 -0.0028 -0.4598
  295MPD2    H5 4506   3.105   2.647   0.565 -0.9329 -0.7350 -2.2234
  295MPD2    N1 4507   3.015   3.158   0.340  0.1953  0.2674  0.0060
  295MPD2    H7 4508   2.929   3.160   0.393  0.9052 -0.7904  1.1853
  296TMC3    C1 4509   2.963   2.687   0.779  0.5187  0.5582 -0.2701
  296TMC3    C2 4510   2.855   2.717   0.865 -0.0610  0.3194  0.0252
  296TMC3    C3 4511   2.862   2.655   0.988 -0.3126 -0.9256  0.2834
  296TMC3    C4 4512   3.061   2.596   0.806 -0.0667 -0.1617  0.6189
  296TMC3    C5 4513   3.055   2.545   0.931  0.2324 -0.0751  0.3721
  296TMC3    C6 4514   2.958   2.565   1.019 -0.0372 -0.4953 -0.9991
  296TMC3     C 4515   2.982   2.775   0.668  0.6730 -0.2863  0.1529
  296TMC3     O 4516   2.943   2.892   0.689 -0.5522  0.2440 -0.6940
  296TMC3     H 4517   2.776   2.787   0.843 -1.7308 -1.5635 -0.0022
  296TMC3    H1 4518   3.143   2.573   0.739 -0.2847 -2.3467  1.1030
  296TMC3    H2 4519   2.977   2.538   1.122 -4.2997  1.1531  0.2206
  296TMC3    C7 4520   3.145   2.440   0.958 -0.2558 -0.3323 -0.4914
  296TMC3    C8 4521   2.745   2.659   1.076 -0.3245  0.8906  0.3125
  296TMC3    O1 4522   3.257   2.457   0.905  0.4412 -0.4210  0.2385
  296TMC3    O2 4523   2.740   2.575   1.165 -0.3102 -0.3254 -0.2728
  297MPD2     C 4524   4.309   0.444  16.032 -0.1378 -0.1626 -0.5090
  297MPD2    C1 4525   4.286   0.542  15.935  0.0528 -0.1359  0.3708
  297MPD2    C2 4526   4.372   0.646  15.923  0.5457 -0.3693 -0.2410
  297MPD2    C3 4527   4.492   0.645  15.987  0.1582  0.4324  0.7123
  297MPD2    C4 4528   4.528   0.540  16.070  0.3485  0.4622  0.2898
  297MPD2    C5 4529   4.436   0.442  16.095  0.0022  0.3388 -0.3613
  297MPD2     H 4530   4.348   0.725  15.852  2.7390 -1.0502 -1.7402
  297MPD2    H1 4531   4.623   0.539  16.123 -0.2550  2.7363  1.4106
  297MPD2    H2 4532   4.245   0.357  16.044  0.8127 -1.0471 -1.7814
  297MPD2    H3 4533   4.460   0.361  16.163 -1.6604  0.4237  0.3205
  297MPD2     N 4534   4.581   0.750  15.959 -0.5477 -0.2050  0.5474
  297MPD2    H5 4535   4.537   0.828  15.912  0.0136  0.0603  0.4711
  297MPD2    N1 4536   4.164   0.525  15.865 -0.4307  0.0618 -0.9724
  297MPD2    H7 4537   4.095   0.472  15.917  0.1310  0.0846 -0.2080
  298TMC3    C1 4538   4.002   0.564  15.700 -0.4023 -0.4407 -0.0663
  298TMC3    C2 4539   3.992   0.566  15.561  0.2037  0.1684  0.3349
  298TMC3    C3 4540   3.877   0.618  15.505  0.0311  0.1058 -0.7054
  298TMC3    C4 4541   3.906   0.633  15.772 -0.2019 -0.5069  0.1677
  298TMC3    C5 4542   3.791   0.679  15.713 -0.0050  0.1392  0.4048
  298TMC3    C6 4543   3.779   0.677  15.574 -0.2416  0.3815  0.0539
  298TMC3     C 4544   4.142   0.576  15.740  0.4195  0.2618  0.1905
  298TMC3     O 4545   4.219   0.614  15.657  0.5138 -0.0818  0.3787
  298TMC3     H 4546   4.065   0.509  15.505  0.0771 -1.1530  1.5031
  298TMC3    H1 4547   3.915   0.630  15.880  0.7838 -0.1606  0.0918
  298TMC3    H2 4548   3.695   0.722  15.523  0.8743  1.5964 -0.7047
  298TMC3    C7 4549   3.703   0.753  15.805  0.4189  0.0916 -0.2869
  298TMC3    C8 4550   3.879   0.620  15.362 -1.0256 -0.0210 -0.6547
  298TMC3    O1 4551   3.738   0.775  15.918 -0.1489  0.2073  0.2080
  298TMC3    O2 4552   3.933   0.521  15.317 -1.2009 -0.2411 -0.1218
  299MPD2     C 4553   0.059   4.710  10.402  0.1413 -0.7186  0.0673
  299MPD2    C1 4554   0.016   4.606  10.495  0.0885 -0.6186  0.6377
  299MPD2    C2 4555   4.637   4.530  10.462  0.1059 -0.5383  0.7021
  299MPD2    C3 4556   4.569   4.568  10.345  0.1034 -0.0938  0.2716
  299MPD2    C4 4557   4.608   4.677  10.278 -0.3665 -0.0873 -0.0118
  299MPD2    C5 4558   4.721   0.005  10.296  0.4359 -0.0074  0.2985
  299MPD2     H 4559   4.617   4.442  10.524 -0.4252 -1.0856 -0.2489
  299MPD2    H1 4560   4.567   4.704  10.181  1.7843 -0.5136 -1.0317
  299MPD2    H2 4561   0.145   0.037  10.418  0.4596 -1.1753  0.1784
  299MPD2    H3 4562   0.004   0.090  10.232  1.9813 -0.1723  0.5637
  299MPD2     N 4563   4.450   4.511  10.305  0.3890  0.3990  0.0795
  299MPD2    H5 4564   4.395   4.568  10.242 -1.0761 -0.2134  0.7921
  299MPD2    N1 4565   0.105   4.594  10.606 -0.0324  0.2500 -0.1223
  299MPD2    H7 4566   0.187   4.652  10.618  0.5549  0.1364 -3.4666
  300TMC3    C1 4567   4.259   4.376  10.296  0.8272  0.2797  0.5017
  300TMC3    C2 4568   4.233   4.443  10.184 -0.6385 -0.3009  0.6059
  300TMC3    C3 4569   4.111   4.491  10.163  0.0052  0.4702 -1.1157
  300TMC3    C4 4570   4.169   4.336  10.380  0.2119  0.1867  0.2482
  300TMC3    C5 4571   4.044   4.385  10.356 -0.0542  0.7368  0.9062
  300TMC3    C6 4572   4.013   4.462  10.250 -0.2388 -0.3040  0.6789
  300TMC3     C 4573   4.385   4.401  10.356  0.0412  0.7295 -0.0470
  300TMC3     O 4574   4.419   4.333  10.450  0.4995 -0.2117 -0.1383
  300TMC3     H 4575   4.312   4.480  10.119 -1.2179 -0.3979 -0.1557
  300TMC3    H1 4576   4.187   4.271  10.465 -1.0986 -0.3584  0.1149
  300TMC3    H2 4577   3.914   4.506  10.242  0.0991  0.5696  1.2791
  300TMC3    C7 4578   3.933   4.364  10.445 -0.5989  0.8519 -0.3331
  300TMC3    C8 4579   4.118   4.633  10.133  0.2213 -0.0705 -0.4092
  300TMC3    O1 4580   3.823   4.347  10.392  0.0267  0.0617  0.4397
  300TMC3    O2 4581   4.227   4.685  10.139 -0.1339  0.1197  0.0736
  301MPD2     C 4582   3.069   1.631   0.947 -0.5704 -0.1868 -0.4330
  301MPD2    C1 4583   2.957   1.613   0.871 -0.4091  0.3126  0.5756
  301MPD2    C2 4584   2.909   1.484   0.852 -0.3140 -0.1786  0.7423
  301MPD2    C3 4585   2.980   1.372   0.894 -0.0540  0.5574 -0.1330
  301MPD2    C4 4586   3.094   1.397   0.970  0.5296  0.8179  0.7928
  301MPD2    C5 4587   3.145   1.524   0.986 -0.2337 -0.0111  0.5503
  301MPD2     H 4588   2.811   1.467   0.810 -0.0413  0.7330 -0.2801
  301MPD2    H1 4589   3.143   1.309   1.009  1.3575  1.7074  1.7374
  301MPD2    H2 4590   3.095   1.729   0.987  0.1714 -0.3669 -0.4776
  301MPD2    H3 4591   3.232   1.548   1.046 -0.0761 -1.4007  0.8693
  301MPD2     N 4592   2.941   1.236   0.875 -0.2439 -0.7075  0.3523
  301MPD2    H5 4593   2.992   1.164   0.925 -0.7852 -0.5971  1.0726
  301MPD2    N1 4594   2.877   1.717   0.843  0.5181 -0.5139 -0.7524
  301MPD2    H7 4595   2.788   1.690   0.803  1.0105 -0.8451 -1.6189
  302TMC3    C1 4596   2.806   1.063   0.774  0.2643 -0.4494  0.4316
  302TMC3    C2 4597   2.856   0.972   0.863 -1.0223 -0.2115 -0.3916
  302TMC3    C3 4598   2.789   0.854   0.873  0.3205  0.2797  0.0847
  302TMC3    C4 4599   2.686   1.052   0.717  0.1416  0.1521  0.3051
  302TMC3    C5 4600   2.623   0.931   0.723 -0.4346  0.1962 -0.4785
  302TMC3    C6 4601   2.676   0.829   0.804  0.2315  0.2389 -0.2677
  302TMC3     C 4602   2.855   1.195   0.780  0.4354  0.1758 -0.0943
  302TMC3     O 4603   2.818   1.262   0.688  0.1153 -0.2110 -0.1578
  302TMC3     H 4604   2.948   0.988   0.917  0.0861 -0.0496 -2.3149
  302TMC3    H1 4605   2.667   1.134   0.649  0.5133  0.3704  0.4647
  302TMC3    H2 4606   2.647   0.725   0.796 -2.9474  1.1332 -0.3519
  302TMC3    C7 4607   2.520   0.904   0.618  0.4793  0.3309  0.4836
  302TMC3    C8 4608   2.821   0.768   0.982 -0.1173  0.2495  0.2615
  302TMC3    O1 4609   2.507   0.788   0.576 -0.5805  0.2236  0.0100
  302TMC3    O2 4610   2.931   0.795   1.025  0.2656  0.5401  0.3527
  303MPD2     C 4611   2.282   0.048  10.520  0.0980 -0.5536 -0.8811
  303MPD2    C1 4612   2.199   0.057  10.416  0.0597 -0.4967  1.0317
  303MPD2    C2 4613   2.246   0.034  10.283  0.4734  0.2241  0.2632
  303MPD2    C3 4614   2.386   0.010  10.260  0.0111 -0.0999  0.0879
  303MPD2    C4 4615   2.468   0.006  10.372 -0.4296  0.6448 -0.5131
  303MPD2    C5 4616   2.417   0.028  10.496  0.1967  0.9352 -1.0328
  303MPD2     H 4617   2.175   0.034  10.201  0.1656  1.5521  0.5317
  303MPD2    H1 4618   2.574   4.722  10.365 -0.1823  1.9536 -0.6916
  303MPD2    H2 4619   2.244   0.071  10.619  2.7313 -0.0612  0.0133
  303MPD2    H3 4620   2.486   0.025  10.579 -0.1913 -0.4165 -0.7538
  303MPD2     N 4621   2.438   4.709  10.137 -0.3175 -0.5337  0.2928
  303MPD2    H5 4622   2.538   4.698  10.123 -0.1067  2.4376 -0.6085
  303MPD2    N1 4623   2.059   0.075  10.447  0.0000 -0.0434  0.8226
  303MPD2    H7 4624   2.036   0.085  10.545  0.3362 -0.6431  0.9613
  304TMC3    C1 4625   1.823   0.065  10.421 -0.3647 -0.1277  0.3802
  304TMC3    C2 4626   1.711   0.092  10.344  0.1825 -0.1712  0.0917
  304TMC3    C3 4627   1.587   0.035  10.361  0.8973  0.1387 -0.2492
  304TMC3    C4 4628   1.815   4.706  10.519 -0.2291 -0.0635 -0.5874
  304TMC3    C5 4629   1.689   4.645  10.536 -0.3229  0.1710  0.1761
  304TMC3    C6 4630   1.572   4.687  10.470  0.1642 -1.0649  0.5234
  304TMC3     C 4631   1.955   0.092  10.359  0.4398 -0.3989 -0.0900
  304TMC3     O 4632   1.976   0.141  10.246  0.0879  0.6171  0.0186
  304TMC3     H 4633   1.728   0.148  10.253 -1.0327 -1.5280 -0.9652
  304TMC3    H1 4634   1.897   4.671  10.582  1.1580  1.6786 -1.4272
  304TMC3    H2 4635   1.480   4.631  10.482  0.8117 -2.2549 -0.0899
  304TMC3    C7 4636   1.681   4.505  10.557 -0.3156  0.3461  0.2091
  304TMC3    C8 4637   1.536   4.726  10.232 -0.4419  0.1074 -0.2788
  304TMC3    O1 4638   1.605   4.445  10.478  0.1158  0.3609 -0.2324
  304TMC3    O2 4639   1.531   0.061  10.135  0.3091  0.0199 -0.2892
  305MPD2     C 4640   0.788   1.872  13.593 -1.0553  0.7405  0.8627
  305MPD2    C1 4641   0.785   1.740  13.635  1.3637 -0.2994  0.5951
  305MPD2    C2 4642   0.769   1.636  13.541  0.6019 -0.4330 -0.3594
  305MPD2    C3 4643   0.749   1.659  13.407  1.3616 -0.2886  0.8640
  305MPD2    C4 4644   0.743   1.791  13.369  0.3478 -0.1224  1.0786
  305MPD2    C5 4645   0.763   1.891  13.461 -0.3756  0.1465  0.3232
  305MPD2     H 4646   0.760   1.533  13.573 -0.0257  0.3678  2.0977
  305MPD2    H1 4647   0.710   1.827  13.272  0.5032  0.3553  1.2010
  305MPD2    H2 4648   0.816   1.959  13.652 -1.1709  1.3466  0.0182
  305MPD2    H3 4649   0.752   1.992  13.422  1.3876  0.1980 -0.0414
  305MPD2     N 4650   0.741   1.553  13.309 -0.5675  0.0520 -0.2597
  305MPD2    H5 4651   0.701   1.574  13.219 -3.0845  3.6174  1.6651
  305MPD2    N1 4652   0.804   1.698  13.773  0.6718 -0.1971  0.6939
  305MPD2    H7 4653   0.805   1.598  13.792 -2.0648  0.2120  2.9305
  306TMC3    C1 4654   0.849   1.715  13.996  0.2232 -0.0147  0.1462
  306TMC3    C2 4655   0.966   1.633  13.989  0.4726 -0.0043 -0.1386
  306TMC3    C3 4656   1.013   1.589  14.111 -0.3062 -0.0357  0.7785
  306TMC3    C4 4657   0.785   1.742  14.116  0.2256  0.4614  0.2250
  306TMC3    C5 4658   0.845   1.685  14.228  0.2049 -0.0389 -0.2627
  306TMC3    C6 4659   0.961   1.617  14.230  0.5003  0.3990 -0.2490
  306TMC3     C 4660   0.799   1.783  13.879  1.0517  0.3153 -0.2594
  306TMC3     O 4661   0.778   1.902  13.890  0.2361 -0.1370  0.3174
  306TMC3     H 4662   1.016   1.614  13.895  0.8376  0.9383 -0.1410
  306TMC3    H1 4663   0.692   1.798  14.121 -0.1801 -0.2525  0.6115
  306TMC3    H2 4664   1.025   1.598  14.315 -0.3812 -1.2487  0.0289
  306TMC3    C7 4665   0.786   1.733  14.354 -1.0832  0.4237 -0.0810
  306TMC3    C8 4666   1.152   1.560  14.123  0.4891  0.2937 -0.2230
  306TMC3    O1 4667   0.681   1.795  14.338  0.3647 -0.1906  0.4175
  306TMC3    O2 4668   1.183   1.486  14.212 -0.5796 -0.8593  0.2189
  307MPD2     C 4669   3.659   0.226   0.210  0.8074  1.1675 -0.2185
  307MPD2    C1 4670   3.639   0.358   0.248 -0.0822  0.1555 -0.4259
  307MPD2    C2 4671   3.543   0.375   0.355 -0.1321 -0.6384  0.2862
  307MPD2    C3 4672   3.488   0.270   0.420 -0.8996  0.8778 -0.9211
  307MPD2    C4 4673   3.509   0.146   0.368  0.6900  0.7987 -0.4083
  307MPD2    C5 4674   3.595   0.127   0.275  0.5882 -0.0305 -0.3400
  307MPD2     H 4675   3.499   0.473   0.373  1.0834  0.3376 -2.0226
  307MPD2    H1 4676   3.464   0.061   0.417  1.3597  0.0238 -1.1397
  307MPD2    H2 4677   3.728   0.208   0.129 -1.6446 -0.7542 -1.8820
  307MPD2    H3 4678   3.611   0.023   0.248 -1.3238 -0.2729 -0.5658
  307MPD2     N 4679   3.398   0.293   0.520 -0.4856  0.4476  0.6190
  307MPD2    H5 4680   3.370   0.389   0.538 -1.1105  0.3746  0.0694
  307MPD2    N1 4681   3.669   0.466   0.156  0.4379  0.7545 -0.2883
  307MPD2    H7 4682   3.713   0.439   0.069  1.1054 -0.4696  0.4293
  308TMC3    C1 4683   3.058   0.217   0.836  0.0795  0.0420 -0.6575
  308TMC3    C2 4684   3.048   0.349   0.871  0.2835 -0.1455  0.0223
  308TMC3    C3 4685   3.129   0.435   0.801 -0.5535  0.1077 -0.4000
  308TMC3    C4 4686   3.149   0.171   0.750 -0.3082 -0.6227 -0.1515
  308TMC3    C5 4687   3.230   0.256   0.681  0.1841  0.0912 -0.6215
  308TMC3    C6 4688   3.225   0.390   0.712 -0.3560  0.2006 -0.2831
  308TMC3     C 4689   2.943   0.134   0.842  0.0597 -0.1193  0.9661
  308TMC3     O 4690   2.959   0.015   0.841  0.1862  0.3578 -0.0387
  308TMC3     H 4691   2.967   0.383   0.935  0.7195 -1.2002  1.1248
  308TMC3    H1 4692   3.144   0.067   0.719  0.5284 -0.8745  0.5508
  308TMC3    H2 4693   3.299   0.453   0.664 -0.6099 -0.0685 -1.0335
  308TMC3    C7 4694   3.320   0.198   0.580 -0.5038  0.5081  0.2474
  308TMC3    C8 4695   3.156   0.563   0.866  0.0512  0.4046 -0.2123
  308TMC3    O1 4696   3.295   0.080   0.558  0.0789  0.9931  0.2059
  308TMC3    O2 4697   3.161   0.572   0.985  0.0718  0.5325  0.3613
  309MPD2     C 4698   2.477   0.821  17.180  0.0599 -0.0261  0.2821
  309MPD2    C1 4699   2.405   0.771  17.073 -0.5545 -0.2084  0.0505
  309MPD2    C2 4700   2.271   0.734  17.090 -0.2743  0.5130  0.7876
  309MPD2    C3 4701   2.214   0.744  17.213  0.7729  0.4208 -1.0470
  309MPD2    C4 4702   2.291   0.783  17.323  0.1398 -0.5997 -0.4596
  309MPD2    C5 4703   2.426   0.814  17.310 -0.2495 -0.2296  0.1710
  309MPD2     H 4704   2.216   0.699  17.004 -0.3627 -0.7129  1.3332
  309MPD2    H1 4705   2.252   0.775  17.424 -0.0907 -1.0077 -0.5809
  309MPD2    H2 4706   2.579   0.855  17.169  0.1500 -0.3671  0.0589
  309MPD2    H3 4707   2.484   0.857  17.390 -0.4264  0.6564 -0.1721
  309MPD2     N 4708   2.075   0.724  17.245  0.7728 -0.0058 -0.2602
  309MPD2    H5 4709   2.047   0.715  17.342  1.4723 -1.2908 -0.1745
  309MPD2    N1 4710   2.461   0.755  16.944 -0.3159  0.2479 -0.0152
  309MPD2    H7 4711   2.398   0.719  16.873 -1.8318  1.6542  0.5939
  310TMC3    C1 4712   2.618   0.755  16.766  0.7281  0.5957 -0.6223
  310TMC3    C2 4713   2.510   0.775  16.681 -0.9523 -0.4192 -1.1221
  310TMC3    C3 4714   2.532   0.758  16.547 -0.7048  0.0610  0.1536
  310TMC3    C4 4715   2.739   0.711  16.720 -0.3501 -0.3346 -0.4466
  310TMC3    C5 4716   2.750   0.685  16.591 -0.7489  0.7854 -0.2080
  310TMC3    C6 4717   2.647   0.705  16.504 -0.1847 -0.1716  0.2982
  310TMC3     C 4718   2.594   0.761  16.913  0.0438  0.3836 -0.0287
  310TMC3     O 4719   2.687   0.758  16.993  0.0619 -0.4616 -0.0444
  310TMC3     H 4720   2.413   0.810  16.715 -0.7697  0.1026 -1.1422
  310TMC3    H1 4721   2.807   0.677  16.796  1.9708  3.9914 -0.6372
  310TMC3    H2 4722   2.640   0.666  16.403  0.0451 -1.3174  0.7237
  310TMC3    C7 4723   2.860   0.611  16.534 -0.4883 -0.2349  0.6477
  310TMC3    C8 4724   2.426   0.739  16.459 -0.9751 -0.2176  0.1247
  310TMC3    O1 4725   2.850   0.586  16.415 -0.1720  0.3188 -0.4835
  310TMC3    O2 4726   2.448   0.777  16.344  0.2032 -0.2089 -0.1211
  311MPD2     C 4727   4.368   1.487  11.967 -0.1313  0.0563  0.1068
  311MPD2    C1 4728   4.396   1.544  12.088  0.0153  0.3600 -0.9412
  311MPD2    C2 4729   4.289   1.568  12.175 -0.1185  0.1495  0.5081
  311MPD2    C3 4730   4.161   1.524  12.160 -0.1540  0.2138 -0.2423
  311MPD2    C4 4731   4.142   1.457  12.047  0.5865 -0.1278 -0.4345
  311MPD2    C5 4732   4.241   1.440  11.955  0.0779  0.1149 -0.0254
  311MPD2     H 4733   4.309   1.612  12.273  0.9622  0.5864  0.0859
  311MPD2    H1 4734   4.043   1.414  12.033  0.9765 -0.5246 -1.9844
  311MPD2    H2 4735   4.441   1.451  11.896 -0.2776 -3.7429  1.9039
  311MPD2    H3 4736   4.215   1.398  11.858  1.0373 -0.1212 -0.1823
  311MPD2     N 4737   4.065   1.556  12.259  0.6818 -0.7448 -0.1194
  311MPD2    H5 4738   4.097   1.555  12.355 -0.4867 -0.5416  0.2813
  311MPD2    N1 4739   4.528   1.589  12.132  0.5899 -0.2035 -0.0546
  311MPD2    H7 4740   4.538   1.635  12.222  0.0936  0.9814 -0.5940
  312TMC3    C1 4741   3.852   1.551  12.366  0.5371  0.6711 -0.7088
  312TMC3    C2 4742   3.772   1.442  12.378 -0.4368  0.1335 -0.3434
  312TMC3    C3 4743   3.773   1.385  12.506 -0.6663  0.1518  0.1886
  312TMC3    C4 4744   3.926   1.594  12.475  0.0192  0.3979  0.3438
  312TMC3    C5 4745   3.928   1.530  12.595  0.1967 -0.8586 -0.4050
  312TMC3    C6 4746   3.851   1.419  12.616 -0.5062  0.7621  0.4420
  312TMC3     C 4747   3.928   1.545  12.238 -0.0305  0.9417  0.5557
  312TMC3     O 4748   3.862   1.518  12.138  0.0491 -0.1185  0.3932
  312TMC3     H 4749   3.729   1.389  12.294  2.3884  1.5880 -2.7201
  312TMC3    H1 4750   3.995   1.678  12.464 -1.6302  1.5712 -0.9522
  312TMC3    H2 4751   3.836   1.380  12.716  0.7841  0.3393  0.4688
  312TMC3    C7 4752   3.951   1.614  12.708  0.2282  0.5166 -0.5365
  312TMC3    C8 4753   3.658   1.290  12.537  0.2269  0.3464 -0.0017
  312TMC3    O1 4754   3.933   1.735  12.690  0.0133  0.5853 -0.0411
  312TMC3    O2 4755   3.662   1.246  12.648 -0.6111  0.2841  0.2701
  313MPD2     C 4756   3.338   0.643  11.275 -0.5663  0.0696  0.2812
  313MPD2    C1 4757   3.414   0.676  11.161 -0.0221 -0.0831  0.4495
  313MPD2    C2 4758   3.511   0.587  11.120  0.2522 -0.2906  0.1381
  313MPD2    C3 4759   3.524   0.461  11.183  0.0134 -0.8543 -0.4389
  313MPD2    C4 4760   3.432   0.429  11.284  0.4704  0.1187  1.1544
  313MPD2    C5 4761   3.354   0.525  11.340  0.4553  0.4321  0.3975
  313MPD2     H 4762   3.568   0.611  11.031  1.1939  2.3564  1.4613
  313MPD2    H1 4763   3.443   0.336  11.339  0.0789  0.5468  1.9694
  313MPD2    H2 4764   3.282   0.723  11.323 -0.6344  0.4767 -0.4718
  313MPD2    H3 4765   3.290   0.504  11.424 -2.7546  1.2069 -1.8665
  313MPD2     N 4766   3.606   0.365  11.119  0.1518 -0.4981  0.2993
  313MPD2    H5 4767   3.658   0.407  11.042 -2.9404  1.1582 -0.9065
  313MPD2    N1 4768   3.411   0.803  11.104 -0.2977  0.4020 -0.2512
  313MPD2    H7 4769   3.480   0.826  11.033 -1.1027  0.7480 -0.9200
  314TMC3    C1 4770   3.327   1.004  11.021 -0.7416 -0.4004 -0.6494
  314TMC3    C2 4771   3.453   1.045  10.976 -0.2821 -0.6537 -0.0932
  314TMC3    C3 4772   3.465   1.131  10.872 -0.3110  0.4381  0.7141
  314TMC3    C4 4773   3.210   1.061  10.966 -0.0405 -0.2215 -0.1064
  314TMC3    C5 4774   3.232   1.166  10.883  0.9051 -0.3685  0.3105
  314TMC3    C6 4775   3.354   1.191  10.827  0.8718 -0.2460  0.1890
  314TMC3     C 4776   3.308   0.892  11.110  0.2949 -0.2342 -0.5581
  314TMC3     O 4777   3.197   0.873  11.155  0.5241 -0.3093 -0.3604
  314TMC3     H 4778   3.542   0.997  11.017  0.4037  2.1510  1.6907
  314TMC3    H1 4779   3.111   1.027  10.995 -0.9409 -0.0954 -3.0832
  314TMC3    H2 4780   3.362   1.280  10.764 -0.1420 -1.3938 -1.5580
  314TMC3    C7 4781   3.123   1.195  10.798  0.1181  0.4182  1.0555
  314TMC3    C8 4782   3.593   1.167  10.826 -0.1689  0.5122 -0.4679
  314TMC3    O1 4783   3.016   1.235  10.838 -0.1175 -0.4515 -0.1353
  314TMC3    O2 4784   3.589   1.226  10.716  0.2623 -0.4617 -0.3470
  315MPD2     C 4785   3.547   4.713  17.172 -0.0470 -0.1053 -1.2044
  315MPD2    C1 4786   3.613   0.009  17.287 -0.3923  0.1565  0.2467
  315MPD2    C2 4787   3.657   0.139  17.309 -0.2712 -0.0317 -0.0175
  315MPD2    C3 4788   3.643   0.237  17.214  0.5619 -0.0891 -0.1775
  315MPD2    C4 4789   3.591   0.204  17.094  0.1813  0.2696  0.0793
  315MPD2    C5 4790   3.541   0.077  17.076  0.1302 -0.8303  0.7718
  315MPD2     H 4791   3.694   0.170  17.406 -1.0794  0.8212  0.0153
  315MPD2    H1 4792   3.573   0.269  17.009 -1.0081 -1.7534 -1.2308
  315MPD2    H2 4793   3.503   4.616  17.155 -0.4448  0.2263 -2.0337
  315MPD2    H3 4794   3.485   0.074  16.983 -0.1516  0.1559  0.9172
  315MPD2     N 4795   3.688   0.364  17.242  0.2027 -0.1103  0.2208
  315MPD2    H5 4796   3.742   0.374  17.328 -0.6935  0.3727  0.7295
  315MPD2    N1 4797   3.631   4.648  17.392 -0.4026  0.0346 -0.7842
  315MPD2    H7 4798   3.676   4.678  17.477  1.0957  1.9464 -2.2384
  316TMC3    C1 4799   3.753   0.587  17.215 -0.4961  0.1298 -0.4890
  316TMC3    C2 4800   3.833   0.581  17.332  0.7941 -0.4659 -0.3075
  316TMC3    C3 4801   3.901   0.694  17.377 -0.7503  0.0106  0.2482
  316TMC3    C4 4802   3.746   0.709  17.144 -0.1577 -0.4187 -0.0793
  316TMC3    C5 4803   3.816   0.820  17.196  0.2822 -0.2060  1.1355
  316TMC3    C6 4804   3.873   0.817  17.320  0.2101 -0.2311 -0.4415
  316TMC3     C 4805   3.681   0.476  17.161 -0.3140  0.2835 -0.3470
  316TMC3     O 4806   3.651   0.481  17.045 -0.6145  0.4445  0.0791
  316TMC3     H 4807   3.831   0.490  17.392  0.1536  0.5772  1.2388
  316TMC3    H1 4808   3.693   0.708  17.049 -1.1390  2.6110  0.4589
  316TMC3    H2 4809   3.932   0.896  17.365  1.9531 -1.8450  0.1328
  316TMC3    C7 4810   3.809   0.951  17.132 -0.2106  0.4716  0.8101
  316TMC3    C8 4811   3.926   0.692  17.519 -0.6559  0.7172  0.0391
  316TMC3    O1 4812   3.855   1.047  17.197 -0.0777 -0.2038 -0.0920
  316TMC3    O2 4813   3.893   0.792  17.580  0.0979 -0.0522  0.1641
  317MPD2     C 4814   0.790   3.318  13.347 -0.2185  0.5185 -0.0306
  317MPD2    C1 4815   0.801   3.195  13.286  0.4619 -0.7225 -0.5383
  317MPD2    C2 4816   0.841   3.083  13.359  0.0751  0.2894  0.4233
  317MPD2    C3 4817   0.874   3.093  13.492  0.4562  0.0233  0.2416
  317MPD2    C4 4818   0.871   3.221  13.549 -0.3560 -0.1107  0.4381
  317MPD2    C5 4819   0.832   3.331  13.479 -0.6854 -0.0839 -0.3022
  317MPD2     H 4820   0.833   2.988  13.306  0.7291 -0.7460  2.1743
  317MPD2    H1 4821   0.894   3.237  13.654 -0.8555 -1.4796  0.7463
  317MPD2    H2 4822   0.767   3.406  13.287  0.2773  0.4259 -0.3560
  317MPD2    H3 4823   0.838   3.428  13.527  0.5695  0.1719 -0.9838
  317MPD2     N 4824   0.888   2.978  13.574  0.2022  0.3549  0.1041
  317MPD2    H5 4825   0.905   2.989  13.674 -2.4268  2.4582  0.3358
  317MPD2    N1 4826   0.774   3.163  13.152  0.4217  0.6182 -0.3143
  317MPD2    H7 4827   0.776   3.065  13.126  1.6453  0.3794  0.6691
  318TMC3    C1 4828   0.824   2.774  13.654 -0.0945  0.0014  0.0234
  318TMC3    C2 4829   0.738   2.672  13.626  0.2421 -0.1978 -0.0167
  318TMC3    C3 4830   0.769   2.547  13.676  0.5597 -0.0234  0.0734
  318TMC3    C4 4831   0.947   2.755  13.719  0.9457 -0.7062 -0.8299
  318TMC3    C5 4832   0.976   2.632  13.770 -0.0272 -0.2019 -0.1427
  318TMC3    C6 4833   0.887   2.526  13.746  0.2007  0.0953 -0.2640
  318TMC3     C 4834   0.832   2.865  13.539  0.0848  0.2143 -0.5542
  318TMC3     O 4835   0.772   2.828  13.441  0.6844  0.1439  0.8781
  318TMC3     H 4836   0.641   2.695  13.584  0.3232 -1.4454 -0.9131
  318TMC3    H1 4837   1.018   2.837  13.720  0.7479 -0.5224 -1.8410
  318TMC3    H2 4838   0.909   2.427  13.785  0.4633 -0.1156 -0.9500
  318TMC3    C7 4839   1.097   2.622  13.851 -0.0104 -0.0832 -0.7437
  318TMC3    C8 4840   0.730   2.437  13.598  0.5175 -0.3043  0.1900
  318TMC3    O1 4841   1.178   2.713  13.840 -0.1492 -0.0158  0.1900
  318TMC3    O2 4842   0.771   2.325  13.635 -0.4185  0.1916 -0.0060
  319MPD2     C 4843   1.898   0.234  16.538 -0.3832 -0.2884 -0.1926
  319MPD2    C1 4844   1.858   0.111  16.578 -0.0385 -0.3261  0.5566
  319MPD2    C2 4845   1.799   0.032  16.486  0.1952  0.0618 -0.2793
  319MPD2    C3 4846   1.773   0.079  16.355  0.6548  0.1751 -0.6590
  319MPD2    C4 4847   1.826   0.201  16.308  0.2484 -0.5555  0.3160
  319MPD2    C5 4848   1.884   0.278  16.403 -0.2263  0.1907 -0.2599
  319MPD2     H 4849   1.753   4.671  16.498 -0.6632  0.5943  0.7566
  319MPD2    H1 4850   1.814   0.234  16.206  1.1116 -0.7327  0.1607
  319MPD2    H2 4851   1.971   0.294  16.591 -1.3080 -0.2051  0.9706
  319MPD2    H3 4852   1.926   0.373  16.370  1.0956 -0.3223 -0.0379
  319MPD2     N 4853   1.704   0.007  16.253 -0.5596  0.3882  0.0694
  319MPD2    H5 4854   1.713   0.045  16.159  2.0062  2.2938  1.0753
  319MPD2    N1 4855   1.896   0.051  16.698  0.4856 -0.1138  0.2627
  319MPD2    H7 4856   1.889   4.686  16.700  1.8893 -0.2225 -0.7994
  320TMC3    C1 4857   1.572   4.569  16.161 -0.4349 -0.2426 -0.5959
  320TMC3    C2 4858   1.512   4.652  16.073 -0.7881 -0.3050 -0.1266
  320TMC3    C3 4859   1.435   4.595  15.978 -0.1556  0.0961  0.1422
  320TMC3    C4 4860   1.535   4.438  16.176 -0.3704  0.1308 -0.1776
  320TMC3    C5 4861   1.447   4.386  16.086  0.1725 -0.2107  0.6264
  320TMC3    C6 4862   1.395   4.467  15.988 -0.4431 -0.3321  0.2864
  320TMC3     C 4863   1.639   4.626  16.274 -0.4314  0.1279 -0.2043
  320TMC3     O 4864   1.596   4.577  16.378 -0.7488  0.4935  0.1186
  320TMC3     H 4865   1.546   0.018  16.064 -1.3410 -0.2014 -1.0613
  320TMC3    H1 4866   1.586   4.378  16.250 -0.3709  1.7479  1.1481
  320TMC3    H2 4867   1.307   4.431  15.936  0.3244  0.1011 -1.3149
  320TMC3    C7 4868   1.395   4.258  16.097  0.3195 -0.2859  0.2243
  320TMC3    C8 4869   1.352   4.695  15.909  0.1081 -0.6806  0.6066
  320TMC3    O1 4870   1.333   4.197  16.010  0.3232  0.0141 -0.4557
  320TMC3    O2 4871   1.361   0.075  15.940 -0.3422 -0.0553 -0.1215
  321TMC3    C1 4872   2.025   0.014  16.889 -0.3087  0.0052 -0.4008
  321TMC3    C2 4873   1.956   4.634  16.914  0.6640 -0.5640 -0.1022
  321TMC3    C3 4874   2.037   4.529  16.955  0.6650 -0.1367 -0.0460
  321TMC3    C4 4875   2.163   0.040  16.929 -0.2131  0.3819  0.1452
  321TMC3    C5 4876   2.225   4.670  16.987  0.4958  0.3984  0.0145
  321TMC3    C6 4877   2.171   4.545  16.988  0.6874  0.3218 -0.4018
  321TMC3     C 4878   1.968   0.112  16.800 -0.4523  0.2605 -0.4201
  321TMC3     O 4879   1.984   0.233  16.815  0.4346  0.1685 -0.0260
  321TMC3     H 4880   1.848   4.635  16.901  0.7489  1.6335 -0.6248
  321TMC3    H1 4881   2.205   0.140  16.936 -2.0261  1.2271 -0.9744
  321TMC3    H2 4882   2.236   4.459  17.000  0.1120 -0.3725 -2.2508
  321TMC3    C7 4883   2.291   4.688  17.113  0.2175 -0.0435 -0.4752
  321TMC3    C8 4884   1.976   4.444  17.060 -0.2818 -0.0475 -0.0966
  321TMC3    O1 4885   2.310   4.588  17.183 -0.0956  0.1633  0.0730
  321TMC3    O2 4886   1.864   4.398  17.042  0.1178  0.1068  0.9699
  322MPD2     C 4887   0.567   1.056  13.474 -0.2844  0.1166  0.0683
  322MPD2    C1 4888   0.661   0.996  13.556 -0.3406  0.5366 -0.5910
  322MPD2    C2 4889   0.707   0.869  13.522  0.5111  0.4245  0.3713
  322MPD2    C3 4890   0.683   0.816  13.395  0.1153  0.6812  0.0739
  322MPD2    C4 4891   0.605   0.889  13.311  0.6867 -0.4310  0.3305
  322MPD2    C5 4892   0.545   1.004  13.356  0.0905  0.2022  0.2193
  322MPD2     H 4893   0.775   0.825  13.595  0.5111 -1.4592 -0.7443
  322MPD2    H1 4894   0.586   0.851  13.211  0.6901 -0.9180  0.5122
  322MPD2    H2 4895   0.526   1.151  13.506  0.7020 -0.1208  2.0574
  322MPD2    H3 4896   0.487   1.062  13.286 -2.0124 -0.6367  1.2883
  322MPD2     N 4897   0.745   0.693  13.366  0.1018 -0.0180  0.1794
  322MPD2    H5 4898   0.802   0.641  13.432 -0.4792 -2.2747 -1.0860
  322MPD2    N1 4899   0.710   1.055  13.675  0.7595 -0.5335  0.4341
  322MPD2    H7 4900   0.781   1.004  13.728 -0.9587 -4.1936 -0.7894
  323TMC3    C1 4901   0.803   1.223  13.787  0.4606  0.2477  0.4776
  323TMC3    C2 4902   0.882   1.318  13.733  0.3572 -0.0167 -0.0743
  323TMC3    C3 4903   1.000   1.344  13.797  0.0696 -0.2023  1.2855
  323TMC3    C4 4904   0.835   1.156  13.903 -0.4630 -0.2173 -0.1429
  323TMC3    C5 4905   0.941   1.197  13.974 -0.6168 -0.7154  0.0988
  323TMC3    C6 4906   1.024   1.297  13.927  0.4373 -0.7322 -0.4677
  323TMC3     C 4907   0.689   1.189  13.711  0.0069 -0.1324  0.3066
  323TMC3     O 4908   0.624   1.280  13.661  0.0718 -0.2037 -0.3218
  323TMC3     H 4909   0.853   1.363  13.639 -0.5786  0.6743  0.5376
  323TMC3    H1 4910   0.778   1.076  13.948  0.8779  0.5435  2.9545
  323TMC3    H2 4911   1.116   1.312  13.982 -1.6759  2.1022  2.2665
  323TMC3    C7 4912   0.996   1.105  14.073  0.3791  0.3573  0.1363
  323TMC3    C8 4913   1.105   1.413  13.729  0.2289 -0.0019  0.2420
  323TMC3    O1 4914   0.968   0.986  14.055 -0.0737  0.2928 -0.4958
  323TMC3    O2 4915   1.207   1.424  13.793 -0.0023  0.1748 -0.4164
  324MPD2     C 4916   3.068   2.235  13.637 -0.7121  0.2409 -0.2300
  324MPD2    C1 4917   3.075   2.262  13.774  0.2615  0.5036 -0.2655
  324MPD2    C2 4918   2.970   2.210  13.850 -0.9919  0.2691  0.2889
  324MPD2    C3 4919   2.869   2.135  13.793  0.0479 -0.0432 -0.2213
  324MPD2    C4 4920   2.883   2.099  13.662  0.3152  0.0118  0.1240
  324MPD2    C5 4921   2.979   2.144  13.584  1.2189 -0.0296 -0.4149
  324MPD2     H 4922   2.974   2.243  13.953 -1.3675 -0.7041  0.6179
  324MPD2    H1 4923   2.815   2.032  13.611 -1.1073  2.0331 -0.6438
  324MPD2    H2 4924   3.145   2.263  13.568 -1.8446  0.9630 -1.2010
  324MPD2    H3 4925   2.988   2.112  13.481 -1.0668 -0.5900 -0.4446
  324MPD2     N 4926   2.749   2.100  13.866 -0.1546  0.6471  0.3908
  324MPD2    H5 4927   2.677   2.052  13.813 -1.1220  2.6241 -0.0718
  324MPD2    N1 4928   3.182   2.339  13.825 -0.2866 -0.7692 -0.6041
  324MPD2    H7 4929   3.169   2.389  13.912 -0.5537 -0.8769 -0.5810
  325TMC3    C1 4930   2.581   2.063  14.035  0.6503 -0.2115  0.3865
  325TMC3    C2 4931   2.484   2.056  13.944  1.1418 -0.0519 -0.2421
  325TMC3    C3 4932   2.368   2.001  13.982  0.0834 -0.1547  0.1032
  325TMC3    C4 4933   2.567   2.015  14.165 -0.6204  0.6794 -0.3785
  325TMC3    C5 4934   2.449   1.962  14.198  0.0198  0.3194 -0.3045
  325TMC3    C6 4935   2.342   1.955  14.111  0.5886 -0.8040  0.6185
  325TMC3     C 4936   2.718   2.110  14.000 -0.3383 -0.2467 -0.2022
  325TMC3     O 4937   2.787   2.161  14.090  0.6990 -0.5488 -0.3368
  325TMC3     H 4938   2.490   2.095  13.842  1.8017 -0.4132 -0.3371
  325TMC3    H1 4939   2.647   2.016  14.237 -0.3057 -0.3709 -0.7205
  325TMC3    H2 4940   2.254   1.894  14.132  1.4724 -2.6579 -1.0347
  325TMC3    C7 4941   2.449   1.876  14.309 -0.0883 -0.7527 -0.6061
  325TMC3    C8 4942   2.281   1.953  13.882  0.1965  0.3518  0.0055
  325TMC3    O1 4943   2.564   1.840  14.339 -0.0965  0.1249  0.1186
  325TMC3    O2 4944   2.319   1.958  13.766  0.3689  0.4417 -0.2232
  326MPD2     C 4945   3.441   3.080  10.974 -0.2748 -0.5567 -0.1869
  326MPD2    C1 4946   3.341   3.138  10.899  0.5072  0.4566  0.3417
  326MPD2    C2 4947   3.369   3.247  10.814 -0.6207 -0.3478 -0.3208
  326MPD2    C3 4948   3.495   3.299  10.819 -0.0942 -0.4726 -0.0142
  326MPD2    C4 4949   3.592   3.251  10.902  0.0578 -0.5503 -0.2013
  326MPD2    C5 4950   3.566   3.141  10.978  0.3625  0.4870 -0.5327
  326MPD2     H 4951   3.288   3.284  10.752 -0.7228  0.7777  0.4815
  326MPD2    H1 4952   3.690   3.296  10.890 -0.7964  1.1016 -0.9644
  326MPD2    H2 4953   3.429   2.993  11.037  0.2798 -1.4412 -1.3088
  326MPD2    H3 4954   3.635   3.098  11.051  0.6581  0.9298 -0.5555
  326MPD2     N 4955   3.537   3.415  10.741  0.1588 -0.4236  0.5359
  326MPD2    H5 4956   3.635   3.439  10.753  0.6107 -1.9225 -0.0678
  326MPD2    N1 4957   3.209   3.087  10.885  0.6892 -0.4040 -0.2325
  326MPD2    H7 4958   3.157   3.141  10.817  1.3241 -0.3647 -0.6854
  327TMC3    C1 4959   3.029   2.945  10.907  0.1000 -0.2652 -0.5830
  327TMC3    C2 4960   2.947   3.040  10.945 -0.2850 -0.3646 -0.1063
  327TMC3    C3 4961   2.871   3.105  10.844 -0.3474 -0.1057 -0.1307
  327TMC3    C4 4962   3.043   2.909  10.772 -0.2210 -0.0608  0.5578
  327TMC3    C5 4963   2.955   2.956  10.675  0.0519 -0.4414 -0.0846
  327TMC3    C6 4964   2.870   3.052  10.713 -0.7577  0.1261  0.0366
  327TMC3     C 4965   3.164   2.974  10.951 -0.4041  0.3525 -0.5623
  327TMC3     O 4966   3.215   2.897  11.028  0.2425 -0.0360  0.7253
  327TMC3     H 4967   2.942   3.069  11.049 -3.4734  0.0104 -0.3883
  327TMC3    H1 4968   3.124   2.840  10.749  0.2199  0.4854  0.4558
  327TMC3    H2 4969   2.792   3.088  10.646  0.2414  0.5876 -0.8756
  327TMC3    C7 4970   3.017   2.996  10.551  0.2306 -0.2879  0.1704
  327TMC3    C8 4971   2.767   3.202  10.880 -0.4158  0.5780 -0.1458
  327TMC3    O1 4972   2.949   3.060  10.471 -0.6415 -0.1332 -0.5664
  327TMC3    O2 4973   2.697   3.182  10.985  0.1091 -0.2731  0.0580
  328MPD2     C 4974   1.205   3.525  17.191 -0.2345  0.1950 -0.1090
  328MPD2    C1 4975   1.108   3.430  17.175  0.1101 -0.5433 -0.3021
  328MPD2    C2 4976   1.049   3.422  17.054 -0.5034  0.0190 -0.8320
  328MPD2    C3 4977   1.064   3.516  16.950  0.3412 -0.0281  0.2898
  328MPD2    C4 4978   1.157   3.615  16.974  0.3544 -0.0732 -0.8622
  328MPD2    C5 4979   1.228   3.622  17.096  0.2849  0.1108 -1.0103
  328MPD2     H 4980   0.981   3.340  17.035  0.9750 -1.0778 -1.3889
  328MPD2    H1 4981   1.170   3.697  16.904 -0.3284  0.7564 -0.0075
  328MPD2    H2 4982   1.266   3.552  17.276 -0.7252  0.7205  0.0820
  328MPD2    H3 4983   1.301   3.701  17.106  1.6311 -1.1746 -0.6090
  328MPD2     N 4984   0.991   3.510  16.825  0.0397 -0.7436 -0.3024
  328MPD2    H5 4985   1.022   3.585  16.764  2.9154 -1.0073  0.8748
  328MPD2    N1 4986   1.058   3.342  17.271  0.7679  0.1359 -0.0851
  328MPD2    H7 4987   0.996   3.267  17.241 -1.0583  1.8460 -0.6099
  329TMC3    C1 4988   0.998   3.253  17.491 -0.3406 -0.5742 -0.2796
  329TMC3    C2 4989   0.961   3.299  17.613 -0.0703 -0.7314 -0.2238
  329TMC3    C3 4990   0.863   3.229  17.678  0.9155 -0.0234  1.0593
  329TMC3    C4 4991   0.940   3.142  17.434 -0.3226  0.4139  0.2037
  329TMC3    C5 4992   0.844   3.075  17.503 -0.1768 -0.0934 -0.8797
  329TMC3    C6 4993   0.813   3.108  17.631  0.6046  0.7780  0.1325
  329TMC3     C 4994   1.081   3.349  17.410 -0.1065 -0.1767  0.1423
  329TMC3     O 4995   1.167   3.417  17.464 -0.5136 -0.2388 -0.1565
  329TMC3     H 4996   1.024   3.373  17.662 -2.1165  0.8235  0.0353
  329TMC3    H1 4997   0.976   3.100  17.341  3.3527  0.5854  1.5508
  329TMC3    H2 4998   0.748   3.042  17.687 -2.4215  2.0281 -1.9113
  329TMC3    C7 4999   0.780   2.963  17.435  0.2131  0.0345 -0.3131
  329TMC3    C8 5000   0.816   3.269   0.064  0.0803 -0.0671 -0.3978
  329TMC3    O1 5001   0.838   2.900  17.346  0.2679 -0.3025  0.0588
  329TMC3    O2 5002   0.776   3.166   0.121  0.0269  0.3467  0.5620
  330TMC3    C1 5003   3.534   2.911   9.168  0.5256  0.5120 -0.1962
  330TMC3    C2 5004   3.458   2.816   9.119 -0.5918  0.6483 -0.6200
  330TMC3    C3 5005   3.448   2.698   9.187 -0.4308 -0.0567  0.4095
  330TMC3    C4 5006   3.591   2.896   9.287  0.6997 -0.1258  0.2349
  330TMC3    C5 5007   3.579   2.778   9.356 -0.6010  0.0886  0.5015
  330TMC3    C6 5008   3.508   2.670   9.303  0.2065 -0.2451  0.2867
  330TMC3     C 5009   3.571   3.024   9.088  0.2415  0.4375  0.5563
  330TMC3     O 5010   3.482   3.061   9.012 -0.2791 -0.4939 -0.1784
  330TMC3     H 5011   3.420   2.828   9.018 -0.0394 -1.6216 -1.1014
  330TMC3    H1 5012   3.663   2.972   9.316 -0.6620  0.7935  1.2322
  330TMC3    H2 5013   3.484   2.588   9.369  1.3640 -0.8014  0.0096
  330TMC3    C7 5014   3.666   2.756   9.465 -0.4508 -0.6726  0.5681
  330TMC3    C8 5015   3.351   2.601   9.123  0.0241 -0.7829  0.1318
  330TMC3    O1 5016   3.703   2.857   9.519 -0.4951  0.4499 -0.5441
  330TMC3    O2 5017   3.287   2.646   9.027  0.0228 -0.1876  0.6114
  331MPD2     C 5018   2.396   1.371  12.668  0.4885  0.2749 -0.5941
  331MPD2    C1 5019   2.363   1.263  12.593  0.3932  0.3080 -0.4164
  331MPD2    C2 5020   2.313   1.151  12.652  0.8780  0.8239  0.2211
  331MPD2    C3 5021   2.304   1.144  12.791  0.4805  0.1578 -0.5543
  331MPD2    C4 5022   2.332   1.260  12.866  0.1796 -0.0805 -0.5957
  331MPD2    C5 5023   2.390   1.362  12.804  0.9947 -0.1323 -0.0511
  331MPD2     H 5024   2.293   1.059  12.598  2.6188 -1.0597  2.8013
  331MPD2    H1 5025   2.329   1.277  12.973  1.5333 -2.2891 -0.2222
  331MPD2    H2 5026   2.438   1.459  12.620  1.5481 -0.1189 -0.3867
  331MPD2    H3 5027   2.418   1.453  12.855 -1.7915  0.1289  0.9743
  331MPD2     N 5028   2.253   1.022  12.849 -0.1258 -0.0627  0.3535
  331MPD2    H5 5029   2.219   0.952  12.784  1.0449 -1.4897  1.2600
  331MPD2    N1 5030   2.380   1.279  12.451  0.0410 -0.6518 -0.6794
  331MPD2    H7 5031   2.396   1.376  12.424  1.5195 -0.5336  0.6397
  332TMC3    C1 5032   2.140   0.897  13.006  0.3023 -0.0630 -0.1461
  332TMC3    C2 5033   2.042   0.874  12.912  0.6914 -0.1423  0.3836
  332TMC3    C3 5034   1.994   0.747  12.910 -0.1932 -0.2987 -0.5272
  332TMC3    C4 5035   2.209   0.797  13.074 -0.3809 -0.9902  0.3462
  332TMC3    C5 5036   2.157   0.672  13.061 -0.0655  0.2505  0.8149
  332TMC3    C6 5037   2.051   0.639  12.982 -0.4285  0.4351 -0.6673
  332TMC3     C 5038   2.234   1.007  12.986  0.6922 -0.0625 -0.6974
  332TMC3     O 5039   2.277   1.063  13.087  0.0681  0.4602 -0.0027
  332TMC3     H 5040   2.014   0.961  12.855 -2.8187 -0.4603  1.6162
  332TMC3    H1 5041   2.292   0.822  13.139  0.5950  0.8309 -1.5948
  332TMC3    H2 5042   2.020   0.536  12.989 -1.1192  0.6038 -1.1825
  332TMC3    C7 5043   2.249   0.565  13.094  0.3205  0.0831  0.7752
  332TMC3    C8 5044   1.886   0.723  12.818  0.4024  0.7070 -0.0522
  332TMC3    O1 5045   2.195   0.460  13.121  0.4207  0.6561  0.1245
  332TMC3    O2 5046   1.882   0.789  12.715  0.1569  0.4350 -0.6680
  333MPD2     C 5047   1.537   1.771  10.849  0.1852 -0.5415 -0.1577
  333MPD2    C1 5048   1.600   1.691  10.762  0.0898 -0.4218 -0.0833
  333MPD2    C2 5049   1.595   1.552  10.786  0.4370  0.5392  0.7563
  333MPD2    C3 5050   1.553   1.507  10.911 -0.0783 -0.1220 -0.5663
  333MPD2    C4 5051   1.484   1.590  10.996  0.0079  0.3213  0.1073
  333MPD2    C5 5052   1.482   1.726  10.964 -0.7673 -0.3509 -0.2301
  333MPD2     H 5053   1.638   1.483  10.714 -0.3606 -0.2290  1.0147
  333MPD2    H1 5054   1.428   1.560  11.085  1.0886 -0.6088  0.4716
  333MPD2    H2 5055   1.542   1.878  10.830  0.3699 -0.6194 -0.5382
  333MPD2    H3 5056   1.427   1.797  11.025 -1.4521  0.0376 -1.3045
  333MPD2     N 5057   1.560   1.366  10.929 -0.1019 -0.1540  0.3249
  333MPD2    H5 5058   1.595   1.311  10.852 -3.0486 -1.7995  0.1391
  333MPD2    N1 5059   1.657   1.758  10.646  0.2066  0.5927 -0.5843
  333MPD2    H7 5060   1.658   1.859  10.650  0.1436  0.4650  2.3838
  334TMC3    C1 5061   1.842   1.780  10.496 -0.0649 -0.2709 -0.4362
  334TMC3    C2 5062   1.901   1.742  10.381  0.1566  0.0929 -0.4453
  334TMC3    C3 5063   2.011   1.820  10.336  0.0565  0.3577  0.1191
  334TMC3    C4 5064   1.886   1.888  10.570 -0.3330  0.2409  0.5838
  334TMC3    C5 5065   1.987   1.961  10.522  0.1199  0.2874 -0.3298
  334TMC3    C6 5066   2.065   1.922  10.416  0.3546  0.3326  0.3162
  334TMC3     C 5067   1.731   1.698  10.547  0.5746 -0.0468  0.2190
  334TMC3     O 5068   1.733   1.579  10.522  0.0774 -0.4847  0.7754
  334TMC3     H 5069   1.867   1.660  10.320  1.6046  0.7347 -2.1392
  334TMC3    H1 5070   1.859   1.897  10.674  0.0601  1.6520  0.5607
  334TMC3    H2 5071   2.143   1.984  10.373 -0.0458  1.1010  0.6938
  334TMC3    C7 5072   2.021   2.091  10.579  0.3765 -0.0738 -0.5027
  334TMC3    C8 5073   2.085   1.771  10.225  0.4948  0.2865 -0.2729
  334TMC3    O1 5074   2.113   2.156  10.530  0.7636  0.6452  0.6290
  334TMC3    O2 5075   2.027   1.677  10.170 -0.3551 -0.1906  0.3378
  335TMC3    C1 5076   2.097   3.578  17.173  0.8308 -0.5067 -0.3633
  335TMC3    C2 5077   2.008   3.532  17.090  1.0684 -0.3940  0.4366
  335TMC3    C3 5078   2.039   3.512  16.961  0.1913 -0.0475 -0.7514
  335TMC3    C4 5079   2.228   3.594  17.134 -0.2201  0.0714 -0.2778
  335TMC3    C5 5080   2.252   3.585  16.999  0.2856  0.0532 -0.8135
  335TMC3    C6 5081   2.155   3.556  16.908  0.1473 -0.9309  0.3868
  335TMC3     C 5082   2.067   3.635  17.302 -0.3045 -0.2464  0.6287
  335TMC3     O 5083   1.964   3.597  17.357  0.2736 -0.2161  0.3361
  335TMC3     H 5084   1.910   3.494  17.118  0.0138  1.8453 -0.1621
  335TMC3    H1 5085   2.309   3.617  17.203  1.0564 -1.1325 -1.3575
  335TMC3    H2 5086   2.171   3.566  16.801 -1.3574 -1.8955  0.0648
  335TMC3    C7 5087   2.382   3.543  16.966 -0.2538  0.3715 -0.1307
  335TMC3    C8 5088   1.992   3.399  16.889  0.0905  0.1369  0.2494
  335TMC3    O1 5089   2.464   3.562  17.051 -0.7499  0.3814  0.4800
  335TMC3    O2 5090   2.047   3.371  16.784  0.2044  0.3864  0.1679
  336MPD2     C 5091   1.341   1.085  15.608  0.4251 -0.4919 -1.5070
  336MPD2    C1 5092   1.395   0.977  15.545 -0.0565  0.1317  0.4123
  336MPD2    C2 5093   1.447   0.883  15.628 -0.3492  0.1053  0.8466
  336MPD2    C3 5094   1.458   0.890  15.767  0.2163  0.9550 -0.2702
  336MPD2    C4 5095   1.417   1.007  15.824  0.3307  0.1803 -0.7560
  336MPD2    C5 5096   1.355   1.103  15.743  0.2580  0.7769  0.5339
  336MPD2     H 5097   1.483   0.789  15.590  0.5659  0.6494  0.3676
  336MPD2    H1 5098   1.423   1.023  15.931 -1.8223 -1.7524 -0.3299
  336MPD2    H2 5099   1.305   1.169  15.550  0.0926 -0.1873 -0.8715
  336MPD2    H3 5100   1.314   1.186  15.798 -0.4066  0.4477  0.5444
  336MPD2     N 5101   1.518   0.786  15.849  0.8146 -0.4422 -0.0782
  336MPD2    H5 5102   1.519   0.809  15.948 -1.5552 -0.4690 -0.0467
  336MPD2    N1 5103   1.390   0.981  15.406  0.1447  1.0944 -0.0036
  336MPD2    H7 5104   1.341   1.058  15.361 -1.7585  0.1143  0.3527
  337TMC3    C1 5105   1.436   0.893  15.198  0.1093  0.0684  0.3259
  337TMC3    C2 5106   1.314   0.943  15.159  0.3245  0.6979 -0.0870
  337TMC3    C3 5107   1.288   0.954  15.023  0.5456 -0.2095 -0.8099
  337TMC3    C4 5108   1.534   0.857  15.103 -0.5404  0.3996  0.2765
  337TMC3    C5 5109   1.501   0.871  14.973 -0.1565  0.5744 -1.1039
  337TMC3    C6 5110   1.378   0.908  14.926  0.1937  0.4537 -0.8984
  337TMC3     C 5111   1.475   0.902  15.341 -0.2140 -0.3428  0.2174
  337TMC3     O 5112   1.590   0.861  15.375  0.5978 -0.1258 -0.3328
  337TMC3     H 5113   1.236   0.954  15.233  1.7374 -0.0332  1.5087
  337TMC3    H1 5114   1.627   0.807  15.129 -0.9686 -0.7509 -0.4060
  337TMC3    H2 5115   1.355   0.921  14.821  2.0494 -1.9281 -1.5840
  337TMC3    C7 5116   1.563   0.773  14.887 -0.2838 -0.1560  0.4453
  337TMC3    C8 5117   1.180   1.027  14.985 -0.5426  0.4073 -0.1387
  337TMC3    O1 5118   1.488   0.684  14.848 -0.0587  0.1068  0.5557
  337TMC3    O2 5119   1.120   1.084  15.079  0.1048  0.3157  0.1585
  338MPD2     C 5120   1.991   0.904   0.839  0.0806 -0.0149 -0.6190
  338MPD2    C1 5121   1.938   0.849   0.720  0.5048  0.2422 -0.7656
  338MPD2    C2 5122   1.811   0.874   0.684  0.2685  0.2036  0.2618
  338MPD2    C3 5123   1.726   0.942   0.768  0.2091 -0.7273 -0.8228
  338MPD2    C4 5124   1.767   0.982   0.891  0.4068 -0.1774  0.4415
  338MPD2    C5 5125   1.897   0.966   0.927 -0.0050  0.5423  0.0897
  338MPD2     H 5126   1.784   0.843   0.583 -0.4174  1.8934 -0.0723
  338MPD2    H1 5127   1.693   1.006   0.967 -1.3781 -1.8989 -0.7478
  338MPD2    H2 5128   2.095   0.900   0.867  0.1909 -1.6243 -1.3139
  338MPD2    H3 5129   1.934   0.981   1.027  1.5533 -2.0174 -0.0936
  338MPD2     N 5130   1.598   0.959   0.714  0.0035 -0.0016  0.0277
  338MPD2    H5 5131   1.574   0.922   0.623 -0.5184 -0.6020  0.4039
  338MPD2    N1 5132   2.021   0.790   0.623  0.5157 -0.1617  0.3885
  338MPD2    H7 5133   1.969   0.747   0.547  1.3428 -1.9383  0.8179
  339TMC3    C1 5134   1.405   1.092   0.684  0.2901  0.0384 -0.5748
  339TMC3    C2 5135   1.287   1.134   0.736  0.5111 -0.5436  0.5903
  339TMC3    C3 5136   1.188   1.169   0.647 -0.9117 -0.2087 -0.6314
  339TMC3    C4 5137   1.430   1.092   0.547 -0.0039 -0.4237  0.0732
  339TMC3    C5 5138   1.326   1.131   0.456  0.3561 -0.2360  1.0153
  339TMC3    C6 5139   1.202   1.164   0.509 -0.1457  0.3613  0.0901
  339TMC3     C 5140   1.507   1.035   0.774 -0.7768  0.5839  0.0964
  339TMC3     O 5141   1.495   1.080   0.889  0.1132  0.2477  0.1856
  339TMC3     H 5142   1.268   1.132   0.843  2.9974  0.2453  1.0407
  339TMC3    H1 5143   1.534   1.086   0.516  0.1501 -1.2471  0.7364
  339TMC3    H2 5144   1.111   1.168   0.451  0.7052 -0.7991 -1.3020
  339TMC3    C7 5145   1.349   1.147   0.308  0.6527  0.0299  0.3779
  339TMC3    C8 5146   1.059   1.132   0.684  0.2268  0.1660  0.3367
  339TMC3    O1 5147   1.277   1.228   0.249 -0.3978 -0.0116  0.1275
  339TMC3    O2 5148   0.968   1.176   0.617 -0.1015  0.0944 -0.4465
  340MPD2     C 5149   1.779   2.717  10.569  0.4656 -0.0676  0.2043
  340MPD2    C1 5150   1.780   2.590  10.513  0.8099 -0.2070  0.2933
  340MPD2    C2 5151   1.885   2.557  10.436  1.4917 -0.1898 -0.4695
  340MPD2    C3 5152   1.967   2.657  10.382 -0.9782 -0.1693 -0.6645
  340MPD2    C4 5153   1.960   2.788  10.435 -0.2215 -0.8211 -0.2860
  340MPD2    C5 5154   1.871   2.810  10.536  0.7389  0.1299  0.3153
  340MPD2     H 5155   1.899   2.451  10.418  0.9655 -0.4149  0.4999
  340MPD2    H1 5156   2.021   2.869  10.397 -1.7740  0.3127 -0.3824
  340MPD2    H2 5157   1.702   2.753  10.637 -2.2446 -2.4031 -1.6457
  340MPD2    H3 5158   1.864   2.906  10.586 -1.3820  0.8033 -1.3066
  340MPD2     N 5159   2.046   2.626  10.274 -0.6578 -0.0518 -0.0326
  340MPD2    H5 5160   2.034   2.534  10.233 -0.9963  1.4196 -3.2754
  340MPD2    N1 5161   1.664   2.510  10.534  0.2666 -0.1428 -0.3410
  340MPD2    H7 5162   1.615   2.522  10.622  1.3731 -0.6114  0.3417
  341TMC3    C1 5163   1.689   2.357  10.335  0.3451 -0.3485  0.3483
  341TMC3    C2 5164   1.705   2.229  10.304 -0.9787 -1.1392  0.1592
  341TMC3    C3 5165   1.755   2.204  10.179 -0.0020 -0.3467  0.1945
  341TMC3    C4 5166   1.692   2.453  10.241 -0.0058  0.1996  0.5112
  341TMC3    C5 5167   1.732   2.422  10.109 -0.2917  0.0712  0.5354
  341TMC3    C6 5168   1.771   2.296  10.077 -1.0533  0.0426 -0.2531
  341TMC3     C 5169   1.634   2.388  10.471 -0.3782 -0.1381  0.2642
  341TMC3     O 5170   1.592   2.288  10.527 -0.4809 -0.3623  0.3759
  341TMC3     H 5171   1.712   2.147  10.375 -0.4561  0.4413  1.9439
  341TMC3    H1 5172   1.662   2.551  10.275 -2.0943  0.4707 -2.1241
  341TMC3    H2 5173   1.815   2.274   9.981 -3.0512 -1.4066 -0.8280
  341TMC3    C7 5174   1.758   2.532  10.013 -0.2919  0.5022 -0.5037
  341TMC3    C8 5175   1.751   2.068  10.131 -0.2448  0.2149 -0.2963
  341TMC3    O1 5176   1.811   2.495   9.910 -0.7689  0.4777  0.2325
  341TMC3    O2 5177   1.740   1.973  10.211  0.1511  0.3852  0.3908
  342MPD2     C 5178   4.275   1.482  17.421  0.1911 -0.3107  0.6997
  342MPD2    C1 5179   4.386   1.514  17.354  0.8065 -0.1356  0.1342
  342MPD2    C2 5180   4.413   1.649  17.336  0.0344 -0.8584 -0.3795
  342MPD2    C3 5181   4.323   1.748  17.379  0.2707 -0.0388 -0.2418
  342MPD2    C4 5182   4.204   1.710  17.439 -0.0523  0.0269 -0.4350
  342MPD2    C5 5183   4.193   1.573  17.473 -0.2316  0.3442  0.3338
  342MPD2     H 5184   4.511   1.675  17.296  0.1556  2.8132  2.2802
  342MPD2    H1 5185   4.139   1.783  17.485  1.6511  1.4402 -0.3013
  342MPD2    H2 5186   4.238   1.382  17.442  1.7983 -0.8562  0.9729
  342MPD2    H3 5187   4.110   1.542  17.536 -0.2808  0.4928  0.3432
  342MPD2     N 5188   4.341   1.880  17.369  0.2002 -0.1168  0.0227
  342MPD2    H5 5189   4.287   1.948  17.422  0.7005  0.0652  0.2981
  342MPD2    N1 5190   4.473   1.426  17.293 -0.1608  0.7743  0.0701
  342MPD2    H7 5191   4.555   1.463  17.246 -0.2074  1.5483  0.5972
  343TMC3    C1 5192   4.528   1.223  17.182  1.0279 -0.5813  0.2358
  343TMC3    C2 5193   4.595   1.298  17.086  0.6700  0.4828 -0.3216
  343TMC3    C3 5194   4.643   1.229  16.976 -0.0030  0.1222  0.3525
  343TMC3    C4 5195   4.494   1.092  17.168 -0.0045  0.6016 -0.3823
  343TMC3    C5 5196   4.538   1.029  17.054  0.5609  0.4532  1.0671
  343TMC3    C6 5197   4.611   1.099  16.959  0.2257 -0.0601 -0.1761
  343TMC3     C 5198   4.463   1.292  17.295 -0.5753  0.1388  0.5183
  343TMC3     O 5199   4.400   1.218  17.374  0.4680  0.5421 -0.0727
  343TMC3     H 5200   4.643   1.392  17.110  1.1649  0.3423 -0.7569
  343TMC3    H1 5201   4.455   1.038  17.254  0.7317  1.0999  0.2592
  343TMC3    H2 5202   4.640   1.034  16.878  2.7032 -0.8564  1.3527
  343TMC3    C7 5203   4.535   0.882  17.053  0.1195  0.4673 -0.3698
  343TMC3    C8 5204   4.733   1.296  16.894 -0.2222  0.0212 -0.4786
  343TMC3    O1 5205   4.541   0.822  16.944  0.1194  0.1635 -0.4378
  343TMC3    O2 5206   0.013   1.419  16.914  0.4010  0.2142  0.4134
  344MPD2     C 5207   0.473   0.328  10.997  1.2171 -0.1994  0.0860
  344MPD2    C1 5208   0.448   0.268  10.872  0.0593  0.2287  0.3338
  344MPD2    C2 5209   0.476   0.340  10.754  0.6675 -0.5633 -0.0131
  344MPD2    C3 5210   0.520   0.472  10.764  0.0135 -0.0970  0.7271
  344MPD2    C4 5211   0.534   0.529  10.896 -0.2262 -0.6036  0.3605
  344MPD2    C5 5212   0.505   0.461  11.008  0.1409  0.4900 -0.1599
  344MPD2     H 5213   0.475   0.295  10.655 -2.4919 -1.5702  0.4952
  344MPD2    H1 5214   0.544   0.636  10.910 -2.4609  0.0616 -3.2074
  344MPD2    H2 5215   0.461   0.280  11.093  1.0108  0.3414  0.3316
  344MPD2    H3 5216   0.511   0.505  11.107  0.3667 -0.3199  0.1855
  344MPD2     N 5217   0.555   0.561  10.656  0.0596 -0.5748 -0.1500
  344MPD2    H5 5218   0.580   0.654  10.688  2.5474 -1.2920  0.0189
  344MPD2    N1 5219   0.399   0.139  10.851  0.8030 -0.7995 -0.5195
  344MPD2    H7 5220   0.398   0.111  10.753  0.2117  0.5157 -0.8826
  345TMC3    C1 5221   0.683   0.604  10.459 -0.1252  0.2590 -0.3958
  345TMC3    C2 5222   0.764   0.686  10.530 -0.1607 -0.1753 -0.3163
  345TMC3    C3 5223   0.865   0.746  10.456  0.2197 -0.5809 -0.1580
  345TMC3    C4 5224   0.693   0.591  10.320 -0.3081  0.2298  0.4398
  345TMC3    C5 5225   0.786   0.661  10.254  0.5474 -0.9729 -0.4072
  345TMC3    C6 5226   0.875   0.730  10.323  0.1876  0.9511 -0.2128
  345TMC3     C 5227   0.579   0.524  10.523 -0.3097  0.8395  0.1497
  345TMC3     O 5228   0.532   0.427  10.465  0.2267  0.7127 -0.1756
  345TMC3     H 5229   0.756   0.707  10.636  1.1623 -0.3350 -0.1854
  345TMC3    H1 5230   0.623   0.533  10.261  1.3261 -0.2963 -0.9739
  345TMC3    H2 5231   0.956   0.777  10.269 -0.3981  0.4805 -1.4892
  345TMC3    C7 5232   0.759   0.695  10.116  0.0644  0.0544 -0.7694
  345TMC3    C8 5233   0.911   0.881  10.497  0.2547  0.1493  0.7530
  345TMC3    O1 5234   0.673   0.629  10.056 -0.3103 -0.4990  0.5336
  345TMC3    O2 5235   0.914   0.969  10.413 -0.1469  0.2787  0.0019
  346MPD2     C 5236   1.172   2.227  14.820 -0.5106  0.5192  0.5461
  346MPD2    C1 5237   1.209   2.131  14.726  0.1138 -0.5229 -0.1971
  346MPD2    C2 5238   1.326   2.070  14.749 -0.2471 -0.6324 -0.4835
  346MPD2    C3 5239   1.417   2.112  14.846 -0.4861  0.6397 -0.2062
  346MPD2    C4 5240   1.382   2.210  14.940  0.2057 -0.4580 -0.4666
  346MPD2    C5 5241   1.259   2.262  14.921 -0.2689 -0.0128 -0.4205
  346MPD2     H 5242   1.349   1.979  14.696 -1.8769 -1.2866 -0.0684
  346MPD2    H1 5243   1.438   2.229  15.031 -0.1691  0.9608 -0.5375
  346MPD2    H2 5244   1.073   2.272  14.825 -0.4169  0.4751  2.8599
  346MPD2    H3 5245   1.226   2.342  14.986 -1.7766 -1.0952  0.1498
  346MPD2     N 5246   1.531   2.036  14.855  0.7564  0.2125 -1.0800
  346MPD2    H5 5247   1.543   1.967  14.783  0.3297 -0.3278 -0.6338
  346MPD2    N1 5248   1.123   2.092  14.625 -0.6244  0.6079  0.2602
  346MPD2    H7 5249   1.164   2.028  14.558  0.1179 -0.2475  1.5361
  347TMC3    C1 5250   1.746   1.948  14.940  0.5548  0.4894  0.4979
  347TMC3    C2 5251   1.761   1.872  14.830 -0.1775 -0.3222  0.5134
  347TMC3    C3 5252   1.841   1.759  14.834  0.6067 -0.5040 -0.2184
  347TMC3    C4 5253   1.806   1.911  15.054 -0.2641  0.3643  0.0618
  347TMC3    C5 5254   1.887   1.802  15.055 -0.0840 -0.3014  0.3568
  347TMC3    C6 5255   1.903   1.717  14.953 -0.3939 -0.6243 -0.5201
  347TMC3     C 5256   1.641   2.050  14.945 -1.0763 -0.2809 -0.5577
  347TMC3     O 5257   1.655   2.138  15.033 -1.3716 -0.3084  0.2696
  347TMC3     H 5258   1.721   1.902  14.733 -1.4168 -0.5707  0.9403
  347TMC3    H1 5259   1.809   1.976  15.141 -0.4560  0.7151 -0.1952
  347TMC3    H2 5260   1.986   1.647  14.957  0.3962  0.2785 -1.1621
  347TMC3    C7 5261   1.975   1.785  15.166  0.1377 -0.7739 -0.0826
  347TMC3    C8 5262   1.920   1.762  14.709  0.6486 -0.2795 -0.0170
  347TMC3    O1 5263   2.083   1.736  15.135 -0.2476  0.7961 -0.0483
  347TMC3    O2 5264   1.892   1.835  14.618  0.0467  0.9056  0.4406
  348MPD2     C 5265   4.571   2.191  11.421 -0.0860  0.1255 -0.0211
  348MPD2    C1 5266   4.533   2.140  11.298 -0.7986 -0.1285 -0.1277
  348MPD2    C2 5267   4.469   2.227  11.211  0.5282 -0.7529  0.1600
  348MPD2    C3 5268   4.447   2.360  11.236 -0.2237  0.0281 -0.4469
  348MPD2    C4 5269   4.493   2.412  11.357 -0.6569 -0.1055  0.4008
  348MPD2    C5 5270   4.542   2.322  11.455  1.1949 -0.0778 -0.7589
  348MPD2     H 5271   4.438   2.188  11.115 -0.6989  0.4705  0.0549
  348MPD2    H1 5272   4.488   2.514  11.392  3.0045 -0.8211  3.0914
  348MPD2    H2 5273   4.614   2.125  11.496 -0.9654 -1.0244 -0.5350
  348MPD2    H3 5274   4.585   2.356  11.549  2.1522 -2.0203 -0.4950
  348MPD2     N 5275   4.388   2.450  11.144  0.1725  0.0091 -0.4145
  348MPD2    H5 5276   4.353   2.413  11.056 -1.9981 -0.6847  0.7370
  348MPD2    N1 5277   4.529   1.999  11.260 -0.4854  0.0254  0.4165
  348MPD2    H7 5278   4.486   1.965  11.175  1.8339 -1.0813 -0.3213
  349TMC3    C1 5279   4.588   1.777  11.280 -0.1002  0.2142  1.3298
  349TMC3    C2 5280   4.669   1.691  11.331  0.4369  0.2316 -0.0153
  349TMC3    C3 5281   4.634   1.558  11.346 -0.0486  0.1263 -0.0646
  349TMC3    C4 5282   4.469   1.735  11.218  0.3822  0.1115  0.1396
  349TMC3    C5 5283   4.439   1.604  11.238  0.4328 -0.0670 -0.7201
  349TMC3    C6 5284   4.514   1.512  11.307  0.1322  0.5147 -0.2711
  349TMC3     C 5285   4.586   1.904  11.340 -1.0872  1.2450  0.2903
  349TMC3     O 5286   4.659   1.917  11.440 -0.0763  0.7865 -0.6242
  349TMC3     H 5287   0.029   1.719  11.372  0.1770  0.9312  0.1286
  349TMC3    H1 5288   4.390   1.806  11.194 -0.3557 -0.1813  1.6592
  349TMC3    H2 5289   4.478   1.410  11.318 -0.7730  0.8441 -0.1579
  349TMC3    C7 5290   4.317   1.566  11.169 -0.3309  0.4073  0.2570
  349TMC3    C8 5291   4.724   1.469  11.411 -0.7686 -0.2433 -0.0509
  349TMC3    O1 5292   4.249   1.476  11.208 -0.2285  0.4018  0.0976
  349TMC3    O2 5293   0.081   1.518  11.466 -0.1659  0.9019 -0.1032
  350MPD2     C 5294   3.201   0.441  10.340 -0.2561 -0.3113 -0.3060
  350MPD2    C1 5295   3.250   0.310  10.330  0.0092 -0.7009  0.0038
  350MPD2    C2 5296   3.342   0.257  10.412 -0.6194 -0.8188  0.8629
  350MPD2    C3 5297   3.386   0.317  10.525  0.4933  0.2752  0.2031
  350MPD2    C4 5298   3.334   0.446  10.539  0.2554  0.1154 -0.2822
  350MPD2    C5 5299   3.246   0.503  10.450  0.3572  0.1150  0.0944
  350MPD2     H 5300   3.370   0.154  10.392 -1.4253 -0.5995 -1.3879
  350MPD2    H1 5301   3.367   0.509  10.621 -0.7513 -0.6560  0.6995
  350MPD2    H2 5302   3.139   0.496  10.271 -2.5880  0.6749  2.5423
  350MPD2    H3 5303   3.217   0.605  10.474 -0.3393  0.6101 -2.9204
  350MPD2     N 5304   3.485   0.260  10.605  0.2905 -0.4811  0.5478
  350MPD2    H5 5305   3.515   0.170  10.569 -1.0894  0.0648 -1.9421
  350MPD2    N1 5306   3.212   0.218  10.228  0.1441  0.7467  0.5117
  350MPD2    H7 5307   3.275   0.139  10.216 -0.8190  0.1102 -0.3644
  351TMC3    C1 5308   3.069   0.086  10.097 -0.0918  0.0776 -0.2122
  351TMC3    C2 5309   3.161   0.015  10.024 -0.0128 -0.4897 -0.3973
  351TMC3    C3 5310   3.138   4.625   9.997 -0.2511  0.2144 -0.3455
  351TMC3    C4 5311   2.944   0.032  10.119 -0.7994  0.1965 -0.2287
  351TMC3    C5 5312   2.921   4.633  10.082  0.2006  0.4239 -0.4207
  351TMC3    C6 5313   3.017   4.564  10.029  1.0373 -0.4303 -0.0563
  351TMC3     C 5314   3.095   0.221  10.152 -0.2192 -0.2272 -0.2997
  351TMC3     O 5315   2.995   0.297  10.161  0.0040  0.4633  0.5916
  351TMC3     H 5316   3.251   0.071  10.003 -0.0608 -0.5426 -0.7377
  351TMC3    H1 5317   2.858   0.088  10.153 -0.7231 -0.2463  0.7073
  351TMC3    H2 5318   3.018   4.456  10.017  1.3503 -0.4836  0.4722
  351TMC3    C7 5319   2.791   4.575  10.120  0.1005  0.3093  0.5173
  351TMC3    C8 5320   3.238   4.558   9.920 -0.0108  0.5010 -0.7330
  351TMC3    O1 5321   2.720   4.653  10.181  0.3605  0.0954 -0.7059
  351TMC3    O2 5322   3.348   4.612   9.922 -0.0328  0.4413 -0.3243
  352MPD2     C 5323   2.529   2.665   0.651  0.3913  0.0064  1.0130
  352MPD2    C1 5324   2.464   2.619   0.760 -0.6055  1.1575 -0.8435
  352MPD2    C2 5325   2.518   2.516   0.832 -0.3006  0.1551  0.0896
  352MPD2    C3 5326   2.632   2.448   0.790  0.1300  0.2665 -0.5816
  352MPD2    C4 5327   2.688   2.482   0.668  0.2695 -0.6216  0.4591
  352MPD2    C5 5328   2.635   2.595   0.606 -0.0728 -0.8748  0.8039
  352MPD2     H 5329   2.475   2.483   0.926 -3.8362  1.6790 -0.9955
  352MPD2    H1 5330   2.774   2.431   0.628  0.2088  1.1899 -1.9550
  352MPD2    H2 5331   2.498   2.754   0.597 -0.9655 -1.4348 -0.5844
  352MPD2    H3 5332   2.679   2.622   0.510 -0.4241 -2.2349  0.2702
  352MPD2     N 5333   2.686   2.332   0.852  0.4967 -0.0220  0.2725
  352MPD2    H5 5334   2.759   2.288   0.796 -0.7420  1.4655 -2.4888
  352MPD2    N1 5335   2.345   2.683   0.797  0.0793  0.3974 -0.2680
  352MPD2    H7 5336   2.326   2.767   0.744  0.4496  0.6832  0.0577
  353TMC3    C1 5337   2.655   2.117   0.932 -0.6795  0.5582  0.4354
  353TMC3    C2 5338   2.764   2.063   0.870  0.0153 -0.1795 -0.3068
  353TMC3    C3 5339   2.771   1.923   0.859 -0.7231 -0.1783  0.7164
  353TMC3    C4 5340   2.552   2.030   0.970  0.1638 -0.3250  0.3771
  353TMC3    C5 5341   2.551   1.895   0.946 -0.1744  0.1999  0.5494
  353TMC3    C6 5342   2.664   1.842   0.888 -0.7257  0.1143  0.3518
  353TMC3     C 5343   2.630   2.262   0.944 -0.0325 -0.2590  0.1388
  353TMC3     O 5344   2.556   2.302   1.034 -0.8667  0.5431  0.1625
  353TMC3     H 5345   2.855   2.120   0.859 -0.0991 -0.1901 -1.2596
  353TMC3    H1 5346   2.459   2.076   1.002  0.3948  0.8986 -0.6583
  353TMC3    H2 5347   2.658   1.734   0.884 -0.5193  0.1590 -1.2917
  353TMC3    C7 5348   2.427   1.837   0.908 -0.6048 -0.2109  0.8129
  353TMC3    C8 5349   2.900   1.852   0.860  0.0915 -0.0572 -0.0422
  353TMC3    O1 5350   2.437   1.741   0.832 -0.0168 -0.0913  0.0072
  353TMC3    O2 5351   3.006   1.915   0.868 -1.1202  0.3017 -0.5532
  354TMC3    C1 5352   3.302   3.022  13.505 -0.5122  0.2902  0.2839
  354TMC3    C2 5353   3.332   3.141  13.443  0.1472  0.1264  0.3259
  354TMC3    C3 5354   3.312   3.158  13.312 -0.1090 -0.4583 -0.4374
  354TMC3    C4 5355   3.232   2.924  13.433 -0.0045  0.0140  0.1255
  354TMC3    C5 5356   3.222   2.931  13.301  0.3314  0.3624 -0.3720
  354TMC3    C6 5357   3.250   3.055  13.240  0.1516 -0.2966 -0.5036
  354TMC3     C 5358   3.314   3.007  13.650 -0.6024  0.1198 -0.5768
  354TMC3     O 5359   3.229   2.941  13.709  0.3252 -0.2576 -0.1338
  354TMC3     H 5360   3.371   3.221  13.504  0.8726  0.9694 -1.2489
  354TMC3    H1 5361   3.217   2.833  13.490  0.9914 -0.9228 -1.1072
  354TMC3    H2 5362   3.215   3.074  13.139  0.2968  1.2622 -0.2600
  354TMC3    C7 5363   3.301   2.819  13.250 -0.2199 -0.1891 -0.4357
  354TMC3    C8 5364   3.382   3.281  13.262 -0.3606  0.1924 -0.1218
  354TMC3    O1 5365   3.256   2.710  13.274 -0.0715  0.0576 -0.4591
  354TMC3    O2 5366   3.427   3.362  13.345 -0.0997 -0.3560  0.6984
  355MPD2     C 5367   3.751   3.845  11.783 -0.0484 -0.0951 -0.1401
  355MPD2    C1 5368   3.864   3.827  11.701 -0.0311 -0.0385 -0.8883
  355MPD2    C2 5369   3.956   3.729  11.731 -0.4507 -0.9088 -0.8226
  355MPD2    C3 5370   3.941   3.639  11.832  0.4580  0.4141  0.5442
  355MPD2    C4 5371   3.820   3.648  11.906 -0.4454  0.2561 -0.4288
  355MPD2    C5 5372   3.726   3.746  11.875 -0.1774 -0.8650 -0.0365
  355MPD2     H 5373   4.050   3.727  11.676  0.3319  0.0365  0.4553
  355MPD2    H1 5374   3.801   3.599  12.001 -0.8974  1.1727 -0.0468
  355MPD2    H2 5375   3.684   3.924  11.754  1.5312  1.6496  0.9527
  355MPD2    H3 5376   3.631   3.757  11.926  0.2600  1.3182  0.2688
  355MPD2     N 5377   4.051   3.566  11.866  0.2121  0.5945 -0.0257
  355MPD2    H5 5378   4.126   3.560  11.798 -1.0628  0.9222 -1.4678
  355MPD2    N1 5379   3.889   3.930  11.608  0.4550 -0.0963  0.0672
  355MPD2    H7 5380   3.819   4.003  11.601 -0.3913 -0.9059  0.0747
  356TMC3    C1 5381   4.212   3.567  12.027  0.1335  0.4312  0.5062
  356TMC3    C2 5382   4.284   3.603  11.918 -0.0619  0.0154 -0.0622
  356TMC3    C3 5383   4.339   3.729  11.909 -0.1180 -1.1144 -0.2639
  356TMC3    C4 5384   4.194   3.650  12.135  0.7276 -0.0377  0.0977
  356TMC3    C5 5385   4.254   3.778  12.126  1.0376  0.4837  0.3019
  356TMC3    C6 5386   4.316   3.822  12.010 -0.3892  0.3380  0.3797
  356TMC3     C 5387   4.079   3.517  11.992 -0.1530 -0.1186 -0.2143
  356TMC3     O 5388   4.006   3.498  12.082  0.2065 -0.2033 -0.5983
  356TMC3     H 5389   4.292   3.529  11.839 -0.0813 -0.5121  0.4315
  356TMC3    H1 5390   4.126   3.620  12.214  1.5328 -2.1195 -0.0109
  356TMC3    H2 5391   4.361   3.921  11.998  0.2950  0.1181  1.0805
  356TMC3    C7 5392   4.242   3.860  12.247 -0.0315  0.3932 -0.7813
  356TMC3    C8 5393   4.350   3.775  11.774 -0.0844 -0.1874  0.0241
  356TMC3    O1 5394   4.192   3.799  12.343 -0.6279  0.2104 -0.3835
  356TMC3    O2 5395   4.387   3.687  11.698 -0.3146  0.5389 -0.0543
  357MPD2     C 5396   3.058   4.466   0.566 -0.3045  0.6191 -0.4092
  357MPD2    C1 5397   3.092   4.332   0.538 -0.0766 -0.2380 -0.7440
  357MPD2    C2 5398   2.993   4.237   0.538 -0.0945  0.2391 -0.3559
  357MPD2    C3 5399   2.861   4.269   0.566 -0.6840  0.2522 -0.3600
  357MPD2    C4 5400   2.825   4.402   0.606 -0.5405  0.1815  0.0323
  357MPD2    C5 5401   2.927   4.491   0.599 -0.2356  0.0005 -0.5399
  357MPD2     H 5402   3.021   4.135   0.518 -2.4443 -1.1234  3.2733
  357MPD2    H1 5403   2.720   4.429   0.611 -0.6371  0.0242 -0.9468
  357MPD2    H2 5404   3.124   4.552   0.568  1.3898 -0.7555  2.2512
  357MPD2    H3 5405   2.897   4.592   0.623  1.7737  0.8479 -1.6115
  357MPD2     N 5406   2.761   4.174   0.554  0.2706  0.2188 -0.3673
  357MPD2    H5 5407   2.669   4.216   0.552  0.2843  0.3277  2.4460
  357MPD2    N1 5408   3.222   4.290   0.518 -0.2943 -0.2480  0.0604
  357MPD2    H7 5409   3.239   4.194   0.488 -0.5872  0.2026 -1.5376
  358TMC3    C1 5410   3.460   4.292   0.495  0.2237  0.1682 -0.0095
  358TMC3    C2 5411   3.442   4.186   0.414  0.2544 -0.8680  0.6962
  358TMC3    C3 5412   3.545   4.097   0.400  0.3359  0.5085  0.3335
  358TMC3    C4 5413   3.573   4.311   0.563 -0.5570  0.2946  0.3143
  358TMC3    C5 5414   3.672   4.219   0.549 -0.2044  0.5912 -0.2501
  358TMC3    C6 5415   3.662   4.105   0.469  0.0224  0.4529 -0.0651
  358TMC3     C 5416   3.338   4.362   0.530  0.0053  0.2874 -0.4925
  358TMC3     O 5417   3.353   4.477   0.560 -0.2305  0.5292 -0.8430
  358TMC3     H 5418   3.352   4.180   0.354 -0.6981 -0.6609  2.1131
  358TMC3    H1 5419   3.569   4.377   0.649  1.1284  0.3341  0.3611
  358TMC3    H2 5420   3.750   4.043   0.459 -0.0921 -0.0515  2.0035
  358TMC3    C7 5421   3.793   4.235   0.631 -0.3006  0.2580  0.3940
  358TMC3    C8 5422   3.520   3.991   0.306  0.7682 -0.5017 -0.1938
  358TMC3    O1 5423   3.851   4.136   0.673  0.4117 -0.0972 -0.4943
  358TMC3    O2 5424   3.410   3.996   0.249 -0.7366 -0.1138 -0.2306
  359MPD2     C 5425   4.282   2.833  11.998 -0.1452  0.5002 -0.6896
  359MPD2    C1 5426   4.239   2.807  11.872  0.4411  0.2477 -0.1690
  359MPD2    C2 5427   4.120   2.744  11.847  0.4178 -0.3819 -0.2214
  359MPD2    C3 5428   4.048   2.691  11.951  0.6583 -0.6678 -0.4427
  359MPD2    C4 5429   4.094   2.712  12.083 -0.5754  0.2526  0.3227
  359MPD2    C5 5430   4.209   2.781  12.109  0.6726 -0.3499  0.6494
  359MPD2     H 5431   4.081   2.749  11.746  0.7908 -1.9958 -0.4433
  359MPD2    H1 5432   4.025   2.694  12.165 -1.7542  0.5152 -0.5977
  359MPD2    H2 5433   4.363   2.899  12.024  0.0383  0.3142 -0.7928
  359MPD2    H3 5434   4.231   2.808  12.211  2.7003 -1.7322  0.5660
  359MPD2     N 5435   3.918   2.628  11.939  0.3532  0.2487  0.2315
  359MPD2    H5 5436   3.859   2.612  12.019 -0.3262  0.3073 -0.2599
  359MPD2    N1 5437   4.309   2.857  11.760  0.6805 -0.1196 -0.2861
  359MPD2    H7 5438   4.274   2.829  11.669 -0.9300 -2.1954  0.9582
  360TMC3    C1 5439   4.483   2.938  11.624  0.1084 -0.3636  0.5924
  360TMC3    C2 5440   4.615   2.924  11.589 -0.2248 -0.7058  0.3717
  360TMC3    C3 5441   4.648   2.910  11.460  0.4000  0.3797 -0.6093
  360TMC3    C4 5442   4.393   2.977  11.534 -0.7763 -0.2125 -0.1969
  360TMC3    C5 5443   4.426   2.976  11.404 -0.0370 -0.2084 -0.4296
  360TMC3    C6 5444   4.552   2.933  11.360 -0.6650  0.0564 -0.7744
  360TMC3     C 5445   4.438   2.907  11.760 -0.4346 -0.6929 -0.6637
  360TMC3     O 5446   4.511   2.927  11.855 -0.5136 -0.1629  0.1695
  360TMC3     H 5447   4.681   2.891  11.668 -0.6483 -0.4469  0.8358
  360TMC3    H1 5448   4.303   3.028  11.566 -0.9989 -1.2598  0.8229
  360TMC3    H2 5449   4.572   2.909  11.257  2.7649  2.0149 -0.5551
  360TMC3    C7 5450   4.325   2.988  11.299 -0.4840 -0.2165 -0.4799
  360TMC3    C8 5451   0.009   2.797  11.445 -0.0335 -0.4684  0.3804
  360TMC3    O1 5452   4.363   3.032  11.193  0.0284  0.5585  0.1702
  360TMC3    O2 5453   0.082   2.772  11.538 -0.5363  1.0854 -0.0775
  361MPD2     C 5454   0.795   2.159  17.187  0.3602  0.0893 -0.4730
  361MPD2    C1 5455   0.781   2.110  17.060  0.4800 -0.3340 -1.0010
  361MPD2    C2 5456   0.872   2.009  17.020 -0.4377  0.5850  0.0159
  361MPD2    C3 5457   0.959   1.951  17.112  0.2865  0.5518  0.3403
  361MPD2    C4 5458   0.966   1.997  17.240  0.0218  0.1516  0.4044
  361MPD2    C5 5459   0.891   2.109  17.268 -0.0260 -0.3574 -0.5509
  361MPD2     H 5460   0.878   1.979  16.916  2.4136  0.2750  0.2604
  361MPD2    H1 5461   1.053   1.963  17.294  1.3040  0.0613 -1.7186
  361MPD2    H2 5462   0.724   2.232  17.226 -0.1074  0.6212 -2.3223
  361MPD2    H3 5463   0.886   2.160  17.364  1.6616  1.2035 -1.2938
  361MPD2     N 5464   1.046   1.852  17.077  0.0392 -0.1386  0.0041
  361MPD2    H5 5465   1.111   1.812  17.145  2.1694 -0.0125 -1.9697
  361MPD2    N1 5466   0.685   2.159  16.978 -0.0458 -0.4718  0.1123
  361MPD2    H7 5467   0.628   2.236  17.012  1.7219  0.4023  1.1301
  362TMC3    C1 5468   0.567   2.195  16.785 -0.2054 -0.3691  0.2586
  362TMC3    C2 5469   0.444   2.195  16.845  0.1722  0.1157  0.3428
  362TMC3    C3 5470   0.335   2.198  16.755  0.1723  0.0208 -0.4626
  362TMC3    C4 5471   0.585   2.219  16.655 -0.4223 -0.1558  0.1294
  362TMC3    C5 5472   0.483   2.225  16.569 -0.4426 -0.2901  0.8038
  362TMC3    C6 5473   0.350   2.218  16.617 -0.4034 -0.1176  0.1043
  362TMC3     C 5474   0.671   2.127  16.847 -0.3278  0.4445 -0.7315
  362TMC3     O 5475   0.739   2.057  16.768 -0.3232 -0.4027  0.2379
  362TMC3     H 5476   0.430   2.144  16.940 -1.8450  2.1779  1.1529
  362TMC3    H1 5477   0.685   2.222  16.613 -0.5321  3.0712  0.1592
  362TMC3    H2 5478   0.262   2.253  16.565  0.6720 -0.2620 -1.8088
  362TMC3    C7 5479   0.498   2.277  16.432 -0.1642  0.0288  0.3687
  362TMC3    C8 5480   0.199   2.161  16.796 -0.2558 -0.2465 -0.2263
  362TMC3    O1 5481   0.607   2.327  16.397  0.0606 -0.3561  0.5631
  362TMC3    O2 5482   0.126   2.128  16.709 -0.1609 -0.4926 -0.3871
  363TMC3    C1 5483   3.918   3.970   9.237  0.3976 -0.3726  0.0981
  363TMC3    C2 5484   4.019   3.879   9.236  0.2536 -0.0245  0.1848
  363TMC3    C3 5485   4.124   3.903   9.147  0.5081  0.6577  1.0821
  363TMC3    C4 5486   3.903   4.073   9.151 -0.2484  0.1135 -0.2859
  363TMC3    C5 5487   4.010   4.096   9.067 -0.6604 -1.2984  1.2000
  363TMC3    C6 5488   4.123   4.017   9.064  0.0725  0.3613  0.1864
  363TMC3     C 5489   3.803   3.951   9.323 -0.2543 -0.3868  0.3491
  363TMC3     O 5490   3.701   4.004   9.289 -0.0506 -0.4417  1.0733
  363TMC3     H 5491   4.036   3.799   9.307 -0.4697 -1.8728 -1.6971
  363TMC3    H1 5492   3.824   4.145   9.172 -0.2116  0.1498 -0.2715
  363TMC3    H2 5493   4.208   4.039   9.000  0.3249 -0.0729  0.3776
  363TMC3    C7 5494   4.017   4.225   9.006  0.3311  0.3127  0.1528
  363TMC3    C8 5495   4.228   3.803   9.126  0.2059 -0.0063 -0.6284
  363TMC3    O1 5496   3.935   4.304   9.046 -0.0460 -0.2346 -0.2712
  363TMC3    O2 5497   4.322   3.838   9.054  0.1830 -0.1356 -0.3985
  364MPD2     C 5498   2.493   3.629  10.756 -0.2931  0.7074 -0.6475
  364MPD2    C1 5499   2.599   3.623  10.671  0.4830 -0.0891 -0.0088
  364MPD2    C2 5500   2.688   3.516  10.692 -0.5116  0.0906 -0.1184
  364MPD2    C3 5501   2.667   3.412  10.780 -0.4818  0.0940  0.0537
  364MPD2    C4 5502   2.557   3.420  10.862 -0.0636  0.8376  0.4623
  364MPD2    C5 5503   2.471   3.532  10.845  0.1549  0.4792 -0.2817
  364MPD2     H 5504   2.780   3.520  10.636  0.8092 -0.4718  2.0461
  364MPD2    H1 5505   2.528   3.350  10.939  2.0350 -0.0097  0.4922
  364MPD2    H2 5506   2.432   3.718  10.767 -0.8213  0.0165  1.9113
  364MPD2    H3 5507   2.380   3.535  10.903  1.3466 -0.6488  1.6663
  364MPD2     N 5508   2.761   3.308  10.785  0.0227  0.0665 -0.5253
  364MPD2    H5 5509   2.834   3.307  10.716 -0.0562 -0.9400 -0.5877
  364MPD2    N1 5510   2.631   3.726  10.584  0.1102  0.3427 -0.7435
  364MPD2    H7 5511   2.722   3.723  10.540  0.0808  2.8482 -0.9792
  365TMC3    C1 5512   2.642   3.924  10.467 -0.1094  0.4835 -0.6301
  365TMC3    C2 5513   2.739   3.860  10.385  0.4021  0.3500 -0.1113
  365TMC3    C3 5514   2.817   3.941  10.312  0.3924  0.3344 -0.7550
  365TMC3    C4 5515   2.630   4.061  10.477 -0.0043  0.3507 -0.3712
  365TMC3    C5 5516   2.723   4.139  10.406  1.1098  0.4166 -0.1233
  365TMC3    C6 5517   2.820   4.080  10.328 -0.9330 -0.1963  0.4099
  365TMC3     C 5518   2.561   3.842  10.554 -1.1229  0.1969  0.3995
  365TMC3     O 5519   2.467   3.899  10.605  0.4163 -0.6599 -0.0604
  365TMC3     H 5520   2.734   3.754  10.362 -0.9445  0.7716 -1.7427
  365TMC3    H1 5521   2.538   4.095  10.522 -0.6437  2.4317 -3.2592
  365TMC3    H2 5522   2.892   4.140  10.273  2.7155 -3.6463  1.4292
  365TMC3    C7 5523   2.759   4.271  10.448  0.1389 -0.3345  0.8384
  365TMC3    C8 5524   2.901   3.888  10.206 -0.1042  0.0872  0.6035
  365TMC3    O1 5525   2.852   4.330  10.401  0.0274 -0.2372  0.1403
  365TMC3    O2 5526   2.985   3.958  10.150 -0.1196 -0.1038 -0.1937
  366MPD2     C 5527   1.289   4.482  15.259 -0.4541  0.4511 -1.2468
  366MPD2    C1 5528   1.360   4.600  15.266  0.4380  0.3794 -0.3615
  366MPD2    C2 5529   1.498   4.587  15.277 -0.4613 -1.0999 -0.3203
  366MPD2    C3 5530   1.559   4.471  15.243  0.9059 -0.2063 -0.1694
  366MPD2    C4 5531   1.480   4.357  15.213 -0.2177 -0.2395 -0.3668
  366MPD2    C5 5532   1.345   4.357  15.221 -0.2127 -0.5073 -0.5035
  366MPD2     H 5533   1.558   4.673  15.304  0.9494 -1.2457 -2.9785
  366MPD2    H1 5534   1.526   4.262  15.188 -2.6027 -1.1880 -1.1166
  366MPD2    H2 5535   1.180   4.486  15.259 -0.5473 -1.8420 -2.7088
  366MPD2    H3 5536   1.283   4.268  15.215 -3.3842  1.7116 -0.6929
  366MPD2     N 5537   1.699   4.477  15.236  0.1609 -0.0786  0.8037
  366MPD2    H5 5538   1.731   4.573  15.244  0.3904 -0.0382 -0.6550
  366MPD2    N1 5539   1.298   4.726  15.270 -0.0849  0.3161 -0.5670
  366MPD2    H7 5540   1.357   0.068  15.295 -0.4996  0.7364 -0.9087
  367TMC3    C1 5541   1.168   0.168  15.208 -0.4047  0.2467  0.5187
  367TMC3    C2 5542   1.247   0.249  15.286 -0.2228 -0.3112  0.4897
  367TMC3    C3 5543   1.276   0.380  15.231 -0.4579  0.3471 -0.8246
  367TMC3    C4 5544   1.133   0.206  15.082 -0.1434  0.0042 -1.0428
  367TMC3    C5 5545   1.163   0.331  15.032 -0.1107  0.0982 -0.5153
  367TMC3    C6 5546   1.232   0.424  15.110  0.0137 -0.4809  0.1857
  367TMC3     C 5547   1.179   0.019  15.213  0.2033 -0.2537  0.2454
  367TMC3     O 5548   1.107   4.687  15.148  0.3578 -0.4157 -0.2819
  367TMC3     H 5549   1.275   0.216  15.385 -2.1180 -2.4256  0.3180
  367TMC3    H1 5550   1.081   0.134  15.020 -0.4449 -1.3013  0.7126
  367TMC3    H2 5551   1.255   0.522  15.070 -2.5084 -1.5382 -3.8902
  367TMC3    C7 5552   1.136   0.372  14.896 -0.3806 -0.2173 -0.4725
  367TMC3    C8 5553   1.385   0.448  15.298  0.2938  0.1235  0.2278
  367TMC3    O1 5554   1.093   0.482  14.872 -1.4899  0.6858 -0.1883
  367TMC3    O2 5555   1.392   0.417  15.417  0.3496  0.0927 -0.0888
  368MPD2     C 5556   2.470   1.484  11.989  0.2810  0.0407 -0.2133
  368MPD2    C1 5557   2.492   1.622  12.031  0.2145 -0.0568 -0.0004
  368MPD2    C2 5558   2.618   1.656  12.081 -0.3361  0.3011 -0.0389
  368MPD2    C3 5559   2.725   1.568  12.083 -0.3108  0.0071  0.0021
  368MPD2    C4 5560   2.706   1.438  12.036 -0.3337 -1.1216 -0.7225
  368MPD2    C5 5561   2.582   1.399  11.988  0.2474  0.2418  0.0890
  368MPD2     H 5562   2.632   1.759  12.113  2.1117  0.4488 -1.6057
  368MPD2    H1 5563   2.786   1.365  12.031 -0.2950 -1.3127  2.6735
  368MPD2    H2 5564   2.382   1.463  11.930 -1.2265  0.2316  1.9542
  368MPD2    H3 5565   2.560   1.307  11.935  1.8633 -1.3260  2.1464
  368MPD2     N 5566   2.848   1.591  12.141  0.0687 -0.2697  0.1572
  368MPD2    H5 5567   2.916   1.516  12.132  0.2213 -0.4120  2.6549
  368MPD2    N1 5568   2.383   1.714  12.027  0.6573 -0.2031 -0.0974
  368MPD2    H7 5569   2.289   1.678  12.010  1.2864 -1.3086 -1.2314
  369TMC3    C1 5570   2.275   1.913  12.085  0.2031 -0.1349 -0.1381
  369TMC3    C2 5571   2.244   2.045  12.060 -0.1405  0.5294  0.0455
  369TMC3    C3 5572   2.116   2.090  12.074  0.2720  0.3188 -0.0878
  369TMC3    C4 5573   2.181   1.839  12.154 -0.1017  0.3343  0.5207
  369TMC3    C5 5574   2.063   1.894  12.178 -0.3987  0.1729  0.2429
  369TMC3    C6 5575   2.017   2.012  12.134  0.3112  0.9421 -0.9202
  369TMC3     C 5576   2.398   1.849  12.046 -0.0758 -0.3576  0.2120
  369TMC3     O 5577   2.488   1.920  12.006 -0.2407 -0.0128  0.1979
  369TMC3     H 5578   2.314   2.104  12.002  0.4145  1.0135  1.2125
  369TMC3    H1 5579   2.212   1.751  12.209 -0.1589  1.5714  2.5518
  369TMC3    H2 5580   1.929   2.063  12.172  0.8091  0.6576  0.6287
  369TMC3    C7 5581   2.011   1.855  12.304  0.3094 -0.1158 -0.6020
  369TMC3    C8 5582   2.124   2.217  12.143 -0.3615  0.1011  0.0133
  369TMC3    O1 5583   2.095   1.821  12.388 -0.1297  0.2781  0.4134
  369TMC3    O2 5584   2.028   2.289  12.153 -0.0775 -0.0284 -0.3906
  370TMC3    C1 5585   2.251   2.968  16.120  0.6556  0.6419  0.0683
  370TMC3    C2 5586   2.179   2.903  16.213  0.6548  0.0520  0.0157
  370TMC3    C3 5587   2.116   2.788  16.176  1.2254  0.0267  0.1953
  370TMC3    C4 5588   2.249   2.933  15.987  0.1620 -0.1455 -0.2739
  370TMC3    C5 5589   2.183   2.815  15.957  0.3463 -0.1149  0.4269
  370TMC3    C6 5590   2.122   2.739  16.048 -0.6528  0.1249 -0.3033
  370TMC3     C 5591   2.367   3.041  16.172 -0.3759  0.3334 -0.1591
  370TMC3     O 5592   2.406   3.023  16.287  0.1037 -0.2264  0.0402
  370TMC3     H 5593   2.189   2.939  16.315  2.1815  1.7574 -0.7410
  370TMC3    H1 5594   2.303   2.988  15.912  0.9745  0.6228  0.8894
  370TMC3    H2 5595   2.067   2.655  16.007  0.7492 -0.4619 -0.9728
  370TMC3    C7 5596   2.223   2.754  15.832 -0.0829  0.8619  0.2746
  370TMC3    C8 5597   2.059   2.693  16.269 -0.2889  1.0164  0.6679
  370TMC3    O1 5598   2.267   2.831  15.751 -0.7442  0.1356  0.1403
  370TMC3    O2 5599   2.033   2.580  16.230  0.5485  0.0630  0.9448
  371TMC3    C1 5600   3.234   1.097  15.147  0.8340 -0.7237  0.8734
  371TMC3    C2 5601   3.171   1.099  15.274  0.7431  0.5242  0.6170
  371TMC3    C3 5602   3.157   1.215  15.335  0.7457  0.2463 -0.8807
  371TMC3    C4 5603   3.273   1.214  15.086  0.3463 -1.0528 -0.1227
  371TMC3    C5 5604   3.241   1.332  15.148  0.0707  0.1363 -0.0861
  371TMC3    C6 5605   3.186   1.336  15.277 -0.0814 -0.0376  0.2142
  371TMC3     C 5606   3.304   0.978  15.100 -0.3535  0.3881  0.0792
  371TMC3     O 5607   3.386   0.996  15.013  0.3694  0.1797  0.9321
  371TMC3     H 5608   3.151   1.007  15.327  0.8446 -0.7753 -1.6092
  371TMC3    H1 5609   3.321   1.217  14.989 -1.8845  1.2740 -1.1438
  371TMC3    H2 5610   3.171   1.432  15.324  0.1548  1.7041 -3.2557
  371TMC3    C7 5611   3.258   1.459  15.082  0.5751 -0.4603 -0.0763
  371TMC3    C8 5612   3.097   1.210  15.465  0.7713  0.7236 -0.0228
  371TMC3    O1 5613   3.247   1.556  15.154 -0.1465 -0.4510  0.3781
  371TMC3    O2 5614   3.074   1.106  15.522 -0.1202  0.3408 -0.1475
  372MPD2     C 5615   2.847   1.641  12.699 -0.3171  0.3056 -0.3668
  372MPD2    C1 5616   2.942   1.611  12.790 -0.4033  0.1271 -1.0141
  372MPD2    C2 5617   2.893   1.591  12.925 -0.2313 -0.0222  0.1824
  372MPD2    C3 5618   2.759   1.588  12.951  0.3456 -0.3645  0.3759
  372MPD2    C4 5619   2.663   1.602  12.854  0.2984  0.4442  0.1477
  372MPD2    C5 5620   2.710   1.614  12.724 -0.0476  0.9085  0.5410
  372MPD2     H 5621   2.962   1.571  13.006 -0.1737 -2.3813 -0.4381
  372MPD2    H1 5622   2.558   1.602  12.881  1.0935 -2.2840  3.2558
  372MPD2    H2 5623   2.871   1.674  12.598 -0.7162  0.0832 -0.5352
  372MPD2    H3 5624   2.645   1.628  12.638 -0.5287  0.4193  0.8248
  372MPD2     N 5625   2.727   1.592  13.088 -0.1574 -0.0848  0.1612
  372MPD2    H5 5626   2.798   1.569  13.157 -0.7413  3.0108  1.7810
  372MPD2    N1 5627   3.078   1.609  12.754 -0.1356  0.0676 -0.0006
  372MPD2    H7 5628   3.134   1.590  12.836  2.5338  2.1014 -1.3836
  373TMC3    C1 5629   2.589   1.577  13.278 -0.3997  0.7976  0.0335
  373TMC3    C2 5630   2.485   1.633  13.352  0.6079 -0.3126  0.7400
  373TMC3    C3 5631   2.448   1.569  13.468  0.8553 -0.4132  0.4238
  373TMC3    C4 5632   2.643   1.460  13.313 -0.6033 -0.0882  0.5746
  373TMC3    C5 5633   2.594   1.397  13.428  0.1379  0.4685  0.4643
  373TMC3    C6 5634   2.499   1.448  13.513 -0.4546  0.5893 -0.8883
  373TMC3     C 5635   2.601   1.613  13.138 -0.0676 -0.1521  0.2362
  373TMC3     O 5636   2.501   1.659  13.091  0.6355 -0.0983 -0.4546
  373TMC3     H 5637   2.445   1.730  13.326  0.7106  0.1050  2.1760
  373TMC3    H1 5638   2.725   1.420  13.254 -1.5619 -0.9744 -0.1483
  373TMC3    H2 5639   2.472   1.389  13.599  0.1535 -1.1154 -1.8689
  373TMC3    C7 5640   2.650   1.259  13.440 -0.0374 -0.8392 -0.4866
  373TMC3    C8 5641   2.327   1.617  13.526  0.4253  0.6283 -0.3427
  373TMC3    O1 5642   2.662   1.208  13.330 -0.1538  0.0326  0.1667
  373TMC3    O2 5643   2.231   1.634  13.450 -0.4690  0.5698  0.4414
  374TMC3    C1 5644   2.860   2.286   9.397  0.3067  0.4667  0.7009
  374TMC3    C2 5645   2.963   2.372   9.431  0.8889 -0.0938  0.3340
  374TMC3    C3 5646   2.997   2.468   9.342 -0.4162  0.1693  0.1341
  374TMC3    C4 5647   2.800   2.286   9.274  0.0182  0.4706  0.4883
  374TMC3    C5 5648   2.839   2.380   9.190  0.4356 -0.2854 -0.0278
  374TMC3    C6 5649   2.938   2.466   9.220 -0.4237  0.3711  0.0389
  374TMC3     C 5650   2.823   2.182   9.494 -0.4979  0.2188  0.1540
  374TMC3     O 5651   2.782   2.078   9.445  0.3166  0.2344 -0.7805
  374TMC3     H 5652   2.996   2.385   9.533 -1.9634 -1.9391  1.4727
  374TMC3    H1 5653   2.716   2.217   9.261  1.4871 -1.1703 -0.2587
  374TMC3    H2 5654   2.963   2.543   9.148  0.5806 -0.9914 -1.0675
  374TMC3    C7 5655   2.795   2.382   9.051  0.0492  0.4774  0.4509
  374TMC3    C8 5656   3.068   2.588   9.376  0.1302 -0.7800  0.0469
  374TMC3    O1 5657   2.829   2.481   8.991 -0.0269  0.1672 -0.0948
  374TMC3    O2 5658   3.045   2.686   9.304 -0.0391  0.1230 -0.9174
  375MPD2     C 5659   3.668   3.460  16.976 -0.1428  0.3124 -0.7320
  375MPD2    C1 5660   3.555   3.410  16.918  0.5002 -0.2161 -0.2748
  375MPD2    C2 5661   3.561   3.284  16.848 -0.0515  0.2306  0.0411
  375MPD2    C3 5662   3.684   3.220  16.831 -0.1873  0.1389 -0.2966
  375MPD2    C4 5663   3.793   3.279  16.889 -0.0780 -0.0559 -0.1297
  375MPD2    C5 5664   3.785   3.393  16.961 -0.5248 -0.5785 -0.2800
  375MPD2     H 5665   3.464   3.245  16.820  0.5103 -3.2895  2.9894
  375MPD2    H1 5666   3.890   3.237  16.867 -0.4378 -1.4721  0.9704
  375MPD2    H2 5667   3.671   3.557  17.025  1.3193 -0.1696  0.1199
  375MPD2    H3 5668   3.873   3.432  17.010 -1.9838  2.6508 -0.2196
  375MPD2     N 5669   3.705   3.097  16.755  0.0238  0.3579 -0.4392
  375MPD2    H5 5670   3.799   3.067  16.730  0.8672  0.7063  2.3172
  375MPD2    N1 5671   3.422   3.461  16.935  0.1386 -0.1008  0.4084
  375MPD2    H7 5672   3.346   3.410  16.890 -1.2212  1.3982  1.0214
  376TMC3    C1 5673   3.658   2.912  16.609 -0.8577 -0.3560 -0.5686
  376TMC3    C2 5674   3.785   2.860  16.633  1.0893 -0.4599  0.7709
  376TMC3    C3 5675   3.826   2.756  16.559 -0.5196 -0.1951  0.5275
  376TMC3    C4 5676   3.576   2.857  16.513  0.1305  0.2386  1.0096
  376TMC3    C5 5677   3.633   2.753  16.437 -0.1314 -0.3999 -0.2240
  376TMC3    C6 5678   3.755   2.704  16.460  0.4000 -0.5127  0.1874
  376TMC3     C 5679   3.610   3.029  16.685  0.5184 -0.1895  0.1262
  376TMC3     O 5680   3.489   3.035  16.686 -0.4098 -0.4451 -0.1941
  376TMC3     H 5681   3.847   2.896  16.714  0.9140 -0.3385  0.8528
  376TMC3    H1 5682   3.482   2.908  16.499  0.0947  0.0095  0.4287
  376TMC3    H2 5683   3.786   2.615  16.406  0.0388 -0.8631  0.5647
  376TMC3    C7 5684   3.581   2.763  16.306  0.3368 -0.6173  0.6001
  376TMC3    C8 5685   3.967   2.761  16.537  0.1168 -0.6815  0.1668
  376TMC3    O1 5686   3.521   2.862  16.268  0.5817 -0.1538 -0.0938
  376TMC3    O2 5687   4.012   2.805  16.432  0.5106 -0.1258  0.2871
  377MPD2     C 5688   1.944   2.215  12.496 -0.3161 -0.6317  0.0516
  377MPD2    C1 5689   1.815   2.258  12.485 -0.5183 -0.2767  0.5929
  377MPD2    C2 5690   1.721   2.236  12.587  0.0270  0.0714 -0.6160
  377MPD2    C3 5691   1.758   2.184  12.707 -0.1055  0.2716 -0.1711
  377MPD2    C4 5692   1.895   2.162  12.722  0.5073 -0.1131 -0.6230
  377MPD2    C5 5693   1.983   2.164  12.617 -0.1956 -0.3666 -0.9053
  377MPD2     H 5694   1.619   2.250  12.552  0.0243  0.5818 -0.4016
  377MPD2    H1 5695   1.941   2.128  12.814 -1.3023 -0.0534  0.3018
  377MPD2    H2 5696   2.018   2.208  12.417 -1.3715  1.4920 -1.1060
  377MPD2    H3 5697   2.085   2.135  12.643  0.1666  0.9627 -0.8399
  377MPD2     N 5698   1.669   2.169  12.821 -0.2153  0.5452 -0.3464
  377MPD2    H5 5699   1.708   2.122  12.902  1.9411  1.1026 -1.0436
  377MPD2    N1 5700   1.778   2.299  12.351  0.4468 -0.2952 -0.0478
  377MPD2    H7 5701   1.851   2.299  12.281  0.0867  1.6875 -0.4124
  378TMC3    C1 5702   1.500   2.404  11.983  0.0590 -0.4372 -0.4966
  378TMC3    C2 5703   1.547   2.433  12.112  0.4038 -0.1095  0.4944
  378TMC3    C3 5704   1.648   2.360  12.166 -0.0477  0.2711  0.3094
  378TMC3    C4 5705   1.565   2.313  11.907 -0.9863 -0.2912 -0.1226
  378TMC3    C5 5706   1.654   2.232  11.969  0.5461 -0.0718 -0.3348
  378TMC3    C6 5707   1.695   2.254  12.097 -0.7234  0.4372 -0.0137
  378TMC3     C 5708   1.359   2.386  11.977 -0.6010  0.0447  0.0532
  378TMC3     O 5709   1.313   2.291  11.914  0.8133  0.2415 -0.6392
  378TMC3     H 5710   1.505   2.512  12.173 -0.1327 -1.5093  1.9242
  378TMC3    H1 5711   1.533   2.297  11.805  1.7306 -0.1575 -0.9993
  378TMC3    H2 5712   1.762   2.181  12.140  0.0268  0.5124 -1.0636
  378TMC3    C7 5713   1.647   2.087  11.940 -0.1337  0.1091  0.3250
  378TMC3    C8 5714   1.665   2.366  12.313 -0.3273 -0.0822  0.0980
  378TMC3    O1 5715   1.624   2.016  12.037  0.3393 -0.2497  0.0562
  378TMC3    O2 5716   1.575   2.420  12.380  0.5781  0.3773 -0.4946
  379MPD2     C 5717   1.948   0.646  16.310  0.5203 -1.0069 -0.0388
  379MPD2    C1 5718   2.071   0.637  16.247  0.2468  0.3766 -0.0329
  379MPD2    C2 5719   2.186   0.664  16.312 -0.3468 -0.4878  0.3243
  379MPD2    C3 5720   2.184   0.695  16.440 -0.7876  0.9358 -0.4868
  379MPD2    C4 5721   2.069   0.695  16.512 -0.0746  0.0640 -0.5749
  379MPD2    C5 5722   1.955   0.677  16.441  0.3374 -0.2265 -0.3859
  379MPD2     H 5723   2.282   0.653  16.263 -1.1791  1.7642 -1.7824
  379MPD2    H1 5724   2.063   0.718  16.618  0.4059 -0.3476 -0.4577
  379MPD2    H2 5725   1.854   0.615  16.265 -0.5290  0.4262  1.1456
  379MPD2    H3 5726   1.860   0.681  16.493  0.0489  2.4443 -1.1185
  379MPD2     N 5727   2.305   0.713  16.515 -0.7449  0.6090  0.2671
  379MPD2    H5 5728   2.306   0.711  16.616  0.3879  2.3262  0.2932
  379MPD2    N1 5729   2.086   0.596  16.112 -0.3087  0.2348  0.1864
  379MPD2    H7 5730   2.180   0.573  16.083  0.3855  1.3967  1.4958
  380TMC3    C1 5731   2.026   0.519  15.893  0.3879 -0.5825  0.0691
  380TMC3    C2 5732   2.131   0.424  15.903 -0.1253  0.1050  0.1794
  380TMC3    C3 5733   2.196   0.385  15.786  0.7781  0.2303 -0.0254
  380TMC3    C4 5734   1.985   0.573  15.767 -0.0555 -0.4313 -0.6771
  380TMC3    C5 5735   2.045   0.509  15.657 -0.0863  0.7102  0.5579
  380TMC3    C6 5736   2.151   0.416  15.659  0.3645 -0.5605  1.0014
  380TMC3     C 5737   1.987   0.591  16.018 -0.2171  0.7051 -0.5302
  380TMC3     O 5738   1.871   0.633  16.022  0.1936  0.5215  0.1728
  380TMC3     H 5739   2.159   0.380  15.998  0.0765  2.0399  1.0070
  380TMC3    H1 5740   1.919   0.658  15.766  1.4999  0.7681 -1.0717
  380TMC3    H2 5741   2.195   0.384  15.566 -0.4556  0.8628  0.1251
  380TMC3    C7 5742   2.003   0.554  15.524  0.2672  0.1999  0.3566
  380TMC3    C8 5743   2.334   0.325  15.785 -0.0232  0.1006 -0.0379
  380TMC3    O1 5744   2.080   0.528  15.435  1.1021  0.6564  0.3799
  380TMC3    O2 5745   2.390   0.319  15.678  0.9473 -0.0921 -0.3740
  381TMC3    C1 5746   1.949   1.902  16.151 -0.5513 -0.4089 -0.1693
  381TMC3    C2 5747   2.021   1.996  16.087  0.6666  0.2341  0.8184
  381TMC3    C3 5748   2.055   2.107  16.163  0.0280  0.1954  0.3240
  381TMC3    C4 5749   1.909   1.908  16.285 -0.3895  0.3624 -0.3503
  381TMC3    C5 5750   1.938   2.022  16.354  1.0001  0.1844 -0.1398
  381TMC3    C6 5751   2.011   2.121  16.293  0.2869  0.4485 -0.1517
  381TMC3     C 5752   1.921   1.779  16.085 -0.1424 -0.4983  0.4332
  381TMC3     O 5753   1.916   1.793  15.964 -0.6833 -0.4158 -0.6726
  381TMC3     H 5754   2.047   1.980  15.983  0.5573  0.7502  0.7120
  381TMC3    H1 5755   1.844   1.829  16.320 -0.0710  0.1012 -0.3474
  381TMC3    H2 5756   2.024   2.216  16.344  1.8823 -0.9563  2.0522
  381TMC3    C7 5757   1.924   2.014  16.500  0.4763  0.2406  0.5970
  381TMC3    C8 5758   2.173   2.181  16.117 -0.7766 -0.1804  0.0262
  381TMC3    O1 5759   1.950   1.903  16.550  0.0837 -0.1949 -0.3241
  381TMC3    O2 5760   2.231   2.134  16.022 -0.1939 -0.1267  0.1681
  382MPD2     C 5761   1.195   4.608  17.056  0.2394  0.0700  1.0604
  382MPD2    C1 5762   1.184   4.573  17.192  0.5632 -0.1604 -0.5529
  382MPD2    C2 5763   1.149   4.447  17.228 -0.2770  0.2821 -0.0847
  382MPD2    C3 5764   1.133   4.350  17.131 -0.7153  0.5190 -0.6549
  382MPD2    C4 5765   1.148   4.384  17.002 -0.5177 -0.0301 -1.1828
  382MPD2    C5 5766   1.183   4.513  16.955 -0.2518  0.0724  0.7308
  382MPD2     H 5767   1.120   4.425  17.330  0.2819  1.7933  0.4125
  382MPD2    H1 5768   1.141   4.301  16.933 -0.1607  0.0682 -1.3395
  382MPD2    H2 5769   1.215   4.713  17.036  0.8862 -0.3096 -0.3285
  382MPD2    H3 5770   1.203   4.527  16.850 -1.1482 -1.4363  0.3605
  382MPD2     N 5771   1.125   4.213  17.163 -0.0178  0.2176 -0.1418
  382MPD2    H5 5772   1.109   4.151  17.084  0.0736 -3.5384  2.8149
  382MPD2    N1 5773   1.200   4.658  17.299 -0.4510 -0.2663 -0.5489
  382MPD2    H7 5774   1.173   4.620  17.389  0.2516  1.2567  0.3096
  383TMC3    C1 5775   1.166   4.016  17.279 -0.1348 -0.0914  0.2127
  383TMC3    C2 5776   1.054   3.950  17.226 -0.2048  0.1969 -0.2407
  383TMC3    C3 5777   1.014   3.834  17.284 -0.8777 -0.0543 -0.4362
  383TMC3    C4 5778   1.250   3.961  17.374  0.8502 -0.0202 -0.7160
  383TMC3    C5 5779   1.212   3.835  17.412 -0.5377  0.2507  0.0887
  383TMC3    C6 5780   1.093   3.772  17.377  0.0557  0.3386 -0.1839
  383TMC3     C 5781   1.160   4.160  17.284 -0.3559  0.4361 -0.7132
  383TMC3     O 5782   1.191   4.213  17.394 -0.0569  0.3992 -0.1203
  383TMC3     H 5783   0.994   4.003  17.154 -1.7554  0.0557  0.9555
  383TMC3    H1 5784   1.337   4.016  17.406  1.6871 -1.0489 -1.2161
  383TMC3    H2 5785   1.084   3.669  17.409 -0.0559  0.7888  1.2662
  383TMC3    C7 5786   1.253   3.781  17.540  0.1360  0.3896 -0.2689
  383TMC3    C8 5787   0.904   3.763  17.218  0.1152  0.1848 -0.8423
  383TMC3    O1 5788   1.189   3.702  17.604 -0.0586  0.1347 -0.2516
  383TMC3    O2 5789   0.848   3.815  17.122 -0.6159  0.1254 -1.0919
  384MPD2     C 5790   2.392   0.321  12.066  0.1484  0.1169 -0.1142
  384MPD2    C1 5791   2.481   0.301  12.172 -0.6362 -0.8989 -0.8575
  384MPD2    C2 5792   2.594   0.227  12.162 -0.1435 -0.7108  0.2481
  384MPD2    C3 5793   2.612   0.150  12.044  0.7401 -0.3113 -0.3778
  384MPD2    C4 5794   2.521   0.159  11.944  0.0476 -0.0818 -0.0335
  384MPD2    C5 5795   2.409   0.242  11.951  0.0991  0.6991  0.7351
  384MPD2     H 5796   2.650   0.202  12.251  0.0714 -0.3850  0.2032
  384MPD2    H1 5797   2.536   0.090  11.861  1.2621 -0.1225  0.2212
  384MPD2    H2 5798   2.305   0.384  12.078  0.5440  0.6591 -0.1347
  384MPD2    H3 5799   2.336   0.246  11.871  1.5238 -1.5563 -0.6890
  384MPD2     N 5800   2.728   0.069  12.023  0.3494  0.5343  0.3033
  384MPD2    H5 5801   2.723   0.003  11.946 -0.4907  0.5259  0.3621
  384MPD2    N1 5802   2.448   0.365  12.290  0.2647  0.6086 -0.4411
  384MPD2    H7 5803   2.362   0.419  12.286  1.1080  1.7926 -2.6289
  385TMC3    C1 5804   2.900   4.656  12.084 -0.5328  0.1565 -0.1419
  385TMC3    C2 5805   2.837   4.562  11.999  0.5727  0.0025  0.0502
  385TMC3    C3 5806   2.838   4.426  12.039  0.0258  0.3591  0.0654
  385TMC3    C4 5807   2.965   4.624  12.203 -0.0780  0.3526 -0.5662
  385TMC3    C5 5808   2.947   4.494  12.245 -0.3389 -0.7562 -0.3535
  385TMC3    C6 5809   2.898   4.399  12.157  0.0769  0.1050  0.2740
  385TMC3     C 5810   2.835   0.048  12.104  0.2809 -0.0684  0.2127
  385TMC3     O 5811   2.867   0.106  12.208  0.0858  0.3107  0.5031
  385TMC3     H 5812   2.774   4.589  11.915 -1.0190  0.8026  1.5093
  385TMC3    H1 5813   3.036   4.687  12.254  0.6144 -0.8177 -0.0729
  385TMC3    H2 5814   2.887   4.296  12.187  1.1945 -0.0918 -0.0115
  385TMC3    C7 5815   2.892   4.486  12.381  0.7433 -0.1062 -0.0740
  385TMC3    C8 5816   2.748   4.327  11.992 -0.9744  0.5551  0.5048
  385TMC3    O1 5817   2.876   4.369  12.414 -0.2870  0.2987 -0.3646
  385TMC3    O2 5818   2.715   4.241  12.073 -0.4859  0.3251  0.4097
  386TMC3    C1 5819   3.405   2.205  11.273  0.6991 -0.0339  0.2564
  386TMC3    C2 5820   3.363   2.313  11.198  0.2827  0.2169  0.4654
  386TMC3    C3 5821   3.279   2.396  11.262  0.2413 -0.1249 -0.4537
  386TMC3    C4 5822   3.349   2.176  11.399  0.1744 -0.0620 -0.3670
  386TMC3    C5 5823   3.262   2.262  11.449  0.2284  0.5442  0.1499
  386TMC3    C6 5824   3.229   2.380  11.387  0.6956  0.0542 -0.8122
  386TMC3     C 5825   3.521   2.142  11.227  0.3407 -0.3125 -0.2957
  386TMC3     O 5826   3.605   2.216  11.174  0.2877  0.6627  0.0232
  386TMC3     H 5827   3.410   2.331  11.102 -0.8063  1.6663  0.2045
  386TMC3    H1 5828   3.391   2.098  11.461 -2.0792 -0.4125  0.7427
  386TMC3    H2 5829   3.154   2.442  11.435  1.5479  1.6912 -1.6054
  386TMC3    C7 5830   3.213   2.241  11.584 -0.3132  0.0184  0.2419
  386TMC3    C8 5831   3.191   2.482  11.184 -0.6939  0.3213  0.0137
  386TMC3    O1 5832   3.174   2.343  11.645 -0.5797  0.0652 -0.2576
  386TMC3    O2 5833   3.141   2.571  11.250 -0.0876  0.0368  0.3328
  387MPD2     C 5834   0.777   2.296   9.691  0.6577  0.2429 -0.9137
  387MPD2    C1 5835   0.762   2.244   9.820  0.3388  0.6042 -0.6373
  387MPD2    C2 5836   0.798   2.112   9.838  0.3448  0.7392  0.3865
  387MPD2    C3 5837   0.844   2.034   9.736 -0.1494  0.0109  0.4207
  387MPD2    C4 5838   0.860   2.086   9.607 -0.6086  0.0099 -0.1574
  387MPD2    C5 5839   0.839   2.217   9.588  0.7856 -0.8442 -0.6682
  387MPD2     H 5840   0.782   2.062   9.932 -0.8094  2.2446  0.9847
  387MPD2    H1 5841   0.894   2.035   9.518 -2.9601 -1.8941  0.0439
  387MPD2    H2 5842   0.755   2.399   9.664 -0.8229  0.0898 -0.2795
  387MPD2    H3 5843   0.861   2.253   9.488 -1.9718  2.8533  0.0816
  387MPD2     N 5844   0.885   1.901   9.768 -0.1690  0.3134  0.4590
  387MPD2    H5 5845   0.878   1.865   9.863  0.5065  1.3827  0.9112
  387MPD2    N1 5846   0.714   2.313   9.934 -0.8561  0.4032 -0.3786
  387MPD2    H7 5847   0.700   2.256  10.017  2.3005  0.4416  0.1634
  388TMC3    C1 5848   0.754   2.498  10.074  0.5326 -0.3771  1.0139
  388TMC3    C2 5849   0.771   2.630  10.094 -0.2439 -0.4597 -0.1660
  388TMC3    C3 5850   0.832   2.660  10.211 -0.0365 -0.1113 -0.1980
  388TMC3    C4 5851   0.782   2.400  10.165  0.1498  0.3359 -0.2210
  388TMC3    C5 5852   0.847   2.433  10.277  0.9763 -0.5594 -0.2415
  388TMC3    C6 5853   0.875   2.571  10.302  0.1701 -0.6016 -1.2157
  388TMC3     C 5854   0.719   2.448   9.945  0.6617  0.1624 -0.2469
  388TMC3     O 5855   0.726   2.522   9.850  0.1337 -0.2102 -0.0271
  388TMC3     H 5856   0.757   2.711  10.024  0.2330  1.0140  1.4712
  388TMC3    H1 5857   0.759   2.295  10.155 -0.4657  0.5074 -0.6078
  388TMC3    H2 5858   0.935   2.595  10.390  0.7522  1.4137 -2.1655
  388TMC3    C7 5859   0.921   2.333  10.356 -0.0363  0.0511 -0.5332
  388TMC3    C8 5860   0.904   2.789  10.212 -0.1574  0.4616 -0.5831
  388TMC3    O1 5861   0.952   2.354  10.473 -0.1495  0.5335  0.6628
  388TMC3    O2 5862   0.924   2.843  10.102  0.0899  0.2066 -0.2851
  389MPD2     C 5863   4.644   0.898  10.645  0.6228  0.9355  0.3062
  389MPD2    C1 5864   4.577   0.780  10.631 -0.6060 -0.4783 -0.2119
  389MPD2    C2 5865   4.561   0.702  10.746  0.1376  0.0759 -0.3479
  389MPD2    C3 5866   4.601   0.751  10.875  0.4317  0.2802  0.8500
  389MPD2    C4 5867   4.656   0.878  10.886 -0.1960  0.1354 -0.4242
  389MPD2    C5 5868   4.672   0.951  10.767  0.2749  0.7285  0.0689
  389MPD2     H 5869   4.514   0.604  10.742  3.5575 -1.5655 -0.0288
  389MPD2    H1 5870   4.682   0.916  10.984  1.7100 -1.2659 -0.3905
  389MPD2    H2 5871   4.661   0.961  10.558  1.7667 -0.7243 -0.6728
  389MPD2    H3 5872   4.723   1.047  10.769  2.8751 -0.6837  1.2036
  389MPD2     N 5873   4.577   0.683  10.998 -0.1675  0.6987 -0.1662
  389MPD2    H5 5874   4.604   0.739  11.079  0.2927  0.9848 -0.5235
  389MPD2    N1 5875   4.546   0.737  10.498 -0.3278  0.3815  0.1382
  389MPD2    H7 5876   4.575   0.794  10.419  1.9039 -1.1145 -0.1116
  390TMC3    C1 5877   4.471   0.534  11.147 -0.5474  0.1961  0.0179
  390TMC3    C2 5878   4.447   0.406  11.180 -0.3986  0.1723  0.4270
  390TMC3    C3 5879   4.360   0.388  11.287  0.1082 -0.9975 -0.0266
  390TMC3    C4 5880   4.432   0.638  11.220  0.4721 -0.0996 -0.3693
  390TMC3    C5 5881   4.353   0.618  11.327  0.0048 -0.0136 -0.1767
  390TMC3    C6 5882   4.312   0.492  11.363  0.0714 -0.2982  0.2628
  390TMC3     C 5883   4.514   0.559  11.008 -0.5018  0.0621  0.3853
  390TMC3     O 5884   4.467   0.481  10.926 -0.3813 -0.5204  0.2744
  390TMC3     H 5885   4.492   0.335  11.112 -0.3285 -1.4305  2.1210
  390TMC3    H1 5886   4.452   0.738  11.182 -1.0753 -0.2008 -1.4363
  390TMC3    H2 5887   4.225   0.481  11.426  0.0544  2.6247  0.7481
  390TMC3    C7 5888   4.347   0.726  11.426  0.1410 -0.0297  1.0505
  390TMC3    C8 5889   4.312   0.253  11.312  0.2018 -0.0840  0.5493
  390TMC3    O1 5890   4.332   0.846  11.400  0.0053 -0.0361  0.3380
  390TMC3    O2 5891   4.298   0.173  11.219 -0.2482  0.0411  0.1191
  391MPD2     C 5892   3.970   2.281  10.702  0.0977  0.2229 -0.6720
  391MPD2    C1 5893   4.034   2.395  10.663 -0.1204  0.4828  0.0410
  391MPD2    C2 5894   4.004   2.457  10.538 -0.0329 -0.0105 -0.6462
  391MPD2    C3 5895   3.910   2.387  10.461 -0.0376 -0.4673 -0.1852
  391MPD2    C4 5896   3.836   2.283  10.506  0.2208 -0.0247 -0.3184
  391MPD2    C5 5897   3.866   2.231  10.629 -0.9246 -0.2266 -0.2882
  391MPD2     H 5898   4.041   2.552  10.502 -3.6615  1.1469 -1.2985
  391MPD2    H1 5899   3.761   2.235  10.445 -1.0087  2.0342 -0.4028
  391MPD2    H2 5900   3.999   2.241  10.798 -2.8220 -0.3489 -0.0081
  391MPD2    H3 5901   3.819   2.145  10.675 -0.3612 -0.9356 -1.0308
  391MPD2     N 5902   3.874   2.451  10.343  0.1459  0.3250  0.7612
  391MPD2    H5 5903   3.924   2.537  10.325  1.2028 -0.2735  0.8424
  391MPD2    N1 5904   4.143   2.445  10.747 -0.2698 -0.1167  0.1373
  391MPD2    H7 5905   4.147   2.412  10.843  1.6135 -1.4956 -0.4090
  392TMC3    C1 5906   3.757   2.525  10.153  0.2322  0.2741  0.2110
  392TMC3    C2 5907   3.647   2.517  10.074 -0.5380 -0.8207  0.4641
  392TMC3    C3 5908   3.630   2.622   9.975  0.3618  0.1229  1.0567
  392TMC3    C4 5909   3.856   2.619  10.140  0.2263  0.4273 -0.0536
  392TMC3    C5 5910   3.836   2.708  10.043  0.5101  0.6604  0.4389
  392TMC3    C6 5911   3.729   2.708   9.957  0.3868  0.0805  0.1246
  392TMC3     C 5912   3.772   2.420  10.253 -0.3988 -0.0375  0.5066
  392TMC3     O 5913   3.697   2.322  10.248 -0.3599  0.1580 -0.1650
  392TMC3     H 5914   3.577   2.435  10.081 -1.6810  0.1121 -0.0316
  392TMC3    H1 5915   3.945   2.627  10.201  0.0670 -2.6254  0.5979
  392TMC3    H2 5916   3.734   2.773   9.870  0.7837  0.3710  0.3617
  392TMC3    C7 5917   3.935   2.825  10.036 -0.0204 -0.5833  0.2165
  392TMC3    C8 5918   3.513   2.619   9.878  0.2217  0.1216  0.1233
  392TMC3    O1 5919   4.026   2.824  10.109  0.1375 -0.1061  0.3956
  392TMC3    O2 5920   3.451   2.514   9.879  0.3347  0.3000  0.1683
  393TMC3    C1 5921   2.703   0.411  10.496 -0.2521  0.0101 -0.2680
  393TMC3    C2 5922   2.566   0.388  10.503  0.0137  0.3499  0.3413
  393TMC3    C3 5923   2.516   0.358  10.627  0.2088  0.6767  0.1121
  393TMC3    C4 5924   2.792   0.389  10.598  0.6694 -0.5549  1.0625
  393TMC3    C5 5925   2.740   0.344  10.715  0.8427 -0.2426  0.5981
  393TMC3    C6 5926   2.606   0.338  10.731 -0.6311 -0.0600 -0.1726
  393TMC3     C 5927   2.742   0.481  10.376 -0.0594 -0.0633  0.3975
  393TMC3     O 5928   2.678   0.455  10.272 -0.3497 -0.0705  0.4365
  393TMC3     H 5929   2.504   0.405  10.416  1.1985 -2.1009 -0.9745
  393TMC3    H1 5930   2.898   0.392  10.575  0.4586 -1.0694  0.0382
  393TMC3    H2 5931   2.569   0.302  10.826  0.9157  0.7516  0.7468
  393TMC3    C7 5932   2.815   0.363  10.842 -0.2752 -0.2426  0.6227
  393TMC3    C8 5933   2.375   0.357  10.659 -0.5226  0.2868 -0.1362
  393TMC3    O1 5934   2.761   0.418  10.940  0.0729 -0.2306 -0.1481
  393TMC3    O2 5935   2.341   0.331  10.775 -0.0817 -0.3747  0.7210
  394TMC3    C1 5936   4.429   0.636  10.331  0.4525 -0.1146 -0.5498
  394TMC3    C2 5937   4.300   0.637  10.291  0.0248 -0.5107  0.4576
  394TMC3    C3 5938   4.270   0.616  10.162 -0.3422  0.7804 -0.5603
  394TMC3    C4 5939   4.536   0.610  10.255 -0.3624 -0.2074 -0.5595
  394TMC3    C5 5940   4.504   0.579  10.127  0.5366  0.2382  0.0037
  394TMC3    C6 5941   4.376   0.584  10.074 -0.0668 -0.1172 -0.2298
  394TMC3     C 5942   4.459   0.637  10.470  0.1117  0.0278  0.2765
  394TMC3     O 5943   4.401   0.552  10.539 -0.1801  0.2561  0.4765
  394TMC3     H 5944   4.222   0.631  10.366 -2.4972  2.2358 -1.9873
  394TMC3    H1 5945   4.637   0.620  10.294  0.3095  0.3041 -2.4099
  394TMC3    H2 5946   4.340   0.548   9.979 -0.5480 -0.0162 -0.0838
  394TMC3    C7 5947   4.609   0.583  10.030  0.0852 -0.2229 -0.2713
  394TMC3    C8 5948   4.147   0.558  10.120 -0.1971  0.9947 -0.5186
  394TMC3    O1 5949   4.581   0.596   9.913 -0.1294 -0.1772  0.2301
  394TMC3    O2 5950   4.045   0.623  10.139 -0.1397  0.0423  0.1673
  395TMC3    C1 5951   4.626   2.821  14.665  0.4167  0.1835 -0.4277
  395TMC3    C2 5952   4.649   2.750  14.551  0.3113 -0.4636 -0.4927
  395TMC3    C3 5953   0.021   2.796  14.478  0.1176  0.6989  0.7467
  395TMC3    C4 5954   4.700   2.929  14.708  0.1109  0.1123  0.5900
  395TMC3    C5 5955   0.066   2.968  14.637  0.0835 -0.2535 -0.3913
  395TMC3    C6 5956   0.100   2.897  14.529 -0.1599 -0.3112 -0.0627
  395TMC3     C 5957   4.535   2.781  14.765 -0.2736 -1.2925  0.2434
  395TMC3     O 5958   4.512   2.864  14.854 -0.4651  0.5179 -0.6098
  395TMC3     H 5959   4.589   2.666  14.520 -0.6088  0.3729 -0.9980
  395TMC3    H1 5960   4.682   3.000  14.787 -1.0526 -0.4955  0.8753
  395TMC3    H2 5961   0.187   2.927  14.472  0.0425  1.0463  0.9802
  395TMC3    C7 5962   0.141   3.087  14.673  0.1483  0.6395  0.0868
  395TMC3    C8 5963   0.050   2.750  14.346 -0.6068 -0.6983 -0.2800
  395TMC3    O1 5964   0.076   3.184  14.717 -0.3535  0.0341 -0.2241
  395TMC3    O2 5965   0.160   2.789  14.305 -0.1720  0.7018  0.2804
  396MPD2     C 5966   4.142   3.947  16.701  0.6400  0.3813  0.2423
  396MPD2    C1 5967   4.273   3.956  16.733 -1.1764  0.1112  0.4315
  396MPD2    C2 5968   4.362   4.052  16.683 -0.2456  0.0175 -0.2156
  396MPD2    C3 5969   4.321   4.132  16.588 -0.2137  0.1006 -0.9757
  396MPD2    C4 5970   4.187   4.137  16.559 -0.4195 -1.0306 -0.5311
  396MPD2    C5 5971   4.103   4.049  16.618  1.1277 -0.0680 -0.2264
  396MPD2     H 5972   4.464   4.063  16.718 -0.9541  2.0534  1.2171
  396MPD2    H1 5973   4.145   4.192  16.476  0.6218  0.9060  0.2168
  396MPD2    H2 5974   4.075   3.872  16.743 -0.9035  0.3009 -2.3729
  396MPD2    H3 5975   4.000   4.065  16.587  0.1920 -1.5896  2.0404
  396MPD2     N 5976   4.410   4.223  16.540 -0.5172  0.2699 -0.0532
  396MPD2    H5 5977   4.496   4.242  16.590 -0.5539 -1.6644  0.7473
  396MPD2    N1 5978   4.319   3.856  16.820  0.0213 -0.1834 -0.4203
  396MPD2    H7 5979   4.257   3.781  16.851 -1.3763  1.2568  0.2418
  397TMC3    C1 5980   4.462   3.733  16.964 -0.6611 -0.5549 -0.0944
  397TMC3    C2 5981   4.571   3.738  17.047 -0.9899  0.4364  0.5454
  397TMC3    C3 5982   4.623   3.614  17.084 -0.3623  0.1826  0.1986
  397TMC3    C4 5983   4.400   3.620  16.919 -0.1566 -0.0353 -0.0858
  397TMC3    C5 5984   4.443   3.502  16.973  0.4360 -0.0960  0.0831
  397TMC3    C6 5985   4.559   3.494  17.050  0.4953 -0.6114  0.1830
  397TMC3     C 5986   4.445   3.853  16.880  0.1422  0.0721  0.7854
  397TMC3     O 5987   4.530   3.939  16.887  0.3800  0.1360  0.2746
  397TMC3     H 5988   4.631   3.828  17.058 -0.3774  0.4760 -3.1080
  397TMC3    H1 5989   4.310   3.611  16.860 -0.1080  3.0070 -0.6336
  397TMC3    H2 5990   4.605   3.399  17.073  0.6546 -1.0332 -1.8713
  397TMC3    C7 5991   4.348   3.392  16.986  0.4851  0.7592 -0.1437
  397TMC3    C8 5992   0.023   3.600  17.123 -0.0101 -0.0460 -0.7446
  397TMC3    O1 5993   4.250   3.392  16.917  0.0708 -0.4387  0.2756
  397TMC3    O2 5994   0.038   3.527  17.221 -0.2105  0.7878 -0.1933
  398MPD2     C 5995   2.349   1.021  17.739  0.1196 -0.1568 -0.3579
  398MPD2    C1 5996   2.454   0.944   0.044 -0.0295 -0.1544  0.4559
  398MPD2    C2 5997   2.552   0.992   0.126  0.1998  0.3556  0.1132
  398MPD2    C3 5998   2.559   1.131   0.153  0.5258  0.4604 -0.0289
  398MPD2    C4 5999   2.461   1.207   0.091 -0.0897 -0.3836  0.4431
  398MPD2    C5 6000   2.359   1.156   0.018 -0.3289 -0.1044  0.3529
  398MPD2     H 6001   2.629   0.927   0.166 -0.1911  0.9043  1.7512
  398MPD2    H1 6002   2.470   1.313   0.109  0.7648 -0.0260 -2.0778
  398MPD2    H2 6003   2.268   0.975  17.683 -0.5226 -1.1869  1.4268
  398MPD2    H3 6004   2.286   1.222  17.719  0.0430 -0.2735 -0.5277
  398MPD2     N 6005   2.675   1.178   0.221  0.0093  0.3957 -0.2350
  398MPD2    H5 6006   2.746   1.107   0.236 -1.2502 -0.8578 -0.2005
  398MPD2    N1 6007   2.448   0.805   0.020 -0.2230 -0.2847  0.0550
  398MPD2    H7 6008   2.536   0.755   0.023  2.1662  3.8195 -1.1830
  399TMC3    C1 6009   2.386   0.590   0.003 -0.6594 -0.1054  0.1199
  399TMC3    C2 6010   2.479   0.561   0.097 -0.1077  0.3164 -0.1124
  399TMC3    C3 6011   2.504   0.430   0.143  0.7823 -0.2019  0.2312
  399TMC3    C4 6012   2.305   0.497  17.705  0.1911 -0.1431  0.1168
  399TMC3    C5 6013   2.330   0.370   0.008  0.4271 -0.1296 -0.2352
  399TMC3    C6 6014   2.425   0.335   0.099  0.0979  0.8854 -0.4257
  399TMC3     C 6015   2.346   0.727  17.730 -0.0828 -0.5587 -0.0203
  399TMC3     O 6016   2.236   0.758  17.683 -0.0319 -0.0169  0.1242
  399TMC3     H 6017   2.541   0.640   0.140  0.3051  0.6375 -1.2917
  399TMC3    H1 6018   2.224   0.528  17.639 -1.0004  0.1920  1.7277
  399TMC3    H2 6019   2.441   0.231   0.124  0.0679  1.0213  0.1647
  399TMC3    C7 6020   2.220   0.280  17.723  0.1894 -0.0063 -0.3215
  399TMC3    C8 6021   2.612   0.408   0.232  0.1339  0.3955 -1.1390
  399TMC3    O1 6022   2.139   0.308  17.634  0.1781  0.5289 -0.4797
  399TMC3    O2 6023   2.652   0.505   0.289  0.1531  0.8698  0.2107
  400TMC3    C1 6024   0.817   3.475  16.677 -0.7523  0.2716  0.1310
  400TMC3    C2 6025   0.743   3.375  16.619  0.2848 -0.3440  0.1607
  400TMC3    C3 6026   0.655   3.416  16.521  0.4733  0.2588 -0.3998
  400TMC3    C4 6027   0.802   3.610  16.637  0.0920  0.1273 -0.3741
  400TMC3    C5 6028   0.722   3.640  16.537 -0.1404  0.8332  0.1154
  400TMC3    C6 6029   0.647   3.545  16.473  0.4084 -0.1322  0.2545
  400TMC3     C 6030   0.875   3.442  16.802  0.3161 -1.2981  0.8800
  400TMC3     O 6031   0.828   3.348  16.865 -0.1707 -0.0627  0.2829
  400TMC3     H 6032   0.743   3.276  16.663 -0.9456 -1.3079 -2.0044
  400TMC3    H1 6033   0.858   3.682  16.694 -2.3802  2.0468 -0.3713
  400TMC3    H2 6034   0.570   3.570  16.401  0.2787  1.9478  1.1363
  400TMC3    C7 6035   0.718   3.779  16.487 -0.1960  0.3738 -0.2656
  400TMC3    C8 6036   0.550   3.323  16.475 -0.3616  0.1364 -0.5651
  400TMC3    O1 6037   0.657   3.794  16.384 -0.2627  0.4099 -0.5730
  400TMC3    O2 6038   0.500   3.355  16.367  0.3052  0.3341 -0.2564
  401MPD2     C 6039   3.664   2.246   1.107  0.0088 -0.3875  0.1238
  401MPD2    C1 6040   3.733   2.218   0.993 -0.0632 -0.1067  0.1953
  401MPD2    C2 6041   3.780   2.082   0.979  0.5516  0.4944  0.0790
  401MPD2    C3 6042   3.745   1.978   1.067 -0.1011 -0.0226 -0.2218
  401MPD2    C4 6043   3.657   2.006   1.169  1.0477  0.1783  0.1736
  401MPD2    C5 6044   3.631   2.139   1.189  1.3402  0.5487  0.0972
  401MPD2     H 6045   3.848   2.066   0.896 -0.3687  1.1452 -0.8043
  401MPD2    H1 6046   3.633   1.924   1.237 -1.2398  0.6260 -0.1134
  401MPD2    H2 6047   3.637   2.348   1.135 -3.9344 -1.4908  0.3501
  401MPD2    H3 6048   3.574   2.162   1.279  0.9803  1.4302 -0.3558
  401MPD2     N 6049   3.794   1.847   1.054 -0.0021  0.0945 -0.5162
  401MPD2    H5 6050   3.845   1.828   0.968 -0.5411 -3.4211 -0.0601
  401MPD2    N1 6051   3.763   2.305   0.884  0.0529  0.2052 -0.2644
  401MPD2    H7 6052   3.815   2.274   0.802 -2.6666  0.4224 -2.0576
  402TMC3    C1 6053   3.861   1.625   1.125  0.3286  0.2503 -0.0986
  402TMC3    C2 6054   3.953   1.574   1.213  0.0690  0.0793  0.8381
  402TMC3    C3 6055   4.026   1.471   1.153 -0.6129 -0.4517  0.4096
  402TMC3    C4 6056   3.850   1.592   0.992 -0.6779 -0.2489 -0.2568
  402TMC3    C5 6057   3.916   1.486   0.946  0.0406  0.4061 -0.7466
  402TMC3    C6 6058   4.004   1.423   1.026  0.3082  0.0024 -0.3207
  402TMC3     C 6059   3.809   1.757   1.160 -0.0000  0.0428 -0.0846
  402TMC3     O 6060   3.800   1.774   1.280 -0.6054 -0.0528  0.3151
  402TMC3     H 6061   3.989   1.627   1.301 -0.8272 -0.4722  1.5342
  402TMC3    H1 6062   3.777   1.640   0.927 -0.8150  1.0259  0.8486
  402TMC3    H2 6063   4.068   1.343   0.990  0.6340  1.0155 -1.9810
  402TMC3    C7 6064   3.927   1.479   0.797 -0.0381 -0.6631  0.1097
  402TMC3    C8 6065   4.103   1.378   1.236 -0.2801 -0.3595  0.5618
  402TMC3    O1 6066   3.882   1.574   0.734  0.0260  0.4028  0.3989
  402TMC3    O2 6067   4.195   1.330   1.174  0.3023 -0.3508  0.4419
  403MPD2     C 6068   2.275   4.524  13.088  0.7346 -0.0708 -0.1418
  403MPD2    C1 6069   2.208   4.540  13.204 -0.8957 -0.7650  0.8410
  403MPD2    C2 6070   2.268   4.578  13.321 -0.1873 -0.0690 -0.4442
  403MPD2    C3 6071   2.401   4.577  13.328 -0.2747 -0.4774 -0.9173
  403MPD2    C4 6072   2.477   4.570  13.212  0.4692  0.5491 -0.0562
  403MPD2    C5 6073   2.415   4.545  13.096  0.9538  0.2113  0.1229
  403MPD2     H 6074   2.207   4.592  13.409  0.2590  0.6939 -0.2548
  403MPD2    H1 6075   2.584   4.578  13.200  0.2830  0.0007 -2.1044
  403MPD2    H2 6076   2.229   4.485  12.998 -0.8652  3.6799 -0.9643
  403MPD2    H3 6077   2.470   4.530  13.003  0.1754  0.8321 -0.4344
  403MPD2     N 6078   2.470   4.591  13.448 -0.5155  0.5804 -0.3002
  403MPD2    H5 6079   2.423   4.627  13.530 -0.1582  1.2308 -0.3771
  403MPD2    N1 6080   2.072   4.532  13.182 -0.0426  0.3405 -0.6013
  403MPD2    H7 6081   2.025   4.509  13.095  1.9545 -1.0969 -1.2923
  404TMC3    C1 6082   1.840   4.562  13.227  0.3486 -0.0320 -0.4304
  404TMC3    C2 6083   1.757   4.488  13.305 -0.4054 -0.9891 -0.5149
  404TMC3    C3 6084   1.665   4.402  13.249 -0.2709 -0.6831  0.3531
  404TMC3    C4 6085   1.829   4.555  13.092 -0.4067  0.2980 -0.2377
  404TMC3    C5 6086   1.736   4.475  13.034  0.0745  0.3671  0.0025
  404TMC3    C6 6087   1.647   4.400  13.111  0.7336  0.5231 -0.8944
  404TMC3     C 6088   1.974   4.561  13.286  0.1207  0.5047 -0.5846
  404TMC3     O 6089   1.987   4.568  13.409 -0.1294 -0.5842 -0.3485
  404TMC3     H 6090   1.772   4.489  13.413  0.6637 -1.7273 -0.6576
  404TMC3    H1 6091   1.899   4.606  13.026 -1.1781  1.5771 -0.0700
  404TMC3    H2 6092   1.583   4.326  13.064 -0.4603  1.2702 -0.4433
  404TMC3    C7 6093   1.737   4.471  12.889 -0.0120  0.4815 -0.2319
  404TMC3    C8 6094   1.668   4.276  13.306 -0.5258 -0.3897 -0.2057
  404TMC3    O1 6095   1.841   4.490  12.825 -0.5852 -0.3334  0.0581
  404TMC3    O2 6096   1.681   4.176  13.233 -0.0396  0.1082 -0.0746
  405MPD2     C 6097   2.551   1.004  14.345 -0.0618  0.2377 -0.1686
  405MPD2    C1 6098   2.572   0.877  14.317  0.3008 -0.1431 -0.1355
  405MPD2    C2 6099   2.469   0.800  14.263 -0.0491  0.1809  0.8948
  405MPD2    C3 6100   2.362   0.867  14.207 -0.4603 -0.1232  0.5509
  405MPD2    C4 6101   2.334   1.001  14.239  0.0848 -0.0000  0.3881
  405MPD2    C5 6102   2.433   1.067  14.311  0.4829 -0.1905  0.1643
  405MPD2     H 6103   2.479   0.692  14.252  0.9249  0.3260  0.4031
  405MPD2    H1 6104   2.245   1.054  14.207  1.3399  1.1349 -1.2261
  405MPD2    H2 6105   2.622   1.064  14.400 -1.1068  0.5654  0.8356
  405MPD2    H3 6106   2.423   1.172  14.336  0.0199  0.0022 -0.8394
  405MPD2     N 6107   2.267   0.788  14.141 -0.2613  0.0855 -0.1145
  405MPD2    H5 6108   2.288   0.690  14.128  2.1045  0.4303  1.0682
  405MPD2    N1 6109   2.694   0.827  14.368 -0.1389 -0.4929  0.3131
  405MPD2    H7 6110   2.744   0.888  14.432  1.0406 -0.1138 -0.9673
  406TMC3    C1 6111   1.876   0.607  14.183  0.3256 -0.1000  0.4831
  406TMC3    C2 6112   1.927   0.479  14.169 -0.2410  0.5576  0.4423
  406TMC3    C3 6113   2.054   0.468  14.115  0.0837  0.0811  0.0152
  406TMC3    C4 6114   1.936   0.721  14.130 -0.5139  0.4097  0.1564
  406TMC3    C5 6115   2.064   0.707  14.076 -0.5476  0.3919 -0.4398
  406TMC3    C6 6116   2.126   0.585  14.085 -0.7778 -0.4269 -0.0526
  406TMC3     C 6117   1.781   0.631  14.297  0.2795  1.2713  0.3058
  406TMC3     O 6118   1.669   0.580  14.297 -0.0705  0.2620 -0.1646
  406TMC3     H 6119   1.879   0.398  14.222  0.5352 -0.1052  0.1254
  406TMC3    H1 6120   1.880   0.813  14.127  0.3336  0.9502  0.6158
  406TMC3    H2 6121   2.224   0.578  14.040 -1.1613  2.6862 -1.3465
  406TMC3    C7 6122   2.141   0.827  14.110 -0.7172 -0.1839 -0.3216
  406TMC3    C8 6123   2.122   0.336  14.141 -0.4681 -0.8981  0.6462
  406TMC3    O1 6124   2.087   0.935  14.135  0.2223  0.2617  1.0193
  406TMC3    O2 6125   2.055   0.232  14.139 -0.3742  0.0357 -0.2268
  407MPD2     C 6126   0.429   1.707   9.321 -0.6158  0.6054 -0.3675
  407MPD2    C1 6127   0.526   1.785   9.390 -0.1421  0.0046  0.4352
  407MPD2    C2 6128   0.485   1.890   9.463 -0.3084  0.1456 -0.0731
  407MPD2    C3 6129   0.350   1.909   9.483  0.0821  0.1650  0.3386
  407MPD2    C4 6130   0.255   1.834   9.415 -0.0865 -0.5989 -0.0401
  407MPD2    C5 6131   0.294   1.733   9.335  0.4487  0.4484 -0.1281
  407MPD2     H 6132   0.554   1.950   9.521  0.0284  0.6357 -0.9915
  407MPD2    H1 6133   0.150   1.860   9.418  0.7105  2.6592  0.5810
  407MPD2    H2 6134   0.458   1.627   9.254  0.7021  0.8445 -0.0935
  407MPD2    H3 6135   0.222   1.669   9.285  0.7868 -1.1844  1.4438
  407MPD2     N 6136   0.304   2.005   9.577 -0.0199 -0.2309 -0.1333
  407MPD2    H5 6137   0.204   2.010   9.595  0.1218 -0.9887  0.8722
  407MPD2    N1 6138   0.667   1.779   9.357  0.3194  0.7433 -0.0365
  407MPD2    H7 6139   0.732   1.834   9.413 -1.4566  1.5812  1.1870
  408TMC3    C1 6140   0.863   1.714   9.247  0.1203 -0.7179  0.1702
  408TMC3    C2 6141   0.952   1.612   9.255 -0.4130 -0.1317 -0.1945
  408TMC3    C3 6142   1.075   1.645   9.312 -0.0018  0.3915 -0.3643
  408TMC3    C4 6143   0.897   1.850   9.268  0.3465  0.2035 -0.0013
  408TMC3    C5 6144   1.030   1.874   9.295 -0.7019  0.0956  0.2633
  408TMC3    C6 6145   1.120   1.772   9.324  0.0160  0.0412 -0.6088
  408TMC3     C 6146   0.718   1.694   9.264 -0.2828 -0.8097  0.5730
  408TMC3     O 6147   0.672   1.588   9.224 -0.2153  0.0715 -0.4408
  408TMC3     H 6148   0.909   1.512   9.250 -0.6428 -0.1068  1.1138
  408TMC3    H1 6149   0.829   1.929   9.240 -0.6962 -0.8883 -0.5396
  408TMC3    H2 6150   1.221   1.796   9.354 -0.5063  0.4861  0.7954
  408TMC3    C7 6151   1.068   2.005   9.329 -0.1243  0.0895 -0.7085
  408TMC3    C8 6152   1.139   1.538   9.386  0.4001  0.3700  0.3573
  408TMC3    O1 6153   1.164   2.017   9.403 -0.0328 -0.2426 -0.5432
  408TMC3    O2 6154   1.098   1.421   9.375 -0.1168  0.3489 -0.0293
  409MPD2     C 6155   4.363   3.081  16.801 -0.0082 -0.3119 -0.1709
  409MPD2    C1 6156   4.461   3.062  16.894  1.0073 -0.6258 -0.9209
  409MPD2    C2 6157   4.575   3.149  16.877  0.2772  0.2362  0.1892
  409MPD2    C3 6158   4.580   3.244  16.782  0.1815  0.4959 -0.0011
  409MPD2    C4 6159   4.485   3.256  16.682 -0.0785 -0.0284  0.3742
  409MPD2    C5 6160   4.383   3.165  16.693  0.7875 -0.4493  0.6134
  409MPD2     H 6161   4.647   3.149  16.958 -0.9623  0.9346  1.2792
  409MPD2    H1 6162   4.492   3.331  16.604  1.2992 -0.5918 -0.0577
  409MPD2    H2 6163   4.270   3.026  16.803  1.0724 -2.0668  1.9498
  409MPD2    H3 6164   4.298   3.174  16.627  0.4373 -0.3166  1.0793
  409MPD2     N 6165   4.686   3.336  16.769 -0.7810  0.1972  0.8413
  409MPD2    H5 6166   4.673   3.402  16.693  0.5573  1.5265  1.7545
  409MPD2    N1 6167   4.448   2.974  17.006  0.1255  0.6170 -0.3227
  409MPD2    H7 6168   4.526   2.969  17.069 -0.4173  0.8567  0.3724
  410TMC3    C1 6169   0.170   3.430  16.795 -0.3761 -0.2618 -0.5086
  410TMC3    C2 6170   0.278   3.460  16.880  0.2052 -0.3063  0.3271
  410TMC3    C3 6171   0.367   3.535  16.817  0.6140 -0.4571  0.2851
  410TMC3    C4 6172   0.168   3.461  16.658  0.1654 -0.1180 -0.4965
  410TMC3    C5 6173   0.265   3.542  16.608  0.4034  0.6614  0.6889
  410TMC3    C6 6174   0.369   3.580  16.689 -0.2446 -0.0902  0.0135
  410TMC3     C 6175   0.067   3.336  16.840 -0.0190  0.5052  0.0576
  410TMC3     O 6176   0.093   3.290  16.950  0.9716  0.1199 -0.2103
  410TMC3     H 6177   0.277   3.450  16.988  1.5403 -2.7647  0.1150
  410TMC3    H1 6178   0.080   3.457  16.594 -0.4185  0.2225  0.2850
  410TMC3    H2 6179   0.442   3.654  16.660 -0.8193  0.6372  0.4502
  410TMC3    C7 6180   0.254   3.580  16.467 -0.2175  0.0824  0.0485
  410TMC3    C8 6181   0.489   3.565  16.892  0.2316  0.3730  0.1277
  410TMC3    O1 6182   0.189   3.506  16.401  0.1634  0.4394  0.3719
  410TMC3    O2 6183   0.561   3.657  16.867 -0.1973  0.2618  0.1122
  411MPD2     C 6184   0.406   4.019  14.437  1.0864  0.2756  0.6467
  411MPD2    C1 6185   0.310   4.023  14.534 -0.5871 -0.4397 -0.8566
  411MPD2    C2 6186   0.217   3.921  14.548 -0.0889 -0.4523 -0.4442
  411MPD2    C3 6187   0.216   3.811  14.465  0.0246  0.1582  1.0616
  411MPD2    C4 6188   0.318   3.804  14.377  0.9003 -0.2119 -0.0590
  411MPD2    C5 6189   0.406   3.903  14.357 -0.3921 -0.2055 -0.4125
  411MPD2     H 6190   0.139   3.929  14.622 -0.5604  0.7440 -1.0722
  411MPD2    H1 6191   0.321   3.726  14.302  2.1051 -2.0855  1.9413
  411MPD2    H2 6192   0.475   4.102  14.436  0.5368  0.7269 -0.6875
  411MPD2    H3 6193   0.479   3.896  14.277 -1.6221  2.3306 -1.7517
  411MPD2     N 6194   0.131   3.699  14.488  0.7546  0.0440  0.0092
  411MPD2    H5 6195   0.138   3.624  14.420 -1.7805  0.8577 -1.1296
  411MPD2    N1 6196   0.314   4.134  14.619  0.3589  0.6396  0.2348
  411MPD2    H7 6197   0.375   4.214  14.605  0.9951 -0.0516 -0.9223
  412TMC3    C1 6198   4.697   3.560  14.584  0.3956  0.2545  0.2054
  412TMC3    C2 6199   4.588   3.553  14.667  0.3692  0.5172  0.4404
  412TMC3    C3 6200   4.526   3.433  14.685  0.2803  0.2028  0.3478
  412TMC3    C4 6201   4.736   3.449  14.514 -0.3644 -0.2990 -0.6299
  412TMC3    C5 6202   4.660   3.337  14.522 -0.4387 -0.3106 -0.4974
  412TMC3    C6 6203   4.556   3.331  14.603 -0.1567 -0.5375  0.0883
  412TMC3     C 6204   0.034   3.689  14.584  0.1999  0.1767  1.2021
  412TMC3     O 6205   0.017   3.755  14.685 -0.1833 -0.6376  0.0001
  412TMC3     H 6206   4.551   3.635  14.727  1.6655  2.0072 -0.7881
  412TMC3    H1 6207   0.087   3.450  14.450 -0.3762  0.0314 -0.6394
  412TMC3    H2 6208   4.496   3.241  14.618  1.2560 -1.4076  0.4856
  412TMC3    C7 6209   4.634   3.252  14.405  0.2170  0.2191  0.9223
  412TMC3    C8 6210   4.391   3.435  14.704  0.2793  0.4640  0.1627
  412TMC3    O1 6211   4.531   3.182  14.409 -0.0265  0.3490 -0.5357
  412TMC3    O2 6212   4.348   3.369  14.798  0.4599 -0.4765 -0.2212
  413MPD2     C 6213   1.613   1.672  15.554  0.2668  0.0291  0.3324
  413MPD2    C1 6214   1.628   1.661  15.416 -0.0348 -0.1117  0.0696
  413MPD2    C2 6215   1.724   1.579  15.361 -0.3854  1.0151  0.4699
  413MPD2    C3 6216   1.824   1.528  15.443 -0.0447  0.1628  0.5198
  413MPD2    C4 6217   1.809   1.546  15.583  0.3748 -0.1286 -0.6687
  413MPD2    C5 6218   1.701   1.610  15.639 -0.2646 -0.1427 -0.1858
  413MPD2     H 6219   1.736   1.578  15.253  2.3251  1.6505  0.7484
  413MPD2    H1 6220   1.881   1.519  15.659 -0.3648 -0.2943 -0.0306
  413MPD2    H2 6221   1.534   1.724  15.607 -0.8422 -0.4924 -0.8148
  413MPD2    H3 6222   1.692   1.626  15.746  0.6929  0.7754 -0.2473
  413MPD2     N 6223   1.932   1.465  15.389  0.2856  0.3378  0.2548
  413MPD2    H5 6224   1.926   1.454  15.289  0.3995  1.5028  0.1204
  413MPD2    N1 6225   1.533   1.743  15.347  0.4219 -0.2428  0.6690
  413MPD2    H7 6226   1.481   1.808  15.406 -0.2926  0.4467 -0.7242
  414TMC3    C1 6227   2.126   1.340  15.381  0.4741  0.1316 -0.6373
  414TMC3    C2 6228   2.205   1.252  15.454 -0.1354  0.3912 -0.3962
  414TMC3    C3 6229   2.315   1.202  15.403 -0.4779  0.3688  0.3765
  414TMC3    C4 6230   2.164   1.379  15.253 -0.3739  0.1973 -0.1292
  414TMC3    C5 6231   2.272   1.308  15.206  0.1441  0.8840 -0.7853
  414TMC3    C6 6232   2.356   1.222  15.277 -0.0914 -0.0703 -0.7517
  414TMC3     C 6233   2.040   1.413  15.458  0.0511  0.5090  0.2719
  414TMC3     O 6234   2.043   1.400  15.581  0.2482 -0.5593 -0.7428
  414TMC3     H 6235   2.187   1.231  15.559 -1.7825  0.7031 -0.6054
  414TMC3    H1 6236   2.101   1.439  15.189 -1.2205 -2.4610 -1.8007
  414TMC3    H2 6237   2.438   1.170  15.230 -0.5204 -2.0246  0.6571
  414TMC3    C7 6238   2.311   1.326  15.068 -0.1449  0.0418  0.5149
  414TMC3    C8 6239   2.406   1.127  15.487 -0.2955 -0.0155 -0.0978
  414TMC3    O1 6240   2.224   1.344  14.984 -0.4399 -0.6049  0.3038
  414TMC3    O2 6241   2.444   1.022  15.439  0.0770 -0.1494 -0.6541
  415TMC3    C1 6242   2.431   4.605   9.936  0.1252  0.0002 -0.3523
  415TMC3    C2 6243   2.551   4.660   9.892 -0.4955  0.2382  0.2072
  415TMC3    C3 6244   2.608   4.587   9.789  0.6302 -0.3151  0.6915
  415TMC3    C4 6245   2.370   4.499   9.879 -0.2194  0.4157  0.3210
  415TMC3    C5 6246   2.439   4.433   9.784  0.3638 -0.2318 -0.2752
  415TMC3    C6 6247   2.556   4.475   9.735  0.6517  0.2855  0.0110
  415TMC3     C 6248   2.359   4.667  10.036 -0.1006  0.5107 -0.9654
  415TMC3     O 6249   2.239   4.647  10.041 -0.0837  0.0233  0.3318
  415TMC3     H 6250   2.594   0.009   9.943  0.4618  0.5479 -1.1257
  415TMC3    H1 6251   2.272   4.473   9.918  0.0789  0.1802  0.9074
  415TMC3    H2 6252   2.598   4.420   9.652  0.4726  0.4983 -0.2181
  415TMC3    C7 6253   2.404   4.292   9.746  0.2231 -0.0690  0.2188
  415TMC3    C8 6254   2.728   4.630   9.725 -0.4278  0.3261  0.7350
  415TMC3    O1 6255   2.481   4.231   9.674  0.4396 -0.2773  0.5207
  415TMC3    O2 6256   2.763   4.566   9.628  0.1243 -0.4117 -0.2608
  416MPD2     C 6257   3.904   3.281  11.256 -0.8055  0.0982 -0.6147
  416MPD2    C1 6258   3.817   3.357  11.177  0.6910  0.9953 -0.1115
  416MPD2    C2 6259   3.867   3.396  11.052 -0.6698 -0.6362  0.4780
  416MPD2    C3 6260   3.986   3.343  10.999 -0.0350 -0.3434 -0.3374
  416MPD2    C4 6261   4.068   3.267  11.087  0.0762  0.0271 -0.6395
  416MPD2    C5 6262   4.027   3.242  11.216  0.4264 -0.2110 -0.0343
  416MPD2     H 6263   3.799   3.450  10.988  1.2034  0.5609 -0.4789
  416MPD2    H1 6264   4.172   3.245  11.063 -0.7512 -0.9835 -3.3628
  416MPD2    H2 6265   3.881   3.254  11.359  0.4264  2.1010  0.1860
  416MPD2    H3 6266   4.093   3.196  11.289 -0.1576  0.0509  0.6657
  416MPD2     N 6267   4.016   3.333  10.869 -0.3878  0.0745 -0.2782
  416MPD2    H5 6268   4.097   3.279  10.841 -0.2712 -0.1679  0.5389
  416MPD2    N1 6269   3.694   3.388  11.231 -0.1287  0.0480  0.5881
  416MPD2    H7 6270   3.682   3.362  11.328 -0.0750 -1.7302  0.1263
  417TMC3    C1 6271   3.476   3.483  11.246  0.3376  0.1189  0.0674
  417TMC3    C2 6272   3.482   3.461  11.380 -0.5133  0.4825 -0.1140
  417TMC3    C3 6273   3.377   3.504  11.455  0.2810 -0.5909  0.4674
  417TMC3    C4 6274   3.378   3.559  11.190 -0.6784 -0.1053 -0.0019
  417TMC3    C5 6275   3.280   3.605  11.272 -0.0001  0.0437  0.2682
  417TMC3    C6 6276   3.279   3.581  11.407  0.5441  0.3267 -0.7107
  417TMC3     C 6277   3.591   3.457  11.164 -0.9936 -0.0439  0.7396
  417TMC3     O 6278   3.587   3.515  11.053 -0.3923 -0.0231  0.5004
  417TMC3     H 6279   3.564   3.403  11.420  0.1702  0.5419 -1.4461
  417TMC3    H1 6280   3.374   3.571  11.082 -1.4523  0.1194  0.0486
  417TMC3    H2 6281   3.210   3.627  11.477 -0.4045 -0.9542 -0.8146
  417TMC3    C7 6282   3.191   3.708  11.223 -0.6343  0.3182 -0.3671
  417TMC3    C8 6283   3.376   3.485  11.606  0.0126 -0.5364 -0.2545
  417TMC3    O1 6284   3.207   3.750  11.110 -0.2195  0.4958 -0.3290
  417TMC3    O2 6285   3.317   3.563  11.682 -0.0724 -0.3200 -0.0695
  418TMC3    C1 6286   3.037   1.419   0.315 -0.1234  0.1398  0.1483
  418TMC3    C2 6287   2.906   1.420   0.285  0.2749  0.9432 -0.1062
  418TMC3    C3 6288   2.830   1.312   0.311  0.4561 -0.3180  0.2383
  418TMC3    C4 6289   3.082   1.322   0.396 -0.3119  0.2154  0.0874
  418TMC3    C5 6290   3.002   1.216   0.429  0.2678 -0.2810 -0.2777
  418TMC3    C6 6291   2.875   1.207   0.384  0.4182 -0.1993  0.2050
  418TMC3     C 6292   3.118   1.465   0.202  0.9138  0.0434 -0.7462
  418TMC3     O 6293   3.085   1.568   0.144  0.2039  0.2915 -0.2024
  418TMC3     H 6294   2.870   1.493   0.213  1.5695  1.7775  0.1000
  418TMC3    H1 6295   3.187   1.321   0.421 -0.2263 -1.4775 -0.3289
  418TMC3    H2 6296   2.807   1.130   0.418  0.7354  0.6961  2.8789
  418TMC3    C7 6297   3.053   1.102   0.498  0.1310  0.0085 -0.0984
  418TMC3    C8 6298   2.697   1.308   0.252  0.3450  0.1424  0.0786
  418TMC3    O1 6299   2.998   0.998   0.468 -0.0242 -0.7792  0.5506
  418TMC3    O2 6300   2.639   1.412   0.215 -0.8103 -0.0500  0.4019
  419MPD2     C 6301   1.135   3.020  12.586 -0.3912 -0.9060  0.0711
  419MPD2    C1 6302   1.160   3.156  12.580 -0.1827 -0.0052  0.9225
  419MPD2    C2 6303   1.165   3.224  12.697  0.6029  0.0718  0.9614
  419MPD2    C3 6304   1.127   3.164  12.820  0.2380  0.1375 -0.3715
  419MPD2    C4 6305   1.121   3.028  12.829 -0.1241  0.0053 -0.3802
  419MPD2    C5 6306   1.124   2.955  12.711  0.1816 -0.0756 -0.3418
  419MPD2     H 6307   1.170   3.333  12.692  2.5594  0.0093  1.8214
  419MPD2    H1 6308   1.097   2.970  12.917 -0.4655 -0.2518 -0.6416
  419MPD2    H2 6309   1.144   2.958  12.498 -0.7478 -1.1550  0.2104
  419MPD2    H3 6310   1.126   2.846  12.709 -1.1571 -0.0593 -2.2987
  419MPD2     N 6311   1.143   3.251  12.933 -0.3956 -0.2158 -0.3896
  419MPD2    H5 6312   1.147   3.349  12.907  1.5287 -0.8789 -2.6287
  419MPD2    N1 6313   1.182   3.230  12.461  0.6886  0.4865  0.7066
  419MPD2    H7 6314   1.201   3.328  12.479  1.9615  0.3053  0.3001
  420TMC3    C1 6315   1.147   3.334  13.150 -0.1619 -0.8932  0.2541
  420TMC3    C2 6316   1.096   3.453  13.109 -0.4117  0.1175  0.5429
  420TMC3    C3 6317   1.051   3.538  13.210 -0.4060 -0.3741 -0.2679
  420TMC3    C4 6318   1.168   3.305  13.286 -0.7244 -0.5674  0.2728
  420TMC3    C5 6319   1.141   3.400  13.384  0.2790 -0.2992 -0.0599
  420TMC3    C6 6320   1.071   3.512  13.347 -0.3445 -0.5237 -0.2311
  420TMC3     C 6321   1.133   3.219  13.066 -0.1549 -0.0677  0.2855
  420TMC3     O 6322   1.118   3.114  13.128  0.3463  0.3830 -0.3629
  420TMC3     H 6323   1.078   3.477  13.005 -0.0816 -2.0123 -0.0022
  420TMC3    H1 6324   1.215   3.215  13.323  0.3267  0.3904  1.2557
  420TMC3    H2 6325   1.043   3.580  13.427  0.7878  0.6460 -0.8218
  420TMC3    C7 6326   1.187   3.381  13.520 -0.2506  0.0632 -0.4683
  420TMC3    C8 6327   0.960   3.641  13.169  0.2065 -0.7259  0.0504
  420TMC3    O1 6328   1.201   3.263  13.555 -0.4167 -0.1601 -0.2270
  420TMC3    O2 6329   0.931   3.637  13.052 -0.2984  0.1016 -0.0609
  421TMC3    C1 6330   2.644   4.598  13.594 -0.4607 -0.1764  0.0540
  421TMC3    C2 6331   2.582   4.701  13.659  0.0322  0.2281  0.3010
  421TMC3    C3 6332   2.627   4.723  13.786  0.3800  0.0220 -0.2495
  421TMC3    C4 6333   2.733   4.506  13.652 -0.0934 -0.1069  0.1692
  421TMC3    C5 6334   2.771   4.535  13.781 -0.2743 -0.0931 -0.3657
  421TMC3    C6 6335   2.729   4.649  13.849 -0.1489 -0.2684  0.4195
  421TMC3     C 6336   2.602   4.568  13.461  0.0031 -0.1733 -0.8352
  421TMC3     O 6337   2.681   4.504  13.393 -0.0311 -0.5017  0.3236
  421TMC3     H 6338   2.512   0.030  13.608  1.1134  1.1161 -0.0301
  421TMC3    H1 6339   2.774   4.432  13.584  2.5067 -0.1294  1.7912
  421TMC3    H2 6340   2.763   4.681  13.947 -1.0837  0.6270  0.4561
  421TMC3    C7 6341   2.896   4.472  13.824 -0.4368  0.2603 -0.7079
  421TMC3    C8 6342   2.611   0.128  13.844  0.1341  0.2653  0.4806
  421TMC3    O1 6343   2.964   4.542  13.895  0.1798 -0.5368 -0.5434
  421TMC3    O2 6344   2.693   0.165  13.929 -0.0746  0.2806 -0.1121
  422TMC3    C1 6345   0.237   1.740  12.085 -0.5759 -0.2685 -0.6878
  422TMC3    C2 6346   0.220   1.828  12.189  0.0217  0.0092 -0.0470
  422TMC3    C3 6347   0.094   1.827  12.244 -0.3857 -0.3160  0.2326
  422TMC3    C4 6348   0.142   1.652  12.039  0.0490 -0.1923 -0.2100
  422TMC3    C5 6349   0.028   1.646  12.111  0.3583  0.0079  0.5275
  422TMC3    C6 6350   4.734   1.738  12.210  0.0519 -0.8109  0.0148
  422TMC3     C 6351   0.358   1.759  12.010 -0.6261 -0.0166 -0.4456
  422TMC3     O 6352   0.453   1.807  12.066  0.0150 -0.3239 -0.7357
  422TMC3     H 6353   0.299   1.898  12.212  1.9753 -2.8727  1.9352
  422TMC3    H1 6354   0.160   1.585  11.955  1.5748 -0.3587  0.2399
  422TMC3    H2 6355   4.637   1.751  12.256 -1.5050  0.3608 -3.5612
  422TMC3    C7 6356   4.643   1.583  12.049 -0.0751 -0.1861  0.9005
  422TMC3    C8 6357   0.079   1.918  12.361  0.1036  0.1834  0.8389
  422TMC3    O1 6358   4.667   1.525  11.945  0.2657 -0.3728 -0.5603
  422TMC3    O2 6359   0.176   1.965  12.422 -0.5666 -0.0078  0.1195
  423MPD2     C 6360   1.811   2.891   0.412  0.4630  0.2702 -0.1458
  423MPD2    C1 6361   1.831   2.759   0.429 -0.2573 -0.3899 -0.5967
  423MPD2    C2 6362   1.812   2.683   0.320  0.0802 -0.3130  0.0837
  423MPD2    C3 6363   1.780   2.736   0.198 -0.1724  0.9103 -0.0225
  423MPD2    C4 6364   1.757   2.868   0.182  0.5573  0.9556  0.2557
  423MPD2    C5 6365   1.771   2.950   0.293  0.3314  0.7582  0.0442
  423MPD2     H 6366   1.858   2.586   0.335 -3.8329 -1.9765  1.1947
  423MPD2    H1 6367   1.738   2.917   0.087 -1.1853  1.1798  0.7007
  423MPD2    H2 6368   1.820   2.964   0.491 -0.7106 -1.5209  1.6403
  423MPD2    H3 6369   1.772   3.058   0.283  1.9511  0.7698  0.3841
  423MPD2     N 6370   1.786   2.657   0.084 -0.1282 -0.1320  0.4716
  423MPD2    H5 6371   1.768   2.705  17.742  1.5049 -1.6413 -0.7220
  423MPD2    N1 6372   1.876   2.704   0.551 -0.2745  0.7178  0.9802
  423MPD2    H7 6373   1.925   2.615   0.550 -1.9401 -0.1446 -1.6609
  424TMC3    C1 6374   1.931   2.698   0.772  0.9358 -0.1758 -0.1580
  424TMC3    C2 6375   2.064   2.703   0.767  0.8958 -0.2061  0.0544
  424TMC3    C3 6376   2.137   2.717   0.888 -0.1030 -0.3909 -0.0321
  424TMC3    C4 6377   1.868   2.693   0.885 -0.1214 -0.3989  0.0831
  424TMC3    C5 6378   1.930   2.704   1.001  0.6904  0.2684 -0.1467
  424TMC3    C6 6379   2.065   2.711   1.002  0.7245 -0.1114 -0.1373
  424TMC3     C 6380   1.852   2.766   0.671  0.1595  0.7118  0.8722
  424TMC3     O 6381   1.804   2.869   0.706 -0.5075 -0.2528  0.2041
  424TMC3     H 6382   2.120   2.716   0.674  1.3364 -0.4793  0.2830
  424TMC3    H1 6383   1.761   2.676   0.882 -0.5851  2.3301  1.2673
  424TMC3    H2 6384   2.113   2.694   1.098  2.3476  0.6118 -0.8185
  424TMC3    C7 6385   1.864   2.777   1.112  0.5634  0.4263 -0.2578
  424TMC3    C8 6386   2.260   2.648   0.897  0.3522 -0.6165 -0.8006
  424TMC3    O1 6387   1.924   2.789   1.219 -0.0281 -0.5943 -0.0585
  424TMC3    O2 6388   2.261   2.558   0.978  0.4602 -0.3622 -0.4583
  425MPD2     C 6389   0.529   2.115  17.356 -0.0312  0.5521 -0.1699
  425MPD2    C1 6390   0.459   2.042  17.264 -0.5490 -1.1243  0.7292
  425MPD2    C2 6391   0.325   2.073  17.241  0.5779 -0.3262  0.3985
  425MPD2    C3 6392   0.264   2.170  17.320  0.9073  0.7607  0.2183
  425MPD2    C4 6393   0.339   2.248  17.409  0.1346  0.1421  0.6918
  425MPD2    C5 6394   0.470   2.212  17.427 -0.0885  0.0005 -0.4204
  425MPD2     H 6395   0.261   2.012  17.178 -0.2865  0.3235  0.6494
  425MPD2    H1 6396   0.300   2.321  17.479  0.0673 -0.1770  0.9849
  425MPD2    H2 6397   0.634   2.102  17.378  0.0297 -1.7777 -1.8552
  425MPD2    H3 6398   0.537   2.269  17.491 -0.0580  0.2260 -0.6522
  425MPD2     N 6399   0.126   2.185  17.308  0.8737 -0.5150  0.6024
  425MPD2    H5 6400   0.085   2.124  17.238 -0.3587 -1.3611  2.0754
  425MPD2    N1 6401   0.528   1.940  17.193 -0.0247  0.7676  0.4197
  425MPD2    H7 6402   0.618   1.914  17.233 -0.6628  0.4356  1.6674
  426TMC3    C1 6403   0.584   1.786  17.019  0.5518  0.1445  0.4916
  426TMC3    C2 6404   0.581   1.762  16.886  0.1197  0.3432  0.0268
  426TMC3    C3 6405   0.664   1.662  16.836  0.6313 -0.1090 -0.0938
  426TMC3    C4 6406   0.649   1.702  17.099  0.0959  0.1693  0.8507
  426TMC3    C5 6407   0.720   1.594  17.052  0.6068 -0.4307  0.1417
  426TMC3    C6 6408   0.721   1.567  16.916 -0.0935 -0.2044 -0.2728
  426TMC3     C 6409   0.489   1.879  17.078 -0.0729 -0.2875  0.1245
  426TMC3     O 6410   0.402   1.920  17.003  0.5471  0.1804  0.1281
  426TMC3     H 6411   0.525   1.830  16.823  2.0874  1.1726 -0.8176
  426TMC3    H1 6412   0.652   1.716  17.206  1.2608 -1.5488  1.0542
  426TMC3    H2 6413   0.784   1.490  16.874  0.0601  0.0227 -0.4637
  426TMC3    C7 6414   0.728   1.467  17.127  0.0702  0.3274 -0.2823
  426TMC3    C8 6415   0.677   1.636  16.690  0.2165  0.3109 -0.1321
  426TMC3    O1 6416   0.799   1.383  17.074 -0.0549  0.2938  0.3441
  426TMC3    O2 6417   0.697   1.518  16.653 -0.5039  0.1261 -0.3007
  427MPD2     C 6418   4.212   3.791  14.624  0.0690 -0.5106 -0.0746
  427MPD2    C1 6419   4.158   3.743  14.737 -0.7589 -0.4606 -0.5543
  427MPD2    C2 6420   4.024   3.720  14.746 -0.2492 -0.1476  0.4889
  427MPD2    C3 6421   3.947   3.730  14.630 -0.1002  0.1444 -0.4889
  427MPD2    C4 6422   4.004   3.764  14.512 -1.1627 -0.2002 -0.0792
  427MPD2    C5 6423   4.138   3.800  14.509 -0.1536  1.1627 -0.1348
  427MPD2     H 6424   3.974   3.690  14.837  2.9877 -1.5630  1.7963
  427MPD2    H1 6425   3.942   3.753  14.424 -2.5540 -0.9666  0.9927
  427MPD2    H2 6426   4.320   3.793  14.621  0.0123  0.2409 -1.6975
  427MPD2    H3 6427   4.180   3.794  14.409 -0.9953  0.5283 -0.4480
  427MPD2     N 6428   3.806   3.710  14.626 -0.4431 -0.0464  0.1958
  427MPD2    H5 6429   3.759   3.738  14.540  1.1405  0.5211 -0.4792
  427MPD2    N1 6430   4.232   3.708  14.851 -0.4012 -0.3296  0.2858
  427MPD2    H7 6431   4.184   3.678  14.935 -1.7347 -1.2696 -0.8128
  428TMC3    C1 6432   4.411   3.680  14.997  0.6885  1.0938 -0.2566
  428TMC3    C2 6433   4.349   3.571  15.042 -0.3935 -1.0598  0.5544
  428TMC3    C3 6434   4.380   3.524  15.176 -0.5132  0.3149 -0.8384
  428TMC3    C4 6435   4.504   3.744  15.084 -0.4472  0.3000  0.2518
  428TMC3    C5 6436   4.546   3.686  15.200  0.3045  0.8661  0.2359
  428TMC3    C6 6437   4.482   3.576  15.254  0.6334  0.4321  0.2285
  428TMC3     C 6438   4.359   3.746  14.878 -0.3429 -0.4063  0.5393
  428TMC3     O 6439   4.427   3.832  14.818 -0.2767  0.6414  0.1478
  428TMC3     H 6440   4.269   3.531  14.980 -2.2086  2.0954  0.8412
  428TMC3    H1 6441   4.554   3.828  15.038 -1.3105 -0.5147 -2.1827
  428TMC3    H2 6442   4.512   3.528  15.347 -2.4463  0.6036  1.3243
  428TMC3    C7 6443   4.605   3.767  15.301 -0.8310  0.7821  0.3233
  428TMC3    C8 6444   4.269   3.444  15.244  0.5400 -0.7865 -0.3232
  428TMC3    O1 6445   4.581   3.752  15.420 -0.1089  0.2306  0.3436
  428TMC3    O2 6446   4.185   3.385  15.177  0.2096  0.9774  0.0726
  429MPD2     C 6447   0.122   4.123  17.342  0.3330 -0.9244 -0.5727
  429MPD2    C1 6448   0.241   4.054  17.329  0.5339 -0.2177 -0.5865
  429MPD2    C2 6449   0.346   4.128  17.279  0.2831 -0.6767  0.9918
  429MPD2    C3 6450   0.336   4.262  17.246  0.3194  1.0808 -0.3195
  429MPD2    C4 6451   0.223   4.328  17.284  0.2489  0.0462 -0.5163
  429MPD2    C5 6452   0.120   4.255  17.324  0.7442 -0.7530  0.5961
  429MPD2     H 6453   0.445   4.084  17.270 -0.2799 -1.9578  1.0512
  429MPD2    H1 6454   0.216   4.437  17.284 -0.6968 -0.0115  0.7807
  429MPD2    H2 6455   0.028   4.079  17.373 -1.5926  2.1711 -2.0774
  429MPD2    H3 6456   0.028   4.306  17.348  0.8819 -0.2044 -0.0605
  429MPD2     N 6457   0.445   4.323  17.192  0.5103  0.1443  0.2333
  429MPD2    H5 6458   0.534   4.276  17.174 -1.7728 -3.6509 -1.0274
  429MPD2    N1 6459   0.258   3.917  17.368 -0.3284  0.0368 -0.0446
  429MPD2    H7 6460   0.347   3.870  17.361 -1.1784 -1.5428 -0.2490
  430TMC3    C1 6461   0.559   4.467  17.049  0.3039 -0.5659  0.6616
  430TMC3    C2 6462   0.567   4.579  16.974  0.4866  0.7986  0.5834
  430TMC3    C3 6463   0.683   4.610  16.915 -0.4588  0.0772 -0.1690
  430TMC3    C4 6464   0.656   4.379  17.057 -0.8007  0.5111 -0.6129
  430TMC3    C5 6465   0.768   4.404  16.978 -0.0151  0.0213  0.2486
  430TMC3    C6 6466   0.785   4.526  16.923 -0.2417 -0.4241  0.2917
  430TMC3     C 6467   0.438   4.445  17.130 -0.2978  0.0565  0.3512
  430TMC3     O 6468   0.337   4.505  17.105  0.3570 -0.7070  0.2885
  430TMC3     H 6469   0.477   4.638  16.963 -0.3653 -0.6864 -0.5335
  430TMC3    H1 6470   0.650   4.275  17.086  0.0873  0.7258  0.3661
  430TMC3    H2 6471   0.872   4.543  16.860 -0.2975 -2.7396 -0.4183
  430TMC3    C7 6472   0.797   4.288  16.894  0.2251  0.1923 -0.2866
  430TMC3    C8 6473   0.669   4.684  16.782  0.2536  0.1442 -0.0766
  430TMC3    O1 6474   0.796   4.173  16.945  0.5970 -0.3514 -0.1629
  430TMC3    O2 6475   0.732   4.645  16.690 -0.4971 -0.0348 -0.0948
  431MPD2     C 6476   0.909   3.852  12.699 -0.3558  0.1302  0.6127
  431MPD2    C1 6477   0.914   3.895  12.567  0.2268 -0.4217  0.1031
  431MPD2    C2 6478   0.963   3.811  12.460  0.1075 -0.1639  0.1342
  431MPD2    C3 6479   0.992   3.681  12.487 -0.3955 -0.7652 -0.2394
  431MPD2    C4 6480   0.985   3.642  12.620 -0.0939 -0.4070 -0.1640
  431MPD2    C5 6481   0.938   3.717  12.717  0.5199 -0.3060  0.7375
  431MPD2     H 6482   0.961   3.848  12.358 -1.5785 -1.2046 -0.2083
  431MPD2    H1 6483   1.009   3.538  12.638  1.4369  0.3280  2.1617
  431MPD2    H2 6484   0.886   3.921  12.779  2.0650  1.5800  0.0795
  431MPD2    H3 6485   0.938   3.682  12.819  1.6691 -0.6517  0.6176
  431MPD2     N 6486   1.035   3.590  12.393  0.7307  0.6170  0.5419
  431MPD2    H5 6487   1.068   3.499  12.421  1.3192  0.0080 -2.0792
  431MPD2    N1 6488   0.899   4.030  12.532 -0.1281  0.8330  0.6452
  431MPD2    H7 6489   0.898   4.046  12.432  2.1865 -1.1474  0.3158
  432TMC3    C1 6490   1.114   3.494  12.186  0.0685 -0.4136  0.2477
  432TMC3    C2 6491   1.206   3.509  12.086  0.0032 -0.8305 -0.6787
  432TMC3    C3 6492   1.304   3.417  12.069  0.3518  0.3307 -0.0067
  432TMC3    C4 6493   1.101   3.380  12.261  0.3253 -0.2702  0.6622
  432TMC3    C5 6494   1.195   3.288  12.236  0.0990  0.6487 -0.6759
  432TMC3    C6 6495   1.301   3.302  12.148 -0.6519 -0.1910  0.0165
  432TMC3     C 6496   1.059   3.615  12.255  0.0380  0.0934  0.2432
  432TMC3     O 6497   1.063   3.720  12.197 -0.9723 -0.2940 -0.2356
  432TMC3     H 6498   1.225   3.601  12.032 -2.2880  0.9363  1.4909
  432TMC3    H1 6499   1.025   3.350  12.333 -0.3556  2.4769  1.0941
  432TMC3    H2 6500   1.379   3.228  12.159 -0.9452 -0.6579 -1.0129
  432TMC3    C7 6501   1.197   3.184  12.327  0.3561 -0.5403  0.0335
  432TMC3    C8 6502   1.425   3.439  11.990  0.2580  0.0388  0.2136
  432TMC3    O1 6503   1.189   3.068  12.285  0.3646 -0.3805 -0.0988
  432TMC3    O2 6504   1.449   3.543  11.934 -0.1126 -0.1042  0.4258
  433MPD2     C 6505   4.694   2.125   9.976 -0.4917 -0.1746  0.0197
  433MPD2    C1 6506   0.065   2.079  10.044  0.4902 -0.6709 -0.6848
  433MPD2    C2 6507   0.075   2.097  10.175  0.5527 -0.6929  0.3288
  433MPD2    C3 6508   4.720   2.172  10.249  0.2623 -0.0029  0.3733
  433MPD2    C4 6509   4.608   2.224  10.176 -0.3922 -0.9272  0.3318
  433MPD2    C5 6510   4.592   2.188  10.048  0.5817 -0.1588  0.1433
  433MPD2     H 6511   0.153   2.043  10.227  3.4651  2.7714 -0.4339
  433MPD2    H1 6512   4.532   2.285  10.224 -0.7017 -0.1998 -1.0663
  433MPD2    H2 6513   4.673   2.097   9.873 -1.1301  1.6991 -0.3646
  433MPD2    H3 6514   4.501   2.214   9.995  1.3916 -0.5619 -1.4585
  433MPD2     N 6515   4.726   2.169  10.388 -0.4778  0.0545 -0.4404
  433MPD2    H5 6516   0.071   2.126  10.431 -1.0656 -1.3639 -0.7453
  433MPD2    N1 6517   0.151   1.985   9.979 -0.1713 -0.0981 -0.0234
  433MPD2    H7 6518   0.111   1.931   9.903  0.8331 -0.3288 -0.3915
  434TMC3    C1 6519   0.316   1.817  10.002 -0.4708 -0.0730  0.2510
  434TMC3    C2 6520   0.350   1.743  10.110  0.1102  0.1164  0.2612
  434TMC3    C3 6521   0.314   1.609  10.111  0.4961 -0.0826  0.3312
  434TMC3    C4 6522   0.260   1.765   9.889  0.4214  0.2057 -1.0977
  434TMC3    C5 6523   0.250   1.627   9.885 -0.0443  0.3449  0.4055
  434TMC3    C6 6524   0.280   1.550   9.991 -0.5595  0.6948 -0.0153
  434TMC3     C 6525   0.276   1.947  10.035 -0.2893 -0.0240 -0.1765
  434TMC3     O 6526   0.353   2.017  10.099 -0.2289 -0.3521 -0.1207
  434TMC3     H 6527   0.377   1.784  10.207  1.9328 -1.5932  0.4744
  434TMC3    H1 6528   0.233   1.826   9.804 -1.3739  0.6326 -0.2100
  434TMC3    H2 6529   0.278   1.442   9.988  1.9367  0.6991 -1.9129
  434TMC3    C7 6530   0.188   1.568   9.769 -0.2312 -0.0495  0.2883
  434TMC3    C8 6531   0.367   1.536  10.226  0.1951 -0.0349  0.2481
  434TMC3    O1 6532   0.183   1.644   9.678 -0.1324  0.5187 -0.0060
  434TMC3    O2 6533   0.369   1.595  10.334  0.3717 -0.2855  0.1984
  435MPD2     C 6534   2.318   2.871  15.283 -0.2968  0.2159 -0.0999
  435MPD2    C1 6535   2.355   2.920  15.410 -0.4432 -0.5305 -0.5494
  435MPD2    C2 6536   2.474   2.865  15.468  0.1695  0.2474  0.5452
  435MPD2    C3 6537   2.554   2.774  15.404  0.7415  0.4614  0.8435
  435MPD2    C4 6538   2.516   2.738  15.280 -0.5794  0.4543  0.2000
  435MPD2    C5 6539   2.407   2.790  15.218  0.5836 -0.0660  0.5071
  435MPD2     H 6540   2.501   2.884  15.571 -0.7353 -0.4774  0.9253
  435MPD2    H1 6541   2.575   2.666  15.224 -1.1877  0.2386 -0.1764
  435MPD2    H2 6542   2.235   2.908  15.224 -0.2670 -2.5607 -1.8784
  435MPD2    H3 6543   2.366   2.763  15.121 -0.4077  0.1966  0.8471
  435MPD2     N 6544   2.655   2.711  15.483  0.6750 -0.0899 -0.5313
  435MPD2    H5 6545   2.657   2.732  15.582 -1.2082 -1.3513 -0.2340
  435MPD2    N1 6546   2.280   2.998  15.499  1.0957  0.0430 -0.2317
  435MPD2    H7 6547   2.316   3.014  15.593 -1.4237  1.7565  0.4326
  436TMC3    C1 6548   2.039   3.143  15.809 -0.1775  0.5283 -0.1317
  436TMC3    C2 6549   2.127   3.114  15.704 -0.2785  0.0740 -0.1116
  436TMC3    C3 6550   2.072   3.047  15.597 -0.5973  0.3987  0.6578
  436TMC3    C4 6551   1.912   3.088  15.818  0.3263 -0.4729 -0.8550
  436TMC3    C5 6552   1.870   3.012  15.710 -0.7894  0.6112 -0.1997
  436TMC3    C6 6553   1.940   3.014  15.592 -0.7119 -0.1118 -0.3310
  436TMC3     C 6554   2.097   3.212  15.928  0.9369 -0.2884 -0.3663
  436TMC3     O 6555   2.211   3.247  15.910  0.6058 -0.2437 -0.0052
  436TMC3     H 6556   2.229   3.148  15.713  0.2865 -1.7534  0.3311
  436TMC3    H1 6557   1.858   3.086  15.912  0.9031 -2.4861 -0.5745
  436TMC3    H2 6558   1.904   2.978  15.496 -1.4499 -1.0651  0.2945
  436TMC3    C7 6559   1.734   2.956  15.705 -0.2222  0.1155  0.9327
  436TMC3    C8 6560   2.147   3.032  15.473  0.1657  0.0139  0.1184
  436TMC3    O1 6561   1.647   2.974  15.791  0.0436 -0.0567 -0.2425
  436TMC3    O2 6562   2.082   3.034  15.367 -0.2362  0.2180 -0.0055
  437TMC3    C1 6563   0.506   4.639  12.201  0.4885 -0.2656 -0.6355
  437TMC3    C2 6564   0.459   4.560  12.093  0.0162  0.1146  0.5664
  437TMC3    C3 6565   0.541   4.561  11.980 -0.6631 -0.5036 -0.4372
  437TMC3    C4 6566   0.616   4.714  12.196 -0.4660  0.1321 -0.0046
  437TMC3    C5 6567   0.690   4.708  12.081 -0.0047 -0.1024 -0.0079
  437TMC3    C6 6568   0.659   4.634  11.972 -0.6394 -0.5619 -0.4331
  437TMC3     C 6569   0.409   4.676  12.297 -0.2272 -0.0661 -0.1359
  437TMC3     O 6570   0.434   0.041  12.358 -0.2398  0.6127  0.5865
  437TMC3     H 6571   0.362   4.513  12.081 -0.2493  1.1202 -1.1399
  437TMC3    H1 6572   0.626   0.065  12.260  3.2667  0.3551 -0.9460
  437TMC3    H2 6573   0.717   4.638  11.880  3.4384  1.0724  2.2359
  437TMC3    C7 6574   0.816   0.043  12.078  0.1147  0.0347 -0.1229
  437TMC3    C8 6575   0.501   4.497  11.852  0.0974  0.1776  0.0174
  437TMC3    O1 6576   0.845   0.096  11.970 -0.4648  0.9624  0.4054
  437TMC3    O2 6577   0.512   4.572  11.755 -0.2983 -0.0180 -0.4074
  438MPD2     C 6578   3.061   0.901  16.518 -0.1963 -1.0558  0.1803
  438MPD2    C1 6579   3.139   0.819  16.587  0.4988 -1.4551 -0.9147
  438MPD2    C2 6580   3.118   0.810  16.726 -0.6409  0.2015 -0.2230
  438MPD2    C3 6581   3.013   0.876  16.789  0.0006 -0.1606 -0.2094
  438MPD2    C4 6582   2.938   0.966  16.717 -0.1980 -0.6466  0.1347
  438MPD2    C5 6583   2.964   0.978  16.580 -0.6927  0.1662 -0.7259
  438MPD2     H 6584   3.179   0.740  16.782 -0.3509  0.2849 -0.4400
  438MPD2    H1 6585   2.868   1.041  16.754 -2.8881 -2.9788 -0.2812
  438MPD2    H2 6586   3.067   0.913  16.411 -2.0823  0.1690  0.2187
  438MPD2    H3 6587   2.905   1.040  16.514 -0.7090  0.4604 -0.4334
  438MPD2     N 6588   2.999   0.866  16.931  0.0160 -0.6463  0.2009
  438MPD2    H5 6589   2.948   0.938  16.981  0.9004  0.8750 -1.0758
  438MPD2    N1 6590   3.229   0.727  16.527  0.4259 -0.2916 -0.3594
  438MPD2    H7 6591   3.273   0.664  16.594  0.7305  1.2688  0.8953
  439TMC3    C1 6592   3.337   0.595  16.358 -0.8470  0.0475  1.0827
  439TMC3    C2 6593   3.327   0.550  16.229 -0.6406 -0.3012 -0.4218
  439TMC3    C3 6594   3.387   0.432  16.199 -0.1225  0.5768  0.1022
  439TMC3    C4 6595   3.430   0.542  16.445  0.8561 -0.2879  0.3347
  439TMC3    C5 6596   3.485   0.418  16.418  0.2027  0.5290  0.0154
  439TMC3    C6 6597   3.469   0.367  16.294 -0.1232 -0.2834  0.5437
  439TMC3     C 6598   3.260   0.706  16.392  0.5343 -0.2343 -0.1736
  439TMC3     O 6599   3.214   0.765  16.298 -0.0993  0.8815 -0.5980
  439TMC3     H 6600   3.243   0.577  16.167 -0.8550  0.5861  0.2471
  439TMC3    H1 6601   3.437   0.589  16.542  1.6548  2.4209 -1.0082
  439TMC3    H2 6602   3.522   0.280  16.258 -0.6907 -0.6084  0.5053
  439TMC3    C7 6603   3.570   0.346  16.513  1.3227  0.4836  0.2913
  439TMC3    C8 6604   3.408   0.394  16.056  0.6651 -0.8827  1.1290
  439TMC3    O1 6605   3.634   0.410  16.591  0.1333  0.1872  0.3192
  439TMC3    O2 6606   3.435   0.278  16.041  0.0413 -0.5309  0.4246
  440MPD2     C 6607   2.551   0.967  15.073  0.6900  0.1392 -0.8251
  440MPD2    C1 6608   2.507   0.871  15.159 -0.7294 -0.0845  0.4341
  440MPD2    C2 6609   2.585   0.781  15.222  0.0348  0.4861  0.5719
  440MPD2    C3 6610   2.723   0.801  15.218  0.1317  0.6873  0.6634
  440MPD2    C4 6611   2.774   0.900  15.131  0.1050 -0.0550  0.4366
  440MPD2    C5 6612   2.687   0.976  15.053  0.0728  0.4268  0.0543
  440MPD2     H 6613   2.548   0.708  15.293  1.6852 -0.8955  0.0173
  440MPD2    H1 6614   2.880   0.918  15.118  0.3745  0.9056  4.0083
  440MPD2    H2 6615   2.478   1.014  15.009  1.1690  1.3044 -0.5033
  440MPD2    H3 6616   2.736   1.041  14.981  1.3916  0.2768  0.8182
  440MPD2     N 6617   2.803   0.728  15.311 -0.0136  0.0822  0.5220
  440MPD2    H5 6618   2.750   0.669  15.375 -1.4261  1.0120  0.2215
  440MPD2    N1 6619   2.367   0.859  15.184 -0.0496 -0.4922 -0.4431
  440MPD2    H7 6620   2.346   0.802  15.266  2.0416  0.5405  0.8152
  441TMC3    C1 6621   2.980   0.688  15.444  0.5097  0.2978 -0.0029
  441TMC3    C2 6622   3.025   0.783  15.534 -0.0372  0.2153  0.2893
  441TMC3    C3 6623   3.027   0.758  15.669 -0.4510  0.9544 -0.1031
  441TMC3    C4 6624   2.923   0.575  15.492  0.0653  0.0288  0.0986
  441TMC3    C5 6625   2.940   0.548  15.625  0.3207  0.5135 -0.4660
  441TMC3    C6 6626   3.001   0.630  15.714  0.0574  0.5448  0.0739
  441TMC3     C 6627   2.937   0.744  15.321  0.2509  0.2862  0.0223
  441TMC3     O 6628   3.005   0.836  15.281 -0.0403  0.0929  0.3316
  441TMC3     H 6629   3.048   0.883  15.500  1.4986 -0.0693  0.4968
  441TMC3    H1 6630   2.854   0.510  15.439  0.8624  0.2782 -1.2637
  441TMC3    H2 6631   2.996   0.622  15.822  2.1577  1.3824  0.2425
  441TMC3    C7 6632   2.823   0.484  15.685 -0.0263  0.3301 -0.5690
  441TMC3    C8 6633   2.961   0.858  15.749 -0.1127  0.5535 -0.7173
  441TMC3    O1 6634   2.721   0.506  15.621 -0.1079  0.1686  0.0577
  441TMC3    O2 6635   2.994   0.881  15.866  0.3935  0.0099 -0.0270
  442MPD2     C 6636   0.229   1.644  16.225  0.0780  0.6993 -0.3466
  442MPD2    C1 6637   0.145   1.549  16.278 -0.1190 -0.4228 -0.5114
  442MPD2    C2 6638   0.134   1.429  16.216 -0.3715  1.2761 -0.0291
  442MPD2    C3 6639   0.194   1.409  16.091  0.5933 -0.4562  0.0487
  442MPD2    C4 6640   0.264   1.507  16.035  0.9144  0.1582  0.4039
  442MPD2    C5 6641   0.284   1.626  16.103  0.0877  0.1550  0.3752
  442MPD2     H 6642   0.089   1.354  16.280  0.6392 -0.5213 -1.4238
  442MPD2    H1 6643   0.314   1.499  15.940  0.2496 -0.9898  0.1480
  442MPD2    H2 6644   0.247   1.736  16.279  1.8860  1.1188 -1.6558
  442MPD2    H3 6645   0.357   1.691  16.056 -0.7266  1.0397  0.3325
  442MPD2     N 6646   0.178   1.290  16.012 -0.2226  0.1400 -0.0427
  442MPD2    H5 6647   0.232   1.283  15.926  0.1887 -2.7090  0.4561
  442MPD2    N1 6648   0.076   1.566  16.396  0.3155  0.1029 -0.3589
  442MPD2    H7 6649   0.013   1.488  16.414 -0.1718  1.0562  2.0842
  443TMC3    C1 6650   4.692   1.674  16.551 -0.0415  0.2655  0.0934
  443TMC3    C2 6651   4.624   1.796  16.555  0.0539 -0.8111  0.2832
  443TMC3    C3 6652   4.498   1.786  16.597 -0.2809  0.0019  0.0932
  443TMC3    C4 6653   4.640   1.558  16.609 -1.0611 -0.8030  0.1705
  443TMC3    C5 6654   4.523   1.570  16.677  0.1549 -0.1389  1.0725
  443TMC3    C6 6655   4.448   1.684  16.666 -0.0300 -0.6317  0.6738
  443TMC3     C 6656   0.076   1.680  16.474 -0.0575  0.2258 -0.3608
  443TMC3     O 6657   0.138   1.790  16.471  0.4690 -0.3888  0.9016
  443TMC3     H 6658   4.674   1.885  16.518 -1.0574  0.7715  2.5451
  443TMC3    H1 6659   4.697   1.467  16.616 -1.6559 -0.9832  2.5752
  443TMC3    H2 6660   4.349   1.681  16.710  1.1850 -0.5490  3.4374
  443TMC3    C7 6661   4.466   1.456  16.739  0.1739 -0.2118  0.2398
  443TMC3    C8 6662   4.416   1.905  16.585  0.1416  0.8550 -0.1362
  443TMC3    O1 6663   4.493   1.345  16.695  0.4575  0.1301 -0.4026
  443TMC3    O2 6664   4.332   1.919  16.673 -0.4554 -0.1627  0.6700
  444MPD2     C 6665   0.213   1.399  16.710  0.6839 -0.3399 -0.1803
  444MPD2    C1 6666   0.171   1.269  16.715 -0.2646  0.6063  0.3665
  444MPD2    C2 6667   0.242   1.172  16.643 -0.7532 -0.6312  0.0075
  444MPD2    C3 6668   0.358   1.203  16.574 -0.3754  0.0123  0.4764
  444MPD2    C4 6669   0.395   1.339  16.578  0.1188 -0.3722  0.2202
  444MPD2    C5 6670   0.319   1.434  16.629 -0.0550  0.1242  0.6123
  444MPD2     H 6671   0.200   1.073  16.629 -1.5144 -0.3093  0.0398
  444MPD2    H1 6672   0.485   1.371  16.526 -0.5868  0.4216 -0.5121
  444MPD2    H2 6673   0.163   1.484  16.756 -1.1584 -2.5539  1.8636
  444MPD2    H3 6674   0.357   1.535  16.640  0.4886  0.0410 -0.5425
  444MPD2     N 6675   0.430   1.097  16.516  0.0783  0.3516 -0.0834
  444MPD2    H5 6676   0.391   1.004  16.511 -0.8978  0.8106 -1.2159
  444MPD2    N1 6677   0.068   1.220  16.801 -0.1041 -0.1328  0.2132
  444MPD2    H7 6678   0.058   1.119  16.812 -2.4125 -0.1060 -1.6932
  445TMC3    C1 6679   0.624   0.986  16.447 -0.8093  0.0794 -0.4957
  445TMC3    C2 6680   0.545   0.876  16.437 -0.1751  0.0026  0.0260
  445TMC3    C3 6681   0.612   0.761  16.437 -0.0102 -0.9843  0.1050
  445TMC3    C4 6682   0.763   0.990  16.436 -0.1188 -0.3623 -0.8340
  445TMC3    C5 6683   0.829   0.871  16.432 -0.1820 -0.5988 -0.0588
  445TMC3    C6 6684   0.750   0.765  16.446  0.1176 -0.0055  0.1188
  445TMC3     C 6685   0.562   1.109  16.485 -0.2512  0.1538 -1.0611
  445TMC3     O 6686   0.638   1.203  16.497 -0.0573  0.3663 -0.4549
  445TMC3     H 6687   0.437   0.877  16.425  0.1754 -0.7406 -3.0912
  445TMC3    H1 6688   0.828   1.076  16.433 -1.6276  0.8330  0.9695
  445TMC3    H2 6689   0.791   0.665  16.460 -0.6373 -0.3192  0.0820
  445TMC3    C7 6690   0.975   0.857  16.430  0.1250 -0.4486  1.1286
  445TMC3    C8 6691   0.545   0.627  16.423  0.4736  0.1959 -1.0636
  445TMC3    O1 6692   1.042   0.937  16.368  0.4510  0.7000  0.1431
  445TMC3    O2 6693   0.611   0.524  16.402 -0.6680  0.0643 -0.2483
  446MPD2     C 6694   4.653   1.274  10.350 -0.0419  0.3171 -0.8915
  446MPD2    C1 6695   4.584   1.395  10.362 -0.4132 -0.8241 -0.2692
  446MPD2    C2 6696   4.648   1.498  10.436 -0.6710  0.6352  0.1814
  446MPD2    C3 6697   0.046   1.489  10.476  0.1944  0.1509 -0.3134
  446MPD2    C4 6698   0.103   1.368  10.454 -0.4688 -0.2730  0.2034
  446MPD2    C5 6699   0.042   1.263  10.395 -0.0385  0.4023  0.0186
  446MPD2     H 6700   4.596   1.591  10.458 -0.6853  1.1873 -2.0785
  446MPD2    H1 6701   0.206   1.344  10.479  0.3670  0.1240 -2.8590
  446MPD2    H2 6702   4.602   1.191  10.302  1.0600 -0.8264 -0.0921
  446MPD2    H3 6703   0.096   1.171  10.377 -1.6114 -0.9217  2.1400
  446MPD2     N 6704   0.113   1.599  10.528  0.2712 -1.2166 -0.3744
  446MPD2    H5 6705   0.068   1.689  10.517  0.8699 -0.9644 -0.7243
  446MPD2    N1 6706   4.444   1.409  10.335  0.2200 -0.7886 -0.6341
  446MPD2    H7 6707   4.404   1.492  10.378  1.1742 -0.4536 -0.3942
  447TMC3    C1 6708   0.255   1.710  10.673 -0.4584  0.0063 -0.6785
  447TMC3    C2 6709   0.257   1.823  10.597  0.0312 -0.2521 -0.5907
  447TMC3    C3 6710   0.318   1.940  10.637  0.7183 -0.1296 -0.5178
  447TMC3    C4 6711   0.316   1.709  10.793  0.0613 -1.1696 -0.7769
  447TMC3    C5 6712   0.382   1.825  10.828  0.4983 -0.0659  0.1649
  447TMC3    C6 6713   0.385   1.942  10.758  0.5875 -0.3238  0.5576
  447TMC3     C 6714   0.220   1.582  10.614 -0.5502  0.0800 -0.4029
  447TMC3     O 6715   0.262   1.482  10.667 -0.5010 -0.0905  0.5791
  447TMC3     H 6716   0.216   1.817  10.497 -1.2915 -1.5969  0.0307
  447TMC3    H1 6717   0.312   1.617  10.849  0.8246 -2.2958 -2.5707
  447TMC3    H2 6718   0.440   2.030  10.788 -1.4592  2.0410 -2.5514
  447TMC3    C7 6719   0.477   1.802  10.934  0.1510  0.5428 -0.9785
  447TMC3    C8 6720   0.308   2.049  10.543 -0.0787  0.4046  0.7798
  447TMC3    O1 6721   0.467   1.691  10.984 -0.7186  0.0515  0.9896
  447TMC3    O2 6722   0.215   2.043  10.469  0.5202 -0.4616  0.0624
  448TMC3    C1 6723   3.642   2.187  16.552 -0.1930  0.3354 -0.2365
  448TMC3    C2 6724   3.539   2.107  16.512  0.0800 -0.0648 -0.1671
  448TMC3    C3 6725   3.493   2.019  16.604  0.5791  0.0007  0.1293
  448TMC3    C4 6726   3.690   2.183  16.683  0.0090  0.1026 -0.3100
  448TMC3    C5 6727   3.630   2.101  16.778  0.7479  0.0538 -0.8532
  448TMC3    C6 6728   3.541   2.010  16.727  0.2368 -0.2625  0.3415
  448TMC3     C 6729   3.721   2.251  16.448  0.4804 -0.1794  0.4216
  448TMC3     O 6730   3.669   2.247  16.338  0.1770  0.4779  0.2235
  448TMC3     H 6731   3.509   2.101  16.408 -1.3880  1.1490  0.1743
  448TMC3    H1 6732   3.770   2.250  16.713 -0.0281  0.2511 -0.5369
  448TMC3    H2 6733   3.506   1.934  16.796  0.6208  0.8029  1.7020
  448TMC3    C7 6734   3.709   2.075  16.895  0.2016  0.0506  0.5116
  448TMC3    C8 6735   3.385   1.922  16.575 -0.1470 -0.7493  0.0467
  448TMC3    O1 6736   3.819   2.127  16.891 -0.1783  0.1632  0.0528
  448TMC3    O2 6737   3.355   1.833  16.652  0.7106  0.2822 -0.2996
  449MPD2     C 6738   4.580   4.682  13.611 -0.2134 -0.7291  0.2071
  449MPD2    C1 6739   4.473   4.735  13.549 -0.5020 -0.7796  0.2576
  449MPD2    C2 6740   4.349   4.733  13.615  0.5857 -0.5853 -1.0082
  449MPD2    C3 6741   4.334   4.671  13.742  0.3998  0.1644 -0.4008
  449MPD2    C4 6742   4.448   4.616  13.798 -0.0959  0.4397 -0.5135
  449MPD2    C5 6743   4.567   4.621  13.736  0.2811  0.2900 -0.7479
  449MPD2     H 6744   4.262   0.041  13.568  0.6626 -0.9670 -1.5110
  449MPD2    H1 6745   4.444   4.563  13.893 -0.8124  0.3136 -0.6087
  449MPD2    H2 6746   4.674   4.679  13.558 -1.0056  0.4882 -1.2721
  449MPD2    H3 6747   4.649   4.560  13.772 -1.1514  0.2646  2.4864
  449MPD2     N 6748   4.205   4.677  13.807  0.1598 -0.0677 -0.0153
  449MPD2    H5 6749   4.122   4.694  13.751 -0.8258  0.6500  1.6728
  449MPD2    N1 6750   4.461   0.048  13.413  0.9915 -0.4865  0.3684
  449MPD2    H7 6751   4.373   0.085  13.380  0.9585 -0.6445  0.2798
  450TMC3    C1 6752   4.521   0.155  13.217  0.5250  0.0963 -0.4492
  450TMC3    C2 6753   4.586   0.276  13.215  0.1458  0.3528 -0.3983
  450TMC3    C3 6754   4.513   0.388  13.188  0.0256  0.0930  0.2993
  450TMC3    C4 6755   4.383   0.153  13.206 -0.3316  0.4397  0.2705
  450TMC3    C5 6756   4.308   0.273  13.199  0.3850 -0.5041 -0.0694
  450TMC3    C6 6757   4.372   0.393  13.186  0.6048 -0.0610  0.4431
  450TMC3     C 6758   4.565   0.076  13.326  0.4717  0.8579  0.5166
  450TMC3     O 6759   4.683   0.078  13.354 -0.5688 -0.0019  0.4063
  450TMC3     H 6760   4.694   0.268  13.213 -0.0770 -3.0238  1.4724
  450TMC3    H1 6761   4.329   0.059  13.205 -0.8250  0.7241 -0.6247
  450TMC3    H2 6762   4.320   0.488  13.176  1.0801  0.3231  1.6231
  450TMC3    C7 6763   4.197   0.268  13.298 -0.3945  0.3102 -0.4037
  450TMC3    C8 6764   4.581   0.517  13.150  0.0547  0.6148  0.4364
  450TMC3    O1 6765   4.194   0.159  13.355 -0.0359  0.4316  0.6001
  450TMC3    O2 6766   4.525   0.624  13.161 -0.2897  0.0580  0.3700
  451MPD2     C 6767   1.787   3.341   0.359 -0.7062  0.7311 -0.3022
  451MPD2    C1 6768   1.653   3.323   0.320 -0.3030 -0.1815 -0.1876
  451MPD2    C2 6769   1.606   3.351   0.195  0.4390  0.1395  0.1394
  451MPD2    C3 6770   1.691   3.405   0.108 -0.6119  0.2543  0.1416
  451MPD2    C4 6771   1.826   3.429   0.141 -0.1834  0.4065  0.0691
  451MPD2    C5 6772   1.875   3.386   0.264 -0.3834  0.3237  0.5488
  451MPD2     H 6773   1.510   3.310   0.165  2.1659 -1.5586 -3.0777
  451MPD2    H1 6774   1.896   3.469   0.069 -0.6252 -0.2719 -0.7340
  451MPD2    H2 6775   1.825   3.319   0.458 -1.9281 -1.2392 -0.2648
  451MPD2    H3 6776   1.977   3.413   0.290  0.5221 -2.0821 -0.4372
  451MPD2     N 6777   1.637   3.452  17.729  0.1076  0.1471  0.3778
  451MPD2    H5 6778   1.543   3.429  17.698  0.5018  0.6512 -1.1799
  451MPD2    N1 6779   1.573   3.279   0.430  0.6482 -0.5412  0.3013
  451MPD2    H7 6780   1.628   3.262   0.513 -0.7211 -1.2342  1.0596
  452TMC3    C1 6781   1.653   3.563  17.518  0.1809 -0.0381  0.2819
  452TMC3    C2 6782   1.612   3.451  17.446 -0.3437 -0.1740  0.7194
  452TMC3    C3 6783   1.566   3.481  17.320  0.6872  0.3876  0.4839
  452TMC3    C4 6784   1.664   3.691  17.466 -0.1609  0.3579  0.3059
  452TMC3    C5 6785   1.620   3.713  17.337 -0.3379 -0.0195  0.0467
  452TMC3    C6 6786   1.568   3.609  17.265  0.3544  0.2802 -0.0416
  452TMC3     C 6787   1.696   3.552  17.656 -0.1549  0.5371 -0.1503
  452TMC3     O 6788   1.791   3.624  17.684 -0.3819 -0.7379  0.5705
  452TMC3     H 6789   1.617   3.351  17.487 -1.0772  0.5628  2.5916
  452TMC3    H1 6790   1.700   3.781  17.515  2.0328  0.1082 -0.8534
  452TMC3    H2 6791   1.542   3.609  17.160  1.1986  0.5897 -0.2536
  452TMC3    C7 6792   1.587   3.854  17.299  0.1679  0.0967  0.1656
  452TMC3    C8 6793   1.498   3.376  17.237  0.3831  0.8147  0.1259
  452TMC3    O1 6794   1.584   3.939  17.387  0.0750  0.0672 -0.0151
  452TMC3    O2 6795   1.512   3.379  17.117  0.2730 -0.4779 -0.6921
  453TMC3    C1 6796   2.235   0.834  11.593 -0.3362 -0.1141 -0.2998
  453TMC3    C2 6797   2.154   0.730  11.618  0.1439 -0.1776 -0.2445
  453TMC3    C3 6798   2.024   0.766  11.631  0.0516 -0.0160  0.0630
  453TMC3    C4 6799   2.196   0.966  11.595 -0.3523 -0.0410  0.0610
  453TMC3    C5 6800   2.066   1.001  11.622  1.1805 -0.6232  0.1488
  453TMC3    C6 6801   1.980   0.899  11.634 -0.0992 -0.4115  0.2606
  453TMC3     C 6802   2.379   0.812  11.618  0.7163 -0.6213 -0.3171
  453TMC3     O 6803   2.432   0.913  11.669  0.1790 -0.0487  0.1507
  453TMC3     H 6804   2.179   0.625  11.629  0.0616 -0.1730 -0.0085
  453TMC3    H1 6805   2.268   1.043  11.569 -0.1015 -0.4521 -0.4706
  453TMC3    H2 6806   1.878   0.923  11.661 -0.0173  1.0273 -0.7220
  453TMC3    C7 6807   2.019   1.133  11.583  0.4163  0.3538  0.0134
  453TMC3    C8 6808   1.926   0.659  11.622 -0.0195 -0.0041 -0.4085
  453TMC3    O1 6809   2.106   1.205  11.531  0.4206  0.3322 -0.0003
  453TMC3    O2 6810   1.817   0.679  11.672  0.2099  0.1092  0.1715
  454MPD2     C 6811   1.113   0.868  15.906  0.0494 -0.1942  0.3269
  454MPD2    C1 6812   1.073   0.929  15.785 -0.2337  0.5032 -0.4296
  454MPD2    C2 6813   1.004   1.050  15.793  0.2500 -0.5578 -0.0845
  454MPD2    C3 6814   0.975   1.108  15.915  0.2210  1.3639 -0.7540
  454MPD2    C4 6815   1.011   1.050  16.030 -0.3163 -0.2966 -0.6723
  454MPD2    C5 6816   1.087   0.938  16.023  0.1460 -0.1328  0.1384
  454MPD2     H 6817   0.974   1.091  15.697  0.9244  0.7642  0.2712
  454MPD2    H1 6818   0.987   1.087  16.129 -0.4975  0.3825 -0.9693
  454MPD2    H2 6819   1.156   0.770  15.923  2.2776  1.1709  2.5026
  454MPD2    H3 6820   1.118   0.885  16.112  4.3025  1.1720 -0.4923
  454MPD2     N 6821   0.900   1.230  15.927  0.3348  0.2809 -0.6035
  454MPD2    H5 6822   0.888   1.251  16.025 -1.9712 -0.2830 -0.7581
  454MPD2    N1 6823   1.085   0.867  15.656  0.2775  0.0803  0.0062
  454MPD2    H7 6824   1.050   0.921  15.578  0.5257  1.7629  1.0604
  455TMC3    C1 6825   0.714   1.338  15.851  0.7876 -0.4170 -0.4523
  455TMC3    C2 6826   0.714   1.417  15.965 -0.2390 -0.5918  0.7786
  455TMC3    C3 6827   0.624   1.386  16.072 -0.1674  0.2358  0.2041
  455TMC3    C4 6828   0.644   1.223  15.852  0.0068  0.5092 -0.2602
  455TMC3    C5 6829   0.577   1.187  15.969  0.4424  0.0609 -0.2160
  455TMC3    C6 6830   0.555   1.273  16.074  0.1212  0.2076  0.8697
  455TMC3     C 6831   0.850   1.304  15.827 -0.6592 -0.2730 -0.5986
  455TMC3     O 6832   0.874   1.299  15.706  0.2342  0.4243  0.1035
  455TMC3     H 6833   0.786   1.498  15.965 -0.6873 -0.1913  2.8631
  455TMC3    H1 6834   0.668   1.143  15.783 -0.0828 -0.3617  0.7266
  455TMC3    H2 6835   0.495   1.247  16.161 -2.1557  2.2942 -0.0844
  455TMC3    C7 6836   0.553   1.047  16.009 -0.5908  0.0751 -0.3453
  455TMC3    C8 6837   0.626   1.463  16.193  0.1871  0.3531  0.2739
  455TMC3    O1 6838   0.511   1.023  16.126  0.0198  0.6198 -0.4980
  455TMC3    O2 6839   0.635   1.409  16.306  0.1360 -0.3530 -0.5747
  456MPD2     C 6840   3.390   0.921  15.707 -0.4024  0.1214  0.0039
  456MPD2    C1 6841   3.479   0.861  15.797 -0.7043  0.6393 -0.2805
  456MPD2    C2 6842   3.463   0.887  15.932 -0.0882 -0.4483 -0.3323
  456MPD2    C3 6843   3.363   0.967  15.980 -0.3509 -0.2223 -0.1818
  456MPD2    C4 6844   3.289   1.039  15.891  0.4845 -0.6425 -0.9087
  456MPD2    C5 6845   3.298   1.006  15.756  0.2483 -0.7344 -0.1252
  456MPD2     H 6846   3.528   0.841  16.006 -1.2820  2.5284  2.5875
  456MPD2    H1 6847   3.217   1.113  15.923  0.9203 -0.8554  0.5599
  456MPD2    H2 6848   3.395   0.918  15.599 -0.6347  0.7724 -0.0298
  456MPD2    H3 6849   3.228   1.057  15.691 -0.8198  0.9042  2.3274
  456MPD2     N 6850   3.348   0.995  16.119  0.8973  0.3289 -0.0386
  456MPD2    H5 6851   3.412   0.960  16.190 -0.5593 -0.7567  0.7281
  456MPD2    N1 6852   3.591   0.797  15.740  0.4270  0.0092 -0.0094
  456MPD2    H7 6853   3.585   0.782  15.640  1.7985  1.5026 -0.3208
  457TMC3    C1 6854   3.252   1.113  16.306 -1.0125 -0.2782  0.5906
  457TMC3    C2 6855   3.181   1.227  16.331  0.4448 -0.2307  0.1401
  457TMC3    C3 6856   3.198   1.286  16.454  0.1999 -0.3285 -0.1309
  457TMC3    C4 6857   3.338   1.067  16.398 -0.1659  0.1519 -0.2766
  457TMC3    C5 6858   3.347   1.123  16.526  0.0705  0.4287  0.4202
  457TMC3    C6 6859   3.269   1.224  16.561  0.5057 -0.3403 -0.1513
  457TMC3     C 6860   3.238   1.061  16.172  0.0145  0.2982 -0.5951
  457TMC3     O 6861   3.128   1.093  16.129  0.1273 -0.3009 -0.0162
  457TMC3     H 6862   3.139   1.276  16.244  0.4160 -0.6108 -0.0591
  457TMC3    H1 6863   3.401   0.981  16.382 -1.6979 -0.8328 -1.0044
  457TMC3    H2 6864   3.273   1.276  16.656  1.0617 -0.7086  0.0228
  457TMC3    C7 6865   3.450   1.084  16.612 -0.0118  0.5822 -0.2011
  457TMC3    C8 6866   3.219   1.435  16.457 -0.0350  0.1711  0.3564
  457TMC3    O1 6867   3.517   0.984  16.595  0.5342 -0.0267 -0.0853
  457TMC3    O2 6868   3.317   1.475  16.522 -0.4941  0.4513  0.1984
  458MPD2     C 6869   1.280   0.110  12.257 -0.5539  0.3586 -0.7315
  458MPD2    C1 6870   1.198   0.102  12.364  0.3313  0.2106  0.0592
  458MPD2    C2 6871   1.060   0.078  12.341  0.6140 -0.2224 -0.2825
  458MPD2    C3 6872   1.017   0.067  12.214  0.1840 -0.6118  0.3410
  458MPD2    C4 6873   1.102   0.067  12.106 -0.3573 -0.4282  0.4052
  458MPD2    C5 6874   1.238   0.091  12.131  0.4296 -0.0756  0.7249
  458MPD2     H 6875   0.986   0.086  12.419  0.7334  1.0630 -0.2979
  458MPD2    H1 6876   1.061   0.057  12.006  2.0667 -2.7799 -0.3495
  458MPD2    H2 6877   1.384   0.139  12.256 -0.7277  0.9832 -0.7154
  458MPD2    H3 6878   1.308   0.105  12.049  1.3363  0.6441  1.6121
  458MPD2     N 6879   0.879   0.048  12.201 -0.8190 -0.0547 -0.1523
  458MPD2    H5 6880   0.829   0.020  12.284 -1.8046 -0.5691 -0.9221
  458MPD2    N1 6881   1.259   0.123  12.491 -0.4978  0.0155  0.1865
  458MPD2    H7 6882   1.358   0.144  12.490 -0.0109 -2.1453  2.5134
  459TMC3    C1 6883   1.296   0.105  12.718 -0.0523  0.3732 -0.3460
  459TMC3    C2 6884   1.431   0.116  12.688  0.3731 -0.4583  0.3034
  459TMC3    C3 6885   1.521   0.073  12.784 -0.1236  0.4878  0.0519
  459TMC3    C4 6886   1.249   0.058  12.841  0.0394 -0.1268  0.3167
  459TMC3    C5 6887   1.347   0.027  12.936 -0.5867  0.0265 -0.7767
  459TMC3    C6 6888   1.480   0.032  12.906 -0.8855  0.0822  0.7833
  459TMC3     C 6889   1.197   0.107  12.615  0.6040  0.8084  0.0052
  459TMC3     O 6890   1.089   0.066  12.639  0.2657  0.5260  0.0094
  459TMC3     H 6891   1.469   0.176  12.607 -2.9958 -1.4098 -1.9820
  459TMC3    H1 6892   1.144   0.039  12.860  0.0321  0.1618  0.5672
  459TMC3    H2 6893   1.546   4.726  12.981 -0.9375 -1.1559  0.1219
  459TMC3    C7 6894   1.325   4.645  13.020 -0.5066 -0.3003  0.1929
  459TMC3    C8 6895   1.672   0.091  12.757  0.8187 -0.0848 -0.4084
  459TMC3    O1 6896   1.394   4.548  12.994 -0.0723 -0.1045 -0.0126
  459TMC3    O2 6897   1.741   0.125  12.850 -0.2116 -0.2634 -0.6152
  460MPD2     C 6898   0.497   2.357  10.497  0.4186  0.5329  0.2329
  460MPD2    C1 6899   0.427   2.252  10.459  0.8042  0.0015 -0.0303
  460MPD2    C2 6900   0.393   2.239  10.330 -0.1213 -0.1983  0.3137
  460MPD2    C3 6901   0.405   2.344  10.239  0.4622  0.1112 -0.0563
  460MPD2    C4 6902   0.476   2.450  10.282  1.0701  0.1066 -0.1694
  460MPD2    C5 6903   0.523   2.456  10.411 -0.3158 -0.6034  0.4017
  460MPD2     H 6904   0.340   2.152  10.292  2.0378 -1.5063  0.2767
  460MPD2    H1 6905   0.502   2.531  10.215  1.2753  0.0302 -0.1802
  460MPD2    H2 6906   0.543   2.373  10.594 -0.1650  1.2719  0.3927
  460MPD2    H3 6907   0.576   2.540  10.454  1.9857 -1.1863 -1.3091
  460MPD2     N 6908   0.364   2.317  10.106  0.4283 -0.5676  0.1472
  460MPD2    H5 6909   0.331   2.223  10.089  1.3662 -0.9825  0.5959
  460MPD2    N1 6910   0.400   2.153  10.558 -0.0885 -0.7894  0.3487
  460MPD2    H7 6911   0.447   2.156  10.648 -0.0647  0.4744  0.2893
  461TMC3    C1 6912   0.303   2.360   9.885 -0.6403  0.0856  0.7209
  461TMC3    C2 6913   0.361   2.243   9.844 -0.5750 -0.4278  0.1741
  461TMC3    C3 6914   0.303   2.174   9.739 -0.3774  0.8571 -0.5171
  461TMC3    C4 6915   0.184   2.402   9.832 -0.3547 -0.1065  0.3130
  461TMC3    C5 6916   0.123   2.321   9.745 -0.1213  0.1226 -0.1316
  461TMC3    C6 6917   0.180   2.215   9.686  0.2729 -0.3647 -0.5012
  461TMC3     C 6918   0.351   2.415  10.009 -0.4630  0.6825 -0.1249
  461TMC3     O 6919   0.374   2.538  10.015  0.4959  0.2218  0.2536
  461TMC3     H 6920   0.461   2.210   9.871 -0.8907 -2.4173 -1.0679
  461TMC3    H1 6921   0.137   2.487   9.880  0.2877 -0.4554  1.5452
  461TMC3    H2 6922   0.134   2.173   9.598  1.3709 -1.0222 -0.7574
  461TMC3    C7 6923   4.730   2.365   9.701  0.3528  0.1727 -0.0943
  461TMC3    C8 6924   0.378   2.081   9.665  0.1580 -0.3337 -0.2342
  461TMC3    O1 6925   4.700   2.485   9.722  0.0767 -0.1091  0.8348
  461TMC3    O2 6926   0.495   2.091   9.677 -0.2025 -0.1906  0.6811
  462TMC3    C1 6927   0.414   4.115  17.692 -0.3684 -0.5367  0.5838
  462TMC3    C2 6928   0.514   4.075   0.039 -0.1575  0.4780 -0.1368
  462TMC3    C3 6929   0.483   3.992   0.145  0.8990 -0.3799 -0.6491
  462TMC3    C4 6930   0.282   4.081  17.718 -0.1762  0.0241 -0.3269
  462TMC3    C5 6931   0.252   4.011   0.089  0.6282  0.2775  0.1390
  462TMC3    C6 6932   0.351   3.973   0.177  0.8023  0.0988 -0.3963
  462TMC3     C 6933   0.450   4.230  17.611  0.9444 -0.9099 -0.1320
  462TMC3     O 6934   0.379   4.330  17.625 -0.1523 -0.6277 -0.2162
  462TMC3     H 6935   0.616   4.103   0.015  0.0485  0.5192  0.8118
  462TMC3    H1 6936   0.200   4.112  17.654 -1.3297  1.1592  1.6926
  462TMC3    H2 6937   0.325   3.912   0.263  0.9449 -1.6539 -1.6033
  462TMC3    C7 6938   0.154   3.906   0.077 -0.5181  0.1836  0.6328
  462TMC3    C8 6939   0.573   3.871   0.153  0.7511 -0.5508 -0.0990
  462TMC3    O1 6940   0.175   3.794   0.121  0.1425 -0.2697 -0.4411
  462TMC3    O2 6941   0.676   3.880   0.083  1.0176 -0.1920  0.2894
  463MPD2     C 6942   2.407   1.141   1.017  0.7708 -0.1929 -0.5431
  463MPD2    C1 6943   2.398   1.277   1.045 -0.2723  0.1876 -0.0982
  463MPD2    C2 6944   2.505   1.343   1.106  0.0273 -0.2634  0.1936
  463MPD2    C3 6945   2.627   1.273   1.117  0.6888  0.0784 -0.2627
  463MPD2    C4 6946   2.629   1.145   1.080 -0.4681  0.0418  0.3570
  463MPD2    C5 6947   2.522   1.076   1.039 -0.2125 -0.3500 -0.3619
  463MPD2     H 6948   2.494   1.444   1.144 -0.1048 -0.4746  0.7260
  463MPD2    H1 6949   2.721   1.093   1.104 -0.3485  0.2843  0.4333
  463MPD2    H2 6950   2.321   1.083   0.987  0.2704  0.6330 -0.7150
  463MPD2    H3 6951   2.538   0.971   1.017  0.6058 -0.6476  1.6065
  463MPD2     N 6952   2.738   1.331   1.177  0.0278 -0.9260  0.0602
  463MPD2    H5 6953   2.819   1.269   1.183  0.1009 -0.8386 -0.0157
  463MPD2    N1 6954   2.271   1.339   1.026 -0.1542  0.3004 -0.1393
  463MPD2    H7 6955   2.259   1.425   1.080  2.0529 -0.1562  1.0533
  464TMC3    C1 6956   2.047   1.372   0.931  0.4548  0.1969  0.4204
  464TMC3    C2 6957   2.013   1.438   1.046 -0.8641  0.1987 -0.5752
  464TMC3    C3 6958   1.880   1.465   1.065  0.0134  0.0974 -0.5672
  464TMC3    C4 6959   1.950   1.337   0.834 -0.5753 -0.6794 -0.2235
  464TMC3    C5 6960   1.824   1.379   0.854 -0.0988 -0.1911 -0.0944
  464TMC3    C6 6961   1.781   1.436   0.970  0.0853 -0.0891 -0.0249
  464TMC3     C 6962   2.176   1.297   0.927 -0.4627  0.1448 -0.3274
  464TMC3     O 6963   2.194   1.224   0.830  0.2530  0.3423  0.4580
  464TMC3     H 6964   2.085   1.451   1.126 -0.5002 -1.3655 -0.6496
  464TMC3    H1 6965   1.981   1.286   0.743 -1.7417  1.0884 -1.6071
  464TMC3    H2 6966   1.680   1.469   0.993 -0.0546 -1.0025  0.6445
  464TMC3    C7 6967   1.730   1.345   0.754  1.1709  0.3408  0.0446
  464TMC3    C8 6968   1.850   1.578   1.161  0.4316 -0.1861 -0.1168
  464TMC3    O1 6969   1.783   1.317   0.647  0.2244  0.0723 -0.3446
  464TMC3    O2 6970   1.766   1.662   1.131  0.4772  0.5031  0.1860
  465MPD2     C 6971   2.857   1.508  16.696  0.4223  0.8455 -0.2837
  465MPD2    C1 6972   2.780   1.407  16.751 -0.1968  0.4347 -0.8476
  465MPD2    C2 6973   2.706   1.329  16.661  0.4743  0.7845  0.2216
  465MPD2    C3 6974   2.695   1.360  16.524  0.6794  0.3080  0.6832
  465MPD2    C4 6975   2.760   1.468  16.472  0.6466 -0.0590 -0.0568
  465MPD2    C5 6976   2.839   1.539  16.560  0.4440 -0.8888  0.2086
  465MPD2     H 6977   2.654   1.239  16.690 -0.5215  0.5036 -2.5136
  465MPD2    H1 6978   2.758   1.496  16.368  1.2858  1.8092  0.4315
  465MPD2    H2 6979   2.931   1.560  16.757 -0.5226  0.1609  1.4536
  465MPD2    H3 6980   2.898   1.620  16.518 -1.9608 -0.2836 -1.9598
  465MPD2     N 6981   2.618   1.271  16.444 -0.8003 -0.4636  0.5329
  465MPD2    H5 6982   2.569   1.198  16.496 -0.9517 -0.7250  0.0235
  465MPD2    N1 6983   2.778   1.382  16.891 -0.4361 -0.2341 -0.6725
  465MPD2    H7 6984   2.722   1.302  16.916 -1.5072  0.3741 -1.0832
  466TMC3    C1 6985   2.291   1.114  16.356 -0.2702 -0.2555 -1.1311
  466TMC3    C2 6986   2.223   1.193  16.259 -1.1027  0.1955  0.7283
  466TMC3    C3 6987   2.304   1.231  16.152 -0.5638 -0.8456 -0.1005
  466TMC3    C4 6988   2.434   1.114  16.358 -0.3782 -0.1376  0.1773
  466TMC3    C5 6989   2.508   1.178  16.261 -0.2808  0.3152 -1.0065
  466TMC3    C6 6990   2.441   1.226  16.154  0.5835 -0.6347 -0.5572
  466TMC3     C 6991   2.228   1.080  16.484 -0.0541 -0.1479 -0.6201
  466TMC3     O 6992   2.306   1.054  16.572 -0.4815 -0.2893  0.4844
  466TMC3     H 6993   2.115   1.188  16.257 -1.1684  1.2378  1.3477
  466TMC3    H1 6994   2.488   1.060  16.435 -0.7886  0.5238  0.9290
  466TMC3    H2 6995   2.491   1.287  16.080  2.7087 -1.6074  0.0820
  466TMC3    C7 6996   2.591   1.281  16.310 -0.6392 -0.7394  0.0634
  466TMC3    C8 6997   2.262   1.346  16.082  0.3094 -0.2894 -0.0381
  466TMC3    O1 6998   2.626   1.376  16.241  0.4041  0.5546  0.3132
  466TMC3    O2 6999   2.305   1.367  15.972 -0.1926 -0.3147  0.4061
  467TMC3    C1 7000   3.591   3.631  13.559  0.0011 -0.0370 -0.4373
  467TMC3    C2 7001   3.530   3.685  13.452 -1.0367  0.4926 -0.0161
  467TMC3    C3 7002   3.416   3.763  13.480  0.3081  0.5022  0.1855
  467TMC3    C4 7003   3.523   3.624  13.677  0.0419  0.7282  0.0553
  467TMC3    C5 7004   3.419   3.706  13.714  0.1002  0.0903 -0.0726
  467TMC3    C6 7005   3.366   3.776  13.607 -0.7585 -0.1503 -0.6181
  467TMC3     C 7006   3.727   3.671  13.571 -0.5901  0.3940  0.0961
  467TMC3     O 7007   3.802   3.593  13.629  0.0206  0.1883  0.0825
  467TMC3     H 7008   3.595   3.700  13.367 -0.1350 -0.3893  0.5292
  467TMC3    H1 7009   3.575   3.572  13.757 -0.5843 -3.4146 -2.2176
  467TMC3    H2 7010   3.284   3.845  13.623  0.2348  0.5136  1.5665
  467TMC3    C7 7011   3.367   3.709  13.849 -0.3851  0.5558 -0.5061
  467TMC3    C8 7012   3.429   3.886  13.412  0.1665  0.3440 -0.1499
  467TMC3    O1 7013   3.438   3.661  13.939  0.2062 -0.4175  0.2674
  467TMC3    O2 7014   3.438   3.989  13.479  0.6019  0.4578  0.3426
  468MPD2     C 7015   1.907   2.489  10.879 -0.5533  0.2189  0.4952
  468MPD2    C1 7016   2.025   2.441  10.833  0.0250  0.8582  0.3648
  468MPD2    C2 7017   2.022   2.331  10.758  0.2658 -0.3387 -0.0002
  468MPD2    C3 7018   1.908   2.262  10.729  0.8106  0.4189  0.7442
  468MPD2    C4 7019   1.788   2.311  10.787 -0.0935  0.5708 -0.2180
  468MPD2    C5 7020   1.791   2.425  10.857  0.4503  0.0428  0.2072
  468MPD2     H 7021   2.115   2.286  10.723  0.3425 -0.3068  0.1619
  468MPD2    H1 7022   1.692   2.260  10.782 -0.9471  2.0978  0.4789
  468MPD2    H2 7023   1.887   2.587  10.920  0.3007  1.4150 -1.9612
  468MPD2    H3 7024   1.701   2.476  10.889 -0.5017 -1.6343  0.1908
  468MPD2     N 7025   1.915   2.137  10.658  0.0484 -0.4413 -0.4531
  468MPD2    H5 7026   1.830   2.085  10.674  0.7954 -0.8387  2.1258
  468MPD2    N1 7027   2.147   2.492  10.887  0.2729 -0.0094  0.1422
  468MPD2    H7 7028   2.230   2.447  10.850  0.9752  0.0590  1.6347
  469TMC3    C1 7029   2.292   2.626  11.019 -0.2778  0.1565 -0.0593
  469TMC3    C2 7030   2.389   2.627  10.931 -0.1577  0.2815 -0.1426
  469TMC3    C3 7031   2.505   2.681  10.974 -0.2706 -0.6216  0.1591
  469TMC3    C4 7032   2.291   2.686  11.140 -0.6459  0.4415 -0.0401
  469TMC3    C5 7033   2.412   2.738  11.178  0.2963 -0.1586 -0.1987
  469TMC3    C6 7034   2.520   2.725  11.097  0.2779 -0.3018 -0.1431
  469TMC3     C 7035   2.155   2.593  10.975 -0.6981  0.4066 -0.2426
  469TMC3     O 7036   2.065   2.655  11.032 -0.2969 -0.7502 -0.4004
  469TMC3     H 7037   2.393   2.580  10.833 -0.0741  0.1182 -0.0615
  469TMC3    H1 7038   2.205   2.675  11.205 -1.7877 -1.1575 -1.8080
  469TMC3    H2 7039   2.609   2.780  11.127  0.0365  0.0507 -0.0753
  469TMC3    C7 7040   2.422   2.777  11.316 -0.3525 -0.0332  0.3100
  469TMC3    C8 7041   2.624   2.651  10.899 -0.2274 -0.5402 -0.1913
  469TMC3    O1 7042   2.336   2.854  11.363  0.6811  0.3727 -0.0207
  469TMC3    O2 7043   2.620   2.658  10.777 -0.5812 -0.4828  0.6031
  470TMC3    C1 7044   4.286   3.210   1.085 -0.4696  0.1837 -0.5198
  470TMC3    C2 7045   4.389   3.274   1.018 -0.3574 -0.3368 -0.0056
  470TMC3    C3 7046   4.467   3.207   0.932 -0.3726  0.2004  0.4968
  470TMC3    C4 7047   4.265   3.079   1.052  0.2983 -0.5955 -0.2435
  470TMC3    C5 7048   4.345   3.010   0.968  0.2741 -0.2731  0.0497
  470TMC3    C6 7049   4.440   3.077   0.894  0.7220  0.5602  0.2670
  470TMC3     C 7050   4.195   3.276   1.169  0.3822 -0.3459  0.2735
  470TMC3     O 7051   4.124   3.205   1.243  0.3611  0.0198  0.2251
  470TMC3     H 7052   4.414   3.376   1.045 -1.6281  0.1756 -0.7321
  470TMC3    H1 7053   4.192   3.021   1.106 -0.3375  0.1039 -0.3411
  470TMC3    H2 7054   4.502   3.026   0.822  2.1795  2.9448 -0.1773
  470TMC3    C7 7055   4.334   2.865   0.947  0.4095  0.0184  0.4300
  470TMC3    C8 7056   4.600   3.275   0.905  0.4815  0.1391  0.6226
  470TMC3    O1 7057   4.428   2.807   0.896  0.2601  0.0032  0.1579
  470TMC3    O2 7058   4.623   3.390   0.942 -0.2864 -0.4282  0.0347
  471MPD2     C 7059   0.285   0.116  16.480 -0.6669  0.4053 -0.0425
  471MPD2    C1 7060   0.375   0.009  16.460  0.0957  0.7313 -0.2225
  471MPD2    C2 7061   0.478   4.732  16.552  0.5909  0.2307 -0.7432
  471MPD2    C3 7062   0.490   0.081  16.668 -0.3049 -0.5239 -0.2796
  471MPD2    C4 7063   0.400   0.176  16.688 -0.6169 -0.7212  0.0765
  471MPD2    C5 7064   0.304   0.195  16.593  0.0221 -0.4333 -0.3916
  471MPD2     H 7065   0.536   4.641  16.556  0.3622  0.0049 -2.5219
  471MPD2    H1 7066   0.424   0.239  16.773  2.1321 -0.2358 -1.0720
  471MPD2    H2 7067   0.203   0.134  16.413  1.3674  1.8193 -2.1596
  471MPD2    H3 7068   0.236   0.278  16.608  1.0785  0.5426 -0.9629
  471MPD2     N 7069   0.569   0.042  16.782  0.0715  0.1116  0.0556
  471MPD2    H5 7070   0.530   0.075  16.870  1.9811  0.9965  0.5849
  471MPD2    N1 7071   0.374   4.660  16.351 -0.2960  0.4840 -0.6112
  471MPD2    H7 7072   0.455   4.600  16.339 -1.2099 -1.0299  0.6405
  472TMC3    C1 7073   0.287   4.534  16.166 -0.2667  0.7569  0.0478
  472TMC3    C2 7074   0.246   4.549  16.034 -0.5010  0.2698 -0.0924
  472TMC3    C3 7075   0.233   4.423  15.971 -0.4397 -0.1260  0.7383
  472TMC3    C4 7076   0.343   4.414  16.216  0.1052 -0.9966  0.0684
  472TMC3    C5 7077   0.348   4.304  16.137  0.7869  0.5606  0.6253
  472TMC3    C6 7078   0.286   4.301  16.015  0.3241 -0.2033 -0.2548
  472TMC3     C 7079   0.272   4.651  16.256  0.0379  0.3079 -0.5892
  472TMC3     O 7080   0.177   4.726  16.245  0.0529 -0.3118  1.0887
  472TMC3     H 7081   0.207   4.645  16.003 -0.4375  0.4842  0.4873
  472TMC3    H1 7082   0.381   4.399  16.316 -0.3628  0.2906  0.4274
  472TMC3    H2 7083   0.283   4.220  15.942  0.4982 -0.5303  0.1043
  472TMC3    C7 7084   0.372   4.178  16.207  0.7094 -0.8541 -0.2783
  472TMC3    C8 7085   0.096   4.413  15.912 -0.1719  0.0791  0.2057
  472TMC3    O1 7086   0.401   4.181  16.325 -0.1989 -0.1704  0.6319
  472TMC3    O2 7087   0.043   4.504  15.855  0.0342  0.2644  0.4353
  473MPD2     C 7088   0.268   1.446  13.422 -0.2275  0.2464 -0.8389
  473MPD2    C1 7089   0.243   1.575  13.394 -0.1345  0.1717  0.0473
  473MPD2    C2 7090   0.295   1.673  13.466  0.1636 -0.7374 -0.3360
  473MPD2    C3 7091   0.373   1.647  13.569  0.0465  0.2608  0.6996
  473MPD2    C4 7092   0.387   1.515  13.615 -0.1389  0.3919  0.2041
  473MPD2    C5 7093   0.352   1.415  13.528 -0.4762 -0.1391 -0.0140
  473MPD2     H 7094   0.263   1.773  13.439  2.1474  0.1797  0.7265
  473MPD2    H1 7095   0.437   1.485  13.706 -2.2525 -2.8031  0.3047
  473MPD2    H2 7096   0.233   1.366  13.358  1.1499 -1.5121  0.5959
  473MPD2    H3 7097   0.378   1.313  13.552  0.7372  0.0280 -0.6054
  473MPD2     N 7098   0.425   1.754  13.649 -0.2362 -0.3054  0.2519
  473MPD2    H5 7099   0.464   1.728  13.739  0.4314  1.8115  0.5629
  473MPD2    N1 7100   0.156   1.620  13.290  0.0114  0.1427 -0.0833
  473MPD2    H7 7101   0.150   1.720  13.279  1.6640  0.2355 -0.0447
  474TMC3    C1 7102   0.484   1.968  13.723  0.3915  0.4479 -0.4671
  474TMC3    C2 7103   0.507   2.100  13.696 -0.1310 -0.3053 -0.3264
  474TMC3    C3 7104   0.504   2.199  13.793  0.4356  0.1978 -0.0945
  474TMC3    C4 7105   0.461   1.931  13.853 -0.3190  0.5886  0.1604
  474TMC3    C5 7106   0.476   2.030  13.952  0.3675 -0.2167 -0.2356
  474TMC3    C6 7107   0.493   2.166  13.925  0.1232  0.1222 -0.3896
  474TMC3     C 7108   0.440   1.886  13.610  0.4893 -0.2252  0.1399
  474TMC3     O 7109   0.406   1.941  13.504  0.7322 -1.3384 -0.0024
  474TMC3     H 7110   0.536   2.121  13.594 -1.2249 -0.5648 -0.6867
  474TMC3    H1 7111   0.452   1.827  13.883  1.9723  0.2460 -0.3592
  474TMC3    H2 7112   0.480   2.239  14.004 -0.4925 -0.3785 -0.0236
  474TMC3    C7 7113   0.437   1.981  14.088 -0.5945  0.5281 -0.2653
  474TMC3    C8 7114   0.461   2.324  13.734  0.3098 -0.9055  0.7056
  474TMC3    O1 7115   0.389   1.866  14.097  0.7126  0.2054  0.6664
  474TMC3    O2 7116   0.425   2.319  13.617  0.1367 -0.1912  0.1574
  475MPD2     C 7117   3.196   0.215  11.152 -0.3907  0.1265  0.3623
  475MPD2    C1 7118   3.210   0.154  11.035  0.7390  0.2199  0.2043
  475MPD2    C2 7119   3.130   0.185  10.926  0.2869  0.1440 -0.5762
  475MPD2    C3 7120   3.021   0.275  10.939 -0.0749 -0.0502  0.4128
  475MPD2    C4 7121   3.004   0.324  11.070  0.1927 -0.0559  0.2612
  475MPD2    C5 7122   3.093   0.297  11.173  0.3844 -0.3328 -0.4306
  475MPD2     H 7123   3.133   0.133  10.831 -0.7726  0.5597 -0.8410
  475MPD2    H1 7124   2.925   0.394  11.094  1.5745  1.5538  0.1270
  475MPD2    H2 7125   3.277   0.208  11.224 -0.8139 -1.0346  0.7285
  475MPD2    H3 7126   3.092   0.357  11.263  2.9057  1.1831 -1.3862
  475MPD2     N 7127   2.939   0.295  10.832 -0.0165  0.0890 -0.2698
  475MPD2    H5 7128   2.968   0.253  10.745  2.2399  1.0873  0.0048
  475MPD2    N1 7129   3.330   0.078  11.013  0.6382  0.3716  0.2020
  475MPD2    H7 7130   3.407   0.099  11.076  0.6766  1.4269 -0.1922
  476TMC3    C1 7131   3.510   0.007  10.892 -0.4204  0.3722  0.2722
  476TMC3    C2 7132   3.540   0.077  10.780  0.0860 -0.4782  0.0643
  476TMC3    C3 7133   3.604   0.196  10.785  0.0715 -0.2680  0.0934
  476TMC3    C4 7134   3.575   0.036  11.009  0.3695  0.9752  0.5775
  476TMC3    C5 7135   3.637   0.161  11.017 -0.0261  0.1413 -0.0451
  476TMC3    C6 7136   3.655   0.236  10.908  0.0800 -0.8816 -0.0802
  476TMC3     C 7137   3.366   0.015  10.898  0.2507  0.1000 -0.4308
  476TMC3     O 7138   3.302   4.718  10.797  0.0594 -0.0697 -0.4836
  476TMC3     H 7139   3.509   0.038  10.684  1.8189 -1.1514 -0.2110
  476TMC3    H1 7140   3.561   4.715  11.099  0.8153 -1.2819 -0.7817
  476TMC3    H2 7141   3.714   0.327  10.906  0.5947 -1.1763  1.3578
  476TMC3    C7 7142   3.594   0.228  11.139  0.0522 -0.2283 -0.1781
  476TMC3    C8 7143   3.523   0.303  10.728  0.2701 -0.7854 -0.7729
  476TMC3    O1 7144   3.557   0.153  11.228 -0.2975  0.3856  0.5665
  476TMC3    O2 7145   3.510   0.409  10.788  0.4921 -0.5075 -0.5000
  477MPD2     C 7146   0.472   1.383  11.535  1.3388 -0.4365  0.8294
  477MPD2    C1 7147   0.529   1.272  11.474  0.5685 -0.5093  0.5575
  477MPD2    C2 7148   0.624   1.197  11.540 -0.2925 -0.0550  0.2696
  477MPD2    C3 7149   0.679   1.237  11.663  0.4372  0.5627  0.6220
  477MPD2    C4 7150   0.635   1.360  11.711 -0.0920  0.8207  0.6197
  477MPD2    C5 7151   0.521   1.420  11.659  0.8531 -0.3686  0.4224
  477MPD2     H 7152   0.654   1.108  11.487 -0.0875  0.5549 -0.6486
  477MPD2    H1 7153   0.682   1.400  11.800  0.3818  1.0587  0.2621
  477MPD2    H2 7154   0.385   1.436  11.498  1.2293 -1.1619  0.0561
  477MPD2    H3 7155   0.462   1.490  11.717 -0.0879  0.3892 -1.4707
  477MPD2     N 7156   0.769   1.154  11.732 -0.0965  0.2736  0.3248
  477MPD2    H5 7157   0.799   1.070  11.682 -0.6227 -1.0173  2.1623
  477MPD2    N1 7158   0.474   1.246  11.345 -0.2379 -0.5304  0.0387
  477MPD2    H7 7159   0.398   1.308  11.319 -0.3147 -0.9472 -0.7445
  478TMC3    C1 7160   0.446   1.180  11.124  0.2193  0.0620  0.3890
  478TMC3    C2 7161   0.323   1.225  11.138  0.6128 -0.8244 -0.0211
  478TMC3    C3 7162   0.263   1.278  11.027 -1.3165 -0.3868  0.4235
  478TMC3    C4 7163   0.512   1.174  11.009 -0.2897 -0.5133 -0.1331
  478TMC3    C5 7164   0.442   1.219  10.894 -0.2753  0.3327 -0.1039
  478TMC3    C6 7165   0.324   1.280  10.911 -0.2660 -0.0356  0.0158
  478TMC3     C 7166   0.520   1.159  11.249  0.3858  0.6926  0.1714
  478TMC3     O 7167   0.615   1.079  11.257 -0.0880  0.2434 -0.4384
  478TMC3     H 7168   0.258   1.225  11.225  2.2412 -1.2694  1.1896
  478TMC3    H1 7169   0.609   1.128  10.996  0.6356  1.4400 -0.0852
  478TMC3    H2 7170   0.267   1.295  10.819 -1.3932  0.7413  0.8404
  478TMC3    C7 7171   0.488   1.176  10.763 -0.5734 -0.1032  0.4648
  478TMC3    C8 7172   0.121   1.298  11.024  0.2153 -0.3014 -0.0279
  478TMC3    O1 7173   0.557   1.075  10.763 -0.2508  0.3422  0.3395
  478TMC3    O2 7174   0.054   1.197  11.007  0.3334  0.0259  0.1970
  479MPD2     C 7175   0.127   4.015  15.221  0.2461  0.5097  0.2954
  479MPD2    C1 7176   0.044   3.947  15.307  0.1080  0.5201 -0.6730
  479MPD2    C2 7177   0.060   3.961  15.450  1.2799 -0.2045 -0.3862
  479MPD2    C3 7178   0.149   4.057  15.500  0.1971  0.9448 -0.0115
  479MPD2    C4 7179   0.240   4.110  15.412  0.1718  0.3257  0.5216
  479MPD2    C5 7180   0.216   4.104  15.272  0.3945  0.8373 -0.5545
  479MPD2     H 7181   4.735   3.910  15.523  0.7459 -0.4494 -1.0106
  479MPD2    H1 7182   0.313   4.184  15.443  0.8210 -0.6271  1.2839
  479MPD2    H2 7183   0.121   4.014  15.113  2.6679  1.1572  0.1638
  479MPD2    H3 7184   0.276   4.162  15.203  1.9333  0.1892  0.2264
  479MPD2     N 7185   0.170   4.089  15.641 -0.1349  0.2589 -0.5575
  479MPD2    H5 7186   0.251   4.146  15.663 -0.0965 -0.9307  2.3970
  479MPD2    N1 7187   4.693   3.860  15.240 -0.2436  0.4506  0.8578
  479MPD2    H7 7188   4.681   3.854  15.139 -0.5949 -0.6491  0.9609
  480TMC3    C1 7189   4.536   3.844  15.803 -0.4324 -0.1185  0.2272
  480TMC3    C2 7190   4.442   3.927  15.742  0.2179  0.1352  0.0240
  480TMC3    C3 7191   4.491   4.044  15.677  0.7480 -0.0806 -0.0729
  480TMC3    C4 7192   4.665   3.880  15.805 -1.0971 -0.1384  0.0537
  480TMC3    C5 7193   4.707   3.992  15.742 -0.4707 -0.0387  0.3704
  480TMC3    C6 7194   4.625   4.084  15.684  0.2464  0.1276  0.0157
  480TMC3     C 7195   4.493   3.718  15.873  0.2992 -0.2982 -0.7451
  480TMC3     O 7196   4.581   3.633  15.881  0.2499  0.2538  0.0249
  480TMC3     H 7197   4.337   3.904  15.732  0.0292  1.4856 -0.9813
  480TMC3    H1 7198   4.727   3.812  15.862 -0.7625  0.8337  0.8473
  480TMC3    H2 7199   4.652   4.180  15.644  1.9044  1.2950  3.9679
  480TMC3    C7 7200   0.110   4.030  15.752 -0.2707 -0.1904 -0.3967
  480TMC3    C8 7201   4.419   4.090  15.561  1.1515  0.0238 -0.3092
  480TMC3    O1 7202   0.167   4.030  15.859  0.4586  0.0597 -0.6983
  480TMC3    O2 7203   4.309   4.034  15.539  0.1446 -0.2160 -0.0428
  481MPD2     C 7204   1.728   3.296  14.594  0.0525  0.1559  0.6200
  481MPD2    C1 7205   1.623   3.205  14.597  0.0186  0.4972 -0.1030
  481MPD2    C2 7206   1.584   3.175  14.723  0.1034 -0.3748  0.4144
  481MPD2    C3 7207   1.647   3.212  14.840  0.2066 -0.3224 -0.2017
  481MPD2    C4 7208   1.752   3.297  14.837  0.0450  0.2441  0.2136
  481MPD2    C5 7209   1.795   3.340  14.709  0.3962 -0.2207  0.3107
  481MPD2     H 7210   1.483   3.137  14.732  0.1689 -1.0974 -1.7994
  481MPD2    H1 7211   1.802   3.335  14.925  3.0845 -2.2419 -0.4370
  481MPD2    H2 7212   1.759   3.329  14.496 -0.9376 -0.6022  0.0517
  481MPD2    H3 7213   1.876   3.412  14.699  0.5645 -0.4426  0.0713
  481MPD2     N 7214   1.619   3.145  14.962 -0.2881 -0.4554 -0.0111
  481MPD2    H5 7215   1.669   3.187  15.041  0.5216 -0.6619 -0.4140
  481MPD2    N1 7216   1.562   3.165  14.476  0.1069  0.1740  0.1490
  481MPD2    H7 7217   1.601   3.213  14.395 -1.6739  1.8876  0.3154
  482TMC3    C1 7218   1.420   3.025  14.344  0.5295 -0.0533  1.2072
  482TMC3    C2 7219   1.332   2.921  14.349 -0.0368 -0.3569 -0.2860
  482TMC3    C3 7220   1.261   2.903  14.237 -0.2605 -0.9914 -0.4012
  482TMC3    C4 7221   1.425   3.119  14.239  0.3379  0.4662  0.1271
  482TMC3    C5 7222   1.350   3.088  14.127 -0.0966  0.1376  0.1819
  482TMC3    C6 7223   1.277   2.975  14.127  0.6363  0.2697 -0.0558
  482TMC3     C 7224   1.481   3.053  14.470 -0.1344 -0.3909  0.8363
  482TMC3     O 7225   1.444   2.982  14.565 -0.2262 -0.1365  0.1769
  482TMC3     H 7226   1.315   2.861  14.438 -0.9923 -0.7438 -0.7283
  482TMC3    H1 7227   1.483   3.210  14.250 -0.6774  0.9427  1.5423
  482TMC3    H2 7228   1.208   2.967  14.045 -0.6211 -1.5980  1.1806
  482TMC3    C7 7229   1.327   3.180  14.016 -0.3048  0.4701  0.9296
  482TMC3    C8 7230   1.165   2.791  14.246  0.3440 -0.6557 -0.1383
  482TMC3    O1 7231   1.326   3.128  13.904  0.1260 -0.4891 -0.0624
  482TMC3    O2 7232   1.176   2.707  14.334  0.0760 -0.1552  0.2141
  483TMC3    C1 7233   3.765   2.498   0.750  0.3807  0.2213 -0.0205
  483TMC3    C2 7234   3.869   2.594   0.756 -0.7937 -0.4559  0.2006
  483TMC3    C3 7235   3.956   2.600   0.648 -0.9176  0.3888 -0.1408
  483TMC3    C4 7236   3.765   2.409   0.646 -0.1052  0.5989  0.3658
  483TMC3    C5 7237   3.863   2.415   0.558  1.4485 -0.4015 -0.9777
  483TMC3    C6 7238   3.961   2.501   0.562  0.0424  0.3477 -0.6371
  483TMC3     C 7239   3.723   2.436   0.875  0.2011 -0.0188  0.1942
  483TMC3     O 7240   3.682   2.508   0.963 -0.7187  0.1020  0.6193
  483TMC3     H 7241   3.875   2.659   0.842 -0.4480 -0.7741  0.4150
  483TMC3    H1 7242   3.684   2.339   0.634  0.0445  0.5103 -0.1159
  483TMC3    H2 7243   4.032   2.497   0.480  0.0444 -2.3198 -0.5178
  483TMC3    C7 7244   3.905   2.281   0.538  0.0725  0.4071  0.3956
  483TMC3    C8 7245   4.038   2.714   0.625 -0.1637  0.0859  0.1078
  483TMC3    O1 7246   3.871   2.215   0.635  0.0968  0.0227  0.0854
  483TMC3    O2 7247   4.130   2.691   0.545 -0.0966 -0.0321  0.0109
  484MPD2     C 7248   1.771   0.077  12.406 -0.0278 -0.3310 -0.2216
  484MPD2    C1 7249   1.784   0.112  12.540 -0.0879  0.6083  0.2024
  484MPD2    C2 7250   1.899   0.174  12.588 -0.1902 -0.6930  0.5423
  484MPD2    C3 7251   2.000   0.205  12.500  0.6842 -0.2140 -0.1641
  484MPD2    C4 7252   1.986   0.166  12.366 -1.0861  0.7468 -0.1253
  484MPD2    C5 7253   1.876   0.108  12.318  0.0761 -0.1993  0.1237
  484MPD2     H 7254   1.899   0.208  12.691 -0.2991  0.1952  0.2507
  484MPD2    H1 7255   2.068   0.197  12.302 -0.5654 -2.3343 -0.9576
  484MPD2    H2 7256   1.693   0.011  12.370 -2.0498  2.0915 -0.2861
  484MPD2    H3 7257   1.872   0.072  12.216 -2.5063 -1.6599  0.7514
  484MPD2     N 7258   2.115   0.281  12.537 -0.1710 -0.3141  0.4805
  484MPD2    H5 7259   2.190   0.283  12.468 -1.5382  0.0944 -1.0046
  484MPD2    N1 7260   1.682   0.073  12.623 -0.1908  0.3713  0.0706
  484MPD2    H7 7261   1.596   0.046  12.577  0.0875 -2.6843  1.3420
  485TMC3    C1 7262   2.270   0.404  12.646 -0.1459 -0.7508  0.2282
  485TMC3    C2 7263   2.337   0.366  12.761 -0.2757  0.7659  0.2314
  485TMC3    C3 7264   2.476   0.372  12.756 -0.3999  0.4868 -0.1422
  485TMC3    C4 7265   2.322   0.423  12.521 -0.8622  0.0406 -0.5189
  485TMC3    C5 7266   2.458   0.437  12.524  0.0191  0.1595 -0.3973
  485TMC3    C6 7267   2.537   0.421  12.638  0.3505  0.2408 -0.2486
  485TMC3     C 7268   2.134   0.357  12.646  0.8155 -0.9980 -0.2490
  485TMC3     O 7269   2.068   0.366  12.751 -0.0422  0.4156 -0.4904
  485TMC3     H 7270   2.284   0.307  12.835  0.3153 -1.3591 -1.0382
  485TMC3    H1 7271   2.264   0.449  12.433 -1.5654 -1.5821 -0.5387
  485TMC3    H2 7272   2.645   0.429  12.636  0.2321  1.6355 -1.0196
  485TMC3    C7 7273   2.530   0.386  12.408 -0.2416 -0.2166 -0.1734
  485TMC3    C8 7274   2.535   0.242  12.787  0.1037 -0.6083  0.4214
  485TMC3    O1 7275   2.649   0.368  12.427  0.3950  0.1654 -0.4233
  485TMC3    O2 7276   2.484   0.176  12.876  0.3739 -0.4330  0.3584
  486MPD2     C 7277   3.687   3.257  12.469 -0.3382  0.0997  0.1098
  486MPD2    C1 7278   3.785   3.317  12.548 -0.1668 -0.0383  0.3567
  486MPD2    C2 7279   3.820   3.450  12.522  0.7091 -0.0590  1.0214
  486MPD2    C3 7280   3.759   3.522  12.421 -0.2261  0.1809 -0.7404
  486MPD2    C4 7281   3.661   3.467  12.347  0.0402 -0.5819  0.8212
  486MPD2    C5 7282   3.626   3.334  12.372 -0.1506 -0.6165 -0.1076
  486MPD2     H 7283   3.889   3.505  12.585  0.3293 -1.2169  2.4466
  486MPD2    H1 7284   3.606   3.522  12.271  0.2043  0.2106  1.2842
  486MPD2    H2 7285   3.642   3.161  12.492  1.3161 -0.3179  1.6004
  486MPD2    H3 7286   3.542   3.288  12.321  0.1236 -0.7398 -0.4487
  486MPD2     N 7287   3.805   3.653  12.406 -0.5600 -0.4225 -0.0188
  486MPD2    H5 7288   3.872   3.685  12.475  0.3042  0.5528 -1.3094
  486MPD2    N1 7289   3.844   3.226  12.641 -0.3791 -0.0768 -1.1368
  486MPD2    H7 7290   3.808   3.131  12.637  0.1772 -0.4457  2.9228
  487TMC3    C1 7291   4.012   3.143  12.799  0.5039 -0.0970  0.5239
  487TMC3    C2 7292   3.960   3.019  12.815 -0.3658 -0.3799  0.1065
  487TMC3    C3 7293   4.027   2.934  12.900 -0.1724 -0.2603 -0.1880
  487TMC3    C4 7294   4.118   3.187  12.879  0.0647 -0.8464  0.0064
  487TMC3    C5 7295   4.177   3.095  12.964  0.1414 -0.3217 -0.5563
  487TMC3    C6 7296   4.135   2.964  12.977  0.0383  0.4192  0.1236
  487TMC3     C 7297   3.962   3.247  12.711 -0.0321 -0.3367 -0.6627
  487TMC3     O 7298   4.022   3.359  12.724 -0.1005 -0.0218 -0.0471
  487TMC3     H 7299   3.885   2.978  12.747  2.0049 -3.0479 -0.8921
  487TMC3    H1 7300   4.156   3.286  12.853 -0.1480 -0.5629  0.7676
  487TMC3    H2 7301   4.172   2.899  13.055 -2.9385  0.3572  1.4913
  487TMC3    C7 7302   4.198   3.151  13.097  0.4767  0.7174 -0.2078
  487TMC3    C8 7303   3.950   2.825  12.937  0.2537 -0.0508  0.0427
  487TMC3    O1 7304   4.214   3.081  13.194  0.3323 -0.4344 -0.6900
  487TMC3    O2 7305   4.002   2.725  12.988  0.5049 -0.2380 -0.1233
  488MPD2     C 7306   4.150   0.867  16.128 -0.2762 -0.2110  0.0352
  488MPD2    C1 7307   4.193   0.979  16.210 -0.7895  0.4187 -0.1561
  488MPD2    C2 7308   4.168   0.962  16.347 -0.1183 -0.4811 -0.1261
  488MPD2    C3 7309   4.107   0.854  16.406  0.2433 -0.5158 -0.0154
  488MPD2    C4 7310   4.058   0.750  16.319  0.2514  0.0040  0.3658
  488MPD2    C5 7311   4.080   0.763  16.185  0.8355  0.0262  0.2010
  488MPD2     H 7312   4.212   1.034  16.416  0.8651  0.7615 -2.0432
  488MPD2    H1 7313   4.020   0.655  16.355  0.4838 -0.2389 -0.0325
  488MPD2    H2 7314   4.155   0.870  16.020 -0.0839  1.6169  0.0875
  488MPD2    H3 7315   4.048   0.681  16.122 -0.4345  1.3272 -0.8664
  488MPD2     N 7316   4.106   0.838  16.541 -0.6697  0.2497 -0.3749
  488MPD2    H5 7317   4.155   0.910  16.594 -0.8093 -0.6568  1.0064
  488MPD2    N1 7318   4.251   1.096  16.150  0.2832  0.3403  0.0613
  488MPD2    H7 7319   4.283   1.168  16.215  1.2057  0.6393 -0.7358
  489TMC3    C1 7320   4.080   0.732  16.747 -0.0294  0.0515  0.2277
  489TMC3    C2 7321   4.097   0.851  16.812 -0.3431  0.1045 -0.2625
  489TMC3    C3 7322   4.130   0.843  16.944 -0.2858  0.3098 -0.4279
  489TMC3    C4 7323   4.062   0.611  16.812 -0.0898  0.5081 -0.3850
  489TMC3    C5 7324   4.098   0.604  16.944  0.1521  0.6942  0.1439
  489TMC3    C6 7325   4.131   0.724  17.011  0.4141  0.2028 -0.7295
  489TMC3     C 7326   4.039   0.736  16.609  0.1162 -0.2616 -0.2008
  489TMC3     O 7327   3.968   0.645  16.568 -0.1155 -1.1501  0.4485
  489TMC3     H 7328   4.084   0.947  16.763 -0.2396 -0.2897 -1.0594
  489TMC3    H1 7329   4.046   0.521  16.754  2.8175  0.9656 -1.9004
  489TMC3    H2 7330   4.177   0.715  17.108  0.9467 -0.1817 -1.0185
  489TMC3    C7 7331   4.098   0.484  17.028  0.3613  0.0254  0.1210
  489TMC3    C8 7332   4.150   0.962  17.019 -0.8441 -0.4448  0.7875
  489TMC3    O1 7333   4.145   0.488  17.140 -0.3713 -0.3081  0.6958
  489TMC3    O2 7334   4.132   0.958  17.137 -0.2530  0.1289  0.1647
  490MPD2     C 7335   0.538   0.968  16.837  0.1393  0.3746  0.6644
  490MPD2    C1 7336   0.595   0.882  16.926 -0.0515 -0.9181 -0.1218
  490MPD2    C2 7337   0.718   0.915  16.986 -0.1937 -0.1999  0.5245
  490MPD2    C3 7338   0.773   1.033  16.949  0.4763  0.7952  0.2972
  490MPD2    C4 7339   0.712   1.122  16.867 -0.0766 -0.0562 -0.1147
  490MPD2    C5 7340   0.600   1.090  16.801  0.7016  0.4227 -0.2495
  490MPD2     H 7341   0.756   0.859  17.071 -2.5701  2.5666  3.4369
  490MPD2    H1 7342   0.763   1.211  16.831 -0.9448  1.0643  1.4585
  490MPD2    H2 7343   0.456   0.940  16.771 -0.6576  1.3456  1.2396
  490MPD2    H3 7344   0.548   1.162  16.739  0.3705  0.6305  0.2605
  490MPD2     N 7345   0.893   1.078  17.019  0.2962 -0.0966  0.2868
  490MPD2    H5 7346   0.910   1.178  17.020  1.4586 -0.2663 -2.1699
  490MPD2    N1 7347   0.523   0.765  16.959 -0.8732  0.4924  0.1906
  490MPD2    H7 7348   0.570   0.716  17.034  1.0338  0.4916 -1.0004
  491TMC3    C1 7349   0.356   0.607  16.996 -0.0321  0.0765 -0.4546
  491TMC3    C2 7350   0.378   0.590  17.128 -0.4501  0.1095  0.1323
  491TMC3    C3 7351   0.332   0.469  17.185 -0.1421 -0.6337  0.4745
  491TMC3    C4 7352   0.285   0.521  16.922 -0.0185  0.6360  0.3622
  491TMC3    C5 7353   0.226   0.418  16.988  0.4085  0.1997 -0.4420
  491TMC3    C6 7354   0.255   0.385  17.113  1.0329  0.4897  1.2123
  491TMC3     C 7355   0.403   0.717  16.920 -0.4722 -0.2066 -0.5029
  491TMC3     O 7356   0.331   0.758  16.829 -0.1192 -0.1678 -0.0957
  491TMC3     H 7357   0.423   0.671  17.184 -1.8987  0.6007  0.5785
  491TMC3    H1 7358   0.271   0.525  16.814 -0.8089  3.7628  0.5633
  491TMC3    H2 7359   0.216   0.294  17.159  1.7646 -0.4591 -0.0606
  491TMC3    C7 7360   0.130   0.346  16.906  0.2098  0.4963 -0.8886
  491TMC3    C8 7361   0.306   0.455  17.326  0.3799 -0.3950 -0.1364
  491TMC3    O1 7362   0.107   0.227  16.925  0.5203  0.7719 -0.3387
  491TMC3    O2 7363   0.277   0.347  17.370  0.0607  0.2500  0.6349
  492MPD2     C 7364   0.222   0.001  11.398 -0.7034 -0.3440  0.3406
  492MPD2    C1 7365   0.198   4.602  11.367 -0.6032 -0.2416  0.2641
  492MPD2    C2 7366   0.169   4.511  11.463 -0.2392  0.1238 -0.1247
  492MPD2    C3 7367   0.172   4.546  11.596 -0.0450  0.5534 -0.2580
  492MPD2    C4 7368   0.192   4.678  11.624  0.5371 -0.0492 -0.5361
  492MPD2    C5 7369   0.212   0.036  11.530 -0.1282 -0.3038 -0.1150
  492MPD2     H 7370   0.148   4.410  11.428  0.1091  0.0290 -0.0578
  492MPD2    H1 7371   0.177   4.714  11.725  0.8742  1.4260 -1.0123
  492MPD2    H2 7372   0.236   0.074  11.319  1.5347 -0.2438  0.8407
  492MPD2    H3 7373   0.205   0.139  11.561  2.6911 -0.5432  1.3491
  492MPD2     N 7374   0.130   4.467  11.705  0.4993  0.2618  0.1863
  492MPD2    H5 7375   0.125   4.516  11.794 -0.1987 -1.1902  0.9507
  492MPD2    N1 7376   0.221   4.570  11.227  0.0946  0.3218  0.7387
  492MPD2    H7 7377   0.254   4.646  11.169 -1.8207  1.7840  1.5709
  493TMC3    C1 7378   0.255   4.468  11.032  0.3522 -0.1592  0.5925
  493TMC3    C2 7379   0.350   4.566  11.025  0.0894  0.5700  0.0761
  493TMC3    C3 7380   0.342   4.652  10.922  0.0226 -0.0018 -0.5631
  493TMC3    C4 7381   0.179   4.439  10.921 -0.2838  0.2246  0.0247
  493TMC3    C5 7382   0.193   4.519  10.811 -0.2716  0.1753  0.0600
  493TMC3    C6 7383   0.264   4.632  10.816  0.1809 -0.2408 -0.3385
  493TMC3     C 7384   0.195   4.449  11.161  1.0956  0.0193  0.3341
  493TMC3     O 7385   0.120   4.356  11.188  0.3640 -0.7895 -0.0839
  493TMC3     H 7386   0.425   4.588  11.100  0.8121  2.3346 -1.1624
  493TMC3    H1 7387   0.110   4.356  10.925 -0.6344  0.4931 -0.4439
  493TMC3    H2 7388   0.261   4.710  10.741 -1.9954  0.0860  0.0708
  493TMC3    C7 7389   0.087   4.505  10.710 -0.1591  0.4064 -0.1341
  493TMC3    C8 7390   0.378   0.049  10.953  0.8957 -1.2029 -0.2948
  493TMC3    O1 7391   4.734   4.424  10.731  0.3895 -0.0216  0.2701
  493TMC3    O2 7392   0.370   0.070  11.075  0.7226  0.4656  0.2706
  494TMC3    C1 7393   1.481   2.450   0.493 -0.2545  0.7213 -0.0585
  494TMC3    C2 7394   1.408   2.333   0.505 -0.5583 -0.0875 -0.0314
  494TMC3    C3 7395   1.335   2.285   0.404  0.5115 -0.4691  0.2539
  494TMC3    C4 7396   1.468   2.533   0.385  0.4032  0.3455 -0.4205
  494TMC3    C5 7397   1.393   2.488   0.285 -0.3092 -0.2537  0.0854
  494TMC3    C6 7398   1.329   2.367   0.289 -0.3291  0.3092 -0.1726
  494TMC3     C 7399   1.589   2.468   0.585  0.5013 -0.1147 -0.1309
  494TMC3     O 7400   1.598   2.564   0.658 -0.0205 -0.5709  0.7044
  494TMC3     H 7401   1.426   2.283   0.600  1.3729  1.0841  0.2200
  494TMC3    H1 7402   1.550   2.604   0.375  1.5855 -0.9787 -0.2094
  494TMC3    H2 7403   1.302   2.311   0.201  1.9865 -1.1292  0.0184
  494TMC3    C7 7404   1.409   2.551   0.155 -0.4277  0.5393  0.3950
  494TMC3    C8 7405   1.343   2.141   0.403  1.0700 -1.3656  0.1450
  494TMC3    O1 7406   1.440   2.468   0.070  0.2439  0.8152 -0.0870
  494TMC3    O2 7407   1.410   2.090   0.488  0.2732 -0.1229  0.5128
  495TMC3    C1 7408   0.236   4.277  14.799  0.1140 -0.2429  0.7179
  495TMC3    C2 7409   0.222   4.394  14.723 -0.2836  0.5945  0.1142
  495TMC3    C3 7410   0.156   4.501  14.779  0.4849 -0.0599  0.2435
  495TMC3    C4 7411   0.191   4.272  14.926 -0.5186  0.0914 -0.0239
  495TMC3    C5 7412   0.131   4.386  14.975 -0.8926 -0.2253  0.4900
  495TMC3    C6 7413   0.115   4.504  14.908  0.7830  0.0746 -0.0904
  495TMC3     C 7414   0.234   4.145  14.728 -0.1846  0.3277 -0.7600
  495TMC3     O 7415   0.166   4.064  14.792 -0.2831  0.4026 -0.9233
  495TMC3     H 7416   0.248   4.392  14.617  1.0928 -0.0901  0.4704
  495TMC3    H1 7417   0.196   4.189  14.995 -0.6360  0.4489  0.4159
  495TMC3    H2 7418   0.056   4.583  14.952  1.0517  1.0810 -1.5450
  495TMC3    C7 7419   0.036   4.365  15.077  0.8455 -0.4605 -0.1700
  495TMC3    C8 7420   0.040   4.513  14.696 -0.4828  0.1626 -0.8958
  495TMC3    O1 7421   0.034   4.441  15.174  0.2250  0.0876 -0.2680
  495TMC3    O2 7422   4.672   4.542  14.749  1.2784  0.1452 -0.2014
  496MPD2     C 7423   2.472   4.375  15.518  0.3969  0.5760  0.1997
  496MPD2    C1 7424   2.394   4.311  15.422  0.0458  0.3492  0.1937
  496MPD2    C2 7425   2.256   4.302  15.436  0.2666  0.0646 -0.6441
  496MPD2    C3 7426   2.193   4.348  15.555 -1.0214  0.0270  0.3708
  496MPD2    C4 7427   2.270   4.419  15.640  0.8003 -0.0473  0.4256
  496MPD2    C5 7428   2.403   4.429  15.625  0.1834 -0.4316 -0.3292
  496MPD2     H 7429   2.191   4.248  15.367  0.4581 -2.5774  1.2587
  496MPD2    H1 7430   2.233   4.439  15.740  1.1253  0.5822  0.4170
  496MPD2    H2 7431   2.580   4.362  15.519  0.6169  2.5081  0.7244
  496MPD2    H3 7432   2.465   4.453  15.710 -0.7087  0.6202  0.0377
  496MPD2     N 7433   2.058   4.334  15.590  0.0320  0.0637  0.7030
  496MPD2    H5 7434   2.030   4.357  15.685  0.0996  4.0894 -0.2591
  496MPD2    N1 7435   2.470   4.239  15.322 -0.2544 -0.0394 -0.3101
  496MPD2    H7 7436   2.572   4.241  15.320 -0.2472 -0.5252 -0.4008
  497TMC3    C1 7437   1.847   4.226  15.579 -0.6200  0.1851 -1.0229
  497TMC3    C2 7438   1.729   4.217  15.504 -0.7536 -0.1711  0.1243
  497TMC3    C3 7439   1.617   4.173  15.574 -0.1130 -1.1548  0.0292
  497TMC3    C4 7440   1.849   4.201  15.714  0.5315 -0.1267 -0.5070
  497TMC3    C5 7441   1.733   4.150  15.771 -0.3927 -0.6423  0.4449
  497TMC3    C6 7442   1.618   4.140  15.704 -0.1194 -0.1996 -0.1882
  497TMC3     C 7443   1.966   4.267  15.514 -0.3890 -0.2445  0.1217
  497TMC3     O 7444   1.970   4.257  15.393  0.0022 -0.0630  0.0960
  497TMC3     H 7445   1.721   4.243  15.399 -1.6415  0.5374  0.3693
  497TMC3    H1 7446   1.943   4.203  15.769 -1.3176 -0.1120  2.6627
  497TMC3    H2 7447   1.529   4.094  15.746  2.2019 -4.9525 -0.5034
  497TMC3    C7 7448   1.746   4.123  15.922 -0.2851  0.5226  0.6179
  497TMC3    C8 7449   1.508   4.118  15.493  0.4250 -0.0701  0.6175
  497TMC3    O1 7450   1.681   4.035  15.977  0.9999 -0.0973  0.0177
  497TMC3    O2 7451   1.393   4.140  15.529  0.2875  0.0249 -0.2719
  498MPD2     C 7452   3.165   0.168   9.701 -0.1283  0.5048  0.0174
  498MPD2    C1 7453   3.065   0.235   9.761  0.1046 -0.6818  0.3121
  498MPD2    C2 7454   2.940   0.181   9.769  0.3340 -0.3362 -0.3087
  498MPD2    C3 7455   2.914   0.052   9.727 -0.5002 -0.0292 -0.4524
  498MPD2    C4 7456   3.025   4.715   9.671  1.0753  0.2292 -0.5925
  498MPD2    C5 7457   3.145   0.037   9.658 -0.0378 -0.0673  0.6964
  498MPD2     H 7458   2.854   0.223   9.820  0.0145 -0.9962 -0.2979
  498MPD2    H1 7459   3.027   4.611   9.640 -0.3094  1.2078 -3.8585
  498MPD2    H2 7460   3.267   0.203   9.696  0.4246 -0.9903  0.7680
  498MPD2    H3 7461   3.227   4.720   9.612 -2.5809 -2.5335 -0.9383
  498MPD2     N 7462   2.782   0.010   9.764  0.2328  0.2120 -0.2762
  498MPD2    H5 7463   2.724   0.078   9.813 -0.1824  0.7795 -1.5679
  498MPD2    N1 7464   3.081   0.353   9.828 -0.3391  0.2456  0.6203
  498MPD2    H7 7465   3.001   0.401   9.868 -2.2134 -1.7685 -0.6892
  499TMC3    C1 7466   3.155   0.563   9.866  0.2418 -0.2617  0.6425
  499TMC3    C2 7467   3.252   0.639   9.924 -0.6450  0.5126  0.6171
  499TMC3    C3 7468   3.209   0.756   9.967  0.1939  0.1661 -0.1173
  499TMC3    C4 7469   3.028   0.603   9.832  0.5205 -0.2522  0.0443
  499TMC3    C5 7470   2.993   0.733   9.865  0.1431 -0.3996  0.0335
  499TMC3    C6 7471   3.086   0.808   9.928  0.4634  0.2642 -0.4314
  499TMC3     C 7472   3.193   0.434   9.829  0.7690 -0.1816 -0.6329
  499TMC3     O 7473   3.309   0.402   9.808  0.1661 -0.0983  0.0059
  499TMC3     H 7474   3.346   0.588   9.943 -1.3903 -0.7681  0.8257
  499TMC3    H1 7475   2.969   0.548   9.759  0.4261  1.4972 -1.1728
  499TMC3    H2 7476   3.049   0.905   9.959 -2.0650 -0.6766 -0.4525
  499TMC3    C7 7477   2.905   0.810   9.774 -0.0088  0.5430  0.9144
  499TMC3    C8 7478   3.282   0.828  10.067 -0.1030 -0.2182 -0.3104
  499TMC3    O1 7479   2.929   0.929   9.759 -0.1514  0.0928 -0.0194
  499TMC3    O2 7480   3.251   0.949  10.079 -0.5017  0.3143  1.1826
  500MPD2     C 7481   3.969   1.040  10.306 -0.4757  0.2709  0.0980
  500MPD2    C1 7482   3.993   1.048  10.169  0.8083 -0.5022  0.5205
  500MPD2    C2 7483   3.879   1.079  10.093  0.2654 -0.7895  0.8245
  500MPD2    C3 7484   3.757   1.112  10.143 -0.3830 -0.3565 -0.4292
  500MPD2    C4 7485   3.752   1.125  10.279  0.1557  0.1470  0.4757
  500MPD2    C5 7486   3.848   1.076  10.358  0.9637 -0.3506 -0.5037
  500MPD2     H 7487   3.888   1.072   9.985  2.7773  2.2177  0.8392
  500MPD2    H1 7488   3.669   1.163  10.338 -0.5303  0.9095 -0.9693
  500MPD2    H2 7489   4.050   1.008  10.370  0.2706  1.1059 -0.4284
  500MPD2    H3 7490   3.837   1.084  10.466  1.4728 -0.4894 -0.4420
  500MPD2     N 7491   3.642   1.152  10.068 -0.1860 -0.1770  0.4982
  500MPD2    H5 7492   3.559   1.174  10.123 -2.2566 -1.4034 -2.1076
  500MPD2    N1 7493   4.116   1.024  10.105 -0.5387 -0.1497 -0.4870
  500MPD2    H7 7494   4.126   1.047  10.007 -0.5855 -2.4433 -1.0140
  501TMC3    C1 7495   4.343   0.972  10.084  0.2723  0.4047  0.0346
  501TMC3    C2 7496   4.347   0.952   9.947 -0.3169  0.2187  0.4582
  501TMC3    C3 7497   4.472   0.927   9.890  0.4297 -0.3340 -0.5621
  501TMC3    C4 7498   4.460   0.947  10.162  0.3774  0.7553  0.2584
  501TMC3    C5 7499   4.583   0.923  10.101  0.4432 -0.2243  0.3741
  501TMC3    C6 7500   4.587   0.907   9.967 -0.4284  0.5151 -0.7824
  501TMC3     C 7501   4.221   0.970  10.163  0.2928 -0.7972  0.5178
  501TMC3     O 7502   4.232   0.925  10.278  0.7842 -0.0297  0.1331
  501TMC3     H 7503   4.258   0.948   9.885  0.9019 -0.2357 -1.2689
  501TMC3    H1 7504   4.455   0.969  10.268 -0.7854  0.5862  0.2427
  501TMC3    H2 7505   4.679   0.871   9.922  0.2005 -0.0715  0.9601
  501TMC3    C7 7506   4.692   0.894  10.192 -0.6008 -0.2783 -0.1140
  501TMC3    C8 7507   4.505   0.986   9.764 -0.0678 -0.5032  0.0146
  501TMC3    O1 7508   4.652   0.875  10.307  0.6922 -0.1798 -0.3107
  501TMC3    O2 7509   4.411   1.003   9.691  0.3121  0.0514 -0.4212
  502TMC3    C1 7510   4.135   0.310  14.637  0.2003  0.3894  0.0209
  502TMC3    C2 7511   4.089   0.406  14.552 -0.4951 -0.2744 -0.2323
  502TMC3    C3 7512   3.956   0.406  14.513  0.0051  0.6981  0.1829
  502TMC3    C4 7513   4.051   0.214  14.686  0.4504 -0.0919 -0.4202
  502TMC3    C5 7514   3.918   0.214  14.655  0.7502  0.6448 -0.2688
  502TMC3    C6 7515   3.866   0.308  14.564 -0.2269 -0.1940 -0.2376
  502TMC3     C 7516   4.238   0.358  14.725  0.3298  0.3425  0.2921
  502TMC3     O 7517   4.313   0.445  14.686  0.1620  0.1322  0.1572
  502TMC3     H 7518   4.162   0.476  14.516  0.7721 -1.5611 -0.1636
  502TMC3    H1 7519   4.092   0.123  14.730  1.9959  1.2462  0.9115
  502TMC3    H2 7520   3.763   0.312  14.533 -0.3024  0.9641  0.1470
  502TMC3    C7 7521   3.845   0.126  14.741  0.3618  0.7490  0.3530
  502TMC3    C8 7522   3.918   0.534  14.462  0.2108 -0.4293  0.4627
  502TMC3    O1 7523   3.904   0.028  14.782  0.6010  0.2419  0.3991
  502TMC3    O2 7524   3.993   0.584  14.382  0.0732 -0.4071  0.1130
  503MPD2     C 7525   1.196   1.039  16.861 -0.5933 -0.4900  0.8483
  503MPD2    C1 7526   1.289   1.107  16.940 -0.5094 -0.0054 -0.0577
  503MPD2    C2 7527   1.388   1.034  17.005  0.4174  0.3259 -0.6592
  503MPD2    C3 7528   1.388   0.901  16.998  0.1492 -0.3933  0.2574
  503MPD2    C4 7529   1.288   0.835  16.916 -0.4550  0.0771  0.1117
  503MPD2    C5 7530   1.205   0.907  16.850  0.0765  0.2415 -0.4787
  503MPD2     H 7531   1.466   1.078  17.066  0.3172  1.9177 -1.6763
  503MPD2    H1 7532   1.280   0.728  16.905 -3.0404  0.2043  0.8328
  503MPD2    H2 7533   1.122   1.086  16.798  0.5830 -0.5574 -0.6037
  503MPD2    H3 7534   1.134   0.862  16.782 -0.0399  1.4695 -1.1694
  503MPD2     N 7535   1.498   0.830  17.052  0.1419  0.1717  0.8805
  503MPD2    H5 7536   1.569   0.888  17.096 -1.2934  1.4888  1.4726
  503MPD2    N1 7537   1.285   1.246  16.947  0.1479  0.1012 -0.3856
  503MPD2    H7 7538   1.360   1.286  17.003  0.7542 -1.3838 -0.1490
  504TMC3    C1 7539   1.622   0.654  17.154  0.2166  0.6141 -0.0594
  504TMC3    C2 7540   1.618   0.543  17.232  0.1707  1.0776  0.0028
  504TMC3    C3 7541   1.725   0.507  17.307 -0.1017  0.1733 -0.0542
  504TMC3    C4 7542   1.741   0.709  17.130  0.3356  0.2810  0.3196
  504TMC3    C5 7543   1.855   0.670  17.195 -0.4074 -0.2971  1.0620
  504TMC3    C6 7544   1.848   0.573  17.293 -0.9149  0.6806 -0.1827
  504TMC3     C 7545   1.507   0.691  17.063 -0.6231 -0.5420 -0.0139
  504TMC3     O 7546   1.412   0.610  17.056 -0.2313 -0.2596  0.1857
  504TMC3     H 7547   1.534   0.476  17.247  0.2561  0.9219 -0.2182
  504TMC3    H1 7548   1.744   0.792  17.060  1.3669  0.4392  0.5624
  504TMC3    H2 7549   1.938   0.529  17.334  0.4177  1.5599 -2.1514
  504TMC3    C7 7550   1.987   0.707  17.145 -0.4502 -0.3200  0.4963
  504TMC3    C8 7551   1.723   0.401  17.408  0.1867 -0.5958 -0.4757
  504TMC3    O1 7552   1.988   0.741  17.028 -0.2563 -0.0120 -0.2051
  504TMC3    O2 7553   1.660   0.303  17.373 -0.2207  0.5118  0.1666
  505MPD2     C 7554   1.503   4.307   9.924  0.2961 -1.0331  0.1394
  505MPD2    C1 7555   1.541   4.271  10.052  0.6358  0.3826 -0.5186
  505MPD2    C2 7556   1.539   4.365  10.152  0.2595 -0.0313 -0.3722
  505MPD2    C3 7557   1.525   4.500  10.131  0.3764  0.3056 -0.0603
  505MPD2    C4 7558   1.470   4.530  10.010 -0.4454 -0.4811  0.2568
  505MPD2    C5 7559   1.464   4.437   9.908  0.2033  0.2236 -0.0167
  505MPD2     H 7560   1.586   4.332  10.244 -1.2678  0.6926  0.6893
  505MPD2    H1 7561   1.452   4.634   9.985  0.3291 -0.3373  0.2986
  505MPD2    H2 7562   1.497   4.243   9.837 -0.7979 -2.1789  1.0571
  505MPD2    H3 7563   1.437   4.469   9.808  0.3389  1.8056  0.4476
  505MPD2     N 7564   1.537   4.589  10.236 -0.0875 -0.2082 -0.3879
  505MPD2    H5 7565   1.578   4.552  10.322 -0.6527  0.8171  0.3288
  505MPD2    N1 7566   1.575   4.134  10.069  0.5957 -0.1885 -0.3475
  505MPD2    H7 7567   1.601   4.085   9.984  0.8926 -0.2299 -0.2339
  506TMC3    C1 7568   1.651   3.945  10.195  0.7482  0.3461  0.3640
  506TMC3    C2 7569   1.773   3.931  10.136  0.1266 -0.1802  0.0620
  506TMC3    C3 7570   1.880   3.865  10.203  0.3235  0.1257  0.4749
  506TMC3    C4 7571   1.636   3.880  10.315  0.0943 -0.1171 -0.0469
  506TMC3    C5 7572   1.744   3.819  10.382  0.4826  0.4322 -0.8040
  506TMC3    C6 7573   1.866   3.806  10.322  0.5987  0.0995 -0.0017
  506TMC3     C 7574   1.587   4.074  10.194  0.6287 -0.0173 -0.0134
  506TMC3     O 7575   1.548   4.113  10.303 -0.8082  0.2583 -0.1232
  506TMC3     H 7576   1.780   3.977  10.038 -1.6833 -1.9538 -0.9135
  506TMC3    H1 7577   1.537   3.879  10.359  0.5465  0.3466  0.9982
  506TMC3    H2 7578   1.949   3.751  10.364  2.4695  1.3471 -2.0839
  506TMC3    C7 7579   1.760   3.859  10.517  0.0382 -0.2772 -0.4954
  506TMC3    C8 7580   2.004   3.849  10.134  0.4100  0.1345 -0.0759
  506TMC3    O1 7581   1.851   3.799  10.572 -0.1998  0.3166 -0.6898
  506TMC3    O2 7582   2.078   3.752  10.151  0.6653 -0.4929  0.3610
  507TMC3    C1 7583   2.824   0.592  14.649  0.4270 -0.2525 -0.4508
  507TMC3    C2 7584   2.843   0.462  14.614  0.2041 -0.4329  0.6531
  507TMC3    C3 7585   2.870   0.437  14.481  0.1967 -0.2148  0.2627
  507TMC3    C4 7586   2.827   0.687  14.559 -0.3886 -0.0039 -0.9030
  507TMC3    C5 7587   2.848   0.652  14.426  0.1514 -0.4477 -0.4281
  507TMC3    C6 7588   2.873   0.526  14.382 -0.1316  0.3119 -0.5056
  507TMC3     C 7589   2.721   0.615  14.751 -0.5067  0.3433 -0.4628
  507TMC3     O 7590   2.679   0.727  14.753 -0.3629  0.2129 -0.2154
  507TMC3     H 7591   2.850   0.376  14.680 -1.0878 -1.6938 -0.8710
  507TMC3    H1 7592   2.812   0.793  14.578  1.1143 -0.0558  0.5081
  507TMC3    H2 7593   2.893   0.498  14.279 -0.3181 -2.4178  0.1902
  507TMC3    C7 7594   2.741   0.699  14.341  0.7123  0.2774 -0.1677
  507TMC3    C8 7595   2.803   0.315  14.436  0.3159  0.5143 -0.9042
  507TMC3    O1 7596   2.699   0.622  14.258 -0.1681  0.0599  0.7010
  507TMC3    O2 7597   2.812   0.216  14.501  0.3878 -0.2481  0.0287
  508MPD2     C 7598   3.567   2.472  16.064  1.0441 -0.1966 -0.2988
  508MPD2    C1 7599   3.565   2.604  16.110  0.2100 -0.1114  0.4717
  508MPD2    C2 7600   3.546   2.706  16.016 -0.2192  0.1243 -0.6578
  508MPD2    C3 7601   3.506   2.675  15.889 -0.3990  0.6233 -0.1134
  508MPD2    C4 7602   3.484   2.541  15.851 -1.0020 -0.6563 -0.0989
  508MPD2    C5 7603   3.523   2.439  15.936 -0.0262 -0.0712  0.3152
  508MPD2     H 7604   3.559   2.812  16.034  2.0630  0.0956 -2.0889
  508MPD2    H1 7605   3.463   2.517  15.747 -0.8524 -0.9598 -0.0571
  508MPD2    H2 7606   3.575   2.390  16.135 -1.0823 -0.0090  0.1526
  508MPD2    H3 7607   3.513   2.338  15.899  0.3991 -1.2094  3.2679
  508MPD2     N 7608   3.481   2.781  15.795  1.1668 -0.4910  0.3723
  508MPD2    H5 7609   3.493   2.873  15.836  1.1579  0.2627 -1.3022
  508MPD2    N1 7610   3.580   2.634  16.247 -0.6487 -0.6546  0.1740
  508MPD2    H7 7611   3.612   2.557  16.305 -1.6019 -0.2890  1.1824
  509TMC3    C1 7612   3.334   3.100  15.511  0.2554 -0.4128  0.1886
  509TMC3    C2 7613   3.440   3.178  15.539 -0.4555 -0.3230  0.2539
  509TMC3    C3 7614   3.549   3.111  15.595 -0.0630  0.3862  0.5602
  509TMC3    C4 7615   3.325   2.971  15.540  0.4791 -0.5153  0.3278
  509TMC3    C5 7616   3.433   2.912  15.608 -0.1745  0.1349 -0.2138
  509TMC3    C6 7617   3.546   2.980  15.634 -0.3458  0.1334  0.0143
  509TMC3     C 7618   3.218   3.152  15.448  0.3768 -0.4810 -0.1394
  509TMC3     O 7619   3.112   3.100  15.463  0.2935 -0.4745 -0.5287
  509TMC3     H 7620   3.436   3.278  15.498 -1.3469 -0.4311  0.0750
  509TMC3    H1 7621   3.238   2.919  15.500 -0.7561  2.5880 -0.9816
  509TMC3    H2 7622   3.627   2.946  15.696  0.4215  0.2763 -0.9101
  509TMC3    C7 7623   3.420   2.780  15.675  0.3984  0.3324  0.0778
  509TMC3    C8 7624   3.637   3.191  15.672 -0.1576  0.1367  0.7759
  509TMC3    O1 7625   3.384   2.687  15.609  0.1531 -0.2337 -0.2457
  509TMC3    O2 7626   3.716   3.138  15.750 -0.1231 -0.3833  0.1996
  510MPD2     C 7627   1.379   4.508  14.670  0.7530 -1.0768 -0.4017
  510MPD2    C1 7628   1.377   4.373  14.693  0.4953 -0.6887 -0.8328
  510MPD2    C2 7629   1.461   4.292  14.614 -0.5029 -0.1666  0.1109
  510MPD2    C3 7630   1.550   4.345  14.523  0.9430 -0.2090  0.0523
  510MPD2    C4 7631   1.536   4.479  14.497  0.7359 -0.8788  0.6784
  510MPD2    C5 7632   1.456   4.562  14.577 -0.1373 -0.6449 -0.0552
  510MPD2     H 7633   1.469   4.185  14.630  0.5921 -0.3544 -1.7199
  510MPD2    H1 7634   1.593   4.532  14.422 -2.2918  0.2198 -0.8551
  510MPD2    H2 7635   1.312   4.573  14.726 -0.4828 -0.5890 -2.4392
  510MPD2    H3 7636   1.450   4.665  14.546  1.7950 -0.1090  1.3796
  510MPD2     N 7637   1.643   4.256  14.453 -0.7029 -0.5174 -0.0015
  510MPD2    H5 7638   1.654   4.162  14.490  1.4169 -0.2847 -0.0576
  510MPD2    N1 7639   1.279   4.338  14.784  0.5613 -0.4057  0.2084
  510MPD2    H7 7640   1.222   4.415  14.816  2.2670  1.5806 -1.5534
  511TMC3    C1 7641   1.122   4.189  14.880  0.0908  0.6371 -0.6181
  511TMC3    C2 7642   1.077   4.280  14.968  0.0782 -0.5937  0.5324
  511TMC3    C3 7643   0.974   4.240  15.048 -0.1952 -0.0140 -0.3975
  511TMC3    C4 7644   1.066   4.057  14.869 -0.3334 -0.1183  0.3813
  511TMC3    C5 7645   0.964   4.029  14.954 -0.1868  0.1581 -0.3345
  511TMC3    C6 7646   0.917   4.120  15.042  0.1733  0.4932  0.2273
  511TMC3     C 7647   1.236   4.208  14.800 -0.5253 -0.5244 -0.3125
  511TMC3     O 7648   1.276   4.108  14.748  0.0328 -0.4569 -0.1040
  511TMC3     H 7649   1.116   4.380  14.976  1.8904 -1.2281 -0.3608
  511TMC3    H1 7650   1.081   3.999  14.779  1.8750 -1.3237  1.5066
  511TMC3    H2 7651   0.829   4.105  15.103  0.6903  0.6163  0.9948
  511TMC3    C7 7652   0.890   3.906  14.934  0.5432  0.5924  0.6687
  511TMC3    C8 7653   0.916   4.345  15.128 -0.4409 -0.1467  0.1401
  511TMC3    O1 7654   0.914   3.850  14.827 -0.1313  0.9275 -0.6750
  511TMC3    O2 7655   0.896   4.457  15.083 -0.4948  0.4019 -0.9574
  512TMC3    C1 7656   0.308   3.426  13.574  0.4240 -0.5089  0.6225
  512TMC3    C2 7657   0.382   3.408  13.691  0.1629 -0.0451  0.4544
  512TMC3    C3 7658   0.483   3.314  13.681  0.1276 -0.5408 -0.0734
  512TMC3    C4 7659   0.332   3.359  13.455  0.3782 -0.0414 -0.2068
  512TMC3    C5 7660   0.441   3.278  13.453  0.1567  0.0824  0.3821
  512TMC3    C6 7661   0.518   3.250  13.567  0.2984  0.2231  0.1021
  512TMC3     C 7662   0.167   3.432  13.607 -0.8530 -0.8351 -0.0601
  512TMC3     O 7663   0.099   3.358  13.536 -0.1958 -0.3587  0.5879
  512TMC3     H 7664   0.352   3.442  13.790 -0.3495 -0.7006  0.5248
  512TMC3    H1 7665   0.261   3.367  13.374 -1.4650  1.7986  1.6017
  512TMC3    H2 7666   0.615   3.201  13.568  0.2606  0.1585  0.5436
  512TMC3    C7 7667   0.439   3.196  13.339  0.0298 -0.5855 -0.0249
  512TMC3    C8 7668   0.599   3.353  13.760 -0.1883 -0.2290 -0.7796
  512TMC3    O1 7669   0.427   3.077  13.358 -0.1485 -0.2890 -0.0127
  512TMC3    O2 7670   0.685   3.268  13.791 -0.3514 -0.1839  0.1351
  513MPD2     C 7671   1.917   3.385  12.964 -0.4296 -0.4473 -0.4853
  513MPD2    C1 7672   1.945   3.256  12.938  0.3966  0.1918 -0.3800
  513MPD2    C2 7673   2.063   3.228  12.873 -0.4517 -0.3241  0.2972
  513MPD2    C3 7674   2.159   3.322  12.837  0.1607  0.0163  0.4475
  513MPD2    C4 7675   2.128   3.452  12.864  0.4304 -0.1505  0.0682
  513MPD2    C5 7676   2.010   3.483  12.931  0.4969  0.8518  0.4546
  513MPD2     H 7677   2.092   3.126  12.849  0.0545  0.7663 -3.7386
  513MPD2    H1 7678   2.189   3.537  12.834  0.0773  0.2363  0.4425
  513MPD2    H2 7679   1.821   3.418  13.002 -0.4153 -2.3149  1.1851
  513MPD2    H3 7680   1.997   3.590  12.946 -0.7235  0.5872  1.2526
  513MPD2     N 7681   2.275   3.274  12.778  0.6655 -0.1693 -0.3378
  513MPD2    H5 7682   2.287   3.177  12.750 -2.2305  0.5618 -4.1499
  513MPD2    N1 7683   1.851   3.165  12.988  0.4377  0.1599 -0.1429
  513MPD2    H7 7684   1.769   3.199  13.037  1.2426 -0.2707  1.5321
  514TMC3    C1 7685   1.773   2.936  13.005 -0.8463 -0.2130 -0.4116
  514TMC3    C2 7686   1.677   2.941  12.909  0.8120 -0.0620  0.1255
  514TMC3    C3 7687   1.628   2.824  12.862  0.3990  0.5421 -0.1522
  514TMC3    C4 7688   1.824   2.816  13.048 -0.4836 -0.3562  0.3807
  514TMC3    C5 7689   1.762   2.704  13.000  0.5097  0.7019  0.0464
  514TMC3    C6 7690   1.666   2.703  12.906 -0.0762  0.1701 -0.1119
  514TMC3     C 7691   1.883   3.031  12.993  0.7054 -0.4206  0.3137
  514TMC3     O 7692   1.990   2.976  12.986  0.4125 -0.0068  0.0930
  514TMC3     H 7693   1.658   3.036  12.861 -4.2807 -0.1393  2.0056
  514TMC3    H1 7694   1.901   2.818  13.125  2.7158 -1.6664 -2.7598
  514TMC3    H2 7695   1.638   2.611  12.856  0.8013 -0.1433 -0.0395
  514TMC3    C7 7696   1.869   2.607  12.966 -0.5640  0.1904 -0.2747
  514TMC3    C8 7697   1.543   2.846  12.742 -0.0900  0.2471 -0.2797
  514TMC3    O1 7698   1.833   2.496  12.927 -0.3451  0.0331 -0.6542
  514TMC3    O2 7699   1.495   2.960  12.728  0.0576 -0.8614 -0.2104
  515MPD2     C 7700   0.360   0.211  13.865 -0.5950  0.0997 -0.6350
  515MPD2    C1 7701   0.289   0.292  13.950 -0.0829  0.1560 -0.4949
  515MPD2    C2 7702   0.343   0.379  14.044 -1.3747 -0.7789 -0.0383
  515MPD2    C3 7703   0.481   0.389  14.044 -0.5592  0.7928 -0.9082
  515MPD2    C4 7704   0.551   0.312  13.957 -0.0018 -0.1315 -0.4947
  515MPD2    C5 7705   0.494   0.223  13.868 -0.2362 -0.1443  0.0343
  515MPD2     H 7706   0.278   0.431  14.114  1.2751  0.6547  1.3308
  515MPD2    H1 7707   0.659   0.315  13.956  0.0633 -2.8531 -1.1020
  515MPD2    H2 7708   0.316   0.145  13.791  1.2488  1.0044 -2.5657
  515MPD2    H3 7709   0.546   0.162  13.795 -0.5250  0.3520 -0.5845
  515MPD2     N 7710   0.565   0.477  14.121 -0.3785  0.6058 -0.2125
  515MPD2    H5 7711   0.666   0.471  14.111 -0.4256  0.9075 -0.8706
  515MPD2    N1 7712   0.149   0.283  13.952 -0.4727 -0.0175 -0.3737
  515MPD2    H7 7713   0.094   0.322  14.028  0.9957  0.4207  0.4577
  516TMC3    C1 7714   4.673   0.184  13.907  0.1025 -0.1278 -0.1518
  516TMC3    C2 7715   4.569   0.204  13.817 -0.2214  0.1337  0.6027
  516TMC3    C3 7716   4.442   0.209  13.875 -0.3744  0.2721  0.3845
  516TMC3    C4 7717   4.651   0.163  14.040 -0.6505  0.7381  0.4238
  516TMC3    C5 7718   4.524   0.169  14.089  0.7026 -0.3767 -0.7935
  516TMC3    C6 7719   4.421   0.185  14.006  0.1941 -0.1109 -0.2101
  516TMC3     C 7720   0.072   0.206  13.866 -0.1269 -0.3602 -0.0362
  516TMC3     O 7721   0.092   0.180  13.747  0.0683  0.0515 -0.3733
  516TMC3     H 7722   4.577   0.221  13.710  0.4523 -0.6363  0.5308
  516TMC3    H1 7723   4.728   0.147  14.115  0.4955  0.8706 -0.7308
  516TMC3    H2 7724   4.321   0.191  14.047  0.3461  3.3142 -0.3705
  516TMC3    C7 7725   4.502   0.150  14.234  1.2279  0.1733  0.5755
  516TMC3    C8 7726   4.322   0.270  13.807 -0.1595 -0.1941 -0.2382
  516TMC3    O1 7727   4.589   0.176  14.312 -0.6097  0.3366 -0.4183
  516TMC3    O2 7728   4.214   0.283  13.861  0.2716  0.0087 -0.4441
  517MPD2     C 7729   4.177   2.645  17.398 -0.3186 -0.3366  0.7512
  517MPD2    C1 7730   4.294   2.622  17.474  0.3491 -0.0099  0.2785
  517MPD2    C2 7731   4.346   2.724  17.556 -0.4944  0.2872  0.1154
  517MPD2    C3 7732   4.287   2.855  17.554 -0.0406 -0.5806 -0.3769
  517MPD2    C4 7733   4.169   2.872  17.484 -0.2295 -0.1500  0.1201
  517MPD2    C5 7734   4.123   2.773  17.398  0.1344  0.1738  0.3851
  517MPD2     H 7735   4.440   2.710  17.609 -0.5973  1.8214  0.7214
  517MPD2    H1 7736   4.122   2.970  17.486 -0.1912 -0.1156 -0.7082
  517MPD2    H2 7737   4.134   2.569  17.334 -0.2373  0.0463  0.2415
  517MPD2    H3 7738   4.037   2.785  17.334  0.2890  1.2588  0.3663
  517MPD2     N 7739   4.332   2.964  17.626  0.7050  0.1310  0.3937
  517MPD2    H5 7740   4.286   3.054  17.616  1.3748  0.5286  0.9193
  517MPD2    N1 7741   4.362   2.498  17.472  0.8140 -0.5722 -0.0968
  517MPD2    H7 7742   4.441   2.483  17.534  0.7963 -1.7327 -0.3595
  518TMC3    C1 7743   4.420   2.283  17.409 -0.5431 -0.1313  0.9084
  518TMC3    C2 7744   4.373   2.165  17.374  0.5271  0.3735  0.0136
  518TMC3    C3 7745   4.470   2.075  17.335 -0.6831 -0.2582  0.0625
  518TMC3    C4 7746   4.548   2.312  17.409 -0.2710 -0.0911  0.8482
  518TMC3    C5 7747   4.640   2.233  17.359 -0.3023 -0.2911  0.6997
  518TMC3    C6 7748   4.603   2.104  17.326 -0.0186  0.1762  0.5021
  518TMC3     C 7749   4.328   2.389  17.394 -0.2765 -0.4403  0.2623
  518TMC3     O 7750   4.232   2.375  17.319  0.2373 -0.5923  0.1251
  518TMC3     H 7751   4.268   2.143  17.356  1.0094 -3.3224  1.6498
  518TMC3    H1 7752   4.578   2.414  17.432 -1.3732  0.1874  1.0292
  518TMC3    H2 7753   4.675   2.030  17.291  2.2836  2.9335 -0.5889
  518TMC3    C7 7754   0.045   2.268  17.381 -0.1938 -0.0461 -0.0677
  518TMC3    C8 7755   4.436   1.937  17.294  0.4604 -0.5558 -0.3025
  518TMC3    O1 7756   0.070   2.356  17.462 -0.1552 -0.3301 -0.5882
  518TMC3    O2 7757   4.488   1.895  17.191  0.5901  0.0804  0.9417
  519MPD2     C 7758   1.817   0.849  13.699  0.0290 -0.3588  0.0355
  519MPD2    C1 7759   1.728   0.763  13.766 -0.0138  0.5761  0.1677
  519MPD2    C2 7760   1.761   0.629  13.796  0.2137 -0.0128 -0.8530
  519MPD2    C3 7761   1.888   0.581  13.751  0.0100 -0.3452  0.5990
  519MPD2    C4 7762   1.963   0.667  13.671 -0.9287  0.4773  0.1399
  519MPD2    C5 7763   1.935   0.794  13.652 -0.2819  0.0334  0.5274
  519MPD2     H 7764   1.686   0.556  13.824 -1.4071  1.4643 -1.3038
  519MPD2    H1 7765   2.052   0.631  13.620 -1.2207 -0.8317  0.5648
  519MPD2    H2 7766   1.803   0.956  13.701  0.3271 -0.3293  0.6002
  519MPD2    H3 7767   1.997   0.858  13.589 -0.6403  0.7716  0.9254
  519MPD2     N 7768   1.926   0.444  13.755 -0.4018 -0.4529  0.5074
  519MPD2    H5 7769   1.993   0.407  13.687  0.1899 -0.2756  0.9946
  519MPD2    N1 7770   1.593   0.809  13.796  0.3844 -0.2118 -0.1142
  519MPD2    H7 7771   1.534   0.743  13.846  0.4132 -0.0464  0.1378
  520TMC3    C1 7772   1.868   0.216  13.772  0.2017  0.4214  0.0320
  520TMC3    C2 7773   1.800   0.221  13.652 -0.4425 -0.1993 -0.4387
  520TMC3    C3 7774   1.854   0.153  13.550 -0.8221  0.1271 -0.8120
  520TMC3    C4 7775   1.993   0.154  13.785  0.5709 -0.2588 -0.2047
  520TMC3    C5 7776   2.041   0.089  13.680  0.3998  0.2214  0.0135
  520TMC3    C6 7777   1.977   0.088  13.561 -0.0958  0.3964 -0.2335
  520TMC3     C 7778   1.863   0.347  13.832  0.0817  0.6830  0.2310
  520TMC3     O 7779   1.804   0.358  13.940  0.1782 -0.0580 -0.2121
  520TMC3     H 7780   1.721   0.293  13.629 -0.2508 -0.5146 -2.1055
  520TMC3    H1 7781   2.055   0.151  13.874 -0.3346 -0.3664  0.4227
  520TMC3    H2 7782   2.019   0.043  13.471  2.6558  0.6004  0.9441
  520TMC3    C7 7783   2.157   0.006  13.705  0.2438 -0.3449 -0.4872
  520TMC3    C8 7784   1.795   0.145  13.416  0.0283 -0.1232  0.2620
  520TMC3    O1 7785   2.251   0.047  13.777  0.9440  0.3939 -0.3747
  520TMC3    O2 7786   1.866   0.121  13.319 -1.0241 -0.5728 -0.3152
  521MPD2     C 7787   2.520   3.383  16.662  0.4098 -0.7877  0.4747
  521MPD2    C1 7788   2.525   3.443  16.791  0.3851  0.6830 -0.2450
  521MPD2    C2 7789   2.648   3.481  16.847  0.2664  0.2256 -0.1505
  521MPD2    C3 7790   2.763   3.459  16.775  0.0122 -0.5358 -0.6457
  521MPD2    C4 7791   2.754   3.398  16.650 -0.3676 -0.5745 -0.4549
  521MPD2    C5 7792   2.637   3.355  16.593  0.6464 -0.6360 -0.3209
  521MPD2     H 7793   2.656   3.535  16.940 -1.6027 -0.1593  0.2467
  521MPD2    H1 7794   2.843   3.369  16.596 -0.6904 -0.6471 -0.9439
  521MPD2    H2 7795   2.423   3.363  16.617 -0.5601  3.4175  0.6476
  521MPD2    H3 7796   2.631   3.296  16.502  0.4431 -1.3234  0.1402
  521MPD2     N 7797   2.887   3.511  16.825 -0.5577  1.0309 -0.4244
  521MPD2    H5 7798   2.885   3.553  16.917 -0.2830 -1.3703  0.6607
  521MPD2    N1 7799   2.399   3.480  16.846  0.3520 -0.4718  0.0805
  521MPD2    H7 7800   2.318   3.475  16.784  1.5136  2.8387 -1.6954
  522TMC3    C1 7801   3.101   3.624  16.798 -0.4793 -0.4686 -0.1265
  522TMC3    C2 7802   3.166   3.562  16.905  0.6131 -0.4133  0.2757
  522TMC3    C3 7803   3.267   3.639  16.957 -0.3473 -0.5240 -0.0712
  522TMC3    C4 7804   3.111   3.760  16.765 -0.2598 -0.1260  0.3905
  522TMC3    C5 7805   3.191   3.835  16.849  0.4135 -1.3640  0.7064
  522TMC3    C6 7806   3.280   3.771  16.939 -0.3780 -0.8719 -0.1995
  522TMC3     C 7807   2.987   3.555  16.733 -0.5018 -0.0559  0.1369
  522TMC3     O 7808   2.981   3.567  16.613 -0.2536  0.2742  0.1317
  522TMC3     H 7809   3.145   3.461  16.939 -0.2290 -0.9317 -1.7550
  522TMC3    H1 7810   3.068   3.815  16.683  2.3751  2.6100  0.8063
  522TMC3    H2 7811   3.342   3.831  17.005  0.1772 -0.4311 -1.1152
  522TMC3    C7 7812   3.177   3.978  16.855 -0.1400 -0.2661 -0.1269
  522TMC3    C8 7813   3.393   3.584  16.987 -0.2584  0.1505 -0.2037
  522TMC3    O1 7814   3.245   4.035  16.934  0.0303 -0.0375 -0.4730
  522TMC3    O2 7815   3.465   3.658  17.055  0.0976  0.6910 -0.3882
  523MPD2     C 7816   4.460   2.169   9.544 -0.4030 -0.1746 -0.3845
  523MPD2    C1 7817   4.526   2.281   9.594 -0.5183 -0.6413  0.4057
  523MPD2    C2 7818   4.471   2.401   9.566 -0.7343  0.1958  0.1891
  523MPD2    C3 7819   4.347   2.417   9.505  0.2110 -0.5125 -0.0546
  523MPD2    C4 7820   4.284   2.300   9.450  0.3751  0.1090  0.2373
  523MPD2    C5 7821   4.350   2.178   9.462  0.6787 -0.5894  0.2130
  523MPD2     H 7822   4.534   2.488   9.579 -0.0666 -0.3224  0.4301
  523MPD2    H1 7823   4.195   2.307   9.389 -0.9061  0.4645  2.1327
  523MPD2    H2 7824   4.508   2.071   9.542 -1.2679 -0.5994 -0.2771
  523MPD2    H3 7825   4.315   2.095   9.403  0.3365 -0.2290 -0.0896
  523MPD2     N 7826   4.286   2.544   9.466 -0.1005  0.0493  0.0327
  523MPD2    H5 7827   4.201   2.537   9.412 -0.7160  0.2483  0.9867
  523MPD2    N1 7828   4.653   2.257   9.659 -0.5955 -0.2971 -0.1886
  523MPD2    H7 7829   4.687   2.162   9.664  2.0452  0.5694 -1.8981
  524TMC3    C1 7830   4.264   2.773   9.428  0.3369 -0.0216 -0.4798
  524TMC3    C2 7831   4.134   2.746   9.380  0.7442 -0.3598  0.0873
  524TMC3    C3 7832   4.074   2.847   9.310 -0.3683 -0.1305 -1.1698
  524TMC3    C4 7833   4.338   2.887   9.396 -0.0667  0.0006  0.3385
  524TMC3    C5 7834   4.269   2.988   9.334  0.5592 -0.0016  0.2763
  524TMC3    C6 7835   4.140   2.966   9.286 -0.2058  1.1525 -0.1885
  524TMC3     C 7836   4.332   2.669   9.499 -0.2305 -0.1124 -1.1780
  524TMC3     O 7837   4.444   2.683   9.546 -0.1443 -0.0651  0.1076
  524TMC3     H 7838   4.057   2.688   9.430  1.4211  0.4723  2.1039
  524TMC3    H1 7839   4.446   2.888   9.412  0.2435  4.0094 -1.8117
  524TMC3    H2 7840   4.098   3.037   9.216  0.7135  1.0000 -0.9003
  524TMC3    C7 7841   4.346   3.104   9.282  0.1318  0.4942  0.2120
  524TMC3    C8 7842   3.956   2.810   9.234  0.1057  0.3167 -0.1416
  524TMC3    O1 7843   4.467   3.091   9.290  0.5291  0.5124 -0.3610
  524TMC3    O2 7844   3.886   2.903   9.195 -0.3726 -0.1657  0.6438
  525MPD2     C 7845   2.917   4.713  14.276 -0.8633 -0.5415  0.3805
  525MPD2    C1 7846   3.040   4.716  14.340  0.0582  0.1247 -0.0381
  525MPD2    C2 7847   3.131   0.082  14.318 -0.1808  0.0313  0.5139
  525MPD2    C3 7848   3.095   0.189  14.236  0.8346  0.1419 -0.4711
  525MPD2    C4 7849   2.974   0.187  14.177 -0.4997  0.1675  0.7076
  525MPD2    C5 7850   2.886   0.082  14.197 -0.3557  0.2271 -0.3568
  525MPD2     H 7851   3.230   0.085  14.362 -0.4146 -1.2928  1.1110
  525MPD2    H1 7852   2.937   0.259  14.104 -0.2782 -0.7070 -0.2661
  525MPD2    H2 7853   2.849   4.629  14.285 -0.6645 -0.5877  1.5298
  525MPD2    H3 7854   2.792   0.083  14.143 -0.4188 -2.5161 -0.2968
  525MPD2     N 7855   3.177   0.304  14.221 -0.2054  0.4213 -0.3149
  525MPD2    H5 7856   3.136   0.384  14.175  1.2836  0.4432 -1.6251
  525MPD2    N1 7857   3.080   4.612  14.431 -0.8919 -0.3869 -0.0637
  525MPD2    H7 7858   3.178   4.610  14.459 -0.8056 -3.0603 -0.5038
  526TMC3    C1 7859   3.054   4.474  14.620  0.2865  0.9738  0.1988
  526TMC3    C2 7860   2.972   4.460  14.729 -0.4738  0.6672 -0.3639
  526TMC3    C3 7861   3.034   4.391  14.832  0.2422 -0.1111  0.7606
  526TMC3    C4 7862   3.188   4.441  14.607 -0.3044 -0.6751  0.3826
  526TMC3    C5 7863   3.231   4.366  14.711 -0.1367 -0.2559 -0.3830
  526TMC3    C6 7864   3.163   4.351  14.830 -0.3779  0.1213 -0.6605
  526TMC3     C 7865   2.990   4.541  14.505 -0.5757 -0.3378  0.4727
  526TMC3     O 7866   2.866   4.542  14.499 -0.1218 -0.1502  0.1330
  526TMC3     H 7867   2.871   4.496  14.739 -0.5028  0.9007 -1.5361
  526TMC3    H1 7868   3.242   4.453  14.514 -1.2953 -0.3586 -0.1558
  526TMC3    H2 7869   3.200   4.288  14.910  0.4991  1.5969  0.1131
  526TMC3    C7 7870   3.375   4.342  14.714 -0.2581 -0.1588 -0.3819
  526TMC3    C8 7871   2.983   4.403  14.969 -0.0275  0.5263 -0.1604
  526TMC3    O1 7872   3.433   4.358  14.607  0.3869  0.1317 -0.1206
  526TMC3    O2 7873   3.071   4.408  15.054  0.1974 -0.9379 -0.6253
  527MPD2     C 7874   1.435   2.992   1.276 -0.9903 -0.0269 -0.1516
  527MPD2    C1 7875   1.421   2.969   1.141 -0.7577 -0.4638 -0.0002
  527MPD2    C2 7876   1.528   2.911   1.079 -0.6668  0.5666  0.1342
  527MPD2    C3 7877   1.637   2.878   1.148  0.2185  0.7692  0.4258
  527MPD2    C4 7878   1.653   2.898   1.283  0.4056 -0.0886  0.2638
  527MPD2    C5 7879   1.547   2.957   1.350 -0.8988 -0.2877  0.5443
  527MPD2     H 7880   1.527   2.901   0.971  0.1898 -0.1842  0.1936
  527MPD2    H1 7881   1.746   2.880   1.335 -0.3429 -0.9124  1.3157
  527MPD2    H2 7882   1.360   3.025   1.348  0.3743 -0.0322  1.2721
  527MPD2    H3 7883   1.557   2.978   1.456  0.8297 -2.1906  0.7608
  527MPD2     N 7884   1.739   2.818   1.070 -0.7910  0.4364  0.7049
  527MPD2    H5 7885   1.716   2.787   0.977 -2.3332  0.4668  1.0702
  527MPD2    N1 7886   1.308   3.007   1.071 -0.1445  0.1656 -0.9848
  527MPD2    H7 7887   1.308   2.993   0.971 -0.4647 -1.1142 -0.8094
  528TMC3    C1 7888   1.085   3.074   1.039  0.4342 -0.1762  0.2018
  528TMC3    C2 7889   1.085   3.014   0.920 -0.1551  0.1480  0.3552
  528TMC3    C3 7890   0.969   3.004   0.855 -0.2051 -0.2047  0.1098
  528TMC3    C4 7891   0.979   3.145   1.079  0.0783 -0.5883  0.8264
  528TMC3    C5 7892   0.866   3.140   1.008  0.3290  0.4898 -0.1734
  528TMC3    C6 7893   0.850   3.067   0.894  0.3465  0.0458  0.1782
  528TMC3     C 7894   1.195   3.058   1.132 -0.4457 -0.3559 -1.2228
  528TMC3     O 7895   1.174   3.081   1.252 -0.2668 -0.3425 -0.1808
  528TMC3     H 7896   1.171   2.955   0.888 -0.8765 -0.7375  0.0463
  528TMC3    H1 7897   0.980   3.196   1.175 -2.4019  2.1465 -0.6042
  528TMC3    H2 7898   0.763   3.068   0.828 -0.9743 -0.1762  1.9087
  528TMC3    C7 7899   0.745   3.182   1.082  0.0059 -0.1683 -0.2328
  528TMC3    C8 7900   0.979   2.944   0.722 -0.0399  0.3723  0.1633
  528TMC3    O1 7901   0.764   3.261   1.172  0.2569 -0.2025 -0.2102
  528TMC3    O2 7902   0.920   2.993   0.625  0.5082 -0.2947 -0.0818
  529MPD2     C 7903   3.365   1.673   0.761  0.2443  0.0083  0.2441
  529MPD2    C1 7904   3.441   1.588   0.682 -0.2925  0.5603  0.1169
  529MPD2    C2 7905   3.433   1.610   0.545 -0.6662 -0.2712  0.1520
  529MPD2    C3 7906   3.365   1.718   0.492 -0.5950 -0.6743  0.6561
  529MPD2    C4 7907   3.286   1.802   0.568 -0.4854 -0.2874  0.8165
  529MPD2    C5 7908   3.280   1.766   0.702 -0.3708  0.4889  0.5411
  529MPD2     H 7909   3.496   1.550   0.482  3.3220  2.5633  1.4575
  529MPD2    H1 7910   3.225   1.881   0.526  1.5457 -0.5018 -2.4678
  529MPD2    H2 7911   3.360   1.668   0.869  1.8972 -1.0167  0.2746
  529MPD2    H3 7912   3.220   1.826   0.769  1.2893 -0.2560  2.6829
  529MPD2     N 7913   3.371   1.745   0.351 -0.5076 -0.0110 -0.2768
  529MPD2    H5 7914   3.320   1.828   0.321  0.5973  1.2920  1.4087
  529MPD2    N1 7915   3.519   1.482   0.740  0.4078  0.3177  0.0564
  529MPD2    H7 7916   3.582   1.426   0.684  1.1394  0.2200  0.9924
  530TMC3    C1 7917   3.592   1.342   0.903 -0.0314  1.1200  0.1417
  530TMC3    C2 7918   3.626   1.329   1.034  0.3578 -0.2449  0.2438
  530TMC3    C3 7919   3.638   1.213   1.100 -1.1188  0.0739  0.0286
  530TMC3    C4 7920   3.532   1.224   0.855  0.1744 -0.2606  0.4558
  530TMC3    C5 7921   3.528   1.104   0.931 -0.0079  0.4099  0.2055
  530TMC3    C6 7922   3.584   1.096   1.053 -0.0891  0.3934  0.0079
  530TMC3     C 7923   3.534   1.469   0.875 -0.8891  0.4109  1.2517
  530TMC3     O 7924   3.492   1.534   0.974 -0.5266 -0.0134  0.8152
  530TMC3     H 7925   3.666   1.419   1.078  1.8738  0.1575 -1.9780
  530TMC3    H1 7926   3.487   1.220   0.757  0.2905 -1.9715  0.4759
  530TMC3    H2 7927   3.609   1.008   1.110  2.2384  1.6466  0.9222
  530TMC3    C7 7928   3.569   0.983   0.859  0.0053  0.2990 -1.0544
  530TMC3    C8 7929   3.711   1.222   1.229  0.2645  0.6160 -0.0779
  530TMC3    O1 7930   3.624   0.997   0.751  0.0322  0.8270  0.4788
  530TMC3    O2 7931   3.694   1.316   1.307 -0.4594  0.3696  0.1839
  531MPD2     C 7932   2.342   2.583  12.749 -0.1835  0.2364 -0.3507
  531MPD2    C1 7933   2.314   2.713  12.788  0.6973 -0.1017  0.4521
  531MPD2    C2 7934   2.191   2.740  12.839 -0.3406 -0.4629 -1.2243
  531MPD2    C3 7935   2.099   2.638  12.871 -0.0822  0.2336 -0.0663
  531MPD2    C4 7936   2.133   2.505  12.838 -0.1379  0.2881 -0.0636
  531MPD2    C5 7937   2.251   2.479  12.779  0.2012 -0.7216 -0.2789
  531MPD2     H 7938   2.161   2.839  12.868  0.1447  0.1276 -2.7146
  531MPD2    H1 7939   2.064   2.427  12.866  0.2419 -0.0483 -0.0606
  531MPD2    H2 7940   2.431   2.552  12.697 -0.5846 -1.4348 -0.0332
  531MPD2    H3 7941   2.277   2.379  12.745  1.2561 -0.1876 -1.0629
  531MPD2     N 7942   1.983   2.686  12.940  0.1780 -0.2855  0.6730
  531MPD2    H5 7943   1.980   2.785  12.962  0.5349 -0.0827 -0.2063
  531MPD2    N1 7944   2.413   2.804  12.756 -0.4289  0.0062  0.6817
  531MPD2    H7 7945   2.510   2.774  12.755 -0.4705 -0.0498 -1.0872
  532TMC3    C1 7946   2.499   3.026  12.707 -0.0214 -0.3394 -0.3185
  532TMC3    C2 7947   2.456   3.146  12.656  0.3154  0.5730 -0.8478
  532TMC3    C3 7948   2.494   3.271  12.704  0.3122 -1.0114 -0.7166
  532TMC3    C4 7949   2.599   3.037  12.800  0.3271 -0.4264 -0.0298
  532TMC3    C5 7950   2.646   3.160  12.846  0.7575  1.0502 -0.3839
  532TMC3    C6 7951   2.589   3.275  12.808  0.3985  0.4108 -0.3340
  532TMC3     C 7952   2.383   2.939  12.734  0.1225 -0.5312 -0.0896
  532TMC3     O 7953   2.273   2.989  12.717  0.6730  0.0053  0.9500
  532TMC3     H 7954   2.369   3.148  12.591 -1.0102 -0.2186  0.9076
  532TMC3    H1 7955   2.653   2.948  12.830  1.0138  0.7020  2.0587
  532TMC3    H2 7956   2.625   3.372  12.839  2.2988 -0.6435  0.7327
  532TMC3    C7 7957   2.739   3.179  12.958  0.3486 -0.3983  0.1897
  532TMC3    C8 7958   2.379   3.355  12.742 -0.1491 -0.6232 -0.0627
  532TMC3    O1 7959   2.781   3.285  13.001  0.1198 -0.0390  0.2869
  532TMC3    O2 7960   2.402   3.464  12.787 -0.1595  0.4487  0.4220
  533TMC3    C1 7961   3.358   0.447  14.251 -0.4790  0.7049 -0.4462
  533TMC3    C2 7962   3.480   0.474  14.195 -0.3972  0.5855  0.1984
  533TMC3    C3 7963   3.529   0.589  14.245 -0.1694  0.8224  0.4096
  533TMC3    C4 7964   3.291   0.527  14.341  0.8745  0.2396 -0.1676
  533TMC3    C5 7965   3.348   0.640  14.387  0.2178 -0.2423 -0.4499
  533TMC3    C6 7966   3.469   0.674  14.333  0.4993  0.5706 -0.4145
  533TMC3     C 7967   3.310   0.312  14.252 -0.3698  0.3757  0.1613
  533TMC3     O 7968   3.388   0.215  14.265 -0.1959 -0.0699 -0.0261
  533TMC3     H 7969   3.527   0.424  14.111 -0.7417 -0.9581  0.9273
  533TMC3    H1 7970   3.204   0.492  14.394  0.2025 -1.9220 -2.7062
  533TMC3    H2 7971   3.525   0.752  14.383  0.8575 -0.1676  0.3375
  533TMC3    C7 7972   3.343   0.631  14.536 -0.1976  0.0041  0.0511
  533TMC3    C8 7973   3.628   0.662  14.168  0.2187 -0.8324 -0.0808
  533TMC3    O1 7974   3.347   0.517  14.582  0.0455  0.0807  0.6069
  533TMC3    O2 7975   3.605   0.784  14.151  0.3369 -0.0184 -0.2077
  534MPD2     C 7976   1.524   1.430   0.560  0.4463  0.1770 -0.0753
  534MPD2    C1 7977   1.505   1.416   0.696 -0.1901  0.2256 -0.0108
  534MPD2    C2 7978   1.380   1.443   0.748  0.0594 -1.0611 -0.6552
  534MPD2    C3 7979   1.271   1.480   0.668 -0.6411  0.2095 -0.8568
  534MPD2    C4 7980   1.294   1.500   0.534  0.8796  0.1581  0.1950
  534MPD2    C5 7981   1.420   1.472   0.484  0.9040 -0.4422 -0.3591
  534MPD2     H 7982   1.365   1.423   0.854  1.1426 -1.2079 -0.5300
  534MPD2    H1 7983   1.213   1.529   0.468 -0.2602 -0.5813  1.2517
  534MPD2    H2 7984   1.616   1.398   0.511  0.6070 -0.1144  0.4154
  534MPD2    H3 7985   1.439   1.460   0.378 -2.1423 -2.8675 -0.6061
  534MPD2     N 7986   1.142   1.506   0.718 -0.3105  0.0201 -0.1124
  534MPD2    H5 7987   1.077   1.559   0.660 -0.2044  2.4231  1.9661
  534MPD2    N1 7988   1.599   1.368   0.788 -0.5404  0.2823 -0.7013
  534MPD2    H7 7989   1.566   1.365   0.884  0.6148 -1.2586 -0.3755
  535TMC3    C1 7990   0.968   1.521   0.860 -0.6579 -0.2360  1.1154
  535TMC3    C2 7991   0.882   1.458   0.952  0.0421  0.3207  0.0391
  535TMC3    C3 7992   0.749   1.497   0.957 -0.4718 -0.2817  0.1596
  535TMC3    C4 7993   0.921   1.625   0.778 -0.2350 -0.6166  0.5415
  535TMC3    C5 7994   0.788   1.648   0.786 -0.3149  0.1370 -0.0709
  535TMC3    C6 7995   0.702   1.588   0.869  1.3756 -0.1512 -0.5556
  535TMC3     C 7996   1.100   1.470   0.840 -0.4449 -0.4847 -0.4905
  535TMC3     O 7997   1.154   1.396   0.920 -0.3005 -0.6585  0.2772
  535TMC3     H 7998   0.919   1.369   1.002 -1.1273  0.2812  0.8116
  535TMC3    H1 7999   0.989   1.673   0.708 -1.5816 -0.9996 -1.0109
  535TMC3    H2 8000   0.597   1.614   0.862  1.3199  0.3637  1.9146
  535TMC3    C7 8001   0.734   1.717   0.675 -0.5839 -0.0243  0.3908
  535TMC3    C8 8002   0.673   1.453   1.070  0.2404  0.3830  0.8268
  535TMC3    O1 8003   0.802   1.710   0.575  0.2391  0.1608  0.3506
  535TMC3    O2 8004   0.551   1.444   1.054 -0.3782  0.4947 -0.1241
  536MPD2     C 8005   4.721   0.137  15.948  0.0155  0.7345  0.0408
  536MPD2    C1 8006   4.615   0.075  16.004  0.0073 -0.5199  0.1631
  536MPD2    C2 8007   4.486   0.107  15.958 -0.4057  0.1875  0.4843
  536MPD2    C3 8008   4.471   0.195  15.850  0.1558  0.0214 -0.3354
  536MPD2    C4 8009   4.579   0.259  15.805  0.4809 -0.9319  0.0808
  536MPD2    C5 8010   4.704   0.231  15.851  0.6783 -0.1822 -0.1837
  536MPD2     H 8011   4.402   0.058  16.006  0.2082 -1.3656 -0.0304
  536MPD2    H1 8012   4.564   0.336  15.731  2.8225  0.0096  0.5893
  536MPD2    H2 8013   0.075   0.112  16.003 -1.3235 -1.4574  1.2567
  536MPD2    H3 8014   0.057   0.289  15.831  1.1373 -0.4578  1.0897
  536MPD2     N 8015   4.356   0.210  15.782  0.0109 -0.3747 -0.0377
  536MPD2    H5 8016   4.375   0.262  15.697  0.7081  1.1277  1.0371
  536MPD2    N1 8017   4.640   4.720  16.110  0.2220 -0.2892 -0.2676
  536MPD2    H7 8018   4.733   4.720  16.153 -0.2199  0.4330  0.7045
  537TMC3    C1 8019   4.594   4.554  16.266 -0.2366 -0.0560  0.2471
  537TMC3    C2 8020   4.633   4.629  16.369  0.3094  0.5087  0.2213
  537TMC3    C3 8021   4.598   4.588  16.490 -0.1846 -0.5309 -0.1632
  537TMC3    C4 8022   4.523   4.437  16.281 -0.4235 -1.5583 -0.4267
  537TMC3    C5 8023   4.509   4.386  16.412 -0.3464 -0.4676  0.4821
  537TMC3    C6 8024   4.544   4.464  16.520  0.0595 -0.7588  0.0754
  537TMC3     C 8025   4.545   4.627  16.157  0.4937  0.0669 -0.0412
  537TMC3     O 8026   4.441   4.596  16.097 -0.2913 -0.2981  0.0674
  537TMC3     H 8027   4.687   4.720  16.346  0.6293 -0.0208 -1.1096
  537TMC3    H1 8028   4.489   4.380  16.196 -2.7371 -0.0938 -0.4913
  537TMC3    H2 8029   4.514   4.449  16.624  1.3954 -2.1313  0.2678
  537TMC3    C7 8030   4.393   4.298  16.426 -0.3382 -0.2108  0.0441
  537TMC3    C8 8031   4.627   4.691  16.588 -0.1474 -0.4836 -1.5605
  537TMC3    O1 8032   4.315   4.283  16.332 -0.8871 -0.4028 -0.4453
  537TMC3    O2 8033   4.676   4.664  16.697 -0.0397  0.6674 -0.1325
  538TMC3    C1 8034   0.378   2.410  10.875  0.3664  0.2916  1.3087
  538TMC3    C2 8035   0.444   2.505  10.952 -0.3373 -0.1425 -0.2384
  538TMC3    C3 8036   0.415   2.635  10.927 -0.0783  0.4258  0.3308
  538TMC3    C4 8037   0.305   2.438  10.767 -0.1193  0.4549  0.1942
  538TMC3    C5 8038   0.305   2.574  10.731 -0.1834  0.0441  0.3740
  538TMC3    C6 8039   0.349   2.671  10.818 -0.0738 -0.5743  0.3102
  538TMC3     C 8040   0.348   2.276  10.936 -0.3854 -0.0231  0.4262
  538TMC3     O 8041   0.268   2.207  10.876  0.2864 -0.2316 -0.5625
  538TMC3     H 8042   0.502   2.483  11.041 -0.4322  0.4667 -0.0234
  538TMC3    H1 8043   0.263   2.357  10.708 -1.5303  0.1497  1.6192
  538TMC3    H2 8044   0.344   2.777  10.798 -2.4122 -0.9879 -1.4330
  538TMC3    C7 8045   0.219   2.625  10.634  0.5745  0.1393  0.0830
  538TMC3    C8 8046   0.498   2.737  10.978  0.0544  0.0192  0.0463
  538TMC3    O1 8047   0.204   2.746  10.635 -0.5424  0.0678 -0.0895
  538TMC3    O2 8048   0.452   2.848  11.000  0.2851  0.1705  0.1979
  539MPD2     C 8049   4.628   1.422  10.865  0.0590 -0.4940  0.0520
  539MPD2    C1 8050   4.732   1.497  10.916  0.3330  0.3158 -0.6443
  539MPD2    C2 8051   4.734   1.632  10.892 -0.0924 -0.6594 -0.4829
  539MPD2    C3 8052   4.638   1.694  10.803  0.3692  0.1290  0.3768
  539MPD2    C4 8053   4.550   1.615  10.740 -0.2503  0.1929 -0.6885
  539MPD2    C5 8054   4.537   1.482  10.780 -0.2178  0.1131 -1.5194
  539MPD2     H 8055   0.087   1.689  10.913 -0.7455 -0.1125  0.8704
  539MPD2    H1 8056   4.482   1.648  10.663 -0.8766  0.1622 -0.1448
  539MPD2    H2 8057   4.617   1.315  10.871 -1.3365 -0.2923  1.3524
  539MPD2    H3 8058   4.463   1.421  10.729  0.8005 -1.4444 -1.1484
  539MPD2     N 8059   4.652   1.829  10.769  0.3453 -0.2167  0.4079
  539MPD2    H5 8060   4.602   1.854  10.684 -1.2456  0.3237  1.4871
  539MPD2    N1 8061   0.096   1.433  10.990  0.6055  0.0899  1.1884
  539MPD2    H7 8062   0.180   1.483  11.018 -0.5601  1.9245  1.3682
  540TMC3    C1 8063   4.689   2.063  10.769  0.5443 -0.0870  0.3768
  540TMC3    C2 8064   4.712   2.096  10.637 -0.0768 -0.0973  0.1384
  540TMC3    C3 8065   4.686   2.232  10.601 -0.0052  1.3399 -0.0035
  540TMC3    C4 8066   4.671   2.158  10.859  0.8311 -0.4073 -0.3125
  540TMC3    C5 8067   4.669   2.291  10.824 -0.3108  0.3312 -0.2003
  540TMC3    C6 8068   4.666   2.329  10.694  0.4005  0.5378  0.5648
  540TMC3     C 8069   4.733   1.927  10.821 -0.5214  0.0572  0.0655
  540TMC3     O 8070   0.064   1.935  10.918  0.0836 -0.1834  0.0290
  540TMC3     H 8071   4.734   2.016  10.567  2.0106 -1.4484  2.3483
  540TMC3    H1 8072   4.670   2.129  10.964 -1.0141 -1.4586 -0.6262
  540TMC3    H2 8073   4.639   2.430  10.664 -2.6916 -0.5780 -0.4225
  540TMC3    C7 8074   4.694   2.392  10.933  0.1814 -0.9943 -1.0623
  540TMC3    C8 8075   4.657   2.256  10.464 -0.1275  0.7045 -0.0963
  540TMC3    O1 8076   4.683   2.506  10.894  0.4605 -0.1981 -0.0893
  540TMC3    O2 8077   4.560   2.328  10.442 -0.0518  0.0485  0.3907
  541MPD2     C 8078   3.555   3.448  13.095 -0.2823  0.0476  0.0457
  541MPD2    C1 8079   3.444   3.376  13.052 -0.0267  0.7050  0.7035
  541MPD2    C2 8080   3.398   3.398  12.916  0.7709 -0.3104  0.3408
  541MPD2    C3 8081   3.456   3.501  12.837 -0.2738  0.0077  0.0135
  541MPD2    C4 8082   3.561   3.576  12.893 -0.7413  0.1753 -0.0791
  541MPD2    C5 8083   3.609   3.543  13.019 -0.2854  0.3361 -0.0638
  541MPD2     H 8084   3.315   3.342  12.876 -0.3287  0.0080  2.1796
  541MPD2    H1 8085   3.609   3.653  12.834  0.1651 -0.8062 -0.6403
  541MPD2    H2 8086   3.598   3.431  13.193 -0.6132 -1.5903 -0.0907
  541MPD2    H3 8087   3.688   3.603  13.063  0.2233  0.3944 -1.0667
  541MPD2     N 8088   3.406   3.531  12.703  0.2467 -0.7239 -0.4066
  541MPD2    H5 8089   3.433   3.624  12.675  0.8981 -0.0758  2.3295
  541MPD2    N1 8090   3.368   3.289  13.125 -0.2608 -0.0101  0.0570
  541MPD2    H7 8091   3.312   3.224  13.070  0.7728 -1.1496  0.3685
  542TMC3    C1 8092   3.286   3.520  12.499 -0.2011  0.8076 -0.2057
  542TMC3    C2 8093   3.289   3.454  12.377 -0.6492 -0.5837  0.6840
  542TMC3    C3 8094   3.237   3.529  12.275 -0.4997  0.1866 -0.0548
  542TMC3    C4 8095   3.237   3.641  12.521 -0.4634 -0.0676  0.1346
  542TMC3    C5 8096   3.187   3.711  12.409 -0.2765 -0.2994 -0.7291
  542TMC3    C6 8097   3.185   3.653  12.285 -0.5071 -0.7685 -0.0253
  542TMC3     C 8098   3.333   3.448  12.616 -0.1049  0.2167  0.5218
  542TMC3     O 8099   3.313   3.327  12.625 -0.3278 -0.1598 -0.2534
  542TMC3     H 8100   3.320   3.350  12.369 -0.9533 -0.8926  3.7855
  542TMC3    H1 8101   3.211   3.674  12.621 -1.5592  0.6798 -0.4048
  542TMC3    H2 8102   3.148   3.701  12.195  1.9860  1.4346  0.1345
  542TMC3    C7 8103   3.193   3.857  12.433  0.4829  0.4972  0.7473
  542TMC3    C8 8104   3.281   3.508  12.144  0.8518  0.4747  0.0102
  542TMC3    O1 8105   3.212   3.885  12.548  0.1078  0.8804  0.0171
  542TMC3    O2 8106   3.282   3.599  12.062  0.6294  0.5962  0.0961
  543TMC3    C1 8107   3.052   0.780  17.143 -0.1804 -0.0110  0.0785
  543TMC3    C2 8108   3.065   0.675  17.224  1.1466 -0.2057  1.1184
  543TMC3    C3 8109   3.082   0.704  17.359 -0.1872  0.3129  0.0382
  543TMC3    C4 8110   3.068   0.908  17.185  0.6315 -0.1536  0.6265
  543TMC3    C5 8111   3.083   0.930  17.322  0.2945  0.2776 -0.2684
  543TMC3    C6 8112   3.088   0.828  17.414  0.5578  0.0427  0.3551
  543TMC3     C 8113   3.036   0.757  16.997  0.1742 -0.5153 -0.0779
  543TMC3     O 8114   3.023   0.644  16.952  0.0876  0.4803 -0.0742
  543TMC3     H 8115   3.069   0.572  17.191  0.8617  0.1163  0.0916
  543TMC3    H1 8116   3.082   0.993  17.120 -1.5690 -0.4549 -0.2406
  543TMC3    H2 8117   3.067   0.839  17.519 -0.0828 -0.3203  0.2620
  543TMC3    C7 8118   3.084   1.067  17.379 -0.0712  0.2318  0.1939
  543TMC3    C8 8119   3.107   0.583  17.438  0.2403 -0.2050  0.4454
  543TMC3    O1 8120   3.074   1.070  17.500  0.1869  0.2088  0.0318
  543TMC3    O2 8121   3.070   0.476  17.393  0.3076 -0.5327 -0.2943
  544MPD2     C 8122   3.264   0.333   0.108  0.2927 -0.3016 -0.4758
  544MPD2    C1 8123   3.182   0.290   0.013 -0.5034  0.1499  0.2906
  544MPD2    C2 8124   3.151   0.380  17.663 -0.4298  0.2921  0.4157
  544MPD2    C3 8125   3.206   0.505  17.654 -0.6581  0.2332 -0.2317
  544MPD2    C4 8126   3.284   0.549   0.015  0.3559 -0.0780 -0.1966
  544MPD2    C5 8127   3.313   0.461   0.115 -0.3671 -0.0878  0.2987
  544MPD2     H 8128   3.083   0.350  17.584  1.2512  0.5886 -1.1278
  544MPD2    H1 8129   3.317   0.652   0.016 -0.3718  0.1953 -3.1046
  544MPD2    H2 8130   3.280   0.270   0.194  3.1689  0.3273 -0.5489
  544MPD2    H3 8131   3.380   0.496   0.192 -0.0156  0.1904 -0.1321
  544MPD2     N 8132   3.171   0.603  17.558 -0.0476  0.3735  0.1075
  544MPD2    H5 8133   3.214   0.692  17.580  2.4445 -0.8952  0.4411
  544MPD2    N1 8134   3.133   0.156   0.022  0.5734  0.1896 -0.6198
  544MPD2    H7 8135   3.165   0.098   0.099  1.8840 -0.8575 -1.9387
  545TMC3    C1 8136   3.040   4.688  17.687 -0.2660 -0.1109 -0.1838
  545TMC3    C2 8137   3.141   4.630   0.007 -0.5323 -0.1239 -0.1140
  545TMC3    C3 8138   3.132   4.496   0.011 -0.6839 -0.2261 -0.1075
  545TMC3    C4 8139   2.926   4.626  17.637  0.3549 -0.2193 -0.1594
  545TMC3    C5 8140   2.924   4.482  17.647 -0.2639  0.6882 -1.2052
  545TMC3    C6 8141   3.029   4.418  17.701 -0.4838  0.5293 -0.7209
  545TMC3     C 8142   3.039   0.098  17.683  0.9903 -0.2510 -0.8345
  545TMC3     O 8143   2.970   0.156  17.602 -0.2461  0.4658  0.0538
  545TMC3     H 8144   3.236   4.681   0.021 -0.9983 -0.3892  4.2289
  545TMC3    H1 8145   2.839   4.684  17.608  3.1675  4.3830  0.6163
  545TMC3    H2 8146   3.035   4.310  17.708 -1.3961  0.4935 -0.5346
  545TMC3    C7 8147   2.811   4.412  17.586  0.2501 -0.3371 -0.5154
  545TMC3    C8 8148   3.256   4.427   0.021 -0.2826  0.3977 -0.7737
  545TMC3    O1 8149   2.701   4.461  17.590  0.3231 -0.0372  0.7198
  545TMC3    O2 8150   3.270   4.318  17.716 -0.2208 -0.1952 -0.4728
  546MPD2     C 8151   4.587   0.426  17.272 -0.4452  0.2657 -0.3249
  546MPD2    C1 8152   4.530   0.463  17.150 -0.5103  0.3430 -0.2249
  546MPD2    C2 8153   4.519   0.602  17.128 -0.5329 -0.2604 -0.0451
  546MPD2    C3 8154   4.560   0.694  17.216 -0.4331 -0.8045 -0.1291
  546MPD2    C4 8155   4.607   0.655  17.342  0.3275 -0.2891 -0.3452
  546MPD2    C5 8156   4.616   0.515  17.367  0.5833  0.6616 -0.5380
  546MPD2     H 8157   4.477   0.636  17.034 -1.6852  1.8184  1.2225
  546MPD2    H1 8158   4.643   0.721  17.420 -1.8542  0.0287  0.4190
  546MPD2    H2 8159   4.608   0.321  17.286  0.3702  0.3014 -1.2892
  546MPD2    H3 8160   4.654   0.483  17.463 -1.2616 -2.0473 -0.6886
  546MPD2     N 8161   4.544   0.831  17.187  0.3528 -0.1181 -0.0225
  546MPD2    H5 8162   4.572   0.899  17.256 -1.8674  1.9354 -1.0973
  546MPD2    N1 8163   4.490   0.359  17.061 -0.7510  0.1574 -0.4027
  546MPD2    H7 8164   4.509   0.263  17.086 -2.2794  0.0108  0.1324
  547TMC3    C1 8165   4.369   0.248  16.891 -0.2979  0.0307 -0.3304
  547TMC3    C2 8166   4.271   0.259  16.792 -0.0821  0.0402  0.3897
  547TMC3    C3 8167   4.197   0.148  16.769  0.0073  0.0754 -0.5224
  547TMC3    C4 8168   4.387   0.136  16.963 -0.2847  0.0372 -0.3459
  547TMC3    C5 8169   4.303   0.024  16.935  0.2294 -0.7281 -0.1932
  547TMC3    C6 8170   4.210   0.026  16.835 -0.0356  0.3954 -0.4294
  547TMC3     C 8171   4.423   0.377  16.938  0.6946 -0.1504  0.8116
  547TMC3     O 8172   4.377   0.480  16.888  0.0830  0.6805 -0.6624
  547TMC3     H 8173   4.244   0.351  16.742 -1.4791  0.4482  1.9122
  547TMC3    H1 8174   4.468   0.123  17.033 -0.4305  0.1084 -0.1635
  547TMC3    H2 8175   4.129   4.691  16.839  1.8914 -1.7192  0.8754
  547TMC3    C7 8176   4.305   4.655  17.032 -0.0458  0.4640  0.4439
  547TMC3    C8 8177   4.075   0.168  16.686 -0.5578  0.3478  0.1621
  547TMC3    O1 8178   4.356   4.677  17.141  0.5527 -0.9401  0.3566
  547TMC3    O2 8179   4.045   0.286  16.669  0.4551 -0.2260  0.0412
  548MPD2     C 8180   4.151   0.480  12.609  0.5426  0.5496  0.1027
  548MPD2    C1 8181   4.112   0.350  12.610 -0.4822 -0.3289  0.5573
  548MPD2    C2 8182   4.194   0.255  12.548 -0.3490 -0.6275  0.1486
  548MPD2    C3 8183   4.320   0.286  12.494 -0.4617  0.0929  0.2973
  548MPD2    C4 8184   4.363   0.416  12.512 -0.4320  0.6432 -0.1654
  548MPD2    C5 8185   4.281   0.509  12.566 -1.3132  0.0058 -0.5368
  548MPD2     H 8186   4.155   0.156  12.527  0.6595 -0.6381 -1.7706
  548MPD2    H1 8187   4.458   0.443  12.467  1.5135 -2.6494  1.9111
  548MPD2    H2 8188   4.093   0.561  12.650 -1.2508 -1.2759  1.1878
  548MPD2    H3 8189   4.313   0.613  12.561 -0.7790 -0.1131  0.5157
  548MPD2     N 8190   4.405   0.184  12.436  0.5733 -0.0538  0.0581
  548MPD2    H5 8191   4.379   0.087  12.453  2.1716 -0.4968 -0.0482
  548MPD2    N1 8192   3.982   0.324  12.641 -0.3400  0.0588 -0.6642
  548MPD2    H7 8193   3.927   0.406  12.666 -0.8404 -0.8443  1.1453
  549TMC3    C1 8194   3.778   0.206  12.654 -0.1660  0.0127 -0.4993
  549TMC3    C2 8195   3.716   0.317  12.603  0.5660 -0.1764 -0.0306
  549TMC3    C3 8196   3.579   0.312  12.603 -0.6409 -0.0336  0.1609
  549TMC3    C4 8197   3.712   0.094  12.706  0.2930 -1.0201 -0.0607
  549TMC3    C5 8198   3.575   0.101  12.696 -0.4459 -0.0715 -0.7771
  549TMC3    C6 8199   3.507   0.203  12.644  0.2053 -0.2970  0.1133
  549TMC3     C 8200   3.919   0.200  12.637  0.2222  0.3455 -0.1229
  549TMC3     O 8201   3.966   0.088  12.630 -0.0380  0.2893  0.3073
  549TMC3     H 8202   3.767   0.401  12.557  1.6642 -1.5524 -1.3479
  549TMC3    H1 8203   3.759   0.010  12.755 -0.0520 -0.8487  0.5667
  549TMC3    H2 8204   3.400   0.193  12.641  0.0257  1.3417  0.7425
  549TMC3    C7 8205   3.508   4.702  12.708 -0.3682  0.4498 -0.6565
  549TMC3    C8 8206   3.510   0.428  12.550  0.1693 -0.1128  0.5442
  549TMC3    O1 8207   3.386   4.707  12.714 -0.1760  0.3294  0.4488
  549TMC3    O2 8208   3.396   0.416  12.523 -0.4785  0.2164  1.3763
  550TMC3    C1 8209   3.055   3.161  11.842  1.1671  0.5941  0.4829
  550TMC3    C2 8210   3.037   3.295  11.868 -0.3591 -0.3057 -0.6081
  550TMC3    C3 8211   2.981   3.326  11.993  0.2354  0.1356  1.2907
  550TMC3    C4 8212   3.016   3.063  11.933 -0.0250 -0.2668 -0.3866
  550TMC3    C5 8213   2.973   3.102  12.057  0.0348  0.6907  0.1532
  550TMC3    C6 8214   2.951   3.232  12.080 -0.2946  0.5847  0.4170
  550TMC3     C 8215   3.054   3.123  11.710 -1.0689 -0.3829 -0.0786
  550TMC3     O 8216   3.136   3.038  11.675  0.6024  0.4560 -0.2144
  550TMC3     H 8217   3.073   3.369  11.797  1.6191 -1.0278 -0.3356
  550TMC3    H1 8218   3.018   2.964  11.890 -1.0921 -0.4822  0.0741
  550TMC3    H2 8219   2.908   3.260  12.176 -0.9175  2.3234 -0.3613
  550TMC3    C7 8220   2.854   3.020  12.097  0.6804  0.5633  0.8997
  550TMC3    C8 8221   2.966   3.471  12.028  1.4238  0.3306  0.2567
  550TMC3    O1 8222   2.749   3.084  12.084  0.3325 -0.2149  0.2969
  550TMC3    O2 8223   2.967   3.502  12.148  0.0475 -0.0194 -0.0313
  551TMC3    C1 8224   0.722   1.249  13.006  0.2815 -0.2272 -0.4221
  551TMC3    C2 8225   0.838   1.178  12.985  0.3965 -0.7482 -0.5510
  551TMC3    C3 8226   0.938   1.204  13.070  0.2450  0.3715  0.0157
  551TMC3    C4 8227   0.698   1.332  13.113 -0.7326 -0.0583 -0.1239
  551TMC3    C5 8228   0.800   1.347  13.207 -0.2351  0.2658  0.3228
  551TMC3    C6 8229   0.920   1.289  13.186  0.2533  1.0329 -0.1466
  551TMC3     C 8230   0.649   1.268  12.877  0.1311  0.2035 -0.0095
  551TMC3     O 8231   0.621   1.171  12.807 -0.4292 -0.6038  0.1611
  551TMC3     H 8232   0.854   1.127  12.891 -1.1856  0.9633 -1.7382
  551TMC3    H1 8233   0.600   1.377  13.126  0.0068  1.7442 -0.7144
  551TMC3    H2 8234   1.002   1.296  13.257  1.4960 -0.0318 -1.4804
  551TMC3    C7 8235   0.789   1.428  13.329  0.5028 -0.4970  0.9888
  551TMC3    C8 8236   1.070   1.210  13.013 -0.3270 -0.4258 -0.3271
  551TMC3    O1 8237   0.876   1.396  13.405  0.2712 -0.1872  0.3699
  551TMC3    O2 8238   1.111   1.133  12.928  0.3362  0.5717 -0.1457
  552MPD2     C 8239   3.063   3.352  13.600 -0.1035 -0.2679  0.5904
  552MPD2    C1 8240   2.996   3.307  13.713  0.3393 -0.1329  1.2858
  552MPD2    C2 8241   3.065   3.302  13.832 -0.5043 -0.5172  0.3272
  552MPD2    C3 8242   3.198   3.349  13.844 -0.0863  0.6211  0.1980
  552MPD2    C4 8243   3.263   3.390  13.730  0.5897  0.1250 -0.3484
  552MPD2    C5 8244   3.192   3.398  13.608 -0.1588  0.5818  0.1822
  552MPD2     H 8245   3.025   3.267  13.926 -1.3734  0.1027  0.1824
  552MPD2    H1 8246   3.366   3.423  13.726  0.2585  1.2483  0.7850
  552MPD2    H2 8247   3.005   3.362  13.509 -2.0817 -0.9498  1.7885
  552MPD2    H3 8248   3.244   3.434  13.519  3.3321 -1.7018  1.2798
  552MPD2     N 8249   3.269   3.348  13.965  0.5470 -0.5472 -0.4485
  552MPD2    H5 8250   3.369   3.363  13.953  0.6483 -1.8360 -1.2407
  552MPD2    N1 8251   2.859   3.273  13.718 -0.2968 -0.3222 -0.0585
  552MPD2    H7 8252   2.822   3.231  13.803 -1.1277  1.6192  0.5411
  553TMC3    C1 8253   2.656   3.220  13.662  0.7702  0.4320 -0.2127
  553TMC3    C2 8254   2.608   3.116  13.585  0.4579 -1.0365 -0.2561
  553TMC3    C3 8255   2.541   3.011  13.643  0.0371 -0.5916  0.4218
  553TMC3    C4 8256   2.643   3.216  13.801  0.3550  0.3869 -0.5511
  553TMC3    C5 8257   2.569   3.120  13.854  0.2996  0.0497 -0.2133
  553TMC3    C6 8258   2.527   3.015  13.776  0.3717 -0.3056  0.1983
  553TMC3     C 8259   2.769   3.287  13.615  1.0490 -0.2812  0.1021
  553TMC3     O 8260   2.777   3.338  13.503  0.0213  0.2673 -0.1253
  553TMC3     H 8261   2.636   3.126  13.481 -0.3685 -2.2122 -0.5891
  553TMC3    H1 8262   2.663   3.299  13.867 -0.8853  0.6316 -0.4814
  553TMC3    H2 8263   2.483   2.933  13.831  0.9122 -1.2566 -0.7820
  553TMC3    C7 8264   2.642   3.071  13.966  0.4985 -0.0176  0.7681
  553TMC3    C8 8265   2.515   2.882  13.573 -0.0011 -0.5550 -0.2252
  553TMC3    O1 8266   2.752   3.124  13.973 -0.0818 -0.1425 -0.3391
  553TMC3    O2 8267   2.508   2.784  13.640  0.3430  0.5033  0.5157
  554TMC3    C1 8268   4.338   2.654  11.042 -0.4087 -0.7325  0.1003
  554TMC3    C2 8269   4.286   2.567  10.946  0.3715  0.6844 -0.4576
  554TMC3    C3 8270   4.327   2.583  10.822  0.2862  0.8545  0.2617
  554TMC3    C4 8271   4.419   2.760  11.006 -0.0729 -0.2469 -0.3719
  554TMC3    C5 8272   4.460   2.766  10.876 -0.2395 -0.1868  0.1784
  554TMC3    C6 8273   4.418   2.679  10.785  0.3371 -0.4350 -1.0521
  554TMC3     C 8274   4.392   2.588  11.155  0.3038  0.5006  0.2049
  554TMC3     O 8275   4.439   2.665  11.238 -0.0977  0.2553 -0.0993
  554TMC3     H 8276   4.207   2.498  10.976  0.1298  0.7874 -0.8551
  554TMC3    H1 8277   4.454   2.835  11.075  1.7899 -0.9175 -0.5900
  554TMC3    H2 8278   4.444   2.701  10.682 -0.4945 -2.3150 -1.6703
  554TMC3    C7 8279   4.531   2.884  10.831  0.8661  0.2499 -0.5198
  554TMC3    C8 8280   4.237   2.542  10.707  0.1220  1.1771  0.1995
  554TMC3    O1 8281   4.606   2.859  10.741 -0.0059  0.2466  0.4512
  554TMC3    O2 8282   4.253   2.599  10.600 -0.0496  0.7893 -0.4937
  555TMC3    C1 8283   3.464   2.286  14.883  0.1123  0.1144 -0.2466
  555TMC3    C2 8284   3.512   2.354  14.998 -0.2549  0.1392 -0.1254
  555TMC3    C3 8285   3.560   2.271  15.100  0.6877 -0.6440 -0.1393
  555TMC3    C4 8286   3.464   2.151  14.873 -0.6597 -0.5482 -0.7409
  555TMC3    C5 8287   3.516   2.077  14.973 -0.6495  0.2061  0.0630
  555TMC3    C6 8288   3.571   2.134  15.084  0.6208  0.0498 -0.4475
  555TMC3     C 8289   3.366   2.354  14.811  0.2279  0.9986 -0.1190
  555TMC3     O 8290   3.284   2.421  14.868  0.8546  0.3451 -0.4685
  555TMC3     H 8291   3.499   2.461  15.010  2.9750  0.3630  1.4819
  555TMC3    H1 8292   3.425   2.107  14.782 -3.3484 -0.1534  0.2220
  555TMC3    H2 8293   3.610   2.072  15.164  0.6511  0.8505  0.1599
  555TMC3    C7 8294   3.504   1.936  14.978 -0.3029 -0.6606 -0.0230
  555TMC3    C8 8295   3.584   2.344  15.226 -0.4497 -0.1662 -0.0724
  555TMC3    O1 8296   3.493   1.882  15.086  0.5212  0.0387 -0.0907
  555TMC3    O2 8297   3.544   2.457  15.223  0.2165 -0.2746  0.0381
  556MPD2     C 8298   1.784   3.290  10.910  0.2145 -0.3100  0.1747
  556MPD2    C1 8299   1.660   3.262  10.968 -0.3164 -0.0615  0.0701
  556MPD2    C2 8300   1.564   3.196  10.898  0.2182 -1.3187 -0.0517
  556MPD2    C3 8301   1.593   3.139  10.769 -0.0343 -0.6076  0.7249
  556MPD2    C4 8302   1.715   3.170  10.711 -0.2274 -0.6680  0.2529
  556MPD2    C5 8303   1.799   3.256  10.778 -0.3508  0.0216  0.6764
  556MPD2     H 8304   1.472   3.171  10.950 -0.5306  0.5932 -0.4416
  556MPD2    H1 8305   1.749   3.124  10.620 -0.7315  0.6404 -0.5906
  556MPD2    H2 8306   1.862   3.353  10.951 -0.2595  0.0648  0.4976
  556MPD2    H3 8307   1.894   3.278  10.730  0.9395 -2.2069  2.1788
  556MPD2     N 8308   1.497   3.055  10.711 -0.2102 -0.5062  0.4313
  556MPD2    H5 8309   1.416   3.038  10.770  1.0524 -0.3264  2.1991
  556MPD2    N1 8310   1.633   3.303  11.108 -0.0523  0.5402  0.3070
  556MPD2    H7 8311   1.547   3.273  11.153  0.2046 -1.2295 -0.3764
  557TMC3    C1 8312   1.399   2.886  10.564  0.5511  0.0590 -0.0524
  557TMC3    C2 8313   1.420   2.812  10.449 -0.4435 -0.0750  0.5314
  557TMC3    C3 8314   1.331   2.711  10.420 -0.0431 -0.4315  0.0975
  557TMC3    C4 8315   1.294   2.855  10.650  0.5286 -0.2667 -0.1261
  557TMC3    C5 8316   1.201   2.760  10.619  0.3237  0.0005  0.1113
  557TMC3    C6 8317   1.214   2.693  10.498 -0.1856 -0.0635 -0.9980
  557TMC3     C 8318   1.503   2.988  10.583  0.5487  0.2754 -0.4671
  557TMC3     O 8319   1.593   2.991  10.502  0.6285 -0.3271  0.2738
  557TMC3     H 8320   1.498   2.833  10.377 -0.2107 -0.5156  0.6546
  557TMC3    H1 8321   1.278   2.905  10.744  0.4253  1.5865 -1.1156
  557TMC3    H2 8322   1.152   2.607  10.478  0.7902 -0.8386 -0.6831
  557TMC3    C7 8323   1.081   2.738  10.705 -0.9411 -0.5359  0.1669
  557TMC3    C8 8324   1.362   2.638  10.296  0.1506 -0.1551  0.6498
  557TMC3    O1 8325   1.001   2.659  10.654  0.1505 -0.5018  0.4909
  557TMC3    O2 8326   1.432   2.695  10.214 -0.4844  0.3110  0.8800
  558TMC3    C1 8327   3.496   1.224   9.900  0.6118  0.2008 -0.9027
  558TMC3    C2 8328   3.396   1.206   9.990 -0.3295  0.2681 -0.2954
  558TMC3    C3 8329   3.274   1.257   9.963 -0.4444  0.0157 -0.2633
  558TMC3    C4 8330   3.484   1.296   9.784  0.4939 -0.3247  0.9611
  558TMC3    C5 8331   3.354   1.344   9.756  0.5347  0.0618  0.2285
  558TMC3    C6 8332   3.248   1.323   9.845 -0.4790 -0.7509  0.8111
  558TMC3     C 8333   3.629   1.172   9.930  0.1688  0.2683 -0.1150
  558TMC3     O 8334   3.710   1.162   9.839  0.2247 -0.3118 -0.0348
  558TMC3     H 8335   3.395   1.139  10.076 -1.3670  1.1296  0.3725
  558TMC3    H1 8336   3.562   1.308   9.710 -0.0753 -0.9014  0.2633
  558TMC3    H2 8337   3.146   1.345   9.818  0.0492  1.1154  0.3192
  558TMC3    C7 8338   3.343   1.425   9.638  0.3324  0.4533  0.1203
  558TMC3    C8 8339   3.161   1.258  10.060  0.3751  0.1576  0.1922
  558TMC3    O1 8340   3.442   1.478   9.586  0.0242 -0.1631  0.4132
  558TMC3    O2 8341   3.053   1.294  10.015 -0.8318 -0.0082  0.3949
  559MPD2     C 8342   3.481   1.620   9.881 -0.0602 -0.0134  1.1105
  559MPD2    C1 8343   3.453   1.571  10.000 -0.5847 -0.5044  0.1266
  559MPD2    C2 8344   3.563   1.514  10.073  0.2524  0.3683  0.6640
  559MPD2    C3 8345   3.689   1.499  10.021  0.3974 -0.3749 -0.2180
  559MPD2    C4 8346   3.711   1.543   9.888  0.1609  0.2977  0.4710
  559MPD2    C5 8347   3.604   1.606   9.824 -0.3911 -0.0982  0.2416
  559MPD2     H 8348   3.541   1.474  10.171  1.0628 -1.5532  0.0513
  559MPD2    H1 8349   3.810   1.545   9.844 -0.5224 -0.4290 -1.0975
  559MPD2    H2 8350   3.413   1.662   9.809 -0.5239 -1.0843  0.9230
  559MPD2    H3 8351   3.619   1.643   9.723 -2.7777 -2.0072 -0.8109
  559MPD2     N 8352   3.795   1.446  10.099 -0.7837  0.2755 -0.7994
  559MPD2    H5 8353   3.780   1.429  10.198  1.7968 -3.4146 -1.0325
  559MPD2    N1 8354   3.315   1.588  10.040  0.5728 -0.3037 -0.3858
  559MPD2    H7 8355   3.250   1.632   9.976  0.3214 -0.6822 -0.3896
  560TMC3    C1 8356   4.014   1.406  10.183  1.0129 -0.1623 -0.2739
  560TMC3    C2 8357   3.973   1.439  10.307 -0.5978  0.1183 -0.0763
  560TMC3    C3 8358   4.056   1.425  10.414 -0.1931  0.1380 -0.0462
  560TMC3    C4 8359   4.145   1.364  10.167 -0.0213  0.6939 -0.5392
  560TMC3    C5 8360   4.231   1.353  10.276  0.1285 -0.5315 -0.5964
  560TMC3    C6 8361   4.188   1.389  10.401 -0.1428  0.0202 -0.9504
  560TMC3     C 8362   3.932   1.438  10.066 -0.1025  0.5265  0.1757
  560TMC3     O 8363   3.991   1.445   9.960 -0.2227  0.3438  0.1509
  560TMC3     H 8364   3.874   1.481  10.321 -0.7910 -0.8120  1.3356
  560TMC3    H1 8365   4.181   1.343  10.067 -0.4744  3.0284 -1.1853
  560TMC3    H2 8366   4.253   1.374  10.487 -0.8085  0.6881 -0.3205
  560TMC3    C7 8367   4.369   1.317  10.271 -0.7639  0.2084 -0.7011
  560TMC3    C8 8368   3.991   1.377  10.533 -0.4030  0.1404 -0.0348
  560TMC3    O1 8369   4.413   1.249  10.180  0.4201 -0.0624 -0.6827
  560TMC3    O2 8370   3.872   1.413  10.539  0.0143 -0.2009  1.0724
  561TMC3    C1 8371   1.680   1.003  10.935  0.2541  0.2037 -0.1677
  561TMC3    C2 8372   1.614   0.899  10.991 -0.1730 -0.0404  0.0156
  561TMC3    C3 8373   1.518   0.937  11.076  0.7307  0.2379  0.3628
  561TMC3    C4 8374   1.654   1.135  10.943 -0.5341 -0.2944 -0.0616
  561TMC3    C5 8375   1.556   1.161  11.029  0.1485  0.8295  0.7341
  561TMC3    C6 8376   1.488   1.068  11.103  0.1980  0.7335  0.5784
  561TMC3     C 8377   1.815   0.970  10.889 -0.7306  0.1324 -0.9067
  561TMC3     O 8378   1.822   0.877  10.811 -0.0771  0.2510 -0.3979
  561TMC3     H 8379   1.640   0.795  10.981  0.9339  0.3757 -1.5186
  561TMC3    H1 8380   1.718   1.209  10.896  0.2508 -0.2958  1.0127
  561TMC3    H2 8381   1.400   1.098  11.159  0.5215  1.3504  0.7600
  561TMC3    C7 8382   1.520   1.296  11.040 -0.1496  0.8562 -0.3893
  561TMC3    C8 8383   1.462   0.827  11.164  0.4799 -1.0293 -0.0567
  561TMC3    O1 8384   1.451   1.325  11.138 -0.2642 -0.0040  0.2376
  561TMC3    O2 8385   1.478   0.713  11.120 -0.3041 -0.1764  0.3303
  562TMC3    C1 8386   3.269   2.198  16.069 -0.4965 -0.2863  0.3619
  562TMC3    C2 8387   3.187   2.268  15.986 -0.1133 -0.2225 -0.2244
  562TMC3    C3 8388   3.164   2.219  15.863  0.2458 -0.0657  0.5268
  562TMC3    C4 8389   3.307   2.076  16.038  0.1256  0.5072  0.1498
  562TMC3    C5 8390   3.251   2.019  15.924 -0.5311  0.9885  0.0293
  562TMC3    C6 8391   3.195   2.092  15.832  0.3036 -0.4499  0.0101
  562TMC3     C 8392   3.300   2.250  16.205 -0.1931 -0.2127 -0.5170
  562TMC3     O 8393   3.341   2.161  16.277  0.2055 -0.0326 -0.2382
  562TMC3     H 8394   3.160   2.371  16.008  0.7291 -0.6014  2.6079
  562TMC3    H1 8395   3.365   2.011  16.103  1.3054  0.2178 -1.1653
  562TMC3    H2 8396   3.165   2.046  15.739  0.0833  1.2083 -0.7397
  562TMC3    C7 8397   3.267   1.878  15.903  0.9952 -0.0021 -0.3251
  562TMC3    C8 8398   3.146   2.310  15.753 -0.6485 -0.0791  0.3727
  562TMC3    O1 8399   3.224   1.834  15.796  0.7332  0.1901 -0.3785
  562TMC3    O2 8400   3.082   2.412  15.775 -0.4862 -0.0814 -0.6662
  563MPD2     C 8401   1.198   3.864  15.658 -0.7687 -0.7582  0.3639
  563MPD2    C1 8402   1.199   3.871  15.796  0.5267 -0.0305  0.0342
  563MPD2    C2 8403   1.323   3.843  15.866  0.1195  0.3550 -0.0829
  563MPD2    C3 8404   1.436   3.812  15.789  0.1370 -0.7607  0.0202
  563MPD2    C4 8405   1.427   3.798  15.654 -0.1856  0.1960  0.5186
  563MPD2    C5 8406   1.314   3.822  15.590  0.0337 -0.0424  0.4275
  563MPD2     H 8407   1.344   3.858  15.971  1.1841  1.3672 -0.4276
  563MPD2    H1 8408   1.518   3.774  15.599 -0.5465  0.4609 -0.2010
  563MPD2    H2 8409   1.112   3.867  15.591  1.5985  0.2782 -2.6176
  563MPD2    H3 8410   1.315   3.817  15.481 -0.1690  1.0770  0.3715
  563MPD2     N 8411   1.548   3.786  15.862  0.2150  0.1338  0.7485
  563MPD2    H5 8412   1.530   3.772  15.961 -1.6827  0.1760  0.4069
  563MPD2    N1 8413   1.087   3.908  15.877  0.7893 -0.2048 -0.6606
  563MPD2    H7 8414   1.093   3.894  15.978  2.3052 -2.3265 -1.0419
  564TMC3    C1 8415   0.867   3.906  15.921 -0.1474 -0.0185 -0.4956
  564TMC3    C2 8416   0.758   3.846  15.873  0.2430 -0.2351  0.3317
  564TMC3    C3 8417   0.689   3.759  15.959  1.0743 -0.0988 -0.4351
  564TMC3    C4 8418   0.909   3.893  16.049  0.1452  0.4206 -0.2882
  564TMC3    C5 8419   0.830   3.816  16.132 -0.5746  0.2249  0.0156
  564TMC3    C6 8420   0.716   3.743  16.088  0.0662  0.2654  0.1044
  564TMC3     C 8421   0.968   3.928  15.821 -0.5510 -0.3977  0.2062
  564TMC3     O 8422   0.938   3.950  15.705  0.2167  0.7404  0.5401
  564TMC3     H 8423   0.749   3.852  15.765  0.0121  0.9455  0.4152
  564TMC3    H1 8424   0.999   3.942  16.084  0.5364  0.1309 -0.8792
  564TMC3    H2 8425   0.650   3.689  16.156 -0.4116  1.1421  0.3443
  564TMC3    C7 8426   0.911   3.752  16.234 -0.0797 -0.1102  0.6006
  564TMC3    C8 8427   0.636   3.632  15.902 -0.5372 -0.4782  0.3640
  564TMC3    O1 8428   1.000   3.822  16.280  0.0262 -0.1629 -0.3882
  564TMC3    O2 8429   0.641   3.540  15.983 -0.3774 -0.2980 -0.6550
  565TMC3    C1 8430   0.918   3.484  10.371 -0.0124 -0.5621  0.3068
  565TMC3    C2 8431   0.931   3.535  10.494 -0.3374 -0.6174 -0.2653
  565TMC3    C3 8432   0.853   3.481  10.597 -0.3139 -0.5827 -0.8408
  565TMC3    C4 8433   0.838   3.375  10.343  0.6421  0.3625  0.1327
  565TMC3    C5 8434   0.773   3.317  10.448 -0.3228 -0.0624  0.0406
  565TMC3    C6 8435   0.788   3.363  10.577 -0.0305 -0.2878  1.1079
  565TMC3     C 8436   0.993   3.538  10.259 -0.4789  0.3742 -1.1634
  565TMC3     O 8437   0.955   3.507  10.146 -0.2357 -0.2142  0.0885
  565TMC3     H 8438   0.983   3.626  10.522 -1.9006 -0.0447  0.7640
  565TMC3    H1 8439   0.836   3.337  10.242 -2.7445 -0.2912  0.4200
  565TMC3    H2 8440   0.723   3.322  10.653 -2.7821  0.6425 -0.7625
  565TMC3    C7 8441   0.708   3.189  10.436 -0.4765  0.4899 -0.5690
  565TMC3    C8 8442   0.853   3.558  10.720  0.3914 -0.9676  0.7284
  565TMC3    O1 8443   0.700   3.122  10.538 -0.3975 -0.1208 -0.3121
  565TMC3    O2 8444   0.879   3.676  10.723 -0.2062  0.4977 -0.2060
  566MPD2     C 8445   2.589   1.698  13.968  0.1913 -0.4140  0.5326
  566MPD2    C1 8446   2.633   1.706  13.837 -0.1077 -0.3164 -0.0368
  566MPD2    C2 8447   2.542   1.693  13.732  0.4506  0.3270 -0.6902
  566MPD2    C3 8448   2.414   1.644  13.766 -0.0456 -0.2732  0.0142
  566MPD2    C4 8449   2.379   1.634  13.897 -0.6337  0.1019 -0.1518
  566MPD2    C5 8450   2.464   1.670  13.993 -0.5174 -0.0037  0.2069
  566MPD2     H 8451   2.566   1.709  13.628 -0.5830  0.5314 -0.9018
  566MPD2    H1 8452   2.273   1.618  13.918  0.3349 -2.2494  2.9486
  566MPD2    H2 8453   2.655   1.723  14.051  1.0412 -0.3096 -0.1730
  566MPD2    H3 8454   2.429   1.664  14.096  0.5979 -1.9850  0.4694
  566MPD2     N 8455   2.311   1.611  13.671 -0.1529  0.2440  0.4963
  566MPD2    H5 8456   2.219   1.602  13.713  0.0117 -3.2102  0.0602
  566MPD2    N1 8457   2.769   1.735  13.823 -0.7033  0.4903 -0.0214
  566MPD2    H7 8458   2.818   1.729  13.912 -0.7879 -0.2479 -0.0315
  567TMC3    C1 8459   2.979   1.722  13.730 -0.0965  0.8524  0.5718
  567TMC3    C2 8460   3.045   1.690  13.616  0.0052  0.5130  0.0638
  567TMC3    C3 8461   3.175   1.747  13.595 -0.0577  0.4403  0.0503
  567TMC3    C4 8462   3.025   1.806  13.818 -0.3859 -0.1504  0.1919
  567TMC3    C5 8463   3.144   1.869  13.798  0.4873  0.4492  0.1945
  567TMC3    C6 8464   3.230   1.826  13.697 -0.1739  0.1411  0.5907
  567TMC3     C 8465   2.840   1.721  13.702 -0.5168 -0.9289 -0.0799
  567TMC3     O 8466   2.802   1.703  13.588  0.2492  0.1036  0.2889
  567TMC3     H 8467   3.005   1.623  13.541 -1.7732  0.3529  1.1546
  567TMC3    H1 8468   2.969   1.853  13.898 -0.1008  2.2668 -1.0393
  567TMC3    H2 8469   3.326   1.877  13.688  0.2835 -0.5821  1.3311
  567TMC3    C7 8470   3.199   1.942  13.911 -1.0441 -0.1901  0.4338
  567TMC3    C8 8471   3.229   1.748  13.461 -0.9131  0.1836 -0.1498
  567TMC3    O1 8472   3.302   2.009  13.887 -0.1527 -0.1124 -0.0411
  567TMC3    O2 8473   3.149   1.730  13.373  0.1748 -0.0819 -0.3624
  568MPD2     C 8474   0.259   2.236  16.158 -0.2832 -0.2872  0.2006
  568MPD2    C1 8475   0.364   2.295  16.226 -0.6601  0.6295  0.0559
  568MPD2    C2 8476   0.424   2.402  16.160 -0.8022  0.2011 -0.7179
  568MPD2    C3 8477   0.382   2.443  16.027 -0.1225 -0.5785 -0.3502
  568MPD2    C4 8478   0.274   2.380  15.975 -0.2230  0.3625 -0.0552
  568MPD2    C5 8479   0.215   2.276  16.040  0.2497 -1.1111  0.7542
  568MPD2     H 8480   0.502   2.464  16.202  1.4939 -2.6446 -0.8151
  568MPD2    H1 8481   0.226   2.419  15.886  0.4893 -2.6397 -1.7294
  568MPD2    H2 8482   0.198   2.166  16.214 -0.3738 -1.8630 -1.8718
  568MPD2    H3 8483   0.136   2.227  15.984 -0.3150 -0.5739  1.0726
  568MPD2     N 8484   0.436   2.561  15.969  0.6505  0.2177 -0.4223
  568MPD2    H5 8485   0.494   2.620  16.028 -0.4401 -1.4956  2.3723
  568MPD2    N1 8486   0.390   2.249  16.358 -0.0978  0.0592 -0.0013
  568MPD2    H7 8487   0.315   2.195  16.400 -0.4113  0.1564 -0.4331
  569TMC3    C1 8488   0.398   2.764  15.867  0.2321 -0.3186 -0.1258
  569TMC3    C2 8489   0.363   2.821  15.984  0.3451  0.1005 -0.0955
  569TMC3    C3 8490   0.325   2.950  15.986 -0.1159 -0.3918 -0.1391
  569TMC3    C4 8491   0.394   2.834  15.749 -0.3566  0.0869 -0.1740
  569TMC3    C5 8492   0.355   2.965  15.762  0.5822 -0.0182 -0.1042
  569TMC3    C6 8493   0.314   3.029  15.881 -0.6772  0.1540 -0.1954
  569TMC3     C 8494   0.407   2.620  15.850 -0.5646 -0.2040  0.1627
  569TMC3     O 8495   0.347   2.565  15.756  0.5030  0.7876 -0.4469
  569TMC3     H 8496   0.358   2.758  16.072 -0.4807 -0.7667 -0.7605
  569TMC3    H1 8497   0.445   2.794  15.663 -2.7915  1.5214 -2.2739
  569TMC3    H2 8498   0.278   3.131  15.891 -0.6303  0.1987 -0.5139
  569TMC3    C7 8499   0.413   3.054  15.662 -0.6087 -0.3462 -0.1167
  569TMC3    C8 8500   0.311   3.020  16.119 -0.5436  0.5723 -0.2393
  569TMC3    O1 8501   0.417   3.021  15.543 -0.6471  0.0762  0.0242
  569TMC3    O2 8502   0.331   3.142  16.112 -0.5841 -0.6301  0.4931
  570TMC3    C1 8503   4.332   1.240  15.986 -0.1166 -0.2580 -0.4989
  570TMC3    C2 8504   4.405   1.248  15.863 -0.4515 -0.1094  1.0014
  570TMC3    C3 8505   4.503   1.342  15.847  0.2391 -0.2871  0.2290
  570TMC3    C4 8506   4.345   1.339  16.081  0.1505 -0.1375 -0.2239
  570TMC3    C5 8507   4.447   1.430  16.058  0.2985  0.3824 -0.1078
  570TMC3    C6 8508   4.528   1.431  15.948  0.5231  0.1657  0.7199
  570TMC3     C 8509   4.273   1.115  16.017  0.2658  0.4868  0.0756
  570TMC3     O 8510   4.258   1.043  15.918 -0.5679  0.2961  0.1982
  570TMC3     H 8511   4.367   1.188  15.781  2.0857 -1.0408  0.5278
  570TMC3    H1 8512   4.283   1.349  16.170  0.8761 -1.9789  0.4952
  570TMC3    H2 8513   4.610   1.501  15.948 -1.4003  2.3857 -2.4622
  570TMC3    C7 8514   4.439   1.548  16.150  0.5900 -0.4005  0.6046
  570TMC3    C8 8515   4.602   1.326  15.743  0.3539 -0.6782  0.0367
  570TMC3    O1 8516   4.388   1.536  16.261  0.3932 -0.1977  0.2443
  570TMC3    O2 8517   4.668   1.427  15.720 -0.3470 -0.1554 -0.2909
  571MPD2     C 8518   2.109   3.250  17.745  0.9045  0.1125  0.1179
  571MPD2    C1 8519   2.170   3.154   0.084  0.0337  0.7166 -0.2177
  571MPD2    C2 8520   2.286   3.188   0.151 -0.2074  0.6920  1.1253
  571MPD2    C3 8521   2.345   3.311   0.121 -0.3458 -0.2715  1.0196
  571MPD2    C4 8522   2.283   3.406   0.037 -0.0271 -0.4959  0.4586
  571MPD2    C5 8523   2.167   3.374  17.720  0.0451 -0.2500  0.2533
  571MPD2     H 8524   2.342   3.113   0.206  0.6979  1.2902  1.0380
  571MPD2    H1 8525   2.341   3.491   0.001  1.5418 -0.9431  1.9801
  571MPD2    H2 8526   2.010   3.234  17.702  0.0452  0.5000  1.9727
  571MPD2    H3 8527   2.134   3.452  17.653  2.6775  1.0849  0.5397
  571MPD2     N 8528   2.472   3.351   0.173 -0.2504  0.2879 -0.3414
  571MPD2    H5 8529   2.507   3.440   0.140 -2.0960  1.3722  0.6748
  571MPD2    N1 8530   2.111   3.030   0.112 -0.2105 -0.4443  0.6386
  571MPD2    H7 8531   2.047   2.986   0.047 -1.9894  1.7392  0.9090
  572TMC3    C1 8532   2.687   3.359   0.250  0.3262 -0.3216  0.0873
  572TMC3    C2 8533   2.803   3.300   0.266  0.2939  0.5038  0.1552
  572TMC3    C3 8534   2.923   3.367   0.253 -0.1529  0.3971 -0.1111
  572TMC3    C4 8535   2.686   3.496   0.228 -0.1564  0.1963 -0.2233
  572TMC3    C5 8536   2.810   3.563   0.220  0.5784 -0.4312 -0.1455
  572TMC3    C6 8537   2.935   3.501   0.227 -0.1628 -0.0763 -0.1210
  572TMC3     C 8538   2.559   3.278   0.245  0.3787  0.4468  0.3135
  572TMC3     O 8539   2.553   3.161   0.284  0.4239 -0.0358 -0.5793
  572TMC3     H 8540   2.807   3.192   0.251  0.4486  0.2244  2.1395
  572TMC3    H1 8541   2.591   3.547   0.223  0.4657  1.4049  0.1547
  572TMC3    H2 8542   3.036   3.540   0.239  0.0493 -0.8394  0.6432
  572TMC3    C7 8543   2.792   3.703   0.189 -0.5330 -0.1489 -0.8010
  572TMC3    C8 8544   3.038   3.274   0.262 -0.4297 -0.0189 -0.1290
  572TMC3    O1 8545   2.676   3.743   0.175  0.0020 -0.4024 -0.0324
  572TMC3    O2 8546   3.136   3.307   0.200 -0.0045  0.1819  0.7152
  573MPD2     C 8547   3.734   3.710   0.213  0.4542  0.6512 -0.2753
  573MPD2    C1 8548   3.625   3.788   0.214 -0.4849  0.7221 -0.2301
  573MPD2    C2 8549   3.514   3.746   0.153 -0.5655  0.2292 -0.1214
  573MPD2    C3 8550   3.507   3.618   0.093 -0.5857 -0.4375  0.1607
  573MPD2    C4 8551   3.617   3.541   0.103 -0.2701  0.0288  0.1514
  573MPD2    C5 8552   3.724   3.587   0.169  0.5049 -0.4141  0.4911
  573MPD2     H 8553   3.424   3.806   0.146  0.1819  1.4795  1.1661
  573MPD2    H1 8554   3.612   3.441   0.060  1.1475  0.2540 -0.5103
  573MPD2    H2 8555   3.823   3.730   0.273  0.0891  3.0404 -0.5120
  573MPD2    H3 8556   3.803   3.515   0.189  1.6293  0.6915  0.0294
  573MPD2     N 8557   3.384   3.565   0.036 -0.1617  0.2512 -0.3758
  573MPD2    H5 8558   3.397   3.470   0.003  2.7046  0.0700  1.1920
  573MPD2    N1 8559   3.624   3.902   0.288 -0.0839 -0.0265  0.6500
  573MPD2    H7 8560   3.707   3.926   0.341  0.5079  0.9815 -0.7503
  574TMC3    C1 8561   3.152   3.561  17.702 -0.2492  0.2982 -0.8422
  574TMC3    C2 8562   3.059   3.649  17.654  0.4727 -0.0603 -0.3005
  574TMC3    C3 8563   2.948   3.594  17.584 -0.1577  0.1924  0.0624
  574TMC3    C4 8564   3.142   3.427  17.669  0.1378 -0.3905 -0.7963
  574TMC3    C5 8565   3.032   3.376  17.608 -0.3497  0.0673 -0.4076
  574TMC3    C6 8566   2.930   3.456  17.571 -0.0787  0.0601  0.9382
  574TMC3     C 8567   3.260   3.621   0.036 -0.0241 -0.3849  0.0303
  574TMC3     O 8568   3.224   3.720   0.096 -0.2916  0.1839  0.3001
  574TMC3     H 8569   3.052   3.749  17.694 -0.2071  0.5691 -2.0015
  574TMC3    H1 8570   3.216   3.364  17.717  2.8198  3.9180  0.8155
  574TMC3    H2 8571   2.854   3.418  17.504 -1.1217  3.9121 -0.0424
  574TMC3    C7 8572   3.000   3.241  17.640  0.0286  1.2139  0.3509
  574TMC3    C8 8573   2.841   3.677  17.529 -0.2309 -0.3017 -0.6053
  574TMC3    O1 8574   3.094   3.159  17.649 -0.2856  0.0559 -0.4172
  574TMC3    O2 8575   2.739   3.617  17.484 -0.2577  0.2245  0.3010
  575TMC3    C1 8576   1.051   4.195  11.352 -0.9782  0.1445  0.2169
  575TMC3    C2 8577   1.085   4.148  11.477 -0.4334  0.0544 -0.5792
  575TMC3    C3 8578   1.081   4.010  11.495  0.0297 -0.0019  0.4046
  575TMC3    C4 8579   1.003   4.108  11.264 -0.3076 -0.4262 -0.2692
  575TMC3    C5 8580   0.986   3.973  11.291 -0.3833  0.1869  0.2277
  575TMC3    C6 8581   1.032   3.919  11.404 -0.1989 -0.4454  0.0583
  575TMC3     C 8582   1.096   4.328  11.315  0.1334 -0.5310  0.3484
  575TMC3     O 8583   1.131   4.405  11.405 -0.2388 -0.2326  0.5123
  575TMC3     H 8584   1.139   4.209  11.549 -0.9740 -1.5169  1.1574
  575TMC3    H1 8585   0.972   4.145  11.167 -1.5935 -0.0210  0.3056
  575TMC3    H2 8586   1.021   3.814  11.429  2.3248 -0.4776  0.9798
  575TMC3    C7 8587   0.960   3.872  11.180 -0.1757 -0.5943 -0.1495
  575TMC3    C8 8588   1.131   3.972  11.629 -0.0099 -0.3953 -0.7970
  575TMC3    O1 8589   0.970   3.916  11.064  0.2679  0.0329  0.7060
  575TMC3    O2 8590   1.073   3.876  11.674 -0.2174 -0.0187 -0.5095
  576MPD2     C 8591   1.310   1.046  12.337  0.2504 -0.0365 -0.0459
  576MPD2    C1 8592   1.179   1.086  12.347  0.0183 -0.1677  0.0210
  576MPD2    C2 8593   1.149   1.198  12.425 -0.2043 -0.1844  0.3028
  576MPD2    C3 8594   1.248   1.266  12.496  0.7491  0.7083  0.5683
  576MPD2    C4 8595   1.381   1.233  12.478 -0.4061  0.3634  0.0947
  576MPD2    C5 8596   1.407   1.115  12.413  0.2601 -0.7809 -0.2293
  576MPD2     H 8597   1.048   1.235  12.411 -0.5160 -2.1194 -2.5754
  576MPD2    H1 8598   1.450   1.282  12.545  0.2747 -2.8925  1.7813
  576MPD2    H2 8599   1.339   0.963  12.274  2.8870  0.5065  0.4270
  576MPD2    H3 8600   1.505   1.068  12.406  0.5172 -0.3351  0.4052
  576MPD2     N 8601   1.206   1.382  12.577 -0.0399 -0.7983 -0.0157
  576MPD2    H5 8602   1.282   1.432  12.620 -1.0560  1.5506 -0.9376
  576MPD2    N1 8603   1.086   1.044  12.249 -0.4447 -0.1234 -0.1423
  576MPD2    H7 8604   1.004   1.103  12.245 -0.6244 -0.2739  1.1965
  577TMC3    C1 8605   0.987   0.921  12.072 -0.6490 -0.3164 -0.1201
  577TMC3    C2 8606   0.997   0.817  11.986 -0.2196  0.1680  0.3562
  577TMC3    C3 8607   0.985   0.840  11.849 -0.4641  0.3828 -0.3262
  577TMC3    C4 8608   0.934   1.041  12.031 -0.4234  0.0975  0.1004
  577TMC3    C5 8609   0.904   1.057  11.903  0.3716 -0.1073 -0.1522
  577TMC3    C6 8610   0.939   0.965  11.804 -0.2288  0.5614 -0.0280
  577TMC3     C 8611   1.090   0.926  12.173 -0.2418  0.3364  0.7990
  577TMC3     O 8612   1.184   0.851  12.149  0.6355  0.4560  0.0533
  577TMC3     H 8613   1.020   0.722  12.034  0.7273  0.2607  0.0963
  577TMC3    H1 8614   0.920   1.123  12.101  1.9984 -1.3095  2.2220
  577TMC3    H2 8615   0.918   0.986  11.700  1.5777  0.4267 -0.4062
  577TMC3    C7 8616   0.806   1.161  11.861 -0.6428  1.3180  1.1735
  577TMC3    C8 8617   1.077   0.759  11.770 -0.0350 -0.0314  0.5933
  577TMC3    O1 8618   0.782   1.245  11.946 -0.1534  0.3414  0.3408
  577TMC3    O2 8619   1.086   0.647  11.819 -0.4950 -0.6958  0.3097
  578MPD2     C 8620   4.097   1.354   1.604  0.0045 -0.4372 -0.2901
  578MPD2    C1 8621   4.150   1.346   1.478 -0.2491  0.8083 -0.0890
  578MPD2    C2 8622   4.285   1.308   1.466  0.2495  0.3301  0.3221
  578MPD2    C3 8623   4.360   1.278   1.573 -0.1029  0.3525  0.3506
  578MPD2    C4 8624   4.305   1.299   1.701 -0.8052  0.0263 -0.7961
  578MPD2    C5 8625   4.173   1.334   1.716 -0.0425 -0.4308  0.0430
  578MPD2     H 8626   4.318   1.280   1.367 -0.0116  0.9771  0.0495
  578MPD2    H1 8627   4.358   1.271   1.792 -1.6168  0.5099 -0.1747
  578MPD2    H2 8628   3.997   1.391   1.623 -1.1016 -3.4849 -0.2081
  578MPD2    H3 8629   4.127   1.350   1.812 -3.2829  1.3625 -1.8090
  578MPD2     N 8630   4.491   1.224   1.556  0.2784 -0.2861 -0.4877
  578MPD2    H5 8631   4.512   1.197   1.461  1.6923 -1.0828  0.0424
  578MPD2    N1 8632   4.067   1.378   1.368  0.1943 -0.2734  0.2163
  578MPD2    H7 8633   3.976   1.411   1.398  0.6255 -0.6951  1.9504
  579TMC3    C1 8634   4.715   1.158   1.586 -0.2122 -0.1291 -0.1695
  579TMC3    C2 8635   0.089   1.228   1.620  0.5251 -0.7314 -0.3081
  579TMC3    C3 8636   0.204   1.204   1.548  0.7591 -0.0337  0.2950
  579TMC3    C4 8637   4.707   1.075   1.478  0.5421  0.1346 -0.7572
  579TMC3    C5 8638   0.089   1.053   1.412 -0.8814 -0.0547  0.3124
  579TMC3    C6 8639   0.206   1.117   1.442  0.4248  0.0101  0.2632
  579TMC3     C 8640   4.593   1.212   1.651  0.5430 -0.1734  0.1868
  579TMC3     O 8641   4.596   1.253   1.767  0.0107  0.4637  0.3332
  579TMC3     H 8642   0.085   1.289   1.710 -2.1065  0.3708 -1.1654
  579TMC3    H1 8643   4.625   1.006   1.461 -1.0146  1.8531 -0.2623
  579TMC3    H2 8644   0.295   1.095   1.384  1.5059  0.1573  1.8653
  579TMC3    C7 8645   0.098   0.922   1.347  0.5246 -0.1468 -0.3559
  579TMC3    C8 8646   0.320   1.282   1.577 -0.2792  0.8976  0.4667
  579TMC3    O1 8647   0.209   0.872   1.335 -0.9815 -0.0205  0.0895
  579TMC3    O2 8648   0.333   1.320   1.693  0.3899  0.0453 -0.1092
  580TMC3    C1 8649   3.992   0.391  12.260 -0.2361  0.6395  0.6543
  580TMC3    C2 8650   4.096   0.462  12.198  0.3116 -0.2612  0.6081
  580TMC3    C3 8651   4.197   0.395  12.136 -0.1992  0.1326 -0.0914
  580TMC3    C4 8652   3.990   0.253  12.261 -0.9050  0.0134  0.1031
  580TMC3    C5 8653   4.100   0.189  12.204  0.2105  0.2283 -0.2291
  580TMC3    C6 8654   4.198   0.257  12.137 -0.5418 -0.0258  0.0096
  580TMC3     C 8655   3.868   0.461  12.267 -0.2267  0.0545  0.2168
  580TMC3     O 8656   3.872   0.580  12.301  0.1174 -0.0021  0.2228
  580TMC3     H 8657   4.084   0.569  12.190  1.3974 -0.0768  1.4834
  580TMC3    H1 8658   3.919   0.202  12.325  1.8210 -0.9821  2.3479
  580TMC3    H2 8659   4.277   0.206  12.084  1.1277  3.6264 -1.0766
  580TMC3    C7 8660   4.094   0.040  12.196 -0.5001 -0.2987  0.0778
  580TMC3    C8 8661   4.228   0.452  12.004  0.8155 -0.6581 -1.1532
  580TMC3    O1 8662   4.004   4.724  12.260 -0.4029  0.0506 -0.0469
  580TMC3    O2 8663   4.285   0.384  11.920  0.0781  0.3541 -0.1589
  581MPD2     C 8664   1.894   4.623  14.548 -0.5983  0.4315 -0.5133
  581MPD2    C1 8665   1.826   4.691  14.644  0.5421  0.4641 -0.0992
  581MPD2    C2 8666   1.727   0.045  14.603 -0.1531 -0.5441  0.5002
  581MPD2    C3 8667   1.688   0.063  14.482 -0.0592  0.0912 -0.4575
  581MPD2    C4 8668   1.752   4.724  14.385 -0.2087 -0.6442 -0.2772
  581MPD2    C5 8669   1.854   4.635  14.419 -0.3789  0.2358 -0.2316
  581MPD2     H 8670   1.686   0.108  14.682  1.2335  0.5223  0.3600
  581MPD2    H1 8671   1.729   4.723  14.279 -3.9166 -1.9870  0.5178
  581MPD2    H2 8672   1.975   4.556  14.571 -0.1342  1.4428  0.8014
  581MPD2    H3 8673   1.903   4.589  14.334 -0.2004 -0.1993  0.1088
  581MPD2     N 8674   1.589   0.154  14.435  0.5902 -0.3867 -0.0964
  581MPD2    H5 8675   1.579   0.154  14.334  3.0794 -0.1742 -0.3311
  581MPD2    N1 8676   1.873   4.669  14.780  0.7489  0.1735  1.0230
  581MPD2    H7 8677   1.948   4.601  14.789  0.7501 -0.0848 -1.0524
  582TMC3    C1 8678   1.884   4.667  15.011  0.1972  0.3248  0.1016
  582TMC3    C2 8679   1.909   0.006  15.120 -0.7949 -0.6947  0.1615
  582TMC3    C3 8680   1.953   4.681  15.234  0.4046  0.3729  0.2276
  582TMC3    C4 8681   1.886   4.527  15.020 -0.9409  0.0319 -0.1750
  582TMC3    C5 8682   1.912   4.471  15.140 -0.1959  0.2510  0.1661
  582TMC3    C6 8683   1.955   4.543  15.246  0.3501 -0.1909  0.0516
  582TMC3     C 8684   1.829   4.732  14.894 -0.1172  0.2884  0.0977
  582TMC3     O 8685   1.762   0.099  14.898 -0.0618 -0.2925 -0.2580
  582TMC3     H 8686   1.893   0.113  15.109  0.0235 -0.5080  0.7708
  582TMC3    H1 8687   1.836   4.480  14.936  0.2895 -0.8038 -0.4315
  582TMC3    H2 8688   1.968   4.494  15.342 -0.2231 -0.7192 -0.1389
  582TMC3    C7 8689   1.790   4.396  15.161 -0.2419  0.4904  0.1480
  582TMC3    C8 8690   1.915   0.011  15.355  0.0634 -0.2762 -0.5937
  582TMC3    O1 8691   1.761   4.296  15.099  0.4070 -0.3125 -0.3491
  582TMC3    O2 8692   1.801   0.061  15.350  0.4706 -0.5760  0.5063
  583MPD2     C 8693   1.892   2.035  16.788  1.8628 -0.0034 -0.6862
  583MPD2    C1 8694   1.833   2.123  16.695  0.1702 -0.2632  0.5847
  583MPD2    C2 8695   1.754   2.222  16.753  0.5237 -0.3302 -0.3422
  583MPD2    C3 8696   1.742   2.239  16.888  0.0630  0.1240  0.3346
  583MPD2    C4 8697   1.810   2.156  16.977  0.3959 -0.1629  0.7720
  583MPD2    C5 8698   1.889   2.053  16.925 -0.1156 -0.0084 -0.5654
  583MPD2     H 8699   1.695   2.286  16.688  0.6133 -0.9887 -1.0662
  583MPD2    H1 8700   1.800   2.156  17.085 -0.1267 -0.0109  0.7208
  583MPD2    H2 8701   1.954   1.954  16.751 -0.7870 -1.9051 -1.0022
  583MPD2    H3 8702   1.932   1.991  17.003  0.0181  0.5556 -0.1810
  583MPD2     N 8703   1.656   2.343  16.932 -0.3387  0.0884  0.2613
  583MPD2    H5 8704   1.611   2.389  16.853 -1.5816  0.4583  1.1757
  583MPD2    N1 8705   1.856   2.119  16.553 -0.4420  0.2611  0.2623
  583MPD2    H7 8706   1.811   2.183  16.490 -0.1205  1.3986  1.1900
  584TMC3    C1 8707   1.531   2.489  17.082 -0.3477 -0.3017  0.0736
  584TMC3    C2 8708   1.549   2.590  16.994 -0.2317  1.1571  0.3759
  584TMC3    C3 8709   1.551   2.726  17.032 -0.2869  0.1443 -0.1356
  584TMC3    C4 8710   1.510   2.518  17.215  0.4505  0.2911 -0.9384
  584TMC3    C5 8711   1.511   2.646  17.254 -0.5464 -0.0071  0.1028
  584TMC3    C6 8712   1.527   2.754  17.169 -0.1690  0.2795 -0.0344
  584TMC3     C 8713   1.608   2.366  17.059  0.0245  0.0506 -0.5123
  584TMC3     O 8714   1.636   2.308  17.161 -0.4423 -0.0543  0.6000
  584TMC3     H 8715   1.556   2.567  16.888 -1.2593  2.6812 -0.0219
  584TMC3    H1 8716   1.489   2.442  17.291  0.8972  1.8754  0.7619
  584TMC3    H2 8717   1.521   2.854  17.210 -1.1551  0.6241 -1.0034
  584TMC3    C7 8718   1.467   2.674  17.391 -0.5081 -0.2715 -0.2791
  584TMC3    C8 8719   1.572   2.825  16.930  0.0243 -0.2149 -0.4424
  584TMC3    O1 8720   1.377   2.600  17.431 -0.2278 -0.4916  0.2728
  584TMC3    O2 8721   1.534   2.790  16.820 -0.3098  0.4514  0.0241
  585MPD2     C 8722   0.559   1.454   0.033  0.5927 -0.0619  0.3241
  585MPD2    C1 8723   0.631   1.522  17.683 -0.3184  0.1300 -0.5324
  585MPD2    C2 8724   0.731   1.453  17.614 -0.4406  0.5431 -0.5282
  585MPD2    C3 8725   0.742   1.313  17.620  0.0310  0.1461  1.0665
  585MPD2    C4 8726   0.674   1.247  17.716 -0.0368 -0.4972  0.3044
  585MPD2    C5 8727   0.585   1.318   0.054 -0.4229  0.5261  0.3041
  585MPD2     H 8728   0.796   1.508  17.546  0.9602 -2.5302 -1.6931
  585MPD2    H1 8729   0.670   1.139  17.713 -2.1125 -0.3717 -1.6502
  585MPD2    H2 8730   0.474   1.492   0.088  0.3770  1.4784 -1.0692
  585MPD2    H3 8731   0.526   1.258   0.122  0.2127  0.3386  0.6943
  585MPD2     N 8732   0.832   1.232  17.544  0.0553 -0.8811  0.1308
  585MPD2    H5 8733   0.823   1.131  17.543  1.5378 -1.0034 -0.4472
  585MPD2    N1 8734   0.602   1.663  17.668 -0.1329  0.1560 -1.0764
  585MPD2    H7 8735   0.552   1.700   0.003  0.2574  1.2996 -1.3709
  586TMC3    C1 8736   0.989   1.188  17.375  0.6039 -0.3855 -0.7425
  586TMC3    C2 8737   1.058   1.091  17.448 -0.1344  0.2577 -0.2750
  586TMC3    C3 8738   1.141   0.998  17.383  0.3023  0.2692 -0.8015
  586TMC3    C4 8739   0.983   1.182  17.244 -0.1804  0.8127 -0.2704
  586TMC3    C5 8740   1.050   1.075  17.183  0.3307  0.8050  0.2356
  586TMC3    C6 8741   1.140   1.002  17.249 -0.1874  0.4156  0.4856
  586TMC3     C 8742   0.909   1.286  17.445  0.2971 -0.1171 -0.4632
  586TMC3     O 8743   0.922   1.403  17.403  0.1545 -0.1349 -0.0785
  586TMC3     H 8744   1.064   1.094  17.556  0.2073  0.7512 -0.3067
  586TMC3    H1 8745   0.927   1.256  17.188 -1.7325 -0.3466 -0.2553
  586TMC3    H2 8746   1.214   0.949  17.191  0.0390  1.9712 -0.6425
  586TMC3    C7 8747   0.979   1.000  17.084 -0.2139  0.6145 -0.3021
  586TMC3    C8 8748   1.217   0.893  17.451 -0.0595  0.0128  0.3908
  586TMC3    O1 8749   0.988   0.877  17.087 -0.3532 -0.2008  0.4254
  586TMC3    O2 8750   1.285   0.822  17.375 -0.3408  0.0114  0.6268
  587TMC3    C1 8751   3.013   4.662  16.088  0.1980 -0.7491 -0.3487
  587TMC3    C2 8752   3.061   0.027  16.161 -0.0259  0.0057 -0.4945
  587TMC3    C3 8753   3.196   0.057  16.172 -0.4230  0.1797  0.0919
  587TMC3    C4 8754   3.108   4.586  16.022 -0.3442 -0.1430  0.1235
  587TMC3    C5 8755   3.239   4.606  16.044  0.6048  0.1278  0.1535
  587TMC3    C6 8756   3.291   4.713  16.114 -0.3140  0.7978 -0.9134
  587TMC3     C 8757   2.905   4.596  16.157 -0.4693 -0.5220 -0.0830
  587TMC3     O 8758   2.798   4.617  16.101 -0.1941  0.2819 -0.0608
  587TMC3     H 8759   2.988   0.099  16.195 -1.2566 -2.1468  1.3766
  587TMC3    H1 8760   3.068   4.504  15.963 -1.3240  0.2356  0.2629
  587TMC3    H2 8761   3.392   4.725  16.150 -1.0750  0.5880  1.3071
  587TMC3    C7 8762   3.330   4.538  15.955 -0.3483 -0.5090  0.3042
  587TMC3    C8 8763   3.242   0.127  16.288 -0.6407  0.2689 -0.4820
  587TMC3    O1 8764   3.277   4.511  15.849  0.2491 -0.3056  0.4178
  587TMC3    O2 8765   3.334   0.074  16.343 -0.1254 -0.0504  0.4157
  588TMC3    C1 8766   0.960   1.685   9.738 -0.3973  0.0700  0.6623
  588TMC3    C2 8767   0.902   1.560   9.717  0.4573 -0.4396 -0.2414
  588TMC3    C3 8768   0.921   1.474   9.821  0.1858  0.0416 -0.0305
  588TMC3    C4 8769   1.020   1.723   9.853  0.5742  0.0794  0.3497
  588TMC3    C5 8770   1.043   1.625   9.951  0.8236 -0.6010  0.3596
  588TMC3    C6 8771   0.990   1.498   9.937 -0.1494 -0.6562  0.4613
  588TMC3     C 8772   0.900   1.796   9.677  0.1534  0.5071 -0.1215
  588TMC3     O 8773   0.859   1.782   9.567 -0.1387  0.1356 -0.0502
  588TMC3     H 8774   0.833   1.533   9.639 -0.2395 -1.1321  0.6106
  588TMC3    H1 8775   1.082   1.811   9.854 -0.1852  0.6450 -1.8254
  588TMC3    H2 8776   1.003   1.420  10.011 -1.1010  0.4497  1.7895
  588TMC3    C7 8777   1.076   1.668  10.086 -0.0959  0.2793  0.3065
  588TMC3    C8 8778   0.865   1.344   9.795 -0.8698  0.0305  0.6272
  588TMC3    O1 8779   1.069   1.584  10.168  0.7430  0.5401 -0.5782
  588TMC3    O2 8780   0.846   1.324   9.677  0.7852 -0.5968  0.1176
  589TMC3    C1 8781   0.385   3.882   0.849  0.3549  0.0017 -0.1767
  589TMC3    C2 8782   0.511   3.924   0.857  0.3404  0.5286 -0.9784
  589TMC3    C3 8783   0.605   3.842   0.804  0.2240  0.0740  0.1446
  589TMC3    C4 8784   0.361   3.752   0.821  0.0963  0.0661 -1.0639
  589TMC3    C5 8785   0.458   3.672   0.763 -0.8699  0.0647  0.6673
  589TMC3    C6 8786   0.588   3.716   0.755  0.0150 -0.1667 -0.0859
  589TMC3     C 8787   0.271   3.960   0.902  0.2736  0.9272 -0.1350
  589TMC3     O 8788   0.159   3.909   0.898  0.1920  0.0077  0.0900
  589TMC3     H 8789   0.537   4.009   0.919 -0.0316 -0.2429  0.2289
  589TMC3    H1 8790   0.257   3.725   0.821 -0.1272  0.9363  1.4675
  589TMC3    H2 8791   0.658   3.647   0.709 -0.1121  0.2179 -0.8679
  589TMC3    C7 8792   0.448   3.524   0.739 -0.6046 -0.3729  0.5789
  589TMC3    C8 8793   0.737   3.866   0.859 -0.8580 -0.7283  0.5145
  589TMC3    O1 8794   0.552   3.457   0.725 -0.0646  0.4559  0.0235
  589TMC3    O2 8795   0.757   3.976   0.908 -0.5175  0.0099  0.3367
  590MPD2     C 8796   4.229   2.622  16.747  0.0654 -0.3528 -0.2184
  590MPD2    C1 8797   4.169   2.715  16.664  0.1903  1.0524  0.2803
  590MPD2    C2 8798   4.256   2.801  16.598 -0.3435 -0.1496  0.5375
  590MPD2    C3 8799   4.394   2.795  16.610 -0.5710 -0.9897  0.6860
  590MPD2    C4 8800   4.456   2.701  16.688 -0.2066  0.0576  0.3294
  590MPD2    C5 8801   4.370   2.615  16.754 -0.3089  0.8036 -0.4289
  590MPD2     H 8802   4.213   2.879  16.537  1.7795 -2.0637 -3.3849
  590MPD2    H1 8803   4.563   2.685  16.693 -0.3254 -0.7672  0.2878
  590MPD2    H2 8804   4.171   2.560  16.814 -1.1737  1.7353  0.6626
  590MPD2    H3 8805   4.411   2.555  16.835 -0.5609  1.3558  0.1091
  590MPD2     N 8806   4.462   2.879  16.530  0.5818 -0.5089  0.9145
  590MPD2    H5 8807   4.416   2.954  16.479  2.4384  0.4935  0.6807
  590MPD2    N1 8808   4.032   2.716  16.649  0.2249 -0.2359 -0.0504
  590MPD2    H7 8809   3.968   2.659  16.705 -0.0427 -3.1528 -3.3346
  591TMC3    C1 8810   4.628   2.947  16.388  0.4611 -0.2544 -0.2580
  591TMC3    C2 8811   4.679   2.898  16.270  0.0447  0.4992 -0.3485
  591TMC3    C3 8812   4.643   2.973  16.161 -0.1590 -0.4656  0.5829
  591TMC3    C4 8813   4.561   3.070  16.394  0.1240  0.4794 -0.8488
  591TMC3    C5 8814   4.527   3.136  16.281 -0.4674 -0.8073 -0.5360
  591TMC3    C6 8815   4.561   3.083  16.162  0.1598  0.2090  0.6313
  591TMC3     C 8816   4.594   2.850  16.492  0.2211 -0.3166 -0.3193
  591TMC3     O 8817   4.649   2.743  16.483  0.6229 -0.5112 -0.4025
  591TMC3     H 8818   4.728   2.801  16.266  0.0666  0.4176  1.7937
  591TMC3    H1 8819   4.516   3.108  16.485  0.7240 -2.2318  0.6149
  591TMC3    H2 8820   4.531   3.133  16.070  0.5408  0.5822  0.7114
  591TMC3    C7 8821   4.417   3.222  16.282  0.4080  0.3877  0.1377
  591TMC3    C8 8822   4.675   2.913  16.037 -0.0282 -0.2341 -0.0311
  591TMC3    O1 8823   4.325   3.202  16.355  0.0273 -0.5899  0.4162
  591TMC3    O2 8824   4.683   2.791  16.033 -0.0887 -0.1374 -0.3232
  592MPD2     C 8825   4.419   4.109  11.394  0.2130 -0.7732 -0.5772
  592MPD2    C1 8826   4.436   4.182  11.512 -0.3823 -0.1852 -0.4897
  592MPD2    C2 8827   4.410   4.103  11.628 -0.2589  0.3226  0.0768
  592MPD2    C3 8828   4.377   3.967  11.625 -0.3939 -0.0907 -0.1037
  592MPD2    C4 8829   4.374   3.898  11.504  0.2775 -0.2573  0.6680
  592MPD2    C5 8830   4.411   3.968  11.391 -0.2715 -0.5139 -0.0012
  592MPD2     H 8831   4.414   4.152  11.725  1.0208  0.0029  0.1820
  592MPD2    H1 8832   4.361   3.790  11.501 -0.0386 -0.2385  1.4299
  592MPD2    H2 8833   4.454   4.155  11.303  0.7378 -0.0027  0.0111
  592MPD2    H3 8834   4.401   3.909  11.302 -0.2872 -0.1401 -0.2480
  592MPD2     N 8835   4.356   3.913  11.752  0.3522  0.3834 -0.3384
  592MPD2    H5 8836   4.350   3.980  11.829 -1.3851 -0.4018  0.2083
  592MPD2    N1 8837   4.470   4.319  11.510 -0.2665  0.2204 -0.4737
  592MPD2    H7 8838   4.468   4.369  11.421  0.5746 -1.7071 -1.5658
  593TMC3    C1 8839   4.520   4.538  11.598 -0.6662  0.3835 -0.0521
  593TMC3    C2 8840   4.521   4.618  11.710 -0.2796 -0.1046 -0.4847
  593TMC3    C3 8841   4.546   0.014  11.687 -0.0729 -0.6069 -0.0774
  593TMC3    C4 8842   4.573   4.585  11.476  1.0382 -0.0170  0.1752
  593TMC3    C5 8843   4.604   4.718  11.464 -0.0451  0.3670  0.0975
  593TMC3    C6 8844   4.586   0.064  11.571 -1.0573  0.6503 -0.3252
  593TMC3     C 8845   4.512   4.394  11.622 -0.6363 -0.1191 -0.2260
  593TMC3     O 8846   4.534   4.363  11.738 -0.0352  0.0277 -0.5406
  593TMC3     H 8847   4.490   4.577  11.805  0.1018 -1.2590 -0.8625
  593TMC3    H1 8848   4.579   4.513  11.395  1.0651  1.1090 -0.8207
  593TMC3    H2 8849   4.605   0.171  11.568  1.7268  0.2439  2.4308
  593TMC3    C7 8850   4.643   0.046  11.342 -0.1471 -0.6864 -0.2674
  593TMC3    C8 8851   4.551   0.100  11.804 -0.1258 -0.1085  0.3927
  593TMC3    O1 8852   4.685   0.162  11.357  0.2648  0.3222  0.1868
  593TMC3    O2 8853   4.478   0.091  11.899  0.0747 -0.6804  0.2133
  594MPD2     C 8854   3.783   3.662  13.968 -0.6483 -0.1601 -0.1320
  594MPD2    C1 8855   3.759   3.662  14.102  0.1954  0.1543  0.3973
  594MPD2    C2 8856   3.825   3.749  14.181  0.4560 -0.4872  0.0254
  594MPD2    C3 8857   3.924   3.830  14.132  0.4009 -0.2175 -0.2284
  594MPD2    C4 8858   3.960   3.828  13.997  0.3810  0.4955 -0.1275
  594MPD2    C5 8859   3.886   3.739  13.924 -0.5429 -0.3095  0.1429
  594MPD2     H 8860   3.799   3.754  14.286 -0.7398  1.3648 -0.3709
  594MPD2    H1 8861   4.026   3.905  13.961  0.9916  0.2917  0.5714
  594MPD2    H2 8862   3.747   3.591  13.895  1.8955 -0.0882 -1.4585
  594MPD2    H3 8863   3.901   3.746  13.817  0.2798  0.6242  0.3208
  594MPD2     N 8864   3.972   3.923  14.229  0.4836  0.0099 -0.2124
  594MPD2    H5 8865   3.924   3.939  14.317  2.2163 -1.3760  0.9904
  594MPD2    N1 8866   3.660   3.571  14.143 -0.2511 -0.0335 -0.5945
  594MPD2    H7 8867   3.620   3.508  14.074  0.6033  0.1738 -1.2760
  595TMC3    C1 8868   4.222   4.243  14.462  0.5108 -0.4273 -0.7628
  595TMC3    C2 8869   4.206   4.175  14.340  0.1620  0.1618  0.1552
  595TMC3    C3 8870   4.088   4.105  14.327 -1.0843  0.5247 -1.1694
  595TMC3    C4 8871   4.120   4.257  14.552  1.2801 -0.0725  0.1021
  595TMC3    C5 8872   4.004   4.191  14.527 -0.3580  0.2193  0.5045
  595TMC3    C6 8873   3.986   4.115  14.420  0.6067  0.3593  0.1559
  595TMC3     C 8874   4.340   4.327  14.484  0.0677 -0.0657  0.4757
  595TMC3     O 8875   4.365   4.357  14.603 -0.4588 -0.1629 -0.1971
  595TMC3     H 8876   4.287   4.169  14.268  0.4620  0.8130  0.4326
  595TMC3    H1 8877   4.134   4.308  14.646  0.2189  0.6282 -0.1139
  595TMC3    H2 8878   3.886   4.078  14.395  1.5318 -1.2148 -1.2617
  595TMC3    C7 8879   3.886   4.209  14.602 -0.6717 -0.1100  0.8063
  595TMC3    C8 8880   4.072   4.002  14.212  1.3324  0.1698  0.4847
  595TMC3    O1 8881   3.783   4.174  14.544 -0.1305 -0.4113  0.3524
  595TMC3    O2 8882   4.150   4.013  14.118 -0.2180  0.1145 -0.2570
  596MPD2     C 8883   2.652   1.971  16.574  0.4263 -0.1543 -0.4651
  596MPD2    C1 8884   2.636   2.078  16.486  0.7772 -0.2421  1.4190
  596MPD2    C2 8885   2.633   2.057  16.348 -0.1790 -0.5180 -0.3719
  596MPD2    C3 8886   2.644   1.927  16.290  0.4382 -0.5157  0.4414
  596MPD2    C4 8887   2.655   1.823  16.376  0.4528 -0.6382  0.5069
  596MPD2    C5 8888   2.669   1.850  16.513  0.0082  0.6265 -0.7085
  596MPD2     H 8889   2.628   2.140  16.278  0.1955 -0.6219 -0.5188
  596MPD2    H1 8890   2.662   1.721  16.339  2.5429 -0.5728  0.7295
  596MPD2    H2 8891   2.661   1.985  16.681  0.5941  0.6484 -0.5826
  596MPD2    H3 8892   2.683   1.766  16.580 -0.7698  0.3726 -0.8618
  596MPD2     N 8893   2.636   1.899  16.152 -0.6400 -0.3699  0.1225
  596MPD2    H5 8894   2.628   1.801  16.128 -0.2550 -0.1933 -0.7231
  596MPD2    N1 8895   2.620   2.204  16.551 -0.3261 -0.1293  0.8346
  596MPD2    H7 8896   2.612   2.279  16.483  1.8656  0.1762  0.9028
  597TMC3    C1 8897   2.559   2.369  16.708  0.3181  0.2268  0.8060
  597TMC3    C2 8898   2.614   2.459  16.627  0.0278 -0.1570  0.0920
  597TMC3    C3 8899   2.549   2.583  16.639 -0.0282  0.7678  0.5429
  597TMC3    C4 8900   2.446   2.382  16.787 -0.5440 -0.2458  0.4622
  597TMC3    C5 8901   2.389   2.508  16.787  0.3093  0.3728  1.1967
  597TMC3    C6 8902   2.434   2.618  16.713 -0.0207 -0.1409 -0.6874
  597TMC3     C 8903   2.585   2.233  16.682 -0.5163  0.3617  0.4663
  597TMC3     O 8904   2.570   2.156  16.776 -0.4421  0.3644  0.4408
  597TMC3     H 8905   2.700   2.436  16.566  0.3466  1.1465  0.0457
  597TMC3    H1 8906   2.417   2.294  16.843 -0.9603  0.1951  0.9283
  597TMC3    H2 8907   2.404   2.720  16.732 -0.6916 -1.2531  4.1154
  597TMC3    C7 8908   2.291   2.526  16.888  0.2958 -1.1223 -0.1585
  597TMC3    C8 8909   2.603   2.692  16.572  0.0585 -0.4624 -0.2076
  597TMC3    O1 8910   2.272   2.429  16.958 -0.2823 -0.2877  0.5063
  597TMC3    O2 8911   2.530   2.786  16.546 -0.3130 -0.1803 -0.3985
  598TMC3    C1 8912   0.920   3.395  15.741 -0.2199 -0.0144  0.7389
  598TMC3    C2 8913   0.902   3.269  15.786  0.3936  0.6984 -0.2040
  598TMC3    C3 8914   0.829   3.185  15.707 -0.2784 -0.4997 -0.2333
  598TMC3    C4 8915   0.871   3.445  15.620 -0.2623 -0.1075  1.1020
  598TMC3    C5 8916   0.808   3.356  15.540 -0.2302 -0.2892  0.5635
  598TMC3    C6 8917   0.780   3.224  15.584 -0.8108  0.3593  0.4109
  598TMC3     C 8918   1.001   3.479  15.818 -0.0348  0.8752 -0.0260
  598TMC3     O 8919   0.976   3.600  15.804 -0.3713  0.1924 -0.2824
  598TMC3     H 8920   0.950   3.230  15.875  3.0850  0.2602 -1.8481
  598TMC3    H1 8921   0.883   3.549  15.592 -0.2672 -1.2849 -3.4214
  598TMC3    H2 8922   0.729   3.161  15.512 -0.2493  0.2296  0.1328
  598TMC3    C7 8923   0.797   3.381  15.395 -0.3753 -0.1771  0.3034
  598TMC3    C8 8924   0.780   3.069  15.772  0.4176 -0.3256 -0.4742
  598TMC3    O1 8925   0.796   3.282  15.327 -0.4430  0.3558 -0.2891
  598TMC3    O2 8926   0.827   3.058  15.882  0.4133 -0.3426 -0.5552
  599MPD2     C 8927   0.705   1.127  15.429 -0.6688 -0.5876 -0.4613
  599MPD2    C1 8928   0.682   0.989  15.462 -0.1655 -0.1634  0.0889
  599MPD2    C2 8929   0.563   0.959  15.538  0.1219  0.3715 -0.7823
  599MPD2    C3 8930   0.481   1.062  15.592  0.0640  0.3600 -0.1831
  599MPD2    C4 8931   0.522   1.192  15.572 -0.0843 -0.5197 -0.4722
  599MPD2    C5 8932   0.628   1.222  15.487  0.3938 -0.9899  0.1109
  599MPD2     H 8933   0.534   0.856  15.554  2.3407  0.2451  2.4346
  599MPD2    H1 8934   0.474   1.277  15.619  1.5704  1.1635 -1.7738
  599MPD2    H2 8935   0.782   1.158  15.359  0.4041  0.4758  1.1852
  599MPD2    H3 8936   0.648   1.326  15.463 -0.3799 -0.0531  3.4482
  599MPD2     N 8937   0.373   1.044  15.679  0.0425  0.0501 -0.7921
  599MPD2    H5 8938   0.329   1.126  15.720  0.1631 -1.6550  2.7185
  599MPD2    N1 8939   0.773   0.888  15.415  0.3783 -0.7679  0.0202
  599MPD2    H7 8940   0.859   0.921  15.372  2.1961 -1.0805  3.3716
  600TMC3    C1 8941   0.221   0.936  15.824 -0.0050 -1.2043  0.0807
  600TMC3    C2 8942   0.142   0.830  15.836  0.3096  0.7557 -0.8407
  600TMC3    C3 8943   0.031   0.859  15.910  0.1487 -0.6617 -0.4778
  600TMC3    C4 8944   0.216   1.053  15.900 -0.4916  0.1088 -0.3091
  600TMC3    C5 8945   0.111   1.073  15.977 -1.2382 -0.4533  0.1778
  600TMC3    C6 8946   0.010   0.977  15.977 -0.2083  0.4202 -0.6297
  600TMC3     C 8947   0.317   0.923  15.711  0.1567 -0.8596 -0.0894
  600TMC3     O 8948   0.346   0.813  15.663 -0.0993  0.1151 -0.4546
  600TMC3     H 8949   0.163   0.737  15.785 -0.8411  0.0722 -0.0711
  600TMC3    H1 8950   0.307   1.111  15.908 -1.2772  1.2254  0.6080
  600TMC3    H2 8951   4.665   0.989  16.048 -0.2179 -0.4984 -0.4786
  600TMC3    C7 8952   0.090   1.191  16.046 -0.1866 -0.6454 -0.0368
  600TMC3    C8 8953   4.709   0.744  15.976 -0.0997 -0.2914 -0.9112
  600TMC3    O1 8954   4.734   1.202  16.129 -0.0313 -0.4050 -0.5372
  600TMC3    O2 8955   0.047   0.646  15.977 -0.2256  0.1412  0.0590
  601MPD2     C 8956   2.924   4.208   0.196 -0.2944  0.0336  0.1101
  601MPD2    C1 8957   2.802   4.151   0.155 -0.0480  0.6459  0.0067
  601MPD2    C2 8958   2.792   4.011   0.148 -0.0611  0.2609 -0.4566
  601MPD2    C3 8959   2.907   3.928   0.168  0.3879  0.3545 -0.3166
  601MPD2    C4 8960   3.023   3.989   0.182  0.2578  0.2512  0.2787
  601MPD2    C5 8961   3.035   4.124   0.195  0.3715 -0.0657 -0.4634
  601MPD2     H 8962   2.691   3.973   0.134  1.1970 -2.7411 -1.3152
  601MPD2    H1 8963   3.115   3.931   0.181 -0.3376 -0.7138  2.1387
  601MPD2    H2 8964   2.932   4.314   0.214  0.3772 -0.1800  1.0500
  601MPD2    H3 8965   3.129   4.166   0.230  0.5948 -0.5581 -0.4765
  601MPD2     N 8966   2.912   3.781   0.177  0.1412  0.2682 -0.2008
  601MPD2    H5 8967   3.006   3.746   0.193  0.0397  0.7494  1.4795
  601MPD2    N1 8968   2.680   4.222   0.137  0.0754  0.1760  0.0270
  601MPD2    H7 8969   2.600   4.174   0.097  0.6814 -1.0880  0.3328
  602TMC3    C1 8970   2.547   4.419   0.136 -0.7559  0.4051 -0.0199
  602TMC3    C2 8971   2.566   4.552   0.112  0.0023 -0.2845 -0.0910
  602TMC3    C3 8972   2.469   4.623   0.049  0.4404  0.1395 -0.1088
  602TMC3    C4 8973   2.441   4.345   0.090 -0.3944  0.0459 -0.1389
  602TMC3    C5 8974   2.335   4.425   0.047 -0.0189 -0.0012  0.5610
  602TMC3    C6 8975   2.351   4.559   0.010  0.4207  0.7036 -0.1373
  602TMC3     C 8976   2.668   4.352   0.182 -0.0754  0.0323 -0.1012
  602TMC3     O 8977   2.743   4.429   0.244 -0.2979  0.3941 -0.0050
  602TMC3     H 8978   2.655   4.612   0.125 -0.3161  0.1726  0.0052
  602TMC3    H1 8979   2.428   4.238   0.104 -0.8343  0.3797  1.9841
  602TMC3    H2 8980   2.267   4.604  17.704  1.3509  1.3035 -1.1284
  602TMC3    C7 8981   2.229   4.361  17.725 -0.0256  0.0769 -0.0560
  602TMC3    C8 8982   2.512   0.003  17.723  0.2019  0.1628  0.0320
  602TMC3    O1 8983   2.138   4.322   0.054 -0.0474  0.3322  0.4604
  602TMC3    O2 8984   2.597   0.086   0.013 -0.1998  0.0071 -0.3026
  603TMC3    C1 8985   0.507   3.746  11.008  0.0437 -0.6309 -0.5350
  603TMC3    C2 8986   0.542   3.726  11.137  0.1758  0.1247 -0.1367
  603TMC3    C3 8987   0.562   3.836  11.212  0.4125 -0.2956  0.7776
  603TMC3    C4 8988   0.496   3.865  10.943 -0.3260 -0.3007  1.1129
  603TMC3    C5 8989   0.509   3.975  11.024  0.1776  0.0658 -0.0630
  603TMC3    C6 8990   0.552   3.961  11.150 -0.3886 -0.7370  0.4945
  603TMC3     C 8991   0.477   3.627  10.947 -0.8016  0.6616 -0.4801
  603TMC3     O 8992   0.445   3.537  11.017  0.1414  0.4295 -0.7053
  603TMC3     H 8993   0.565   3.627  11.173 -0.0692 -0.0613 -0.4890
  603TMC3    H1 8994   0.464   3.870  10.840 -0.9520  0.8968  1.3746
  603TMC3    H2 8995   0.544   4.049  11.213  1.4679  0.9198 -1.5767
  603TMC3    C7 8996   0.526   4.102  10.962 -0.2250 -0.0623  0.4286
  603TMC3    C8 8997   0.600   3.821  11.347 -0.2214  0.4879  0.5057
  603TMC3    O1 8998   0.589   4.192  11.021  0.5957 -0.0945  0.3039
  603TMC3    O2 8999   0.602   3.708  11.390 -0.7240 -0.1442 -0.1186
  604MPD2     C 9000   2.093   3.435  16.365 -0.2423  0.0317 -0.0051
  604MPD2    C1 9001   1.961   3.382  16.359  0.1946  0.0691 -0.2196
  604MPD2    C2 9002   1.941   3.311  16.247 -0.1654  0.3238  0.1769
  604MPD2    C3 9003   2.041   3.304  16.150  0.1585  0.1425  0.1324
  604MPD2    C4 9004   2.162   3.368  16.161 -0.2556 -0.0670  0.2865
  604MPD2    C5 9005   2.193   3.428  16.276  0.4388 -0.7673  0.7261
  604MPD2     H 9006   1.844   3.270  16.223  0.1126  0.6766 -1.4985
  604MPD2    H1 9007   2.241   3.377  16.087  1.1551  1.8174  2.0375
  604MPD2    H2 9008   2.117   3.500  16.448 -1.6137 -1.4473  1.5515
  604MPD2    H3 9009   2.287   3.482  16.289 -0.6135  0.7078  2.1479
  604MPD2     N 9010   2.010   3.242  16.028 -0.7067  0.0408  0.1356
  604MPD2    H5 9011   1.914   3.208  16.021  0.4045 -3.2218  0.6011
  604MPD2    N1 9012   1.858   3.423  16.451 -0.5037 -0.3032 -0.0412
  604MPD2    H7 9013   1.885   3.500  16.512 -1.0757  1.3089 -1.8260
  605TMC3    C1 9014   1.652   3.448  16.546 -0.4956 -0.2669  0.1404
  605TMC3    C2 9015   1.710   3.519  16.653 -0.5633  0.1872 -0.4572
  605TMC3    C3 9016   1.625   3.579  16.741  0.2048 -0.3005 -0.1308
  605TMC3    C4 9017   1.520   3.454  16.524 -0.0471 -0.1420  0.8565
  605TMC3    C5 9018   1.443   3.532  16.610 -1.0113 -0.2364  0.7938
  605TMC3    C6 9019   1.489   3.588  16.725  0.2762 -0.2519  0.9414
  605TMC3     C 9020   1.732   3.380  16.447 -0.0006 -0.1441 -0.6288
  605TMC3     O 9021   1.674   3.280  16.403 -0.3862  0.3893  0.2008
  605TMC3     H 9022   1.817   3.529  16.670 -0.9058  0.8271  1.2993
  605TMC3    H1 9023   1.478   3.403  16.437 -1.5070  0.7764  1.0255
  605TMC3    H2 9024   1.417   3.640  16.787  1.2210  2.6990 -0.3949
  605TMC3    C7 9025   1.300   3.550  16.578 -0.2263  0.4897  0.1845
  605TMC3    C8 9026   1.677   3.659  16.845  0.1002  0.4012  0.9726
  605TMC3    O1 9027   1.249   3.664  16.584  0.3548  0.2787  0.2279
  605TMC3    O2 9028   1.599   3.685  16.936  0.0608 -0.2473  0.0914
  606TMC3    C1 9029   2.473   2.209  17.225 -0.8411 -0.4264 -0.0369
  606TMC3    C2 9030   2.467   2.194  17.359  0.3348  0.3831 -0.1776
  606TMC3    C3 9031   2.492   2.066  17.413  0.0564  0.4802  0.4213
  606TMC3    C4 9032   2.517   2.112  17.144  0.7410 -0.1363  0.4833
  606TMC3    C5 9033   2.549   1.988  17.200 -0.3051 -0.7081  0.0264
  606TMC3    C6 9034   2.532   1.968  17.331 -0.5568 -0.0261  0.1806
  606TMC3     C 9035   2.505   2.353  17.187 -0.3620 -0.2493  0.0117
  606TMC3     O 9036   2.461   2.444  17.259  0.3533 -0.0448 -0.2031
  606TMC3     H 9037   2.439   2.276  17.424 -2.0414 -0.6307  0.0639
  606TMC3    H1 9038   2.520   2.135  17.038  1.9097 -1.6671  0.1846
  606TMC3    H2 9039   2.538   1.874  17.385 -1.8038 -0.5458 -0.5916
  606TMC3    C7 9040   2.576   1.879  17.107  0.3928  0.3988  0.1149
  606TMC3    C8 9041   2.545   2.078  17.545  0.4153  0.2147  0.3024
  606TMC3    O1 9042   2.598   1.911  16.991  0.1017  0.2162  0.3993
  606TMC3    O2 9043   2.485   2.149  17.621 -0.2587  0.0957  0.3468
  607MPD2     C 9044   4.670   3.634  11.953 -0.8355 -0.0125  0.6681
  607MPD2    C1 9045   4.656   3.751  12.031 -0.6105 -0.7474  0.9190
  607MPD2    C2 9046   4.600   3.735  12.157 -0.7600  0.3496 -0.3313
  607MPD2    C3 9047   4.567   3.615  12.214  0.3680 -0.9014  0.4381
  607MPD2    C4 9048   4.563   3.510  12.128  0.2477  0.0016 -0.3015
  607MPD2    C5 9049   4.625   3.519  12.004  0.1831 -0.3108 -0.7191
  607MPD2     H 9050   4.626   3.818  12.221  0.1816 -0.4332  0.3030
  607MPD2    H1 9051   4.527   3.412  12.158  0.3610  0.2741  0.7245
  607MPD2    H2 9052   4.733   3.644  11.865 -2.4055 -1.0258 -0.5440
  607MPD2    H3 9053   4.644   3.430  11.945  2.0085 -1.0562  0.9849
  607MPD2     N 9054   4.523   3.619  12.348 -0.3932 -0.6206  0.7745
  607MPD2    H5 9055   4.542   3.705  12.399 -2.1613  0.6204 -0.6563
  607MPD2    N1 9056   4.702   3.880  11.991  0.5016  0.2229  0.1358
  607MPD2    H7 9057   4.690   3.962  12.049 -2.1387  0.3737 -0.6359
  608TMC3    C1 9058   0.075   4.039  11.877 -0.2262  0.7731  0.2401
  608TMC3    C2 9059   0.139   4.080  11.996  0.1131  0.4772  0.0188
  608TMC3    C3 9060   0.171   4.214  12.019 -0.9050 -0.6732 -0.2740
  608TMC3    C4 9061   0.058   4.132  11.776 -0.1808  1.3354  0.2118
  608TMC3    C5 9062   0.082   4.259  11.808  0.0017 -0.7510 -0.4216
  608TMC3    C6 9063   0.140   4.306  11.921  0.3246 -0.2573 -0.1511
  608TMC3     C 9064   0.029   3.900  11.876  0.7461  0.5237  0.2694
  608TMC3     O 9065   0.005   3.849  11.769  0.2841  0.4209  0.1515
  608TMC3     H 9066   0.162   4.002  12.067 -1.4830 -0.3458 -0.3558
  608TMC3    H1 9067   0.018   4.094  11.682  1.3992  0.0996  0.0460
  608TMC3    H2 9068   0.156   4.411  11.942 -3.2990  0.7749 -2.4658
  608TMC3    C7 9069   0.092   4.336  11.689  0.5787  0.2195  0.3533
  608TMC3    C8 9070   0.182   4.261  12.157  0.0121 -0.1408  0.0924
  608TMC3    O1 9071   0.096   4.273  11.587  0.4580  0.0471  0.3274
  608TMC3    O2 9072   0.232   4.371  12.181 -0.3798  0.7481 -0.1428
  609TMC3    C1 9073   3.500   3.716   9.218  0.1390 -0.2341 -0.3913
  609TMC3    C2 9074   3.524   3.794   9.109  0.3459 -0.6158 -0.0044
  609TMC3    C3 9075   3.649   3.790   9.060 -0.0997 -0.0911 -0.6927
  609TMC3    C4 9076   3.590   3.630   9.274 -0.4903  0.2816 -0.7537
  609TMC3    C5 9077   3.711   3.625   9.212  0.0106 -0.2801  0.3852
  609TMC3    C6 9078   3.744   3.708   9.110 -0.3927 -0.7501  0.5313
  609TMC3     C 9079   3.379   3.731   9.304  0.0978  0.1399  0.1266
  609TMC3     O 9080   3.350   3.639   9.376  0.1040 -0.4106 -0.1983
  609TMC3     H 9081   3.450   3.868   9.078  0.3388  0.4333  2.5854
  609TMC3    H1 9082   3.569   3.572   9.364 -1.0744  1.6796  0.0108
  609TMC3    H2 9083   3.839   3.687   9.061 -0.3223 -1.3258  0.9137
  609TMC3    C7 9084   3.821   3.550   9.268  0.7136 -0.2393  0.0252
  609TMC3    C8 9085   3.683   3.857   8.935 -0.5253  0.5375 -0.5689
  609TMC3    O1 9086   3.932   3.596   9.256 -0.4366 -0.0572 -0.6562
  609TMC3    O2 9087   3.782   3.813   8.875  0.2794  0.6290 -0.3761
  610TMC3    C1 9088   0.567   4.277  12.664 -0.5760 -0.0839 -0.2093
  610TMC3    C2 9089   0.544   4.222  12.543  0.3931 -1.2024  0.0418
  610TMC3    C3 9090   0.530   4.088  12.546 -0.6166  0.5978  0.2376
  610TMC3    C4 9091   0.582   4.208  12.784 -0.0621 -0.6482 -0.5011
  610TMC3    C5 9092   0.570   4.073  12.782  0.1450  0.7406  0.5328
  610TMC3    C6 9093   0.533   4.009  12.665  0.1423  0.0695 -0.1049
  610TMC3     C 9094   0.547   4.419  12.672 -1.0832  0.0085  0.2327
  610TMC3     O 9095   0.536   4.473  12.565  0.2421  0.0125  0.1189
  610TMC3     H 9096   0.536   4.284  12.454 -2.5920 -2.0665 -0.3277
  610TMC3    H1 9097   0.596   4.253  12.881  0.1211 -0.5160 -0.5886
  610TMC3    H2 9098   0.510   3.903  12.667 -0.4545  0.2051  0.3683
  610TMC3    C7 9099   0.614   3.984  12.889 -0.4356  0.7338  0.0649
  610TMC3    C8 9100   0.513   4.023  12.416 -0.2957  0.4556  0.3402
  610TMC3    O1 9101   0.641   3.869  12.860 -0.0284  0.0368 -0.2703
  610TMC3    O2 9102   0.523   4.099  12.321  0.3735 -0.0090 -0.1270
  611MPD2     C 9103   4.302   3.821  10.377  0.2806  0.5444 -0.4575
  611MPD2    C1 9104   4.265   3.931  10.297 -0.0158  0.1694  0.6444
  611MPD2    C2 9105   4.365   4.027  10.268 -0.8963  0.7766 -0.5230
  611MPD2    C3 9106   4.499   4.008  10.305 -0.7327  0.1301  0.0938
  611MPD2    C4 9107   4.535   3.895  10.375  0.1505 -0.5111  0.6381
  611MPD2    C5 9108   4.437   3.800  10.408 -0.0477 -0.3370  0.7359
  611MPD2     H 9109   4.339   4.123  10.225 -0.3545  1.9273  1.7075
  611MPD2    H1 9110   4.638   3.865  10.394  0.5049 -0.0537 -0.5854
  611MPD2    H2 9111   4.229   3.749  10.411  1.6545 -0.9895 -0.7232
  611MPD2    H3 9112   4.474   3.713  10.460 -1.0056  0.1565  2.2464
  611MPD2     N 9113   4.598   4.095  10.258 -0.4128  0.2563 -0.7533
  611MPD2    H5 9114   4.696   4.076  10.273 -0.6248 -1.7909 -2.0466
  611MPD2    N1 9115   4.124   3.953  10.282 -0.0766 -0.5707  0.4493
  611MPD2    H7 9116   4.058   3.896  10.333  0.7192 -0.4640  1.6053
  612TMC3    C1 9117   4.689   4.287  10.164  0.4454  0.2488 -0.3012
  612TMC3    C2 9118   0.045   4.289  10.259  0.4982  0.2095  0.8679
  612TMC3    C3 9119   0.156   4.373  10.245 -0.7552 -0.4628 -0.6109
  612TMC3    C4 9120   4.682   4.377  10.060  0.3321  0.6923  0.3051
  612TMC3    C5 9121   0.045   4.470  10.060 -0.5247  0.1549 -0.2587
  612TMC3    C6 9122   0.152   4.470  10.150  0.5109 -0.0202 -0.4313
  612TMC3     C 9123   4.577   4.201  10.174 -0.3773 -0.2000  0.0130
  612TMC3     O 9124   4.474   4.230  10.115  0.3730  0.1202 -0.1882
  612TMC3     H 9125   0.037   4.237  10.353 -0.3757  2.2172  1.9013
  612TMC3    H1 9126   4.606   4.373   9.983 -0.9901  0.5457  1.6168
  612TMC3    H2 9127   0.238   4.536  10.139 -2.0000  3.4483  0.8263
  612TMC3    C7 9128   0.025   4.585   9.970 -0.5333  0.1186  0.5083
  612TMC3    C8 9129   0.265   4.376  10.342 -0.3392  0.2014 -0.3288
  612TMC3    O1 9130   4.649   4.602   9.925  0.1431  0.0725  0.2429
  612TMC3    O2 9131   0.356   4.452  10.320 -0.1306 -0.3574  0.0330
  613MPD2     C 9132   3.999   1.995  16.466  0.1034  0.4954 -0.1162
  613MPD2    C1 9133   4.025   1.908  16.363 -0.5117 -0.8178  0.7200
  613MPD2    C2 9134   3.966   1.786  16.371 -0.3502  0.4512  0.4490
  613MPD2    C3 9135   3.883   1.745  16.473 -0.6052 -0.3158 -0.1537
  613MPD2    C4 9136   3.868   1.822  16.578 -0.1315  0.1199 -0.0466
  613MPD2    C5 9137   3.934   1.949  16.580 -0.0181  0.2663  0.5188
  613MPD2     H 9138   3.980   1.712  16.294  1.6082  1.2548  0.0411
  613MPD2    H1 9139   3.819   1.789  16.669  0.2292 -1.0865 -0.2951
  613MPD2    H2 9140   4.031   2.098  16.460 -0.9775  0.9015  1.2220
  613MPD2    H3 9141   3.910   2.017  16.660 -0.4607  2.0047 -1.1037
  613MPD2     N 9142   3.841   1.609  16.477 -0.0392  0.2930  0.7728
  613MPD2    H5 9143   3.896   1.554  16.411  1.0917  0.2168  1.7818
  613MPD2    N1 9144   4.102   1.950  16.250 -0.0934 -0.4466 -0.3059
  613MPD2    H7 9145   4.131   2.048  16.249 -2.6892  0.3403  0.6039
  614TMC3    C1 9146   4.192   1.952  16.039 -0.2533 -0.8548  0.0123
  614TMC3    C2 9147   4.240   1.864  15.953  0.3432  0.1487  0.3586
  614TMC3    C3 9148   4.177   1.857  15.832 -0.3333  0.1202  0.2861
  614TMC3    C4 9149   4.095   2.047  16.006  0.3202 -0.2625  0.3830
  614TMC3    C5 9150   4.041   2.042  15.880  0.1464  0.4679  0.1845
  614TMC3    C6 9151   4.083   1.948  15.793 -0.1840  0.2654  0.0152
  614TMC3     C 9152   4.153   1.871  16.153  0.1036 -0.1073 -0.5681
  614TMC3     O 9153   4.154   1.751  16.145  0.0756  0.0930  0.0454
  614TMC3     H 9154   4.306   1.788  15.990  1.9975  1.3797 -0.0817
  614TMC3    H1 9155   4.051   2.117  16.076  0.0993 -0.1733  0.1576
  614TMC3    H2 9156   4.040   1.939  15.693 -1.0884  0.2661  0.4021
  614TMC3    C7 9157   3.953   2.147  15.831 -0.0838 -0.1366 -0.4203
  614TMC3    C8 9158   4.147   1.723  15.789 -0.1041  0.2480 -0.3192
  614TMC3    O1 9159   3.927   2.229  15.913  0.4515  0.0482  0.0200
  614TMC3    O2 9160   4.136   1.707  15.670 -0.2807 -0.1091 -0.6672
  615MPD2     C 9161   3.348   3.304  15.923 -0.1076  0.3604 -0.3148
  615MPD2    C1 9162   3.420   3.388  15.998 -0.0012 -0.5503 -0.1227
  615MPD2    C2 9163   3.450   3.508  15.946  0.2481  0.2670 -0.9135
  615MPD2    C3 9164   3.411   3.553  15.819  0.2589  0.1606 -0.0752
  615MPD2    C4 9165   3.327   3.469  15.752  0.1371 -0.1462 -0.5257
  615MPD2    C5 9166   3.296   3.347  15.806  0.5258 -0.1505 -0.0130
  615MPD2     H 9167   3.505   3.569  16.017 -0.8310 -0.8329  0.8597
  615MPD2    H1 9168   3.284   3.507  15.660 -0.0893 -1.5784 -1.0083
  615MPD2    H2 9169   3.321   3.203  15.951 -1.5839  0.6966 -0.5256
  615MPD2    H3 9170   3.231   3.282  15.748 -2.3648  0.4193  2.6480
  615MPD2     N 9171   3.447   3.675  15.758  0.2100  0.9210  0.2132
  615MPD2    H5 9172   3.397   3.704  15.674  0.2473  0.5119  0.0491
  615MPD2    N1 9173   3.454   3.357  16.137  0.1574  0.5771  0.5071
  615MPD2    H7 9174   3.521   3.421  16.179  1.9370 -0.9081 -0.0505
  616TMC3    C1 9175   3.435   3.260  16.349  0.0699 -0.7811  0.4899
  616TMC3    C2 9176   3.529   3.358  16.384 -0.6230  0.8481 -0.4679
  616TMC3    C3 9177   3.513   3.426  16.499  0.8061 -0.5033 -0.0831
  616TMC3    C4 9178   3.331   3.221  16.427 -0.3893 -0.5179 -0.0142
  616TMC3    C5 9179   3.317   3.304  16.539 -0.0061 -0.7252  0.4138
  616TMC3    C6 9180   3.404   3.405  16.573 -0.4050 -0.1472 -0.5914
  616TMC3     C 9181   3.419   3.242  16.206  0.0537  0.3259 -0.3759
  616TMC3     O 9182   3.349   3.146  16.173 -0.0283 -0.7133  0.4251
  616TMC3     H 9183   3.622   3.365  16.329  0.3831  0.3771  1.1687
  616TMC3    H1 9184   3.264   3.145  16.390  1.3714 -1.0364 -2.1616
  616TMC3    H2 9185   3.385   3.474  16.654 -1.7838  0.4974 -1.4758
  616TMC3    C7 9186   3.209   3.268  16.636  0.0723  0.0162 -0.2840
  616TMC3    C8 9187   3.548   3.570  16.490 -0.0299  0.6262 -0.2731
  616TMC3    O1 9188   3.215   3.325  16.747  0.9573 -0.1145 -0.2022
  616TMC3    O2 9189   3.465   3.657  16.504  0.1917  0.3684 -0.2141
  617MPD2     C 9190   1.302   1.713  13.355 -0.1482 -0.0541  0.5632
  617MPD2    C1 9191   1.367   1.651  13.458 -0.3819 -0.2226 -0.2255
  617MPD2    C2 9192   1.294   1.576  13.548  0.2267 -0.5060  0.0825
  617MPD2    C3 9193   1.159   1.549  13.527  0.3379  0.2613 -0.2161
  617MPD2    C4 9194   1.099   1.621  13.417  0.1395  0.0099  0.0205
  617MPD2    C5 9195   1.169   1.703  13.335 -0.1889 -0.4260  0.3617
  617MPD2     H 9196   1.351   1.519  13.620  1.3249  1.5204  0.8047
  617MPD2    H1 9197   0.995   1.605  13.391  0.2882 -1.0242  0.0756
  617MPD2    H2 9198   1.359   1.776  13.287 -0.4601  1.1989  1.4702
  617MPD2    H3 9199   1.124   1.760  13.255  2.9781  0.9552 -0.4382
  617MPD2     N 9200   1.073   1.466  13.603  0.1450  0.3566 -0.4273
  617MPD2    H5 9201   0.987   1.429  13.564 -0.0020  0.3222 -0.0667
  617MPD2    N1 9202   1.511   1.661  13.468 -0.6835  0.1121  0.1941
  617MPD2    H7 9203   1.556   1.726  13.404 -0.3577 -1.8171 -1.5261
  618TMC3    C1 9204   1.723   1.563  13.498  1.5259 -0.6759 -0.2179
  618TMC3    C2 9205   1.823   1.544  13.591 -0.5457 -0.2637 -0.3245
  618TMC3    C3 9206   1.924   1.462  13.552  0.7790 -0.2691  0.8623
  618TMC3    C4 9207   1.719   1.510  13.371 -0.1026 -0.0901 -0.0831
  618TMC3    C5 9208   1.826   1.430  13.338 -0.4764  0.3085  0.7963
  618TMC3    C6 9209   1.934   1.407  13.422  0.0304  0.2902  0.1143
  618TMC3     C 9210   1.593   1.589  13.549  0.4186 -0.1236  0.0712
  618TMC3     O 9211   1.572   1.536  13.658  0.0533  0.4445 -0.0538
  618TMC3     H 9212   1.808   1.583  13.691 -0.6682 -1.0636 -0.0281
  618TMC3    H1 9213   1.641   1.520  13.297 -0.3550 -0.6397  0.1022
  618TMC3    H2 9214   2.010   1.336  13.391  0.8834  1.1307  0.3139
  618TMC3    C7 9215   1.813   1.370  13.204  0.3714 -0.5804  0.1981
  618TMC3    C8 9216   2.028   1.445  13.655 -0.1642  0.5728  0.5519
  618TMC3    O1 9217   1.698   1.334  13.169  0.2437 -0.0901  0.9751
  618TMC3    O2 9218   2.031   1.529  13.747 -0.2592  0.0081  0.3905
  619MPD2     C 9219   2.598   2.452  14.072 -0.2152 -0.7067  0.1144
  619MPD2    C1 9220   2.540   2.481  13.954  0.0645  0.3600 -0.8697
  619MPD2    C2 9221   2.407   2.521  13.940 -0.2934 -0.2920  0.4033
  619MPD2    C3 9222   2.328   2.513  14.049  0.1370  0.1285 -0.2680
  619MPD2    C4 9223   2.380   2.462  14.169 -0.5495 -0.2307  0.2324
  619MPD2    C5 9224   2.514   2.443  14.184 -0.4241 -0.4542  0.2464
  619MPD2     H 9225   2.370   2.549  13.843  1.1668  2.6836  0.6901
  619MPD2    H1 9226   2.319   2.442  14.256  0.9508 -0.8475  1.1410
  619MPD2    H2 9227   2.702   2.424  14.084 -0.6772 -2.4202  0.1269
  619MPD2    H3 9228   2.557   2.409  14.278  2.1857  0.0302 -0.7663
  619MPD2     N 9229   2.197   2.542  14.053 -0.0822  0.5736 -0.3604
  619MPD2    H5 9230   2.138   2.491  14.117  1.4806 -1.3281 -0.4366
  619MPD2    N1 9231   2.618   2.485  13.832 -0.0278 -0.3284 -0.1689
  619MPD2    H7 9232   2.572   2.487  13.742  0.9390  1.0803 -0.6150
  620TMC3    C1 9233   2.790   2.458  13.682 -0.4030  0.0953  0.0309
  620TMC3    C2 9234   2.689   2.402  13.606  0.6217  0.1374  0.1805
  620TMC3    C3 9235   2.693   2.435  13.476 -0.0282  0.2448 -0.1938
  620TMC3    C4 9236   2.895   2.531  13.637 -0.0444  0.1462 -1.0403
  620TMC3    C5 9237   2.893   2.566  13.504 -0.3564  0.2665 -0.1800
  620TMC3    C6 9238   2.797   2.510  13.424 -0.5986  0.2302  0.2562
  620TMC3     C 9239   2.755   2.473  13.823  0.1998  0.7529  0.0917
  620TMC3     O 9240   2.853   2.485  13.894  0.0415  0.3785 -0.6937
  620TMC3     H 9241   2.621   2.335  13.658  0.2093 -0.0211 -0.5739
  620TMC3    H1 9242   2.959   2.586  13.704 -0.1989 -1.5740  0.5033
  620TMC3    H2 9243   2.790   2.543  13.321  0.5499 -1.8192 -0.4854
  620TMC3    C7 9244   2.914   2.710  13.491 -0.1675 -0.0359 -0.0497
  620TMC3    C8 9245   2.605   2.365  13.384  0.3673 -0.9976 -0.4483
  620TMC3    O1 9246   2.928   2.773  13.592  0.1083  0.2838  0.0524
  620TMC3    O2 9247   2.597   2.245  13.396 -1.1019 -0.3903 -0.3308
  621MPD2     C 9248   2.405   2.345  10.132 -0.2892 -0.2007  0.2979
  621MPD2    C1 9249   2.478   2.347  10.019  0.5094 -0.6101  0.1073
  621MPD2    C2 9250   2.554   2.461   9.997  0.4618 -0.1485 -1.0194
  621MPD2    C3 9251   2.562   2.570  10.077 -0.1914 -0.1521  0.6547
  621MPD2    C4 9252   2.479   2.570  10.190  0.5694  0.8174 -0.5726
  621MPD2    C5 9253   2.405   2.458  10.209  0.0149  0.0198 -0.1898
  621MPD2     H 9254   2.614   2.459   9.907 -2.0154 -0.0456 -2.6762
  621MPD2    H1 9255   2.478   2.648  10.265 -0.9156 -0.5537  0.8438
  621MPD2    H2 9256   2.334   2.265  10.151 -0.5457  0.0095  0.2311
  621MPD2    H3 9257   2.355   2.449  10.304 -0.4001  1.3807 -0.2818
  621MPD2     N 9258   2.651   2.677  10.052  0.4245  0.3570 -1.0041
  621MPD2    H5 9259   2.734   2.654   9.999  0.6208 -1.5100  0.1130
  621MPD2    N1 9260   2.462   2.254   9.913  0.1651 -0.1071 -0.1081
  621MPD2    H7 9261   2.504   2.269   9.822  0.0883  1.5491  0.1282
  622TMC3    C1 9262   2.387   2.055   9.798  0.0597 -0.1531 -0.2098
  622TMC3    C2 9263   2.296   1.955   9.805 -0.1083 -0.1753  0.1804
  622TMC3    C3 9264   2.256   1.893   9.692 -0.3620  0.6681  0.5842
  622TMC3    C4 9265   2.452   2.086   9.676  0.4413 -0.1963  0.0083
  622TMC3    C5 9266   2.413   2.012   9.573  0.2464 -0.0937  0.0935
  622TMC3    C6 9267   2.323   1.915   9.568 -0.5706 -0.2294 -0.0264
  622TMC3     C 9268   2.418   2.124   9.926  0.4000  0.3560  0.0021
  622TMC3     O 9269   2.387   2.070  10.032 -0.2071  0.0829 -0.2890
  622TMC3     H 9270   2.240   1.944   9.897 -0.9008 -1.0870 -0.4179
  622TMC3    H1 9271   2.546   2.140   9.673  0.3920 -0.0436  1.1509
  622TMC3    H2 9272   2.283   1.869   9.479  2.4884 -4.0882  0.5750
  622TMC3    C7 9273   2.436   2.067   9.435 -0.4043 -0.1208 -0.0285
  622TMC3    C8 9274   2.124   1.843   9.695 -0.6014  0.0700  0.5175
  622TMC3    O1 9275   2.398   1.995   9.342  0.0805 -0.2405 -0.0410
  622TMC3    O2 9276   2.109   1.740   9.757  0.2359 -0.3966 -0.2086
  623MPD2     C 9277   2.211   4.152  15.936  0.6424  0.4748  0.0297
  623MPD2    C1 9278   2.153   4.080  16.039 -0.0072  0.5912  0.3746
  623MPD2    C2 9279   2.166   4.125  16.167 -0.1250  0.0736 -0.0780
  623MPD2    C3 9280   2.244   4.233  16.198 -0.3822  0.8296 -0.4333
  623MPD2    C4 9281   2.307   4.301  16.098  0.3032 -0.0563  0.5663
  623MPD2    C5 9282   2.283   4.260  15.964 -0.4429  0.1695  0.3773
  623MPD2     H 9283   2.104   4.075  16.242  0.9012 -2.4354 -0.8930
  623MPD2    H1 9284   2.357   4.397  16.109 -0.4754  0.5244 -0.9547
  623MPD2    H2 9285   2.198   4.124  15.832 -0.0124  1.0338 -0.0445
  623MPD2    H3 9286   2.321   4.323  15.885 -0.7602  0.4464  0.4449
  623MPD2     N 9287   2.261   4.257  16.334 -0.3115  0.0697 -0.0740
  623MPD2    H5 9288   2.201   4.197  16.390  0.0655 -1.3062 -1.1444
  623MPD2    N1 9289   2.076   3.967  16.013 -0.3722  0.0458  0.0157
  623MPD2    H7 9290   2.064   3.942  15.915  1.1695 -0.2456 -0.1017
  624TMC3    C1 9291   2.447   4.301  16.722  0.2413 -0.5573 -0.4968
  624TMC3    C2 9292   2.336   4.240  16.784  0.0930  0.1293  0.0895
  624TMC3    C3 9293   2.218   4.242  16.711  0.0163  0.5166 -0.5268
  624TMC3    C4 9294   2.441   4.364  16.602 -0.1368  0.4638  0.3053
  624TMC3    C5 9295   2.325   4.356  16.530  0.3300 -0.0725 -0.9110
  624TMC3    C6 9296   2.217   4.294  16.585  0.1473 -0.0859  0.4010
  624TMC3     C 9297   2.572   4.237  16.737  0.0617 -0.0210 -0.0465
  624TMC3     O 9298   2.602   4.140  16.658  0.4328 -0.2035 -0.2983
  624TMC3     H 9299   2.355   4.179  16.872  1.2510  0.1060 -0.1760
  624TMC3    H1 9300   2.531   4.395  16.552  0.4907 -1.1869  0.4208
  624TMC3    H2 9301   2.122   4.304  16.533  0.8761  1.2984 -0.6320
  624TMC3    C7 9302   2.343   4.356  16.391 -0.9529  0.1346 -0.5105
  624TMC3    C8 9303   2.112   4.146  16.735 -0.3696  0.2529  0.0332
  624TMC3    O1 9304   2.425   4.428  16.332 -0.0534  0.4528  0.3993
  624TMC3    O2 9305   2.039   4.123  16.639 -0.0839 -0.6657 -0.0639
  625MPD2     C 9306   2.465   0.061   0.691 -0.2102  0.2477  0.6717
  625MPD2    C1 9307   2.491   0.199   0.705  0.2945  0.1005 -0.2218
  625MPD2    C2 9308   2.615   0.236   0.754  0.0255  0.4096  0.3019
  625MPD2    C3 9309   2.710   0.145   0.783 -0.1007 -0.0540 -0.3341
  625MPD2    C4 9310   2.678   0.017   0.766  0.2675 -0.6656  0.2106
  625MPD2    C5 9311   2.554   4.707   0.721  0.3506 -0.3377  0.0554
  625MPD2     H 9312   2.637   0.340   0.776  0.5470  0.8449 -2.2378
  625MPD2    H1 9313   2.741   4.673   0.800  0.4287 -0.2746  0.8450
  625MPD2    H2 9314   2.368   0.027   0.658 -0.4621  0.9666  0.6556
  625MPD2    H3 9315   2.519   4.605   0.708  3.6228 -1.7282  2.3700
  625MPD2     N 9316   2.833   0.202   0.813  0.0746  0.6453  0.2982
  625MPD2    H5 9317   2.844   0.303   0.804 -0.7865  0.6867 -0.2623
  625MPD2    N1 9318   2.398   0.301   0.673  0.1744  0.0139  0.2775
  625MPD2    H7 9319   2.428   0.397   0.689  1.2476 -0.0677 -1.2978
  626TMC3    C1 9320   2.243   0.409   0.533 -0.3533  0.5063 -0.1951
  626TMC3    C2 9321   2.171   0.402   0.423 -0.2019  0.5450 -0.1795
  626TMC3    C3 9322   2.114   0.517   0.375 -0.6234  0.1537 -0.7856
  626TMC3    C4 9323   2.252   0.521   0.611  0.7005 -0.4678 -0.6281
  626TMC3    C5 9324   2.190   0.634   0.558 -0.2962  0.0784 -0.3006
  626TMC3    C6 9325   2.119   0.630   0.441  0.0606  0.8423  0.1140
  626TMC3     C 9326   2.293   0.288   0.591  0.4454  0.3591  0.3801
  626TMC3     O 9327   2.237   0.185   0.548  0.2771  0.7358 -0.5252
  626TMC3     H 9328   2.169   0.308   0.368  1.3044  0.5704 -0.2567
  626TMC3    H1 9329   2.280   0.514   0.716  0.5131 -2.6225 -0.7363
  626TMC3    H2 9330   2.075   0.717   0.394  1.7164  0.2222 -2.5936
  626TMC3    C7 9331   2.152   0.739   0.650  0.5362 -0.4672 -0.0237
  626TMC3    C8 9332   2.037   0.520   0.250 -0.0944  0.4525  0.4654
  626TMC3    O1 9333   2.213   0.749   0.754  0.3824 -0.1880  0.2720
  626TMC3    O2 9334   2.044   0.617   0.181  0.0073 -0.4305 -0.6555
  627MPD2     C 9335   1.047   0.197  13.921  0.3541  0.2021  0.8376
  627MPD2    C1 9336   1.141   0.131  14.000 -1.0457  0.6301 -0.4966
  627MPD2    C2 9337   1.146   4.726  13.997 -0.3537 -0.1916  0.0617
  627MPD2    C3 9338   1.051   4.657  13.922 -0.7924  0.3696  0.5297
  627MPD2    C4 9339   0.957   4.732  13.857  0.3262  0.2726 -0.0626
  627MPD2    C5 9340   0.962   0.131  13.850  0.5119  0.9554  0.4081
  627MPD2     H 9341   1.219   4.677  14.061 -0.2581 -0.8157 -0.5228
  627MPD2    H1 9342   0.874   4.685  13.805  0.3547 -0.3151  0.4350
  627MPD2    H2 9343   1.046   0.306  13.923 -3.0598  0.1048  4.2658
  627MPD2    H3 9344   0.873   0.180  13.813  1.3571  2.1181 -0.1028
  627MPD2     N 9345   1.044   4.522  13.938  0.6200  0.1147 -0.1593
  627MPD2    H5 9346   1.134   4.487  13.966 -0.7143 -2.5333  0.7467
  627MPD2    N1 9347   1.234   0.196  14.087  0.1202 -0.0812  0.3744
  627MPD2    H7 9348   1.309   0.141  14.126  1.9235  3.0540  1.3086
  628TMC3    C1 9349   1.321   0.376  14.212 -0.3518  0.6852  0.7124
  628TMC3    C2 9350   1.403   0.286  14.287 -0.4577 -0.2830  0.4112
  628TMC3    C3 9351   1.436   0.331  14.415  0.1184  0.9814 -0.3023
  628TMC3    C4 9352   1.296   0.512  14.254 -0.1873 -0.3453  0.1548
  628TMC3    C5 9353   1.334   0.537  14.382  0.0571 -1.7066  0.0479
  628TMC3    C6 9354   1.392   0.444  14.468 -0.4241 -0.1521 -0.7903
  628TMC3     C 9355   1.209   0.319  14.137  0.0877 -0.5510 -0.1527
  628TMC3     O 9356   1.115   0.397  14.115  0.3676  0.1245  0.3885
  628TMC3     H 9357   1.430   0.188  14.249 -0.1053 -0.5102  1.2583
  628TMC3    H1 9358   1.234   0.578  14.194  0.5824 -0.4773 -0.7884
  628TMC3    H2 9359   1.427   0.477  14.565  1.7467 -0.0822 -1.6069
  628TMC3    C7 9360   1.304   0.665  14.441  0.1482 -0.6067  0.1539
  628TMC3    C8 9361   1.516   0.243  14.503  0.5742 -0.6935 -0.1606
  628TMC3    O1 9362   1.314   0.684  14.559 -0.0268 -0.7322 -0.1777
  628TMC3    O2 9363   1.528   0.273  14.624 -0.5808 -0.4756  0.0983
  629MPD2     C 9364   3.886   3.917  16.338 -0.5785 -0.2670 -0.0854
  629MPD2    C1 9365   3.962   3.807  16.378 -0.0235 -0.3988 -0.5423
  629MPD2    C2 9366   3.888   3.694  16.411  0.6114  0.4993 -0.2814
  629MPD2    C3 9367   3.752   3.696  16.427  0.1180  0.5448 -0.2450
  629MPD2    C4 9368   3.688   3.815  16.384 -0.3586 -0.3411 -0.2384
  629MPD2    C5 9369   3.754   3.920  16.340 -0.5910  0.1534 -0.1650
  629MPD2     H 9370   3.938   3.599  16.423  3.2191  2.4281  4.3204
  629MPD2    H1 9371   3.580   3.823  16.380 -0.6501 -3.3008  1.9695
  629MPD2    H2 9372   3.940   4.004  16.304 -1.8222  0.5894  0.1207
  629MPD2    H3 9373   3.700   4.007  16.304 -2.4326 -1.3253 -0.9590
  629MPD2     N 9374   3.683   3.579  16.464  0.2774 -0.2980 -0.0156
  629MPD2    H5 9375   3.745   3.499  16.471  0.0660 -0.4168  0.4480
  629MPD2    N1 9376   4.100   3.812  16.393 -0.7491 -0.0517  0.4691
  629MPD2    H7 9377   4.136   3.891  16.341 -1.5352  0.3316  0.5135
  630TMC3    C1 9378   4.323   3.732  16.433 -0.2721  0.1653 -0.1379
  630TMC3    C2 9379   4.366   3.809  16.328 -0.0298  0.4708  0.2230
  630TMC3    C3 9380   4.501   3.828  16.308 -0.2942  0.5598 -0.6776
  630TMC3    C4 9381   4.408   3.670  16.512 -0.1661  0.3642 -0.0411
  630TMC3    C5 9382   4.539   3.705  16.498 -0.7833 -0.3965 -0.3864
  630TMC3    C6 9383   4.590   3.780  16.398 -0.8454 -0.6687  1.2761
  630TMC3     C 9384   4.180   3.715  16.454  0.1866  0.2127 -0.4832
  630TMC3     O 9385   4.147   3.615  16.515  0.0179  0.4911 -0.5110
  630TMC3     H 9386   4.294   3.817  16.247  0.4343 -1.2572 -0.3693
  630TMC3    H1 9387   4.364   3.618  16.597  1.1035 -0.4629  0.1091
  630TMC3    H2 9388   4.696   3.795  16.379 -1.6370  0.6978 -2.0721
  630TMC3    C7 9389   4.625   3.683  16.614  0.1500 -0.3170 -0.7482
  630TMC3    C8 9390   4.561   3.904  16.204 -0.1866 -0.3274 -0.2304
  630TMC3    O1 9391   4.603   3.586  16.688 -0.9917  0.4321 -0.2674
  630TMC3    O2 9392   4.682   3.896  16.187 -0.2576  0.3003  0.4852
  631MPD2     C 9393   3.153   3.892  14.971 -0.2181 -0.2263  0.3681
  631MPD2    C1 9394   3.076   3.957  15.066  0.0576 -0.0754 -0.2054
  631MPD2    C2 9395   3.145   3.990  15.182  0.3429  0.1031 -0.1926
  631MPD2    C3 9396   3.277   3.957  15.203  0.2295  0.4512  0.0253
  631MPD2    C4 9397   3.351   3.885  15.110 -0.1657 -0.3647 -0.3354
  631MPD2    C5 9398   3.279   3.850  15.002 -0.0472  0.2148  0.2043
  631MPD2     H 9399   3.090   4.048  15.255 -1.7224 -1.1149 -0.7959
  631MPD2    H1 9400   3.457   3.864  15.114  0.3940  3.0570  2.4821
  631MPD2    H2 9401   3.121   3.867  14.871 -1.2632 -0.0872  0.6700
  631MPD2    H3 9402   3.321   3.787  14.924  2.5049 -0.3571  2.0385
  631MPD2     N 9403   3.328   3.980  15.331 -0.4124 -0.4594 -0.1372
  631MPD2    H5 9404   3.261   4.033  15.387 -0.7996 -2.5625  1.4050
  631MPD2    N1 9405   2.945   4.000  15.034 -0.2226 -0.1121 -0.2591
  631MPD2    H7 9406   2.899   3.970  14.949  0.5365  0.0934 -0.7468
  632TMC3    C1 9407   2.740   4.093  15.062  1.2124  0.1000 -0.8000
  632TMC3    C2 9408   2.653   4.132  15.158 -0.2100  0.3865 -0.2672
  632TMC3    C3 9409   2.523   4.131  15.124 -0.0901  0.1024  0.5629
  632TMC3    C4 9410   2.708   4.061  14.928  0.2461  0.0803  0.2501
  632TMC3    C5 9411   2.575   4.062  14.908 -0.5991 -0.2729 -0.4025
  632TMC3    C6 9412   2.476   4.097  15.000  0.3997 -0.2183  0.1632
  632TMC3     C 9413   2.876   4.092  15.103  0.1573  0.1005 -0.2272
  632TMC3     O 9414   2.895   4.154  15.209  0.5775 -0.6452 -0.2736
  632TMC3     H 9415   2.681   4.139  15.263  1.3353  2.4145 -0.8335
  632TMC3    H1 9416   2.783   4.044  14.851 -0.5224  0.4190 -0.5659
  632TMC3    H2 9417   2.369   4.098  14.986  0.2623  0.9652  1.3801
  632TMC3    C7 9418   2.548   4.075  14.764  0.1213  0.1237 -0.0437
  632TMC3    C8 9419   2.415   4.173  15.214  0.6732  0.2751  0.4139
  632TMC3    O1 9420   2.640   4.048  14.690 -0.3889 -0.4430 -0.0758
  632TMC3    O2 9421   2.298   4.169  15.177  0.6350 -0.1843  0.4596
  633MPD2     C 9422   2.237   1.859  17.256 -0.2491  0.2958 -0.6705
  633MPD2    C1 9423   2.170   1.795  17.154  0.3777 -0.0812 -0.3799
  633MPD2    C2 9424   2.112   1.666  17.175 -0.0139 -0.1029  0.4189
  633MPD2    C3 9425   2.131   1.610  17.293 -0.5410 -0.0985  0.1622
  633MPD2    C4 9426   2.204   1.675  17.391  1.0206  0.6497  0.5506
  633MPD2    C5 9427   2.242   1.800  17.377 -0.1311  0.4296  0.4429
  633MPD2     H 9428   2.049   1.620  17.100  1.5526  2.9141 -2.7452
  633MPD2    H1 9429   2.217   1.636  17.492  0.4684  0.5400  0.5811
  633MPD2    H2 9430   2.284   1.957  17.249 -1.4966  0.9856  0.4691
  633MPD2    H3 9431   2.280   1.861  17.458  2.3275 -0.4346 -0.0622
  633MPD2     N 9432   2.099   1.477  17.328  0.4344  0.0525  0.1783
  633MPD2    H5 9433   2.142   1.443  17.413 -0.3986  1.9284  1.3678
  633MPD2    N1 9434   2.163   1.852  17.022 -0.4820  0.1739  0.4557
  633MPD2    H7 9435   2.132   1.792  16.946 -0.9783  1.4149 -0.3074
  634TMC3    C1 9436   2.223   2.010  16.855 -0.4630 -0.2421  0.5241
  634TMC3    C2 9437   2.281   1.916  16.777 -0.2510  0.0675  0.4981
  634TMC3    C3 9438   2.309   1.941  16.640 -0.3558 -0.2962 -0.6239
  634TMC3    C4 9439   2.192   2.133  16.805 -0.1656  0.0837 -0.0003
  634TMC3    C5 9440   2.237   2.160  16.676 -0.3358  0.1134 -0.6800
  634TMC3    C6 9441   2.300   2.068  16.595 -0.4600  0.3267 -0.0143
  634TMC3     C 9442   2.217   1.980  16.994 -0.4222 -1.5655  0.0836
  634TMC3     O 9443   2.237   2.070  17.067  0.3505 -0.4021 -0.3623
  634TMC3     H 9444   2.313   1.818  16.812  0.7330 -0.0763 -0.8009
  634TMC3    H1 9445   2.169   2.221  16.863 -0.4785  0.6716 -1.0104
  634TMC3    H2 9446   2.325   2.094  16.493  0.6176 -1.4475 -0.2084
  634TMC3    C7 9447   2.169   2.271  16.609 -0.2188  1.1014  0.4266
  634TMC3    C8 9448   2.294   1.827  16.550 -0.3731  0.8498 -0.5226
  634TMC3    O1 9449   2.198   2.285  16.493 -0.0127 -0.0063 -0.0393
  634TMC3    O2 9450   2.278   1.716  16.598  0.1501 -0.4969 -0.2442
  635TMC3    C1 9451   2.115   2.819   0.211  0.0762 -0.3771  0.8725
  635TMC3    C2 9452   2.123   2.763   0.084 -0.5500 -0.2655 -0.2380
  635TMC3    C3 9453   2.162   2.631   0.076  0.0363  0.5745  0.0534
  635TMC3    C4 9454   2.164   2.751   0.322  0.2598  0.1083  0.5109
  635TMC3    C5 9455   2.219   2.629   0.300 -0.7289 -0.6749 -0.3669
  635TMC3    C6 9456   2.212   2.562   0.184 -0.7178 -0.1380 -0.3622
  635TMC3     C 9457   2.130   2.964   0.231 -0.7128 -0.9480 -0.4020
  635TMC3     O 9458   2.146   3.006   0.345 -0.0831  1.0454  0.2434
  635TMC3     H 9459   2.113   2.822  17.738 -0.7670  0.4176  0.2291
  635TMC3    H1 9460   2.166   2.794   0.421  1.5334  0.1459  0.4652
  635TMC3    H2 9461   2.235   2.456   0.184 -1.2258 -0.2503  1.3202
  635TMC3    C7 9462   2.230   2.543   0.420  0.2886  0.4153 -0.0291
  635TMC3    C8 9463   2.139   2.554  17.698 -0.1315 -1.3080 -0.0743
  635TMC3    O1 9464   2.128   2.528   0.484 -0.2643  0.7403 -0.6251
  635TMC3    O2 9465   2.104   2.622  17.606  0.2369 -1.0025 -1.3109
  636MPD2     C 9466   3.284   1.580  15.923 -0.0297 -0.0855  0.3066
  636MPD2    C1 9467   3.325   1.661  16.027 -0.2136 -0.1482 -0.1129
  636MPD2    C2 9468   3.377   1.603  16.143 -0.8230  0.5987 -0.8619
  636MPD2    C3 9469   3.413   1.467  16.142  0.1040  0.2072 -0.3302
  636MPD2    C4 9470   3.370   1.390  16.040 -0.6888 -0.5241  0.0984
  636MPD2    C5 9471   3.293   1.442  15.936  0.0779 -0.1276  0.3005
  636MPD2     H 9472   3.399   1.671  16.224 -0.6453 -0.9615  0.3975
  636MPD2    H1 9473   3.393   1.284  16.050  1.1210 -0.2376 -1.0586
  636MPD2    H2 9474   3.237   1.620  15.834  0.6212  2.3008  1.0444
  636MPD2    H3 9475   3.267   1.377  15.853  0.1143  0.2258  0.0104
  636MPD2     N 9476   3.487   1.422  16.249 -0.3103  0.0318  0.3979
  636MPD2    H5 9477   3.489   1.481  16.331 -0.6941 -0.0970  0.5009
  636MPD2    N1 9478   3.313   1.802  16.018  0.7666 -0.5486 -0.3131
  636MPD2    H7 9479   3.352   1.856  16.095 -1.3317 -0.6947  0.8473
  637TMC3    C1 9480   3.648   1.279  16.357  0.3913 -0.0358 -0.3227
  637TMC3    C2 9481   3.638   1.367  16.466  0.1822  0.0740 -0.1318
  637TMC3    C3 9482   3.753   1.404  16.529  0.3812 -0.1476 -0.2345
  637TMC3    C4 9483   3.764   1.210  16.321  0.6658 -0.2110 -1.3601
  637TMC3    C5 9484   3.877   1.261  16.375  0.2174 -0.9212  0.3953
  637TMC3    C6 9485   3.866   1.348  16.482 -0.4298 -0.1315  0.9886
  637TMC3     C 9486   3.559   1.302  16.244  0.0978  0.0980  0.1028
  637TMC3     O 9487   3.595   1.245  16.145 -0.1947 -0.8452  0.0189
  637TMC3     H 9488   3.550   1.430  16.477 -0.8022 -0.9725 -1.9694
  637TMC3    H1 9489   3.754   1.134  16.245  0.0039 -0.7943 -0.6907
  637TMC3    H2 9490   3.957   1.388  16.526  0.7605 -2.3092  0.5050
  637TMC3    C7 9491   3.948   1.333  16.271  0.2943  0.9529  0.4517
  637TMC3    C8 9492   3.749   1.548  16.556  0.5418 -0.6284 -0.3667
  637TMC3    O1 9493   4.006   1.434  16.304  0.1417 -0.1471  0.0273
  637TMC3    O2 9494   3.661   1.590  16.635  0.0895 -0.1295  0.1930
  638MPD2     C 9495   3.156   0.890  14.718  0.1028 -0.4120 -0.7509
  638MPD2    C1 9496   3.216   0.766  14.707  0.3051 -0.2677  0.0325
  638MPD2    C2 9497   3.173   0.659  14.782  0.4966  1.4536 -0.1382
  638MPD2    C3 9498   3.072   0.668  14.874 -0.1729  0.6656 -0.4419
  638MPD2    C4 9499   2.999   0.787  14.873 -0.5093 -0.4801  0.2412
  638MPD2    C5 9500   3.040   0.896  14.796  0.5650  0.1119  0.5149
  638MPD2     H 9501   3.235   0.570  14.777  0.4590  1.5364 -2.5013
  638MPD2    H1 9502   2.919   0.819  14.939 -2.7692 -2.8019 -1.3566
  638MPD2    H2 9503   3.185   0.980  14.666  0.8883  0.3470  1.0311
  638MPD2    H3 9504   2.993   0.991  14.819 -1.7788 -0.9852  0.2802
  638MPD2     N 9505   3.041   0.545  14.930  0.0012 -0.3858  0.1857
  638MPD2    H5 9506   3.111   0.473  14.914 -0.2429 -0.1683 -1.8410
  638MPD2    N1 9507   3.297   0.749  14.593 -0.7107  0.1044 -0.2787
  638MPD2    H7 9508   3.310   0.832  14.537  0.3772 -0.7207 -1.2387
  639TMC3    C1 9509   2.941   0.361  15.025 -0.0953  0.1309 -1.2328
  639TMC3    C2 9510   2.835   0.279  14.998  0.1562 -0.2384 -0.2673
  639TMC3    C3 9511   2.868   0.148  14.979  0.2598 -0.8409 -0.5178
  639TMC3    C4 9512   3.076   0.318  15.037  0.0637  0.8238  0.3742
  639TMC3    C5 9513   3.083   0.183  15.050 -1.0218 -0.0241  0.7146
  639TMC3    C6 9514   2.989   0.095  15.008  0.2377  0.4608 -0.6486
  639TMC3     C 9515   2.927   0.502  14.991  0.7064  0.2637 -0.3652
  639TMC3     O 9516   2.830   0.566  15.035 -0.4134 -0.6133 -0.2906
  639TMC3     H 9517   2.738   0.318  14.969  1.0766  0.9734 -1.7450
  639TMC3    H1 9518   3.141   0.393  15.081  0.0077  1.7651 -1.1172
  639TMC3    H2 9519   3.016   4.727  15.002 -0.3470  0.1328  2.1955
  639TMC3    C7 9520   3.205   0.120  15.079 -0.4913  0.8138 -0.0145
  639TMC3    C8 9521   2.803   0.077  14.875  0.2576 -0.5595  0.6173
  639TMC3    O1 9522   3.203   0.026  15.157 -0.0302 -0.2516  0.3231
  639TMC3    O2 9523   2.882   0.014  14.806 -0.1071 -0.0064 -0.2670
  640MPD2     C 9524   3.404   4.234   9.557 -0.2310 -1.1647 -0.1921
  640MPD2    C1 9525   3.468   4.350   9.612 -0.5749  0.3719  0.0242
  640MPD2    C2 9526   3.406   4.411   9.717  0.6502  0.0969  0.6906
  640MPD2    C3 9527   3.267   4.386   9.744 -0.5462  0.1875  0.3102
  640MPD2    C4 9528   3.209   4.277   9.682  0.7403  0.3942  0.7402
  640MPD2    C5 9529   3.277   4.199   9.593  0.3007  0.1982 -0.1000
  640MPD2     H 9530   3.454   4.491   9.772  0.7729  0.0122  0.7047
  640MPD2    H1 9531   3.106   4.253   9.705 -0.0533  1.6545 -1.5984
  640MPD2    H2 9532   3.461   4.184   9.480  1.6676 -1.3631  1.3383
  640MPD2    H3 9533   3.219   4.116   9.553 -1.5109  1.1808  0.4734
  640MPD2     N 9534   3.192   4.453   9.843 -0.4377  0.2759  0.0581
  640MPD2    H5 9535   3.097   4.418   9.838 -0.9271  1.4917  0.9368
  640MPD2    N1 9536   3.601   4.372   9.581 -0.3563 -0.1970 -0.4123
  640MPD2    H7 9537   3.644   4.317   9.507 -0.7745 -1.2243  0.1126
  641TMC3    C1 9538   3.797   4.501   9.535  0.3360 -0.2146 -0.5242
  641TMC3    C2 9539   3.851   4.385   9.513  0.1748 -0.0659 -0.4680
  641TMC3    C3 9540   3.937   4.389   9.403 -0.5842  0.3331 -0.7708
  641TMC3    C4 9541   3.789   4.604   9.447 -0.3479 -0.0920  0.3514
  641TMC3    C5 9542   3.867   4.605   9.335  0.1532  0.2248 -0.1241
  641TMC3    C6 9543   3.947   4.495   9.315 -0.0630  0.4835  0.0083
  641TMC3     C 9544   3.677   4.483   9.619  0.0472 -0.1472  0.0070
  641TMC3     O 9545   3.647   4.580   9.687  0.5701  0.0284 -0.3291
  641TMC3     H 9546   3.857   4.306   9.588 -1.0283 -1.3642 -1.7341
  641TMC3    H1 9547   3.734   4.693   9.475  0.8971  0.2486  1.7131
  641TMC3    H2 9548   4.020   4.502   9.235  1.3262 -0.0027  1.2339
  641TMC3    C7 9549   3.860   4.704   9.226 -0.3993 -0.4135 -0.1079
  641TMC3    C8 9550   4.020   4.276   9.390 -0.3877  0.0513 -0.2411
  641TMC3    O1 9551   3.943   4.686   9.137  0.3813  0.2936 -0.3596
  641TMC3    O2 9552   3.999   4.187   9.470 -0.4060  0.4885  0.2062
  642TMC3    C1 9553   4.565   0.091  12.276  0.1289  1.3752 -0.0760
  642TMC3    C2 9554   4.674   0.102  12.199 -0.1903 -0.5772  0.1619
  642TMC3    C3 9555   4.707   0.001  12.113  0.0656 -0.8206 -0.3359
  642TMC3    C4 9556   4.485   4.714  12.269  0.2788  0.2153 -0.1268
  642TMC3    C5 9557   4.526   4.613  12.186 -0.4472  0.6353  0.0175
  642TMC3    C6 9558   4.637   4.622  12.105  0.5448  0.4667  0.3936
  642TMC3     C 9559   4.523   0.206  12.360  0.3024  0.4577  0.3456
  642TMC3     O 9560   4.586   0.314  12.346  0.0390 -0.5132 -0.0964
  642TMC3     H 9561   4.723   0.198  12.187 -0.5617 -0.6984 -2.1611
  642TMC3    H1 9562   4.390   4.704  12.320 -0.9408  3.2194 -1.8411
  642TMC3    H2 9563   4.672   4.534  12.053  0.0786 -0.2094  1.2298
  642TMC3    C7 9564   4.464   4.479  12.198  0.1766 -0.8569 -0.3751
  642TMC3    C8 9565   0.097   0.003  12.041  0.0969  0.0716 -0.0860
  642TMC3    O1 9566   4.483   4.399  12.104  0.3497 -0.2855  0.2037
  642TMC3    O2 9567   0.113   4.660  11.948 -0.4214  0.0067 -0.0084
  643TMC3    C1 9568   3.817   4.522  17.668 -0.1500  0.0865 -0.3359
  643TMC3    C2 9569   3.694   4.517  17.611  0.0419 -0.5134 -0.2361
  643TMC3    C3 9570   3.675   4.446  17.493  0.2441 -0.0111 -1.0077
  643TMC3    C4 9571   3.926   4.458  17.617  0.9710 -0.2945 -0.2740
  643TMC3    C5 9572   3.906   4.393  17.496 -0.7917 -0.4916  0.0321
  643TMC3    C6 9573   3.782   4.378  17.435  0.4273  0.8437  0.3381
  643TMC3     C 9574   3.843   4.619   0.024  0.0149  0.0401 -0.2547
  643TMC3     O 9575   3.761   4.709   0.019  0.2547 -0.1743 -0.6443
  643TMC3     H 9576   3.606   4.560  17.658  0.0448 -0.0586 -0.6511
  643TMC3    H1 9577   4.028   4.471  17.653 -0.3692 -0.0984  3.4065
  643TMC3    H2 9578   3.774   4.337  17.335 -1.1010  0.9267  0.4303
  643TMC3    C7 9579   4.011   4.419  17.401 -0.0926  0.9912  0.4404
  643TMC3    C8 9580   3.606   4.515  17.383  0.8041 -0.1602  0.6594
  643TMC3    O1 9581   4.075   4.521  17.417  0.7074  0.0709  0.2764
  643TMC3    O2 9582   3.564   4.444  17.293 -0.3747  0.4171 -0.4615
  644MPD2     C 9583   4.292   4.363   8.796 -0.3915  0.1751 -0.1137
  644MPD2    C1 9584   4.179   4.370   8.871  0.2894  0.6599 -0.2875
  644MPD2    C2 9585   4.145   4.493   8.934 -0.1936 -0.0981 -0.1476
  644MPD2    C3 9586   4.230   4.598   8.913 -0.0336 -0.7534 -0.3225
  644MPD2    C4 9587   4.339   4.592   8.831  0.6026 -1.2229  0.5600
  644MPD2    C5 9588   4.365   4.474   8.764  0.0535 -0.6586 -0.1513
  644MPD2     H 9589   4.069   4.504   9.010 -0.9290  0.1085 -0.9172
  644MPD2    H1 9590   4.414   4.670   8.824 -1.7956  0.9578 -0.7863
  644MPD2    H2 9591   4.317   4.272   8.743 -1.4135  0.6076 -1.3499
  644MPD2    H3 9592   4.451   4.477   8.699 -1.0290 -0.3498 -1.5672
  644MPD2     N 9593   4.192   4.715   8.983  0.4287 -0.1461 -0.0294
  644MPD2    H5 9594   4.118   4.700   9.051 -0.2192 -0.9063 -0.9009
  644MPD2    N1 9595   4.112   4.249   8.903 -0.0259  0.0774 -0.1548
  644MPD2    H7 9596   4.154   4.165   8.865 -1.3315 -0.6236 -0.0587
  645TMC3    C1 9597   4.201   0.209   9.059 -0.0523  0.0537  0.5405
  645TMC3    C2 9598   4.208   0.341   9.012  0.4554 -0.7349  0.0283
  645TMC3    C3 9599   4.142   0.436   9.088 -0.4190 -0.0301 -0.1289
  645TMC3    C4 9600   4.152   0.174   9.174  0.1125  0.0790 -0.1360
  645TMC3    C5 9601   4.106   0.276   9.255 -0.7079 -0.4605  0.1758
  645TMC3    C6 9602   4.082   0.402   9.209 -0.3689  0.6503  0.0788
  645TMC3     C 9603   4.243   0.104   8.956 -1.0437 -0.5343 -0.1800
  645TMC3     O 9604   4.297   0.139   8.849 -0.6617  0.5193 -0.2614
  645TMC3     H 9605   4.238   0.364   8.910 -0.7887 -2.4396 -0.7088
  645TMC3    H1 9606   4.136   0.071   9.204 -0.9152  0.1407 -0.4814
  645TMC3    H2 9607   4.021   0.467   9.271  0.8066  1.4260  0.4247
  645TMC3    C7 9608   4.046   0.236   9.380 -0.4988 -0.2737  0.3447
  645TMC3    C8 9609   4.102   0.556   9.019  0.7474 -0.3418  0.3792
  645TMC3    O1 9610   3.956   0.311   9.422  0.0196  0.2053  0.2754
  645TMC3    O2 9611   4.102   0.559   8.900  0.0651 -0.5156  0.2672
  646MPD2     C 9612   3.400   4.140  14.383 -0.3675  0.7708  0.5277
  646MPD2    C1 9613   3.311   4.045  14.431 -0.2658 -0.2924 -0.4673
  646MPD2    C2 9614   3.176   4.064  14.412 -0.9426  0.2181 -0.2489
  646MPD2    C3 9615   3.132   4.179  14.349 -0.2876  1.2061  0.0916
  646MPD2    C4 9616   3.224   4.270  14.306  0.2943 -0.7506 -0.7920
  646MPD2    C5 9617   3.354   4.244  14.315  0.2073 -0.2169 -0.0803
  646MPD2     H 9618   3.099   3.994  14.442 -0.3528  0.8099  2.6903
  646MPD2    H1 9619   3.202   4.364  14.257  1.6184  0.5523  1.1186
  646MPD2    H2 9620   3.508   4.146  14.386 -0.3910  0.4270  2.2178
  646MPD2    H3 9621   3.428   4.320  14.290  0.2827 -0.8423 -1.7644
  646MPD2     N 9622   2.998   4.195  14.326 -0.2337 -0.1163 -0.1242
  646MPD2    H5 9623   2.926   4.141  14.374 -0.6186  1.3981  0.9975
  646MPD2    N1 9624   3.369   3.943  14.512  0.1397 -0.6229 -0.4200
  646MPD2    H7 9625   3.469   3.930  14.500 -0.1001  0.3688 -3.4792
  647TMC3    C1 9626   3.385   3.731  14.635 -0.2204 -0.1587  0.2050
  647TMC3    C2 9627   3.321   3.629  14.705 -0.7898 -0.3712  0.4488
  647TMC3    C3 9628   3.394   3.532  14.772  0.1861 -0.3342  0.0742
  647TMC3    C4 9629   3.522   3.733  14.637 -0.5782 -0.2235  0.2469
  647TMC3    C5 9630   3.588   3.637  14.695 -0.3491 -0.4873 -0.1676
  647TMC3    C6 9631   3.528   3.530  14.762  0.6485  0.5617  0.4855
  647TMC3     C 9632   3.303   3.846  14.586 -0.1983 -0.1171 -0.3830
  647TMC3     O 9633   3.192   3.851  14.630 -0.7372 -0.1461  0.8523
  647TMC3     H 9634   3.214   3.639  14.721 -1.2935 -0.6857 -2.6444
  647TMC3    H1 9635   3.573   3.826  14.613 -0.1549  0.2000  2.7819
  647TMC3    H2 9636   3.587   3.453  14.812  2.4225  1.5406 -0.1120
  647TMC3    C7 9637   3.729   3.660  14.727  0.5566 -1.1026 -0.1992
  647TMC3    C8 9638   3.353   3.505  14.909 -0.4803  0.1307 -0.3590
  647TMC3    O1 9639   3.775   3.592  14.818 -0.7237 -0.1381  0.4975
  647TMC3    O2 9640   3.438   3.517  14.997 -0.3378 -0.3517 -0.8490
  648TMC3    C1 9641   2.575   1.938  15.932 -0.0236 -0.6412 -0.4373
  648TMC3    C2 9642   2.652   1.841  15.881  0.2256  0.3822  0.2491
  648TMC3    C3 9643   2.663   1.829  15.745  0.0205  0.8478 -0.5822
  648TMC3    C4 9644   2.503   2.021  15.849 -0.7088 -0.0243 -0.0986
  648TMC3    C5 9645   2.496   1.993  15.714 -0.0578 -0.3008 -0.5461
  648TMC3    C6 9646   2.581   1.894  15.654 -0.1435  0.7030 -0.6656
  648TMC3     C 9647   2.612   1.994  16.058  0.2350 -0.8158  0.2917
  648TMC3     O 9648   2.605   2.112  16.066 -0.7372  0.7405 -0.6662
  648TMC3     H 9649   2.741   1.804  15.931 -0.4644  0.1905  1.3232
  648TMC3    H1 9650   2.438   2.079  15.913 -2.3832  0.9238 -2.6753
  648TMC3    H2 9651   2.587   1.888  15.546 -2.0804  0.6154 -0.7705
  648TMC3    C7 9652   2.441   2.094  15.631  0.4272 -0.0501  0.1405
  648TMC3    C8 9653   2.744   1.725  15.684  0.0693  0.3627 -0.0773
  648TMC3    O1 9654   2.464   2.085  15.511 -0.8355  0.0155 -0.0921
  648TMC3    O2 9655   2.760   1.743  15.563  0.0427  0.2980  0.6290
  649TMC3    C1 9656   1.120   2.560  13.364 -0.3197 -0.0274  0.0500
  649TMC3    C2 9657   1.234   2.636  13.373 -0.3860  0.2797  0.3057
  649TMC3    C3 9658   1.338   2.603  13.467  0.3750  0.5751 -0.2236
  649TMC3    C4 9659   1.105   2.460  13.449 -0.1797  0.2382  0.7751
  649TMC3    C5 9660   1.214   2.413  13.523 -0.7430 -0.0448  0.3714
  649TMC3    C6 9661   1.326   2.489  13.541  0.4395  0.2669 -0.0060
  649TMC3     C 9662   1.015   2.601  13.279  0.2818 -0.3640 -0.6283
  649TMC3     O 9663   1.035   2.715  13.234 -0.4754 -0.6131 -0.2640
  649TMC3     H 9664   1.253   2.713  13.299  1.8329 -1.4742 -0.9410
  649TMC3    H1 9665   1.020   2.392  13.450  0.2096 -0.2688 -0.4743
  649TMC3    H2 9666   1.409   2.472  13.608 -0.3272 -0.7028  0.7043
  649TMC3    C7 9667   1.191   2.291  13.604 -0.0612  0.6001  1.2929
  649TMC3    C8 9668   1.475   2.657  13.456 -0.3557 -0.5707 -0.0074
  649TMC3    O1 9669   1.088   2.229  13.589 -0.2770 -0.4493 -0.2754
  649TMC3    O2 9670   1.563   2.571  13.457  0.0530  0.1785 -0.3856
  650TMC3    C1 9671   3.827   3.878  12.342 -0.2634  0.5357 -0.4412
  650TMC3    C2 9672   3.808   3.943  12.463  0.2977 -0.0994 -0.2659
  650TMC3    C3 9673   3.873   4.059  12.488 -0.2865  0.5083 -0.1607
  650TMC3    C4 9674   3.891   3.943  12.240 -0.4055 -0.0360  0.2099
  650TMC3    C5 9675   3.949   4.059  12.264  0.5851 -0.1649  0.2199
  650TMC3    C6 9676   3.942   4.121  12.384 -0.0216  0.1617 -0.3162
  650TMC3     C 9677   3.770   3.746  12.309  0.5473 -0.1452 -0.4755
  650TMC3     O 9678   3.711   3.736  12.205 -0.1933 -0.2730 -0.0385
  650TMC3     H 9679   3.753   3.885  12.537  0.9793 -1.8800 -1.1469
  650TMC3    H1 9680   3.894   3.891  12.145 -1.8990 -1.0920  0.7464
  650TMC3    H2 9681   3.999   4.212  12.401  2.3054 -1.6742  1.7041
  650TMC3    C7 9682   4.006   4.131  12.148  0.1584  0.3043 -0.9899
  650TMC3    C8 9683   3.822   4.148  12.595  0.9957  0.4398 -0.0848
  650TMC3    O1 9684   4.041   4.060  12.052  0.3757 -0.3384  0.5225
  650TMC3    O2 9685   3.891   4.245  12.626 -0.5699  0.3185 -0.4196
  651MPD2     C 9686   2.259   1.632  10.044 -0.3322 -0.5709  0.4477
  651MPD2    C1 9687   2.304   1.716  10.143  0.4440  0.0808 -0.5896
  651MPD2    C2 9688   2.438   1.738  10.164 -0.4544  0.1038  0.0015
  651MPD2    C3 9689   2.537   1.670  10.095  0.4103  0.5375 -0.8631
  651MPD2    C4 9690   2.494   1.584   9.993 -0.6729  0.5563 -0.5002
  651MPD2    C5 9691   2.356   1.561   9.977 -0.9552 -0.7267 -0.4073
  651MPD2     H 9692   2.478   1.814  10.231 -1.1945  0.6358 -0.1582
  651MPD2    H1 9693   2.563   1.532   9.928 -0.9925 -1.3320  0.6729
  651MPD2    H2 9694   2.156   1.615  10.015  0.3006 -1.3509 -1.3512
  651MPD2    H3 9695   2.325   1.491   9.901  0.2314 -1.3939 -0.2821
  651MPD2     N 9696   2.672   1.681  10.134 -1.1153  0.2156 -0.4064
  651MPD2    H5 9697   2.694   1.737  10.216  2.4648 -0.3161 -0.9815
  651MPD2    N1 9698   2.220   1.795  10.223 -0.0237 -0.0701  0.4722
  651MPD2    H7 9699   2.252   1.863  10.291 -2.5859  0.8982  0.7040
  652TMC3    C1 9700   3.134   1.596  10.204  0.3200  0.0296  0.5130
  652TMC3    C2 9701   3.030   1.608  10.115 -0.2558 -0.4709 -0.2324
  652TMC3    C3 9702   2.903   1.618  10.170 -0.0793  0.3958  0.4528
  652TMC3    C4 9703   3.116   1.620  10.340  0.3065 -0.2501 -0.8222
  652TMC3    C5 9704   2.990   1.644  10.388  0.0868  0.1290  0.7524
  652TMC3    C6 9705   2.882   1.640  10.306 -0.4523  0.3017 -0.2967
  652TMC3     C 9706   3.273   1.554  10.165  0.3553  0.9036 -0.0844
  652TMC3     O 9707   3.345   1.524  10.259  0.5338  0.1351 -0.0384
  652TMC3     H 9708   3.054   1.562  10.020 -2.3914  0.7999 -1.3822
  652TMC3    H1 9709   3.203   1.614  10.405 -1.8288 -0.3254  2.0042
  652TMC3    H2 9710   2.782   1.642  10.350 -0.3683  0.5243 -0.1167
  652TMC3    C7 9711   2.988   1.736  10.505  0.0948  0.4926 -0.7458
  652TMC3    C8 9712   2.785   1.610  10.087 -0.7963 -0.1141  0.4968
  652TMC3    O1 9713   2.886   1.739  10.570 -0.2459 -0.1126 -0.1181
  652TMC3    O2 9714   2.795   1.543   9.983  0.2014 -0.1651 -0.6159
  653MPD2     C 9715   1.832   1.917  17.353 -1.2500  0.4917  0.6311
  653MPD2    C1 9716   1.746   2.010  17.305 -0.3673  0.3279 -0.8533
  653MPD2    C2 9717   1.655   1.979  17.206  0.1940  0.1832 -0.2227
  653MPD2    C3 9718   1.643   1.842  17.177  0.3786 -0.6179  0.3354
  653MPD2    C4 9719   1.746   1.755  17.219  0.0786  0.2389 -0.6509
  653MPD2    C5 9720   1.838   1.794  17.309 -0.3724 -0.0740  0.1317
  653MPD2     H 9721   1.591   2.059  17.171  0.0392 -0.3865 -1.2461
  653MPD2    H1 9722   1.745   1.651  17.190  0.3200 -0.1714  0.8274
  653MPD2    H2 9723   1.909   1.940  17.426 -0.2735  1.2594 -0.6242
  653MPD2    H3 9724   1.891   1.715  17.362  0.4922  0.2607 -0.2400
  653MPD2     N 9725   1.534   1.794  17.106 -0.5582 -0.5631  0.0091
  653MPD2    H5 9726   1.461   1.863  17.091 -1.1408 -1.4043 -1.0647
  653MPD2    N1 9727   1.753   2.138  17.359  0.2078 -1.2492  0.5936
  653MPD2    H7 9728   1.703   2.210  17.309  0.8918 -1.9824 -1.1419
  654TMC3    C1 9729   1.373   1.630  17.015  0.7186 -0.2761 -0.3942
  654TMC3    C2 9730   1.279   1.724  17.010 -0.5675  0.1658  0.4058
  654TMC3    C3 9731   1.155   1.680  16.968  0.1914  0.3364 -0.1710
  654TMC3    C4 9732   1.341   1.503  16.981 -0.0237 -0.2202 -0.4910
  654TMC3    C5 9733   1.211   1.462  16.945  0.1322  0.7998 -1.4866
  654TMC3    C6 9734   1.117   1.557  16.918 -0.0953  0.2993  0.2423
  654TMC3     C 9735   1.508   1.665  17.064 -0.5151  0.2539 -0.1773
  654TMC3     O 9736   1.589   1.573  17.056  0.6476 -0.3945 -0.4514
  654TMC3     H 9737   1.293   1.826  17.042 -1.1253 -0.1112  1.5519
  654TMC3    H1 9738   1.422   1.431  16.973 -0.3405 -0.6126 -0.2190
  654TMC3    H2 9739   1.015   1.528  16.896  0.1430  2.9344 -4.4108
  654TMC3    C7 9740   1.183   1.331  16.902 -0.5791 -0.4169 -0.0852
  654TMC3    C8 9741   1.056   1.782  16.958  0.2823  0.1656  0.0739
  654TMC3    O1 9742   1.068   1.306  16.869 -0.0180  0.1394  0.3716
  654TMC3    O2 9743   0.981   1.771  16.862 -0.5049  0.3469 -0.3701
  655MPD2     C 9744   3.014   1.923  15.519 -0.6929  1.0310 -0.5163
  655MPD2    C1 9745   2.997   2.018  15.427  0.3431 -0.4834 -0.3219
  655MPD2    C2 9746   3.051   2.001  15.300  1.4137  0.4109 -0.6775
  655MPD2    C3 9747   3.105   1.878  15.261 -0.4414 -0.2579 -0.2169
  655MPD2    C4 9748   3.103   1.776  15.353 -0.0344  0.1974 -0.0969
  655MPD2    C5 9749   3.061   1.803  15.481 -0.0530  0.8208 -0.2310
  655MPD2     H 9750   3.041   2.083  15.230 -1.1370 -0.5923 -1.4702
  655MPD2    H1 9751   3.119   1.672  15.326 -0.0617  0.3052 -0.5205
  655MPD2    H2 9752   2.978   1.923  15.621  0.8241 -1.7582  0.0210
  655MPD2    H3 9753   3.051   1.721  15.552 -2.8672  2.2525  1.0006
  655MPD2     N 9754   3.121   1.838  15.129  0.3440 -0.1926  0.2148
  655MPD2    H5 9755   3.142   1.738  15.126 -1.2221 -0.6128  3.5414
  655MPD2    N1 9756   2.926   2.136  15.464  0.1879  0.0117  0.4729
  655MPD2    H7 9757   2.917   2.196  15.382  0.3405  0.6934  0.9600
  656TMC3    C1 9758   2.813   2.306  15.603 -0.0584 -0.7819 -0.3503
  656TMC3    C2 9759   2.773   2.332  15.732  0.2679  0.6584 -0.3184
  656TMC3    C3 9760   2.768   2.466  15.765  0.2181  0.0933  0.4004
  656TMC3    C4 9761   2.825   2.403  15.508 -0.2031 -0.1600 -0.0518
  656TMC3    C5 9762   2.810   2.536  15.540 -0.4733  0.1261  0.7678
  656TMC3    C6 9763   2.785   2.566  15.675  0.5718  0.6113 -0.5115
  656TMC3     C 9764   2.881   2.172  15.590 -0.4654 -0.0678 -0.8897
  656TMC3     O 9765   2.895   2.112  15.697 -0.4434  0.1170  0.2079
  656TMC3     H 9766   2.735   2.252  15.794 -0.1305  1.7960  0.8959
  656TMC3    H1 9767   2.854   2.379  15.406 -0.1829  2.6704 -0.7191
  656TMC3    H2 9768   2.767   2.668  15.706 -0.8973  0.0128  0.6001
  656TMC3    C7 9769   2.747   2.617  15.436  0.4115 -0.0438  0.3990
  656TMC3    C8 9770   2.711   2.499  15.897 -0.5607  0.9506  0.0318
  656TMC3    O1 9771   2.779   2.576  15.322 -0.4577 -0.1630  0.4277
  656TMC3    O2 9772   2.743   2.609  15.937 -0.1526  0.1038  0.4236
  657TMC3    C1 9773   2.138   0.919  15.210  0.0005  0.5277  0.4098
  657TMC3    C2 9774   2.146   0.907  15.348 -0.7964  0.4512 -0.0438
  657TMC3    C3 9775   2.030   0.913  15.418  0.6680 -0.7591 -0.5475
  657TMC3    C4 9776   2.023   0.948  15.148  1.0599  0.0539 -0.6775
  657TMC3    C5 9777   1.910   0.968  15.221  0.2659 -0.0948 -0.2859
  657TMC3    C6 9778   1.913   0.944  15.356  0.2952 -0.0586  0.7774
  657TMC3     C 9779   2.262   0.927  15.128  0.8672 -0.0934  0.2348
  657TMC3     O 9780   2.258   1.002  15.028  0.6640 -0.5099  0.4169
  657TMC3     H 9781   2.242   0.908  15.398 -0.1148  0.6825 -1.3538
  657TMC3    H1 9782   2.025   0.956  15.040 -0.4349  1.2215 -0.6158
  657TMC3    H2 9783   1.818   0.950  15.407  0.1150  1.9978  0.1852
  657TMC3    C7 9784   1.796   1.023  15.155 -0.2193 -0.0788  0.5045
  657TMC3    C8 9785   2.025   0.914  15.563 -0.0588  0.2522  0.3642
  657TMC3    O1 9786   1.785   1.003  15.035 -0.2715 -0.0743  0.5813
  657TMC3    O2 9787   1.928   0.973  15.612  0.9817  0.0335 -0.2008
  658MPD2     C 9788   3.208   2.111  14.396 -1.2232 -0.4074 -0.0876
  658MPD2    C1 9789   3.172   1.978  14.394  0.3746 -0.3369  0.7442
  658MPD2    C2 9790   3.161   1.906  14.279  0.3443  0.0105  0.3520
  658MPD2    C3 9791   3.185   1.971  14.156 -0.0058 -0.1404 -0.0663
  658MPD2    C4 9792   3.224   2.107  14.158 -0.1742 -1.0798  0.1174
  658MPD2    C5 9793   3.235   2.166  14.276  0.0335  0.1006 -0.1063
  658MPD2     H 9794   3.139   1.800  14.274 -1.4834  0.4147 -0.1117
  658MPD2    H1 9795   3.267   2.156  14.071 -2.1351  1.3297  0.5147
  658MPD2    H2 9796   3.210   2.174  14.484 -0.1853  2.3098 -2.0782
  658MPD2    H3 9797   3.254   2.273  14.276  2.6235 -0.3583 -1.1625
  658MPD2     N 9798   3.162   1.901  14.033  0.0715  0.8115 -0.4616
  658MPD2    H5 9799   3.114   1.812  14.044 -1.5414  1.5905 -1.1337
  658MPD2    N1 9800   3.133   1.927  14.515  0.0273 -0.7302  0.8889
  658MPD2    H7 9801   3.128   1.997  14.589  1.6107  0.8440 -0.4838
  659TMC3    C1 9802   3.075   1.770  14.682  0.5198  0.6210  0.5660
  659TMC3    C2 9803   3.106   1.869  14.777 -0.2918 -0.0379 -0.1193
  659TMC3    C3 9804   3.079   1.830  14.906  0.0942  1.1575  0.4269
  659TMC3    C4 9805   3.021   1.649  14.705 -0.7157  0.4604 -0.2281
  659TMC3    C5 9806   2.995   1.623  14.837 -0.1697 -0.2056  0.2299
  659TMC3    C6 9807   3.022   1.711  14.936 -0.4095 -0.1592 -0.5977
  659TMC3     C 9808   3.095   1.796  14.538  0.5777 -0.2167 -0.4822
  659TMC3     O 9809   3.103   1.698  14.466 -0.4667  0.1269  0.3622
  659TMC3     H 9810   3.139   1.970  14.757 -0.6699  0.0906 -0.1018
  659TMC3    H1 9811   3.005   1.573  14.629  2.4737 -0.0785 -0.3613
  659TMC3    H2 9812   2.984   1.693  15.036  0.5810 -1.3387 -0.4341
  659TMC3    C7 9813   2.899   1.518  14.875 -0.3583  0.1614 -0.6740
  659TMC3    C8 9814   3.102   1.916  15.019 -0.3538  0.1483  0.3850
  659TMC3    O1 9815   2.887   1.508  14.995  0.0564 -0.2274  0.5547
  659TMC3    O2 9816   3.134   2.037  15.008 -0.0054 -0.6408 -0.0305
  660MPD2     C 9817   1.103   0.512  12.237 -0.4182 -0.4992  0.3758
  660MPD2    C1 9818   0.971   0.515  12.254  0.0374  0.1414 -0.0116
  660MPD2    C2 9819   0.921   0.482  12.378 -0.2593 -0.4043  0.4882
  660MPD2    C3 9820   1.001   0.446  12.490 -0.1679  0.4999  0.4104
  660MPD2    C4 9821   1.135   0.451  12.472  0.7422 -0.3144  0.2994
  660MPD2    C5 9822   1.187   0.486  12.349  0.5663  0.1650  0.1700
  660MPD2     H 9823   0.813   0.469  12.381 -0.1616 -1.5857 -1.3513
  660MPD2    H1 9824   1.198   0.415  12.554 -0.6120  0.8087  1.8369
  660MPD2    H2 9825   1.147   0.548  12.145  1.5558  1.1119  1.9554
  660MPD2    H3 9826   1.292   0.464  12.330  0.0210 -1.4623 -0.9252
  660MPD2     N 9827   0.946   0.405  12.617  0.5450  0.1019 -0.1763
  660MPD2    H5 9828   1.009   0.390  12.695  1.4339 -1.2827 -1.1495
  660MPD2    N1 9829   0.889   0.546  12.145  0.1955  0.3331  0.2567
  660MPD2    H7 9830   0.915   0.527  12.049 -1.6031  0.7785 -0.3068
  661TMC3    C1 9831   0.697   0.613  12.025 -0.1448  0.0978 -0.5860
  661TMC3    C2 9832   0.753   0.582  11.906 -0.7919 -0.9975 -0.1802
  661TMC3    C3 9833   0.670   0.556  11.792  0.1856 -0.0349  0.2384
  661TMC3    C4 9834   0.564   0.624  12.033  0.1328 -0.1480  0.3910
  661TMC3    C5 9835   0.485   0.590  11.922 -0.1185  0.2290  0.2064
  661TMC3    C6 9836   0.539   0.563  11.796  1.2452  0.3486 -0.6023
  661TMC3     C 9837   0.771   0.605  12.153  0.1929  0.2023 -0.0228
  661TMC3     O 9838   0.715   0.647  12.252  0.3456  0.4423 -0.1799
  661TMC3     H 9839   0.861   0.579  11.898 -0.7637 -1.0144  0.2401
  661TMC3    H1 9840   0.525   0.657  12.129 -1.4332 -2.4567  0.5305
  661TMC3    H2 9841   0.475   0.553  11.709  0.6098  0.4847 -0.1496
  661TMC3    C7 9842   0.343   0.585  11.954 -0.2465  0.8776 -0.3367
  661TMC3    C8 9843   0.733   0.532  11.665 -0.1107 -0.5118  0.0623
  661TMC3    O1 9844   0.308   0.634  12.061 -0.9812  0.2435 -0.2584
  661TMC3    O2 9845   0.678   0.570  11.562 -0.3933  0.0082  0.0717
  662MPD2     C 9846   1.352   0.632   0.120  0.8436  0.3931  0.7975
  662MPD2    C1 9847   1.345   0.597  17.733 -0.5626  0.4060  0.0718
  662MPD2    C2 9848   1.295   0.684  17.641 -0.2992  0.2285 -0.0853
  662MPD2    C3 9849   1.268   0.814  17.683  0.2263 -0.4768  0.0755
  662MPD2    C4 9850   1.284   0.852   0.068 -0.1212 -0.6871  0.0908
  662MPD2    C5 9851   1.328   0.758   0.161 -0.0412  0.3138  0.9977
  662MPD2     H 9852   1.259   0.655  17.542  3.6192 -0.5505 -1.2721
  662MPD2    H1 9853   1.268   0.950   0.111 -2.6677 -1.5105  0.9870
  662MPD2    H2 9854   1.391   0.558   0.189 -0.8456 -1.1351  0.0715
  662MPD2    H3 9855   1.346   0.782   0.265  0.4824  2.5854  0.3893
  662MPD2     N 9856   1.223   0.908  17.589 -0.5719 -0.4682  0.6155
  662MPD2    H5 9857   1.182   0.992  17.629  0.1102  0.6707 -1.0849
  662MPD2    N1 9858   1.378   0.466  17.700 -0.0339  0.1249 -0.4760
  662MPD2    H7 9859   1.380   0.398   0.031  0.9644 -1.3504 -1.8143
  663TMC3    C1 9860   1.359   0.272  17.561  0.9313  0.0478  0.0766
  663TMC3    C2 9861   1.344   0.191  17.665 -0.3765 -0.9136 -0.2153
  663TMC3    C3 9862   1.288   0.068  17.661  0.8714 -0.1347 -0.6633
  663TMC3    C4 9863   1.319   0.233  17.441 -1.3178  0.6838  0.8144
  663TMC3    C5 9864   1.281   0.101  17.426  0.6744  0.6243  0.7653
  663TMC3    C6 9865   1.281   0.012  17.535 -0.4514 -0.1178  0.1121
  663TMC3     C 9866   1.382   0.420  17.573  0.3158  0.5776 -0.1119
  663TMC3     O 9867   1.375   0.482  17.465 -0.1964  0.3052 -0.1664
  663TMC3     H 9868   1.366   0.226   0.020 -1.4013 -2.2624  0.4806
  663TMC3    H1 9869   1.310   0.300  17.356  2.2595 -0.2624 -0.3076
  663TMC3    H2 9870   1.248   4.646  17.532  1.6080 -0.7562 -1.1701
  663TMC3    C7 9871   1.251   0.047  17.293 -0.0509  0.1568 -0.7221
  663TMC3    C8 9872   1.338   4.707   0.009 -0.2758  0.1001  0.3642
  663TMC3    O1 9873   1.270   0.125  17.201  0.0545 -0.1575  0.0323
  663TMC3    O2 9874   1.453   4.721   0.047  0.2728  0.0759 -0.0967
  664MPD2     C 9875   4.154   3.213  17.104 -0.9319  0.4986  0.2155
  664MPD2    C1 9876   4.253   3.277  17.182  0.0845  0.7499 -0.3567
  664MPD2    C2 9877   4.254   3.272  17.314 -0.3688 -0.7536  0.2761
  664MPD2    C3 9878   4.145   3.220  17.383  0.2737 -0.0972  0.3846
  664MPD2    C4 9879   4.045   3.159  17.308 -0.9234 -0.0502  1.0462
  664MPD2    C5 9880   4.053   3.157  17.170  0.3216 -0.2943  0.1504
  664MPD2     H 9881   4.334   3.327  17.362  0.2709 -0.9449 -0.5645
  664MPD2    H1 9882   3.953   3.116  17.347 -2.0412  2.0333  0.7383
  664MPD2    H2 9883   4.151   3.198  16.996  1.0946 -2.0431  0.5211
  664MPD2    H3 9884   3.974   3.110  17.112 -1.0408  0.5225  1.3533
  664MPD2     N 9885   4.134   3.253  17.522 -0.3721 -0.1755 -0.4167
  664MPD2    H5 9886   4.204   3.313  17.563  0.6526 -1.6474 -0.0404
  664MPD2    N1 9887   4.352   3.353  17.121 -0.1299  0.5494  0.5182
  664MPD2    H7 9888   4.422   3.394  17.182 -0.4426  2.4201 -0.3628
  665TMC3    C1 9889   4.020   3.284  17.728  0.2988  1.1068  0.0506
  665TMC3    C2 9890   3.983   3.206   0.090 -0.1880 -0.1692  0.3229
  665TMC3    C3 9891   4.010   3.252   0.218 -0.1959  0.5787  0.3269
  665TMC3    C4 9892   4.071   3.410  17.745  0.2375  0.6733 -0.7207
  665TMC3    C5 9893   4.095   3.449   0.129 -0.0293 -0.3503 -1.0294
  665TMC3    C6 9894   4.062   3.375   0.243 -0.1314 -0.6861 -0.6770
  665TMC3     C 9895   4.020   3.220  17.595  0.2548  0.0506 -0.5943
  665TMC3     O 9896   3.934   3.136  17.574 -0.3598 -0.1734 -0.0742
  665TMC3     H 9897   3.930   3.114   0.069 -0.4850  0.1052 -0.1340
  665TMC3    H1 9898   4.099   3.477  17.664  1.5818  0.1692 -0.6835
  665TMC3    H2 9899   4.085   3.410   0.343 -0.3029  0.2396 -0.9653
  665TMC3    C7 9900   4.148   3.580   0.155 -0.2931  0.1973  0.5450
  665TMC3    C8 9901   3.954   3.182   0.323  0.2456 -0.3477  0.0686
  665TMC3    O1 9902   4.112   3.664   0.073  0.2439 -0.2619  0.5853
  665TMC3    O2 9903   3.920   3.251   0.422 -0.1628 -0.6945 -0.5129
  666TMC3    C1 9904   2.762   2.883  10.113 -0.6651 -0.0516  0.0854
  666TMC3    C2 9905   2.879   2.819  10.085  0.3810 -0.3854  0.2341
  666TMC3    C3 9906   2.992   2.891  10.083 -0.1624 -0.4528 -0.4983
  666TMC3    C4 9907   2.751   3.021  10.121  0.6746 -0.3137  0.2514
  666TMC3    C5 9908   2.868   3.095  10.104  0.6182 -0.2094 -0.3663
  666TMC3    C6 9909   2.994   3.029  10.107  0.3067  0.0264 -0.5654
  666TMC3     C 9910   2.642   2.803  10.109 -0.3332  0.8185 -0.2058
  666TMC3     O 9911   2.532   2.857  10.141 -0.6773 -0.1835 -0.1103
  666TMC3     H 9912   2.886   2.712  10.101 -0.3437 -0.7208 -1.6972
  666TMC3    H1 9913   2.650   3.055  10.141  0.0572 -1.9968 -0.0120
  666TMC3    H2 9914   3.086   3.084  10.114  0.4520 -0.2705 -0.1547
  666TMC3    C7 9915   2.855   3.239  10.087 -0.2704  0.1446  0.2864
  666TMC3    C8 9916   3.118   2.821  10.109  0.8331  1.0198 -0.0802
  666TMC3    O1 9917   2.739   3.276  10.099 -0.1859 -0.5728 -0.0434
  666TMC3    O2 9918   3.114   2.706  10.158  0.5124  1.2282 -0.0210
  667MPD2     C 9919   0.559   3.365  14.635  0.0614  0.0686  0.3315
  667MPD2    C1 9920   0.433   3.403  14.674 -0.9171  0.6906  0.1190
  667MPD2    C2 9921   0.338   3.304  14.692 -0.2203  0.1147 -0.3365
  667MPD2    C3 9922   0.368   3.170  14.657  0.4967  0.0264  0.0225
  667MPD2    C4 9923   0.497   3.140  14.618  0.4218 -0.5845 -0.1700
  667MPD2    C5 9924   0.589   3.235  14.607  0.8969  0.4723  1.1083
  667MPD2     H 9925   0.237   3.339  14.709 -0.3516  0.0828 -1.0197
  667MPD2    H1 9926   0.525   3.036  14.600 -1.0344 -0.6056 -2.3189
  667MPD2    H2 9927   0.641   3.433  14.616 -0.8513  1.1856  0.3499
  667MPD2    H3 9928   0.687   3.214  14.566 -0.4545 -2.7250 -0.5463
  667MPD2     N 9929   0.275   3.068  14.655 -0.1434  0.1245  0.0091
  667MPD2    H5 9930   0.303   2.979  14.616 -0.3194  0.2674 -0.4429
  667MPD2    N1 9931   0.399   3.531  14.723 -0.8022 -0.0157 -0.2734
  667MPD2    H7 9932   0.317   3.537  14.782  0.0388 -3.7140  1.3010
  668TMC3    C1 9933   0.446   3.749  14.799 -0.3147 -0.7311 -0.5437
  668TMC3    C2 9934   0.501   3.876  14.770  0.5959  0.0302 -0.6456
  668TMC3    C3 9935   0.500   3.962  14.876  0.1638 -0.1223  0.3525
  668TMC3    C4 9936   0.408   3.708  14.923 -0.1800 -0.3802  0.6931
  668TMC3    C5 9937   0.407   3.804  15.023 -0.4169 -0.0693 -1.2153
  668TMC3    C6 9938   0.447   3.933  14.995 -0.8969 -0.0547 -0.1469
  668TMC3     C 9939   0.484   3.641  14.707  0.6828 -0.3288  0.1964
  668TMC3     O 9940   0.585   3.653  14.635 -0.2534 -0.1120 -0.4280
  668TMC3     H 9941   0.524   3.896  14.667  0.0301  0.8338 -0.6149
  668TMC3    H1 9942   0.398   3.602  14.945 -2.6473 -0.3398 -0.2485
  668TMC3    H2 9943   0.435   4.002  15.077 -0.4137 -0.9226  0.6487
  668TMC3    C7 9944   0.362   3.771  15.156 -0.2304 -0.4391 -0.0980
  668TMC3    C8 9945   0.581   4.080  14.869 -0.0379  0.0741 -0.7174
  668TMC3    O1 9946   0.409   3.844  15.245 -0.4773  0.1663 -0.6677
  668TMC3    O2 9947   0.574   4.149  14.971  0.4905  0.2085 -0.2324
  669TMC3    C1 9948   3.374   3.314  14.423  0.0107  0.3158  0.2081
  669TMC3    C2 9949   3.287   3.295  14.313  0.2455  0.1405  1.1221
  669TMC3    C3 9950   3.304   3.366  14.195 -0.6064  0.6654  0.3072
  669TMC3    C4 9951   3.482   3.396  14.410  0.0933 -0.2392  0.1986
  669TMC3    C5 9952   3.511   3.454  14.288 -1.1499 -0.7465 -0.3884
  669TMC3    C6 9953   3.416   3.444  14.182 -0.4546 -0.0071 -0.0446
  669TMC3     C 9954   3.346   3.253  14.550  0.6288  0.8430 -0.2912
  669TMC3     O 9955   3.226   3.232  14.577 -0.2364 -0.8440  0.0458
  669TMC3     H 9956   3.201   3.230  14.323  1.7968 -2.2328 -0.8819
  669TMC3    H1 9957   3.559   3.401  14.486  1.6378 -0.5070 -1.3424
  669TMC3    H2 9958   3.422   3.512  14.097 -1.8678 -0.0003 -0.1371
  669TMC3    C7 9959   3.616   3.551  14.272  0.0190 -0.2790 -0.0037
  669TMC3    C8 9960   3.214   3.331  14.090  0.0950 -0.1918 -0.8386
  669TMC3    O1 9961   3.646   3.613  14.372 -0.1567  0.2293  0.3718
  669TMC3    O2 9962   3.100   3.299  14.123  0.4768  0.3132  0.1354
  670MPD2     C 9963   1.039   0.841  13.122  0.1711 -0.1700  0.1273
  670MPD2    C1 9964   1.176   0.842  13.150 -0.1679  0.7971 -0.3999
  670MPD2    C2 9965   1.228   0.895  13.265  0.4648  0.0265  0.1791
  670MPD2    C3 9966   1.136   0.947  13.356  0.3356  0.5296  0.1293
  670MPD2    C4 9967   1.001   0.952  13.327  0.2722 -0.2813  0.3101
  670MPD2    C5 9968   0.958   0.897  13.213  0.6221 -0.2750 -0.3254
  670MPD2     H 9969   1.336   0.893  13.278  0.3869 -0.0785  0.7783
  670MPD2    H1 9970   0.928   1.006  13.387 -1.3037  0.1486 -1.9856
  670MPD2    H2 9971   0.989   0.798  13.036  0.5428 -3.5609  1.6110
  670MPD2    H3 9972   0.852   0.912  13.196  0.6286  0.9384  0.7083
  670MPD2     N 9973   1.179   0.994  13.485  0.9590  0.0141 -0.2583
  670MPD2    H5 9974   1.274   0.967  13.508  0.7412 -0.3341  0.2282
  670MPD2    N1 9975   1.274   0.810  13.049 -0.1948 -0.5788  0.2778
  670MPD2    H7 9976   1.368   0.821  13.084  0.0999  0.5024 -0.8325
  671TMC3    C1 9977   1.180   1.009  13.713  0.3327  0.0185  0.7286
  671TMC3    C2 9978   1.318   1.001  13.690  0.1284  0.4378  0.2927
  671TMC3    C3 9979   1.387   0.921  13.770  0.0099 -1.2590  0.6305
  671TMC3    C4 9980   1.121   0.930  13.799 -0.1349  0.4318  0.3095
  671TMC3    C5 9981   1.196   0.837  13.867 -0.5473  0.1201  0.0996
  671TMC3    C6 9982   1.330   0.831  13.855  0.0675 -0.7391  0.2331
  671TMC3     C 9983   1.095   1.028  13.594 -0.0878 -0.1755  0.2646
  671TMC3     O 9984   0.975   1.048  13.598 -0.0839  0.1309 -0.1991
  671TMC3     H 9985   1.367   1.086  13.644 -1.4170  1.6964  0.9698
  671TMC3    H1 9986   1.012   0.924  13.797 -0.1296 -0.4017  2.6640
  671TMC3    H2 9987   1.384   0.751  13.904  0.9588  0.0473  0.5437
  671TMC3    C7 9988   1.127   0.710  13.899  0.4723  0.6157 -0.6592
  671TMC3    C8 9989   1.532   0.918  13.743 -0.6765 -0.2451  0.1490
  671TMC3    O1 9990   1.182   0.610  13.860 -0.0340 -0.0708  0.4496
  671TMC3    O2 9991   1.578   0.999  13.664  0.7151  0.5836  0.3621
  672MPD2     C 9992   1.918   1.826   0.859 -0.0006  0.2207  0.0859
  672MPD2    C1 9993   2.013   1.762   0.784 -0.1560 -0.2805  0.3169
  672MPD2    C2 9994   2.149   1.768   0.825  0.3113  0.0685 -0.3951
  672MPD2    C3 9995   2.181   1.842   0.934  0.1960  0.2051  0.6482
  672MPD2    C4 9996   2.086   1.904   1.015  0.3833  0.1881  0.1162
  672MPD2    C5 9997   1.953   1.889   0.974  0.5662  0.1801  0.0868
  672MPD2     H 9998   2.227   1.736   0.757  0.4414  0.9312 -0.6428
  672MPD2    H1 9999   2.112   1.978   1.089 -0.0646 -0.0753  0.5346
  672MPD2    H210000   1.813   1.819   0.834 -0.0692 -1.6048  0.8546
  672MPD2    H310001   1.879   1.926   1.044 -1.5623 -2.1194 -0.9468
  672MPD2     N10002   2.316   1.881   0.966  0.8051  0.4327  0.0226
  672MPD2    H510003   2.325   1.940   1.049  1.2638 -0.0726  0.3333
  672MPD2    N110004   1.979   1.678   0.671  0.7095 -0.6131 -0.3709
  672MPD2    H710005   2.050   1.630   0.616  0.3942  0.5195 -1.7539
  673TMC3    C110006   1.858   1.603   0.483  0.4284 -0.2741 -0.3816
  673TMC3    C210007   1.940   1.496   0.450 -0.0096  0.0436  0.3793
  673TMC3    C310008   1.932   1.445   0.321  1.5458 -0.2956  0.0005
  673TMC3    C410009   1.764   1.654   0.391 -0.0713  0.0320  0.1373
  673TMC3    C510010   1.760   1.602   0.269  0.6171 -0.0426  0.1219
  673TMC3    C610011   1.838   1.494   0.233 -0.9609 -0.1107  0.2682
  673TMC3     C10012   1.856   1.660   0.612 -0.1377 -0.3106  0.6603
  673TMC3     O10013   1.744   1.691   0.650 -0.1345 -0.5494 -0.7233
  673TMC3     H10014   1.990   1.439   0.527  0.3611 -1.4172 -0.9379
  673TMC3    H110015   1.707   1.742   0.419 -1.4367 -0.4906 -1.0125
  673TMC3    H210016   1.840   1.451   0.134 -1.1569 -0.0054  0.2200
  673TMC3    C710017   1.635   1.620   0.197  1.2632  0.4530 -0.1040
  673TMC3    C810018   1.997   1.317   0.283  0.1988 -0.3646 -0.0035
  673TMC3    O110019   1.587   1.525   0.136 -0.0209 -0.5801 -0.4927
  673TMC3    O210020   1.943   1.244   0.200 -0.0133  0.1012 -0.0597
  674MPD2     C10021   1.413   2.167  17.543  1.1338  0.1333  0.5364
  674MPD2    C110022   1.388   2.035  17.546  0.0591  0.2202  0.5880
  674MPD2    C210023   1.256   1.987  17.549 -0.0029  0.7645 -0.0468
  674MPD2    C310024   1.152   2.074  17.539 -0.4508  0.1967 -0.0179
  674MPD2    C410025   1.179   2.206  17.516 -0.1174  0.1192  0.0122
  674MPD2    C510026   1.308   2.258  17.519  0.0417 -0.2954  0.1288
  674MPD2     H10027   1.232   1.883  17.564  2.6046  0.0068 -1.1641
  674MPD2    H110028   1.092   2.267  17.498  0.1665  0.4284 -0.3092
  674MPD2    H210029   1.514   2.205  17.539  0.9700  0.7415  2.0222
  674MPD2    H310030   1.320   2.365  17.505  2.2209 -0.7887 -1.7537
  674MPD2     N10031   1.025   2.023  17.574  0.2335 -0.3680 -0.1334
  674MPD2    H510032   1.014   1.922  17.573  2.0515 -0.5831  1.6050
  674MPD2    N110033   1.493   1.941  17.568  0.3416 -0.4657 -0.3362
  674MPD2    H710034   1.588   1.976  17.572 -0.3786  1.6238 -1.2860
  675TMC3    C110035   1.610   1.745  17.602 -0.1039 -0.2697 -0.8422
  675TMC3    C210036   1.610   1.610  17.576 -0.2531 -0.2400 -0.0445
  675TMC3    C310037   1.731   1.546  17.593 -0.7018 -0.3227  0.2264
  675TMC3    C410038   1.716   1.810  17.658 -0.3227 -0.1473  0.5301
  675TMC3    C510039   1.838   1.743  17.666 -0.2150  0.0944 -0.1184
  675TMC3    C610040   1.847   1.615  17.615  0.0254  0.2595 -0.3013
  675TMC3     C10041   1.485   1.806  17.581  0.3261  0.5295  0.0189
  675TMC3     O10042   1.391   1.741  17.538  0.6922 -0.7869 -0.2465
  675TMC3     H10043   1.522   1.566  17.532 -1.0128  0.2867  0.9482
  675TMC3    H110044   1.703   1.905  17.709  2.4872  1.5208 -1.8200
  675TMC3    H210045   1.939   1.560  17.633 -0.2337  0.2608  1.0279
  675TMC3    C710046   1.940   1.782   0.019 -0.8131 -0.5941 -0.4733
  675TMC3    C810047   1.737   1.405  17.597 -0.4911  0.2575 -0.4399
  675TMC3    O110048   1.983   1.690   0.088  0.2986  0.0592 -0.3033
  675TMC3    O210049   1.834   1.348  17.549 -0.1015  0.4752  0.3947
  676MPD2     C10050   4.132   4.069  10.817  0.1790 -0.1645 -0.3490
  676MPD2    C110051   4.031   4.014  10.892  0.2200  0.2618 -0.0581
  676MPD2    C210052   3.944   3.919  10.841 -0.4160 -0.3909 -0.3648
  676MPD2    C310053   3.958   3.878  10.706 -0.8158 -0.4020 -0.3824
  676MPD2    C410054   4.057   3.932  10.631  0.0788 -0.1122  0.4905
  676MPD2    C510055   4.150   4.017  10.691  0.3057  0.8655  0.6580
  676MPD2     H10056   3.857   3.894  10.901 -0.1417 -0.1319  0.1414
  676MPD2    H110057   4.081   3.897  10.532  1.5406 -1.6727  1.3895
  676MPD2    H210058   4.209   4.139  10.847  0.7067 -0.5913 -0.6977
  676MPD2    H310059   4.244   4.032  10.640  0.6655  0.7461  1.2812
  676MPD2     N10060   3.865   3.786  10.648 -0.2018 -0.0164  0.5275
  676MPD2    H510061   3.782   3.769  10.705 -0.7825  1.6028  0.1658
  676MPD2    N110062   4.035   4.043  11.035  0.2952  0.0700  0.0027
  676MPD2    H710063   3.980   3.981  11.095  0.5332  0.2586  0.4133
  677TMC3    C110064   4.083   4.157  11.239 -1.2592  0.7544 -1.1660
  677TMC3    C210065   4.042   4.047  11.310  0.3298 -0.2933  1.1599
  677TMC3    C310066   4.006   4.052  11.445 -0.0122 -0.6945  0.3247
  677TMC3    C410067   4.122   4.269  11.305  0.9224  0.1706 -0.1720
  677TMC3    C510068   4.107   4.263  11.443  0.2970 -0.2882  0.2142
  677TMC3    C610069   4.045   4.160  11.517 -0.4789 -0.2586  1.2814
  677TMC3     C10070   4.111   4.147  11.095 -0.0105 -0.3701 -0.4320
  677TMC3     O10071   4.197   4.219  11.047 -0.4039  0.1335 -0.0459
  677TMC3     H10072   4.031   3.947  11.268 -0.6196  0.0869  0.5002
  677TMC3    H110073   4.166   4.349  11.247  1.9984 -0.5424 -0.3376
  677TMC3    H210074   4.031   4.159  11.625 -2.0301 -1.1028  1.0683
  677TMC3    C710075   4.115   4.381  11.526 -0.8059 -0.1664  0.1677
  677TMC3    C810076   3.998   3.928  11.517  0.0220 -1.1823  1.1827
  677TMC3    O110077   4.053   4.374  11.633 -0.1017 -0.1914  0.0112
  677TMC3    O210078   4.086   3.846  11.493  0.4528  0.6642  0.2219
  678MPD2     C10079   1.231   3.709   0.921  0.3445  0.7609 -0.3360
  678MPD2    C110080   1.166   3.623   0.835  0.1340 -0.3800  0.0921
  678MPD2    C210081   1.030   3.637   0.811  0.2465 -0.8039 -0.2215
  678MPD2    C310082   0.962   3.746   0.862 -0.0800 -0.7068 -0.3153
  678MPD2    C410083   1.026   3.836   0.948  0.1583 -0.3044  0.4095
  678MPD2    C510084   1.159   3.814   0.976  0.4983 -0.0939  0.0608
  678MPD2     H10085   0.977   3.564   0.751  0.7464 -2.6822  1.6195
  678MPD2    H110086   0.976   3.924   0.988 -1.0828 -0.6266 -0.4266
  678MPD2    H210087   1.333   3.690   0.950  0.3136 -0.1903 -0.8766
  678MPD2    H310088   1.201   3.895   1.033  0.2777  0.3845 -0.4576
  678MPD2     N10089   0.821   3.760   0.828  0.0330 -0.8593 -0.7198
  678MPD2    H510090   0.783   3.678   0.781 -3.0854 -0.0606  0.3612
  678MPD2    N110091   1.218   3.502   0.784 -0.0699  0.1170  0.9202
  678MPD2    H710092   1.159   3.447   0.722 -1.8700  1.2567  1.6407
  679TMC3    C110093   1.394   3.197   0.559  0.7454 -0.2548 -0.1025
  679TMC3    C210094   1.426   3.283   0.661 -0.1609  0.0404 -0.4045
  679TMC3    C310095   1.336   3.302   0.766 -1.0394  0.1403  0.6495
  679TMC3    C410096   1.269   3.140   0.556  0.4583 -0.5707 -0.1558
  679TMC3    C510097   1.178   3.180   0.645  0.1728  0.7671  0.9957
  679TMC3    C610098   1.207   3.251   0.758  0.0935 -0.6633  0.4499
  679TMC3     C10099   1.453   3.217   0.431  0.5834  0.1462 -0.2227
  679TMC3     O10100   1.397   3.168   0.337  0.7028 -0.3074 -0.0330
  679TMC3     H10101   1.513   3.347   0.647  1.2336 -1.2926  2.0014
  679TMC3    H110102   1.237   3.067   0.482 -0.6386  0.2963 -0.5366
  679TMC3    H210103   1.141   3.290   0.836 -0.8389  0.2160 -0.7724
  679TMC3    C710104   1.073   3.256   0.579 -0.1609  0.5507 -0.4502
  679TMC3    C810105   1.337   3.438   0.821 -0.0258  0.7367  0.0204
  679TMC3    O110106   1.013   3.338   0.648  0.0374 -0.1763 -0.1753
  679TMC3    O210107   1.434   3.480   0.880  0.5902 -0.4159 -0.2433
  680MPD2     C10108   0.718   2.571  14.111 -0.0906  0.7557  0.6614
  680MPD2    C110109   0.829   2.530  14.184  0.0873  0.0180  0.1743
  680MPD2    C210110   0.937   2.613  14.211  0.1089  0.3430 -0.2586
  680MPD2    C310111   0.944   2.734  14.152 -0.2982  0.0871 -0.1029
  680MPD2    C410112   0.838   2.775  14.074 -0.0345 -1.0133 -0.3803
  680MPD2    C510113   0.722   2.696  14.058 -0.4629  0.2332  1.0018
  680MPD2     H10114   1.015   2.574  14.275  2.5051  1.8381 -2.2848
  680MPD2    H110115   0.844   2.872  14.027  1.4749 -0.7609  0.3361
  680MPD2    H210116   0.639   2.506  14.076  1.7042 -2.9270  3.4003
  680MPD2    H310117   0.645   2.730  13.989 -0.6370  1.0719  1.6014
  680MPD2     N10118   1.057   2.813  14.159  0.6794  0.1639 -0.2104
  680MPD2    H510119   1.053   2.907  14.122 -0.3831 -0.0275 -0.5906
  680MPD2    N110120   0.836   2.401  14.236 -0.1882 -1.0432 -0.2357
  680MPD2    H710121   0.908   2.391  14.307 -0.4507 -1.3829 -0.0193
  681TMC3    C110122   0.807   2.177  14.288  0.3602  0.0259  0.5869
  681TMC3    C210123   0.855   2.197  14.409  0.6049  0.0655 -0.2520
  681TMC3    C310124   0.959   2.124  14.464  0.4675  0.2509  0.2605
  681TMC3    C410125   0.867   2.092  14.207 -0.1647  0.4858  0.4014
  681TMC3    C510126   0.972   2.023  14.255 -0.3440  0.6513  0.4210
  681TMC3    C610127   1.018   2.029  14.389  0.9218 -0.4364  0.1179
  681TMC3     C10128   0.754   2.297  14.221  0.9953 -0.1053 -0.6172
  681TMC3     O10129   0.651   2.284  14.155 -0.0285 -0.2718 -0.7227
  681TMC3     H10130   0.825   2.284  14.466  1.4492 -0.0487  0.3616
  681TMC3    H110131   0.830   2.072  14.107  0.9348 -0.0408  0.0961
  681TMC3    H210132   1.112   1.985  14.419 -0.3007 -2.4522  1.0369
  681TMC3    C710133   1.071   1.975  14.161 -0.7974  0.5561 -0.0042
  681TMC3    C810134   0.999   2.147  14.601  0.9271 -0.0885 -0.4353
  681TMC3    O110135   1.143   1.892  14.211  0.3400 -0.2673 -0.5342
  681TMC3    O210136   0.924   2.212  14.671  0.5176 -0.3103  0.3993
  682MPD2     C10137   2.771   4.534  10.592 -0.7051  0.1386 -0.1935
  682MPD2    C110138   2.685   4.431  10.620  0.6540  0.0100  0.2596
  682MPD2    C210139   2.599   4.434  10.726 -0.3782  0.0330 -0.1016
  682MPD2    C310140   2.597   4.546  10.806  0.1727 -0.4192 -0.1957
  682MPD2    C410141   2.682   4.649  10.779 -0.3657  0.3109 -1.0153
  682MPD2    C510142   2.764   4.648  10.669  0.5914 -0.4095 -0.0160
  682MPD2     H10143   2.536   4.349  10.750 -2.4585  1.4904 -0.4337
  682MPD2    H110144   2.674   0.006  10.834  0.4455 -0.2590  0.0775
  682MPD2    H210145   2.830   4.546  10.502  0.8825 -1.5970  0.6193
  682MPD2    H310146   2.813   0.003  10.639  2.3106 -1.4831 -0.5024
  682MPD2     N10147   2.517   4.547  10.923  0.7266  0.6583 -0.3607
  682MPD2    H510148   2.524   4.617  10.996 -0.1902  0.1563  0.2261
  682MPD2    N110149   2.683   4.305  10.554  0.2442  1.0676  0.4586
  682MPD2    H710150   2.629   4.228  10.593  0.0388  0.6059 -0.7357
  683TMC3    C110151   2.410   4.327  11.256 -0.3857 -0.2235  0.2115
  683TMC3    C210152   2.283   4.271  11.257 -0.5017  0.7322  1.0336
  683TMC3    C310153   2.187   4.309  11.163 -0.6999  0.8736 -0.0063
  683TMC3    C410154   2.448   4.416  11.156  0.2009  0.4116  0.3356
  683TMC3    C510155   2.351   4.441  11.057  0.2706 -0.0289 -0.0470
  683TMC3    C610156   2.222   4.392  11.063  0.8489  0.6734 -0.4872
  683TMC3     C10157   2.496   4.324  11.374  0.3901 -0.3561  0.7699
  683TMC3     O10158   2.566   4.422  11.394  0.2470 -1.0337  0.3519
  683TMC3     H10159   2.254   4.204  11.338  2.9302 -0.8006  0.9795
  683TMC3    H110160   2.542   4.468  11.166  0.7306 -0.6490  0.8718
  683TMC3    H210161   2.158   4.428  10.984 -0.4872  1.8126  1.1223
  683TMC3    C710162   2.398   4.476  10.920  0.0212  0.3302 -0.1518
  683TMC3    C810163   2.077   4.219  11.132 -0.4294  0.0170  0.8969
  683TMC3    O110164   2.325   4.435  10.829 -0.3883 -0.0282  0.0522
  683TMC3    O210165   1.977   4.266  11.083 -0.6188 -0.4182 -0.7181
  684MPD2     C10166   1.517   3.862  16.417 -0.5225 -0.3602  0.8356
  684MPD2    C110167   1.539   3.886  16.279 -0.2248 -0.3272  0.0435
  684MPD2    C210168   1.480   3.990  16.216  0.1635 -0.7658 -0.5024
  684MPD2    C310169   1.423   4.093  16.289  0.0367  0.2130 -0.6629
  684MPD2    C410170   1.423   4.076  16.426  0.0745  0.4595 -0.0062
  684MPD2    C510171   1.466   3.960  16.488 -0.7570  0.1940 -0.2582
  684MPD2     H10172   1.505   4.009  16.112  1.1938  2.4857  0.3217
  684MPD2    H110173   1.399   4.157  16.494 -0.1091 -1.7989  2.6206
  684MPD2    H210174   1.562   3.782  16.475  1.3830 -1.2088 -1.7811
  684MPD2    H310175   1.476   3.955  16.596  1.2443  2.8330 -0.3127
  684MPD2     N10176   1.401   4.223  16.232  0.1955  0.1594  0.3264
  684MPD2    H510177   1.407   4.298  16.301 -0.2010 -1.4565  2.1268
  684MPD2    N110178   1.622   3.800  16.201  0.8695 -0.0385 -0.2449
  684MPD2    H710179   1.606   3.820  16.103  2.2879  0.1945 -0.4355
  685TMC3    C110180   1.773   3.647  16.133  0.3140  0.1778  0.2053
  685TMC3    C210181   1.700   3.667  16.019  0.4642 -0.0136  0.0970
  685TMC3    C310182   1.759   3.728  15.916 -0.3311 -0.2668 -0.2800
  685TMC3    C410183   1.907   3.669  16.144 -0.2133 -0.5411  0.0774
  685TMC3    C510184   1.953   3.763  16.052  0.0935 -0.3412  0.2732
  685TMC3    C610185   1.878   3.793  15.940 -0.1639  0.4479 -0.2949
  685TMC3     C10186   1.705   3.702  16.250 -0.7589  0.0521 -0.9156
  685TMC3     O10187   1.745   3.686  16.365 -0.1762 -0.3773  0.1195
  685TMC3     H10188   1.611   3.605  16.010 -0.7507  2.2713 -3.4360
  685TMC3    H110189   1.944   3.653  16.244 -1.9667  2.6168  1.2430
  685TMC3    H210190   1.910   3.859  15.861 -1.9113  3.2731  1.3704
  685TMC3    C710191   2.031   3.870  16.111  0.3409  0.1490  0.2616
  685TMC3    C810192   1.673   3.778  15.814  0.1566 -0.4438  0.2961
  685TMC3    O110193   2.050   3.851  16.231  0.3407  0.1233  0.2341
  685TMC3    O210194   1.716   3.800  15.698 -0.0205  0.3873 -0.1335
  686MPD2     C10195   3.000   4.252  16.160  0.2158 -0.3744 -0.0255
  686MPD2    C110196   2.971   4.203  16.035  0.2464 -0.5972 -0.4095
  686MPD2    C210197   3.076   4.181  15.950 -0.2582 -0.6178 -0.2704
  686MPD2    C310198   3.205   4.213  15.987  0.0538  0.3106  0.1026
  686MPD2    C410199   3.231   4.250  16.115 -0.1996 -0.1636  0.3591
  686MPD2    C510200   3.131   4.275  16.200 -0.1255 -0.1082 -0.0856
  686MPD2     H10201   3.052   4.142  15.851 -1.1213 -3.0450  0.9087
  686MPD2    H110202   3.327   4.260  16.165  1.2832  0.4983 -2.6162
  686MPD2    H210203   2.923   4.249  16.236 -0.4911 -0.4380 -0.7474
  686MPD2    H310204   3.148   4.309  16.301 -0.0782 -0.0123 -0.1264
  686MPD2     N10205   3.317   4.197  15.902  0.6597 -0.5041  0.0050
  686MPD2    H510206   3.411   4.202  15.939  0.5519 -0.4722  0.2746
  686MPD2    N110207   2.837   4.166  16.008 -0.8937  0.0271 -0.0753
  686MPD2    H710208   2.776   4.162  16.089  1.5376 -0.9465  1.7180
  687TMC3    C110209   3.410   4.101  15.711  0.4425 -0.7309  0.2512
  687TMC3    C210210   3.395   4.079  15.584  0.2192  0.1390  0.1989
  687TMC3    C310211   3.448   3.963  15.525 -0.3214  0.1928 -0.1781
  687TMC3    C410212   3.479   4.007  15.791  0.1618 -0.9371  0.2700
  687TMC3    C510213   3.518   3.891  15.734  0.1248 -0.0576  0.4839
  687TMC3    C610214   3.510   3.871  15.599  0.1718 -0.2778  0.0996
  687TMC3     C10215   3.303   4.181  15.767 -0.0404 -0.4136  0.0116
  687TMC3     O10216   3.204   4.204  15.693  0.0422  0.3151 -0.3054
  687TMC3     H10217   3.349   4.153  15.520  0.5690  1.7957  1.8643
  687TMC3    H110218   3.492   4.019  15.898  2.3937  1.0318 -0.2318
  687TMC3    H210219   3.561   3.785  15.555  1.0469  1.0768 -1.5330
  687TMC3    C710220   3.506   3.776  15.826  0.1915  0.2799  0.2230
  687TMC3    C810221   3.440   3.926  15.382 -0.7468  0.6970  0.0453
  687TMC3    O110222   3.532   3.785  15.950  0.3749 -0.1981  0.4439
  687TMC3    O210223   3.514   3.840  15.334  0.0581  0.4388 -0.2757
  688MPD2     C10224   1.927   2.788  17.108  0.0917  0.0950 -0.2249
  688MPD2    C110225   1.982   2.663  17.146 -0.9693  0.5745 -0.2888
  688MPD2    C210226   2.086   2.618  17.072 -0.0579  0.2156 -1.2457
  688MPD2    C310227   2.150   2.700  16.984 -0.3739 -0.1448 -0.5104
  688MPD2    C410228   2.103   2.829  16.959  0.1214  0.1119  0.2521
  688MPD2    C510229   1.990   2.871  17.018  0.0993 -0.1192  0.8690
  688MPD2     H10230   2.121   2.517  17.090 -1.0979 -0.0985 -0.9475
  688MPD2    H110231   2.149   2.895  16.887 -0.2283 -0.1566 -0.2132
  688MPD2    H210232   1.829   2.811  17.147  0.9792 -0.3755  2.3038
  688MPD2    H310233   1.948   2.971  17.018  0.3447 -0.0154 -0.3966
  688MPD2     N10234   2.251   2.656  16.894  0.3308  0.1911  0.0753
  688MPD2    H510235   2.274   2.732  16.831 -2.9600  0.7896 -0.4311
  688MPD2    N110236   1.927   2.584  17.249  0.2568 -0.5516  1.1724
  688MPD2    H710237   1.956   2.487  17.254 -2.3249 -1.4074 -0.5021
  689TMC3    C110238   1.814   2.533  17.452  0.5662  0.3377 -0.4158
  689TMC3    C210239   1.809   2.576  17.580  0.4540  0.7005 -0.3648
  689TMC3    C310240   1.787   2.482  17.678  0.2556  0.3765  0.2736
  689TMC3    C410241   1.807   2.401  17.419 -0.0077 -0.0448  0.0476
  689TMC3    C510242   1.776   2.312  17.514 -0.3010 -0.0760  0.1767
  689TMC3    C610243   1.775   2.348  17.644  0.3454  0.3650  0.0209
  689TMC3     C10244   1.854   2.633  17.355  0.4130  0.3836  0.0006
  689TMC3     O10245   1.825   2.750  17.376 -0.1455 -0.2978 -0.2725
  689TMC3     H10246   1.813   2.684  17.591 -1.0659  0.6928  0.2940
  689TMC3    H110247   1.811   2.370  17.315  0.6819 -0.3768  0.1736
  689TMC3    H210248   1.754   2.276  17.722  3.2175  1.5797  1.9286
  689TMC3    C710249   1.780   2.165  17.489 -0.4673  0.3300 -0.0028
  689TMC3    C810250   1.790   2.520   0.077  0.2066 -0.7476  0.1319
  689TMC3    O110251   1.805   2.086  17.578  0.3980  0.4204  0.1808
  689TMC3    O210252   1.804   2.434   0.162 -0.0753  0.6136  0.3440
  690MPD2     C10253   4.312   4.512  15.658  0.3760 -0.2005 -0.0974
  690MPD2    C110254   4.265   4.480  15.538 -0.8996 -0.0765 -0.2524
  690MPD2    C210255   4.312   4.548  15.430  0.6017 -1.0759 -0.5228
  690MPD2    C310256   4.394   4.661  15.441  0.2610 -0.7774  0.0171
  690MPD2    C410257   4.445   4.694  15.566 -0.0982  0.2355  0.6665
  690MPD2    C510258   4.405   4.614  15.668 -0.5561 -0.1392 -0.4862
  690MPD2     H10259   4.254   4.532  15.339  0.8937 -1.6885 -0.5959
  690MPD2    H110260   4.510   0.041  15.591  0.0994 -0.1029  1.2972
  690MPD2    H210261   4.282   4.469  15.752  1.0967  1.0915  0.7234
  690MPD2    H310262   4.428   4.646  15.770  0.1764 -1.5328 -0.2121
  690MPD2     N10263   4.423   4.736  15.326 -0.0969  0.1798  0.0185
  690MPD2    H510264   4.386   4.693  15.241  0.2010  2.7303 -1.4056
  690MPD2    N110265   4.165   4.382  15.507 -0.0491  0.1293  0.5934
  690MPD2    H710266   4.146   4.367  15.409  2.7715 -0.2939  0.1033
  691TMC3    C110267   4.027   4.194  15.554 -0.2652  0.1703 -0.2625
  691TMC3    C210268   3.955   4.220  15.436 -0.0151 -0.6357 -0.2946
  691TMC3    C310269   3.863   4.129  15.401 -0.0596  0.2125 -0.2067
  691TMC3    C410270   4.020   4.074  15.625  0.3536 -0.0926  0.1257
  691TMC3    C510271   3.929   3.982  15.577  0.3057  0.1256  0.5713
  691TMC3    C610272   3.851   4.009  15.472  0.2941 -0.8652  0.3213
  691TMC3     C10273   4.111   4.298  15.607  0.9028 -0.4614  0.1968
  691TMC3     O10274   4.120   4.308  15.729 -0.1366  0.2209  0.8734
  691TMC3     H10275   3.957   4.314  15.383 -1.0183  0.2217  1.1915
  691TMC3    H110276   4.074   4.077  15.719 -0.5279 -2.0276  0.7035
  691TMC3    H210277   3.767   3.944  15.453 -1.4704  1.0519  1.5153
  691TMC3    C710278   3.922   3.863  15.651 -0.4618  0.1975  0.1416
  691TMC3    C810279   3.747   4.158  15.327  0.7944  0.0152 -0.7762
  691TMC3    O110280   3.999   3.869  15.745 -0.2988  0.2008  0.4918
  691TMC3    O210281   3.704   4.057  15.268  0.2236  0.0030 -0.3531
  692TMC3    C110282   0.890   0.681  15.417  0.2638 -0.6003 -0.4816
  692TMC3    C210283   1.002   0.750  15.459 -0.1457 -0.7691 -0.5849
  692TMC3    C310284   1.109   0.686  15.509 -0.2382 -0.0924  0.2296
  692TMC3    C410285   0.877   0.553  15.446  0.3278  0.6018 -0.9697
  692TMC3    C510286   0.983   0.482  15.494 -0.8431 -0.0460  0.1047
  692TMC3    C610287   1.098   0.549  15.520 -0.3723 -0.4976  0.2084
  692TMC3     C10288   0.763   0.755  15.444  0.3294  0.1167 -0.1574
  692TMC3     O10289   0.671   0.689  15.494  0.2453  0.3706  0.1176
  692TMC3     H10290   1.011   0.849  15.416  0.5117  0.2695  1.9555
  692TMC3    H110291   0.784   0.505  15.417  1.8857 -2.4786 -0.8610
  692TMC3    H210292   1.181   0.496  15.565  0.9510  0.7512 -0.7920
  692TMC3    C710293   0.981   0.338  15.489 -0.2025  0.7011  0.3180
  692TMC3    C810294   1.141   0.745  15.635  0.3667 -0.2335 -0.2312
  692TMC3    O110295   0.903   0.294  15.412 -0.8153  0.4663  0.2819
  692TMC3    O210296   1.193   0.672  15.713 -0.6682  0.1438  0.3937
  693MPD2     C10297   0.022   2.634  10.157  0.5049 -0.2747  0.1828
  693MPD2    C110298   0.037   2.733  10.252 -0.1038  0.3484 -0.4719
  693MPD2    C210299   0.081   2.704  10.380 -0.8183  0.2778  0.5307
  693MPD2    C310300   0.131   2.581  10.404 -0.0292 -0.5845  0.1670
  693MPD2    C410301   0.119   2.480  10.310 -0.4426 -0.1004 -0.9469
  693MPD2    C510302   0.074   2.509  10.176  0.2210  0.1324  0.3396
  693MPD2     H10303   0.087   2.786  10.451  1.2560  1.6631 -1.2369
  693MPD2    H110304   0.156   2.380  10.331 -1.3021  0.1512  1.7627
  693MPD2    H210305   4.730   2.662  10.057  1.1062 -1.8693 -0.4457
  693MPD2    H310306   0.074   2.423  10.110 -0.1574  0.8792 -0.6283
  693MPD2     N10307   0.188   2.539  10.528  0.1524 -1.1098  0.0106
  693MPD2    H510308   0.226   2.445  10.532 -1.3965 -1.7099  0.4692
  693MPD2    N110309   0.005   2.867  10.214  0.1938  0.1061  0.4996
  693MPD2    H710310   4.707   2.887  10.121 -2.3564 -1.8308  1.0262
  694TMC3    C110311   4.691   3.093  10.226  0.0332 -0.4615 -0.7421
  694TMC3    C210312   4.589   3.077  10.136 -0.8909 -0.6372 -0.6295
  694TMC3    C310313   4.495   3.176  10.136  0.4132  0.3928  0.0137
  694TMC3    C410314   4.712   3.206  10.298 -0.3918  0.8513 -0.5651
  694TMC3    C510315   4.622   3.304  10.290 -0.2585 -0.0980  0.0584
  694TMC3    C610316   4.512   3.289  10.211 -0.5256  0.0025  0.7146
  694TMC3     C10317   0.008   2.977  10.292  0.4453  1.0522  0.3816
  694TMC3     O10318   0.036   2.992  10.410 -0.2407 -0.6074  0.2333
  694TMC3     H10319   4.580   2.985  10.079  3.0101 -0.3328 -1.7800
  694TMC3    H110320   0.077   3.221  10.332 -0.3531 -1.2847  0.2553
  694TMC3    H210321   4.431   3.359  10.228 -1.0213  0.1299 -2.2257
  694TMC3    C710322   4.584   3.359  10.418 -0.0271  0.1123 -0.1784
  694TMC3    C810323   4.357   3.124  10.102  0.0667  0.6941 -0.2295
  694TMC3    O110324   4.513   3.458  10.425  0.3345  0.4212  0.0158
  694TMC3    O210325   4.346   3.000  10.118  0.4080 -0.2085  0.2908
  695MPD2     C10326   1.627   0.225  13.183  0.6244  0.7003 -0.0645
  695MPD2    C110327   1.583   0.220  13.312  0.0646 -0.2962  0.0312
  695MPD2    C210328   1.467   0.280  13.342 -0.8480  0.0922 -0.3033
  695MPD2    C310329   1.379   0.319  13.243 -0.0346  0.2729  0.2988
  695MPD2    C410330   1.425   0.324  13.115 -0.6338 -0.0069 -0.1639
  695MPD2    C510331   1.550   0.283  13.091  0.0741 -0.0094  0.0622
  695MPD2     H10332   1.447   0.297  13.447  1.0205  0.6972 -0.0329
  695MPD2    H110333   1.360   0.329  13.028  1.2654  1.1645 -1.5174
  695MPD2    H210334   1.717   0.180  13.143  0.3578  0.5154 -0.4586
  695MPD2    H310335   1.583   0.263  12.990  1.4085  2.9844 -0.1042
  695MPD2     N10336   1.245   0.338  13.286  0.0450  0.2981  0.2331
  695MPD2    H510337   1.225   0.335  13.385  0.4909 -2.2983  0.2496
  695MPD2    N110338   1.662   0.169  13.419 -0.0995 -0.0106 -0.6248
  695MPD2    H710339   1.617   0.164  13.510 -1.7170 -1.1744 -1.4798
  696TMC3    C110340   1.017   0.397  13.266 -0.5141  1.0553  0.4697
  696TMC3    C210341   0.984   0.331  13.384 -0.2159 -0.6395  0.2264
  696TMC3    C310342   0.862   0.362  13.442 -0.2211  0.2462  0.1559
  696TMC3    C410343   0.931   0.478  13.196  1.3458  0.4739 -0.5018
  696TMC3    C510344   0.804   0.499  13.255  0.5026 -0.1754 -0.4002
  696TMC3    C610345   0.771   0.444  13.374 -0.2847  0.0584  0.4538
  696TMC3     C10346   1.143   0.371  13.202  0.2158 -0.0527  0.0058
  696TMC3     O10347   1.142   0.379  13.080  0.6252 -0.6066  0.2190
  696TMC3     H10348   1.057   0.271  13.437 -0.9383 -0.2244  1.7022
  696TMC3    H110349   0.958   0.539  13.111 -0.8843  0.7390 -0.9944
  696TMC3    H210350   0.669   0.448  13.412 -0.5765 -0.9186 -0.2456
  696TMC3    C710351   0.744   0.632  13.242 -0.7797  1.1875 -0.3797
  696TMC3    C810352   0.863   0.368  13.582 -0.0353  0.0031  0.9774
  696TMC3    O110353   0.697   0.673  13.139 -0.0305  0.1398 -0.1235
  696TMC3    O210354   0.972   0.344  13.636 -0.1257  0.8486 -0.4217
  697MPD2     C10355   0.799   1.899  15.347 -0.3326 -0.5229  0.0325
  697MPD2    C110356   0.699   1.880  15.256 -0.6692  0.4345 -0.2384
  697MPD2    C210357   0.671   1.990  15.176 -0.0363 -0.6094 -0.2415
  697MPD2    C310358   0.741   2.109  15.178 -0.3759  0.0789 -0.7073
  697MPD2    C410359   0.840   2.126  15.275  0.0643 -0.2989  0.1509
  697MPD2    C510360   0.865   2.021  15.359 -0.1096  0.3869 -0.4671
  697MPD2     H10361   0.600   1.974  15.095 -0.6652  0.9039  0.0100
  697MPD2    H110362   0.899   2.217  15.284  0.4054 -0.3779 -1.3387
  697MPD2    H210363   0.827   1.820  15.415 -0.4547  0.4819  1.2619
  697MPD2    H310364   0.950   2.023  15.427 -0.8423  0.6749  0.4507
  697MPD2     N10365   0.709   2.207  15.084 -0.3462 -0.0957 -0.1721
  697MPD2    H510366   0.635   2.182  15.020  0.0646  0.5810 -0.9178
  697MPD2    N110367   0.628   1.764  15.229  0.6725  0.1828  0.1380
  697MPD2    H710368   0.551   1.776  15.164  0.7368 -1.7298 -0.3020
  698TMC3    C110369   0.691   2.407  14.972  0.6271 -0.1929 -0.7672
  698TMC3    C210370   0.687   2.547  14.981 -0.3789 -0.0372 -0.2841
  698TMC3    C310371   0.644   2.608  14.864  0.8743  0.7432 -0.7777
  698TMC3    C410372   0.635   2.338  14.863 -0.7435 -0.1284 -0.3221
  698TMC3    C510373   0.590   2.408  14.757  0.2077  0.1944 -0.1329
  698TMC3    C610374   0.604   2.541  14.750 -0.4474  0.2438  0.4604
  698TMC3     C10375   0.747   2.334  15.082  0.0759  0.4718 -0.0505
  698TMC3     O10376   0.802   2.398  15.170  0.1039  0.2217  0.0393
  698TMC3     H10377   0.716   2.587  15.078 -0.9335 -2.4100  0.8633
  698TMC3    H110378   0.647   2.231  14.859  1.2674  0.0034  2.5715
  698TMC3    H210379   0.586   2.594  14.657 -0.0395 -0.7615 -0.1910
  698TMC3    C710380   0.575   2.336  14.633  0.3859  0.0117  0.4033
  698TMC3    C810381   0.671   2.751  14.841  0.7647 -0.3973  0.2031
  698TMC3    O110382   0.626   2.392  14.534 -0.4070  0.2503 -0.2616
  698TMC3    O210383   0.593   2.825  14.786  0.2767  0.6481  0.1822
  699TMC3    C110384   0.777   0.405  12.785 -0.0466  0.2606 -0.3445
  699TMC3    C210385   0.839   0.297  12.850  0.1958  0.4246 -0.5900
  699TMC3    C310386   0.793   0.263  12.972 -0.7865 -0.6699 -0.1884
  699TMC3    C410387   0.662   0.464  12.831  0.4034  0.2090 -0.3440
  699TMC3    C510388   0.629   0.429  12.962  0.0495 -0.2131 -0.2528
  699TMC3    C610389   0.693   0.331  13.035 -0.7440  0.5150 -0.1643
  699TMC3     C10390   0.813   0.422  12.644  0.0875 -0.2614 -0.0976
  699TMC3     O10391   0.718   0.446  12.574 -0.3525  0.9651  0.2462
  699TMC3     H10392   0.919   0.244  12.800 -0.1829 -0.5522 -0.1503
  699TMC3    H110393   0.608   0.540  12.776  2.0333 -0.2577 -2.5654
  699TMC3    H210394   0.653   0.294  13.129 -0.1606  0.2963 -0.0012
  699TMC3    C710395   0.502   0.460  13.018  0.2915 -0.1207  0.3233
  699TMC3    C810396   0.837   0.148  13.050  0.6929  0.3498  0.2407
  699TMC3    O110397   0.468   0.408  13.124  0.2029  0.5561  0.1623
  699TMC3    O210398   0.800   0.144  13.165  0.0584  0.0341  0.3497
  700TMC3    C110399   4.368   2.843  17.163 -0.0992  1.1426 -0.1628
  700TMC3    C210400   4.434   2.727  17.128 -0.1364 -0.4750 -0.4427
  700TMC3    C310401   4.543   2.690  17.202  0.1014 -0.0096  0.3089
  700TMC3    C410402   4.411   2.916  17.261  0.6718  0.7107 -0.1598
  700TMC3    C510403   4.528   2.885  17.331  0.2522 -0.2118  0.0677
  700TMC3    C610404   4.589   2.760  17.306 -0.5839 -0.1293 -0.8013
  700TMC3     C10405   4.333   2.921  17.047 -0.5461 -1.2679 -0.2561
  700TMC3     O10406   4.226   2.892  16.994  0.3688  0.2431 -0.1596
  700TMC3     H10407   4.412   2.675  17.035 -3.4102  1.4258 -0.7446
  700TMC3    H110408   4.360   3.004  17.299  1.2593  0.8154  0.3950
  700TMC3    H210409   4.685   2.729  17.345 -0.4684  0.2696 -0.7644
  700TMC3    C710410   4.580   2.976  17.430 -0.6395  0.4784 -0.6372
  700TMC3    C810411   4.618   2.569  17.171  0.0417  0.0256  0.4694
  700TMC3    O110412   4.547   3.090  17.422 -0.2275 -0.1048  0.6234
  700TMC3    O210413   4.734   2.555  17.208  0.1359 -0.3796  0.1529
  701TMC3    C110414   4.565   1.300  15.326 -0.3598 -0.4815 -0.5127
  701TMC3    C210415   4.589   1.272  15.192  0.2658  0.2990  0.1358
  701TMC3    C310416   4.695   1.343  15.136  0.3051  0.2313 -0.3309
  701TMC3    C410417   4.604   1.420  15.378  0.3057  0.0610 -0.1457
  701TMC3    C510418   4.698   1.493  15.314  0.6445  0.8949  0.3835
  701TMC3    C610419   0.012   1.451  15.199  0.0261 -0.0658  0.2480
  701TMC3     C10420   4.434   1.271  15.381 -0.1078 -0.2313 -0.2214
  701TMC3     O10421   4.384   1.338  15.473  0.6810  0.6735  0.1288
  701TMC3     H10422   4.567   1.171  15.158 -0.4692 -0.3682  2.5973
  701TMC3    H110423   4.580   1.437  15.482  4.3349  0.0833  0.7945
  701TMC3    H210424   0.084   1.501  15.136 -0.1712  0.4202  0.4122
  701TMC3    C710425   0.020   1.622  15.372  0.4142 -0.2247  0.2147
  701TMC3    C810426   0.001   1.311  14.999  0.0007 -0.0014 -0.1043
  701TMC3    O110427   0.093   1.688  15.297 -0.0283 -0.0543 -0.4432
  701TMC3    O210428   0.117   1.337  14.965  0.2788  0.1065 -0.1451
  702MPD2     C10429   3.393   3.795   9.992 -0.0051  0.2244  0.4198
  702MPD2    C110430   3.520   3.815  10.038 -0.2277 -0.1076 -0.2697
  702MPD2    C210431   3.593   3.919   9.983 -0.1315 -0.6468  0.3255
  702MPD2    C310432   3.533   4.022   9.909 -0.0709  0.4936  0.2993
  702MPD2    C410433   3.415   3.990   9.849 -0.1238  0.3004  0.6268
  702MPD2    C510434   3.345   3.881   9.895  0.0090  0.1080 -1.1661
  702MPD2     H10435   3.699   3.919  10.004 -0.6275  2.3274  2.7800
  702MPD2    H110436   3.357   4.061   9.790  1.2200  0.7125 -0.1987
  702MPD2    H210437   3.335   3.709  10.021 -0.1732  0.9387  2.2289
  702MPD2    H310438   3.243   3.872   9.860 -0.4281  1.7152 -0.2980
  702MPD2     N10439   3.588   4.149   9.874 -0.6256  0.0717 -0.4798
  702MPD2    H510440   3.546   4.193   9.792  2.8531  1.4065 -1.5537
  702MPD2    N110441   3.575   3.740  10.138 -0.2545 -0.5538  0.2640
  702MPD2    H710442   3.664   3.767  10.178 -0.8191  0.6765  0.6634
  703TMC3    C110443   3.756   4.158  10.057 -0.4732  0.5413 -0.3896
  703TMC3    C210444   3.675   4.149  10.165 -0.4114  1.2605  0.4040
  703TMC3    C310445   3.729   4.087  10.274  0.0899  0.2318  0.4858
  703TMC3    C410446   3.893   4.132  10.067 -0.2873  0.5082 -0.0624
  703TMC3    C510447   3.942   4.063  10.178  0.2783 -0.2497 -0.0183
  703TMC3    C610448   3.859   4.035  10.286 -0.3729  0.4351  0.6084
  703TMC3     C10449   3.710   4.202   9.920 -0.2515  0.4567  0.3268
  703TMC3     O10450   3.776   4.292   9.870 -0.0802 -0.0852  0.1312
  703TMC3     H10451   3.576   4.192  10.156 -1.7066 -1.9156 -0.5062
  703TMC3    H110452   3.954   4.177   9.990 -0.4295  2.3569  0.9049
  703TMC3    H210453   3.893   3.986  10.377  0.6303  0.5152  0.2777
  703TMC3    C710454   4.080   4.052  10.193  0.0946  0.6020  0.6008
  703TMC3    C810455   3.638   4.031  10.364  0.6286 -0.2357  0.2214
  703TMC3    O110456   4.138   4.097  10.089  0.2687  0.6229 -0.3720
  703TMC3    O210457   3.672   3.925  10.414 -0.1065 -0.0523  0.1367
  704TMC3    C110458   2.182   1.356  12.115  0.0118 -0.3818 -0.5729
  704TMC3    C210459   2.178   1.270  12.012 -0.1275  0.0695 -0.2137
  704TMC3    C310460   2.256   1.159  12.030  0.4500 -0.7951  0.3273
  704TMC3    C410461   2.265   1.346  12.221  0.1238  0.2798 -0.4660
  704TMC3    C510462   2.338   1.232  12.230  0.4348  0.1386 -0.1277
  704TMC3    C610463   2.333   1.134  12.141  0.2544 -0.6062  1.1296
  704TMC3     C10464   2.052   1.410  12.151 -0.7573 -0.0946 -0.0133
  704TMC3     O10465   2.056   1.524  12.190  0.2548 -0.1075  0.1860
  704TMC3     H10466   2.128   1.297  11.919 -0.0323 -1.3837 -0.6905
  704TMC3    H110467   2.252   1.412  12.306 -1.9153  0.2499 -0.7614
  704TMC3    H210468   2.390   1.043  12.153 -0.4006 -0.7296  3.2003
  704TMC3    C710469   2.358   1.178  12.365  0.0177  0.4664 -0.2693
  704TMC3    C810470   2.186   1.046  11.985 -0.0031 -0.8803 -0.4767
  704TMC3    O110471   2.335   1.057  12.381  0.0868  0.0636 -0.3112
  704TMC3    O210472   2.068   1.055  11.975  0.0006  0.0427  0.0490
  705MPD2     C10473   1.358   0.545  16.522 -0.2756 -0.3039  0.4030
  705MPD2    C110474   1.327   0.611  16.406 -0.0230 -0.0862 -0.1188
  705MPD2    C210475   1.217   0.699  16.415  0.1154 -0.4960 -0.0943
  705MPD2    C310476   1.131   0.691  16.522  0.1830  0.2490  0.2016
  705MPD2    C410477   1.162   0.617  16.633 -0.1513 -0.1032 -0.1373
  705MPD2    C510478   1.283   0.555  16.631  0.6848 -0.4141 -0.3844
  705MPD2     H10479   1.192   0.750  16.323  1.6027 -0.6212 -0.5608
  705MPD2    H110480   1.116   0.621  16.730  0.7990 -3.3974  0.4694
  705MPD2    H210481   1.446   0.482  16.533 -0.8838 -0.8682  2.0930
  705MPD2    H310482   1.314   0.501  16.720  1.1947  0.5089  0.0021
  705MPD2     N10483   1.009   0.763  16.521 -1.0761 -0.9908 -0.0785
  705MPD2    H510484   0.945   0.753  16.599 -0.8014 -0.5271  0.2086
  705MPD2    N110485   1.408   0.607  16.286 -0.0047  0.5898 -0.2637
  705MPD2    H710486   1.383   0.674  16.214  1.4812  1.0180 -0.3826
  706TMC3    C110487   1.633   0.348  15.946  0.5762  0.4324  0.4056
  706TMC3    C210488   1.633   0.456  15.861 -0.1847  0.2479  0.3829
  706TMC3    C310489   1.591   0.576  15.907  0.4894  0.2693 -0.2742
  706TMC3    C410490   1.585   0.365  16.074 -0.4211 -0.3635 -1.0839
  706TMC3    C510491   1.545   0.488  16.119  0.1043 -0.4270 -0.4297
  706TMC3    C610492   1.535   0.597  16.032 -0.0057  0.2234 -0.2160
  706TMC3     C10493   1.725   0.237  15.925  0.2167 -0.1165  0.2550
  706TMC3     O10494   1.747   0.155  16.014  0.0427 -0.2725 -0.0603
  706TMC3     H10495   1.668   0.443  15.759 -2.1654  1.3202 -0.4457
  706TMC3    H110496   1.607   0.297  16.154 -1.1976  0.4726 -0.1621
  706TMC3    H210497   1.511   0.695  16.072  0.6005 -0.4987  1.9083
  706TMC3    C710498   1.487   0.499  16.254  0.4509 -0.8060  0.4213
  706TMC3    C810499   1.597   0.680  15.804 -0.7895 -0.2633  0.3059
  706TMC3    O110500   1.496   0.395  16.321 -0.7794 -0.0228  0.3394
  706TMC3    O210501   1.642   0.659  15.694  0.0830  0.0113  0.4290
  707TMC3    C110502   2.661   3.963   0.523 -0.3191 -0.0185  0.1771
  707TMC3    C210503   2.660   3.832   0.547  0.7866 -0.2383  0.2798
  707TMC3    C310504   2.559   3.756   0.497  0.0200 -0.5331  0.2355
  707TMC3    C410505   2.559   4.028   0.452  0.5854  0.0293  0.0375
  707TMC3    C510506   2.458   3.948   0.409  0.1881  0.7059 -0.1277
  707TMC3    C610507   2.457   3.813   0.427  0.2199 -0.1041 -0.6106
  707TMC3     C10508   2.787   4.034   0.545 -0.8719  1.0236  0.5071
  707TMC3     O10509   2.893   3.964   0.548 -0.3439  0.4620 -0.2383
  707TMC3     H10510   2.731   3.790   0.618 -1.7733 -2.6533  1.4378
  707TMC3    H110511   2.560   4.136   0.440 -0.2024  0.3397  2.5771
  707TMC3    H210512   2.370   3.756   0.398  1.1143 -2.1474  0.6659
  707TMC3    C710513   2.345   4.021   0.354 -0.4576 -0.4920 -0.7350
  707TMC3    C810514   2.542   3.617   0.536  0.5006 -0.7926 -0.1273
  707TMC3    O110515   2.363   4.133   0.311  0.2824 -0.0277  0.6184
  707TMC3    O210516   2.433   3.568   0.511  0.0286  0.0754  0.2860
  708MPD2     C10517   4.623   3.155  13.901 -0.1428 -0.0840 -0.8005
  708MPD2    C110518   4.518   3.174  13.994  0.8872  0.1498  0.5961
  708MPD2    C210519   4.550   3.197  14.124  0.1898  0.5523  0.1423
  708MPD2    C310520   4.678   3.209  14.170 -0.3985  0.1935 -0.5329
  708MPD2    C410521   0.040   3.199  14.076 -0.1141 -0.2513  0.3710
  708MPD2    C510522   0.014   3.173  13.938  0.6915 -0.6226  0.3347
  708MPD2     H10523   4.470   3.224  14.193  0.7508  0.1967  0.9256
  708MPD2    H110524   0.143   3.222  14.101 -0.0999  0.2987 -0.2068
  708MPD2    H210525   4.597   3.148  13.796 -2.5895  0.1056 -0.2051
  708MPD2    H310526   0.091   3.180  13.863  1.4125  0.0912  1.1319
  708MPD2     N10527   4.714   3.269  14.293  0.1301  0.2792 -0.0141
  708MPD2    H510528   0.072   3.304  14.310  1.6663 -3.9243  0.1043
  708MPD2    N110529   4.388   3.189  13.943  0.4918  0.3151  0.8120
  708MPD2    H710530   4.373   3.202  13.843  0.8024 -1.2770  0.5608
  709TMC3    C110531   4.153   3.221  13.947 -0.0035 -0.1463 -0.1590
  709TMC3    C210532   4.174   3.268  13.823 -0.1924  0.5501 -0.0852
  709TMC3    C310533   4.161   3.403  13.803 -0.3182  0.3401 -0.0327
  709TMC3    C410534   4.077   3.290  14.036  0.1202 -0.2769 -0.1717
  709TMC3    C510535   4.068   3.427  14.018  0.5777 -0.3907 -0.3586
  709TMC3    C610536   4.117   3.480  13.903  0.6905  0.0157  0.0080
  709TMC3     C10537   4.274   3.171  14.018  0.0021 -0.4952 -0.2625
  709TMC3     O10538   4.247   3.144  14.137 -0.4258 -0.1715 -0.0347
  709TMC3     H10539   4.198   3.185  13.758 -1.0833 -0.4635  0.8788
  709TMC3    H110540   4.042   3.243  14.127  2.5227 -2.2825 -0.2844
  709TMC3    H210541   4.099   3.586  13.889  0.4421  0.1006  0.9913
  709TMC3    C710542   4.086   3.505  14.136 -0.5876  0.2231  0.0074
  709TMC3    C810543   4.177   3.467  13.679  0.7558 -0.0332 -0.3632
  709TMC3    O110544   4.188   3.574  14.148 -0.3478 -0.0203  0.7169
  709TMC3    O210545   4.180   3.590  13.685 -0.3126  0.0844 -0.0621
  710TMC3    C110546   0.699   4.089   0.486 -0.0583 -0.0112 -0.1415
  710TMC3    C210547   0.772   4.176   0.411 -0.9054 -0.4855 -1.0894
  710TMC3    C310548   0.894   4.133   0.361 -0.5553  1.1985 -0.3589
  710TMC3    C410549   0.722   3.952   0.483  0.4819 -0.2329  0.9101
  710TMC3    C510550   0.846   3.916   0.438 -0.1702  0.3343 -0.0374
  710TMC3    C610551   0.932   4.005   0.385  0.5024  0.1194 -0.6405
  710TMC3     C10552   0.562   4.109   0.496  0.5192 -0.7507 -0.5605
  710TMC3     O10553   0.490   4.009   0.487 -0.0734  0.1153  0.0013
  710TMC3     H10554   0.756   4.284   0.409 -2.1740 -0.7735 -5.5081
  710TMC3    H110555   0.662   3.872   0.525  1.4070 -1.1526  0.4985
  710TMC3    H210556   1.031   3.974   0.353 -0.2876  1.4945 -4.4323
  710TMC3    C710557   0.888   3.774   0.446 -0.0753 -0.0358 -0.8089
  710TMC3    C810558   0.982   4.235   0.290 -0.3373  0.2936 -0.4029
  710TMC3    O110559   0.862   3.708   0.547 -0.9220 -0.2041  0.0855
  710TMC3    O210560   0.927   4.337   0.255 -0.0185  0.3178 -0.2872
  711TMC3    C110561   0.644   0.646  14.254 -0.5906  0.2121  0.2896
  711TMC3    C210562   0.661   0.780  14.260 -0.7121 -0.5018 -0.4443
  711TMC3    C310563   0.776   0.836  14.304 -0.1967 -0.2295  0.3326
  711TMC3    C410564   0.751   0.565  14.284 -0.4562  0.6526  0.2179
  711TMC3    C510565   0.868   0.625  14.322 -0.1576  0.2557  0.2623
  711TMC3    C610566   0.881   0.760  14.336  0.4289  0.0524  0.3041
  711TMC3     C10567   0.527   0.580  14.200  0.1704  0.4166 -0.0222
  711TMC3     O10568   0.414   0.623  14.220  0.1536  0.8001  0.1297
  711TMC3     H10569   0.571   0.839  14.272 -0.0559  0.2107  0.9707
  711TMC3    H110570   0.723   0.464  14.313 -0.2848  0.0489 -1.7084
  711TMC3    H210571   0.977   0.809  14.353  0.3425  0.1695  0.4522
  711TMC3    C710572   0.946   0.556  14.421 -0.2011 -0.5756  0.0739
  711TMC3    C810573   0.751   0.940  14.403 -0.1480  1.1257 -0.4526
  711TMC3    O110574   0.963   0.620  14.525  0.5400  0.0028  0.1913
  711TMC3    O210575   0.725   1.049  14.364  0.7691  0.8367 -0.6396
  712MPD2     C10576   2.160   2.389  13.164  0.1695  1.1613  0.2270
  712MPD2    C110577   2.084   2.301  13.242 -0.4165  0.3625 -0.9622
  712MPD2    C210578   2.026   2.344  13.359 -1.0237 -0.3608 -0.3921
  712MPD2    C310579   2.033   2.475  13.402 -0.2473 -0.7736  0.6281
  712MPD2    C410580   2.106   2.557  13.319 -0.1487  0.6945 -0.5874
  712MPD2    C510581   2.168   2.514  13.207 -0.5887 -0.2134 -0.0899
  712MPD2     H10582   1.969   2.274  13.419  1.7579 -1.9259  0.4136
  712MPD2    H110583   2.099   2.664  13.337 -1.4107  0.0355  2.6882
  712MPD2    H210584   2.216   2.362  13.075 -0.7541  2.4174 -0.7303
  712MPD2    H310585   2.210   2.593  13.145  0.6866 -1.3811 -0.7080
  712MPD2     N10586   1.964   2.525  13.520  0.5298  0.7882  0.3110
  712MPD2    H510587   1.993   2.617  13.552 -1.8081  1.1624  1.3825
  712MPD2    N110588   2.060   2.168  13.203  0.1542  0.5438 -0.3509
  712MPD2    H710589   2.009   2.107  13.267  1.4687  0.6573  0.7994
  713TMC3    C110590   1.867   2.536  13.726 -0.1696 -0.2941  0.2086
  713TMC3    C210591   1.988   2.577  13.781 -0.8294 -0.6008  0.1414
  713TMC3    C310592   2.003   2.568  13.914  0.4577  0.1573  0.0295
  713TMC3    C410593   1.769   2.491  13.809 -0.0945 -0.4582 -0.1601
  713TMC3    C510594   1.798   2.489  13.943 -0.4818  0.6574  0.1525
  713TMC3    C610595   1.912   2.535  14.007 -0.3659 -0.2563 -0.8356
  713TMC3     C10596   1.878   2.463  13.600  0.1961  0.5159  0.0572
  713TMC3     O10597   1.826   2.351  13.598  0.5579 -0.7114 -0.7427
  713TMC3     H10598   2.074   2.568  13.716 -1.9344  0.6054 -1.4968
  713TMC3    H110599   1.676   2.448  13.772 -0.7993  0.6717  0.3090
  713TMC3    H210600   1.932   2.517  14.112  1.1324  1.1160 -0.8901
  713TMC3    C710601   1.695   2.443  14.032  0.3541  0.0021  0.1992
  713TMC3    C810602   2.136   2.610  13.950  0.7267 -0.7053 -0.0411
  713TMC3    O110603   1.735   2.399  14.137 -0.1645 -0.5344  0.3390
  713TMC3    O210604   2.184   2.706  13.886  0.6463 -0.2148 -0.8800
  714MPD2     C10605   4.007   1.010   1.583  0.1395 -0.2029 -0.5516
  714MPD2    C110606   4.042   0.953   1.466 -0.0010 -0.3862 -0.7194
  714MPD2    C210607   3.973   0.991   1.355 -0.3885 -0.9058  0.1127
  714MPD2    C310608   3.862   1.078   1.362  0.1855  0.1077 -0.3811
  714MPD2    C410609   3.832   1.138   1.480 -1.2824  0.1871 -0.0641
  714MPD2    C510610   3.908   1.101   1.594  0.1126  0.0000  0.0931
  714MPD2     H10611   4.002   0.947   1.260  0.2930  0.2056 -0.1962
  714MPD2    H110612   3.743   1.198   1.494 -0.7328  0.5764  1.7202
  714MPD2    H210613   4.060   0.984   1.674  3.1929  0.4867 -2.1419
  714MPD2    H310614   3.892   1.145   1.691  0.8317 -0.0683  0.2409
  714MPD2     N10615   3.798   1.117   1.240 -0.2010  0.3362  0.5065
  714MPD2    H510616   3.824   1.058   1.162 -2.1585  0.1461  0.0159
  714MPD2    N110617   4.147   0.862   1.471 -0.0325 -0.2292 -0.2344
  714MPD2    H710618   4.193   0.858   1.561 -4.7408 -1.8700  2.0662
  715TMC3    C110619   4.307   0.698   1.410  0.2149 -0.4783  0.3844
  715TMC3    C210620   4.325   0.583   1.338  0.2855  0.1056  0.4381
  715TMC3    C310621   4.454   0.532   1.344 -0.4352 -0.6138  0.1973
  715TMC3    C410622   4.402   0.764   1.491  0.2491 -0.1898 -0.4828
  715TMC3    C510623   4.515   0.697   1.505  0.9952 -0.9682 -0.6553
  715TMC3    C610624   4.550   0.592   1.425 -0.1314  0.5721 -0.8611
  715TMC3     C10625   4.183   0.766   1.382  0.4843 -0.9156  0.0455
  715TMC3     O10626   4.117   0.741   1.282  0.3702  0.0875 -0.0480
  715TMC3     H10627   4.240   0.539   1.287  0.2956  0.5506  0.0379
  715TMC3    H110628   4.373   0.852   1.547  1.7416  0.2149 -0.3607
  715TMC3    H210629   4.640   0.534   1.447 -0.2015  0.4378 -0.9253
  715TMC3    C710630   4.586   0.731   1.619  0.3003  0.5349 -1.0214
  715TMC3    C810631   4.466   0.417   1.255 -0.7852 -0.5626  0.4265
  715TMC3    O110632   4.524   0.793   1.704 -0.5012  0.0915 -0.3942
  715TMC3    O210633   4.365   0.355   1.234 -0.4110  0.4138 -0.6019
  716MPD2     C10634   4.341   4.250   9.202 -0.4198  0.1289  0.0408
  716MPD2    C110635   4.242   4.205   9.285  0.4371 -0.2647 -0.4200
  716MPD2    C210636   4.265   4.088   9.357  0.4655  0.2396 -0.1657
  716MPD2    C310637   4.382   4.011   9.336 -0.9174  0.5460  0.2121
  716MPD2    C410638   4.471   4.057   9.242  0.2723  0.2893  0.4310
  716MPD2    C510639   4.453   4.182   9.178  0.2594  0.0857 -0.0719
  716MPD2     H10640   4.206   4.055   9.442 -0.8004  0.7349 -0.8567
  716MPD2    H110641   4.564   4.005   9.222  0.3699  0.1983  1.1200
  716MPD2    H210642   4.325   4.352   9.169 -1.2848 -0.4744 -1.4130
  716MPD2    H310643   4.527   4.215   9.106  0.9683  1.3212  1.2324
  716MPD2     N10644   4.392   3.892   9.416  0.1026 -0.2692 -0.0656
  716MPD2    H510645   4.313   3.871   9.476  1.2330 -1.9551  0.8530
  716MPD2    N110646   4.133   4.298   9.311  0.1997  0.4549  0.0164
  716MPD2    H710647   4.143   4.388   9.264 -0.4955  0.0576 -0.9012
  717TMC3    C110648   4.485   3.675   9.475  0.4460 -0.3287 -0.1659
  717TMC3    C210649   4.363   3.642   9.533 -0.3030 -0.1820  0.1763
  717TMC3    C310650   4.350   3.514   9.577  0.1089  0.6209 -0.2592
  717TMC3    C410651   4.590   3.589   9.461 -0.2498  0.3383 -0.4243
  717TMC3    C510652   4.576   3.460   9.501  0.3628  0.6354 -0.2579
  717TMC3    C610653   4.454   3.424   9.554  0.0485  0.6218  0.1348
  717TMC3     C10654   4.502   3.809   9.417 -0.1678  0.1259  1.0288
  717TMC3     O10655   4.609   3.834   9.362  0.2801  0.0308  0.4591
  717TMC3     H10656   4.292   3.723   9.548 -0.4214 -0.1047 -0.7857
  717TMC3    H110657   4.683   3.629   9.423  0.4033  0.5030  1.3381
  717TMC3    H210658   4.441   3.327   9.600 -3.8989  0.5286 -1.1519
  717TMC3    C710659   4.692   3.373   9.498 -0.4287  0.1518 -0.1951
  717TMC3    C810660   4.214   3.468   9.591 -0.7454  0.1025  0.5700
  717TMC3    O110661   0.062   3.431   9.496 -0.6989  0.1240 -0.5995
  717TMC3    O210662   4.140   3.562   9.614 -0.1814 -0.4816 -0.3487
  718MPD2     C10663   3.360   2.481  12.353 -0.3086 -0.6616  0.0520
  718MPD2    C110664   3.398   2.408  12.239  0.6879  0.5540 -0.3577
  718MPD2    C210665   3.371   2.269  12.235  0.6877 -0.1491  0.3197
  718MPD2    C310666   3.293   2.213  12.338 -0.1167 -0.2296  0.0754
  718MPD2    C410667   3.268   2.281  12.449  0.8679  0.2300  0.3113
  718MPD2    C510668   3.288   2.417  12.453  0.6682 -0.0504 -0.6874
  718MPD2     H10669   3.385   2.217  12.141  0.1810 -2.1925  1.3648
  718MPD2    H110670   3.222   2.240  12.538 -1.8284  0.0857 -1.1684
  718MPD2    H210671   3.366   2.588  12.370 -0.8365 -0.3357 -1.7904
  718MPD2    H310672   3.253   2.460  12.546  1.1621  2.3808 -1.6446
  718MPD2     N10673   3.274   2.073  12.319  0.0521  0.3068 -0.0088
  718MPD2    H510674   3.295   2.033  12.228 -0.0752  0.9731 -0.3238
  718MPD2    N110675   3.465   2.479  12.139  0.1730  0.2253  0.3829
  718MPD2    H710676   3.459   2.580  12.142 -0.0889  0.2973 -3.6483
  719TMC3    C110677   3.540   2.497  11.908  0.3226  1.0954 -0.9212
  719TMC3    C210678   3.509   2.411  11.814  0.3605 -0.6056 -0.0157
  719TMC3    C310679   3.589   2.398  11.702  0.5390 -0.4011 -0.0636
  719TMC3    C410680   3.657   2.562  11.922 -0.0150 -0.3175 -0.3190
  719TMC3    C510681   3.741   2.544  11.813 -0.0206 -0.1793  0.6754
  719TMC3    C610682   3.710   2.463  11.705 -1.2744  0.3373 -0.3841
  719TMC3     C10683   3.529   2.420  12.033 -0.0814 -0.9673 -0.1653
  719TMC3     O10684   3.556   2.300  12.020  0.3477  0.2838 -0.0807
  719TMC3     H10685   3.413   2.360  11.815  0.2468 -0.3974 -0.7853
  719TMC3    H110686   3.675   2.629  12.005 -1.6475 -0.4176  0.1131
  719TMC3    H210687   3.786   2.439  11.632 -1.5702 -0.2803 -0.4878
  719TMC3    C710688   3.882   2.571  11.822 -0.0664 -0.7007  0.3474
  719TMC3    C810689   3.591   2.273  11.632 -0.4967  0.3235 -0.7003
  719TMC3    O110690   3.950   2.546  11.723 -0.1245 -0.5303  0.0604
  719TMC3    O210691   3.618   2.261  11.514 -0.5354  0.4049  0.0816
  720MPD2     C10692   1.844   3.531  13.646  0.8146 -0.3728 -0.2743
  720MPD2    C110693   1.820   3.663  13.687  0.2132 -0.1092  0.9149
  720MPD2    C210694   1.919   3.731  13.760  0.3921 -0.2938 -0.1993
  720MPD2    C310695   2.041   3.663  13.781  0.6612  0.1356  0.2282
  720MPD2    C410696   2.054   3.532  13.745  0.4988 -0.0515  0.3646
  720MPD2    C510697   1.955   3.462  13.679  0.4425 -0.2659 -0.4186
  720MPD2     H10698   1.903   3.834  13.790  1.5348 -0.4796  1.0542
  720MPD2    H110699   2.142   3.476  13.772  0.9277  0.8662  0.8425
  720MPD2    H210700   1.770   3.479  13.587 -1.5483  4.0052 -1.2125
  720MPD2    H310701   1.980   3.358  13.661 -3.3950 -1.7661  2.8261
  720MPD2     N10702   2.143   3.737  13.844  0.2469  0.1713  0.9688
  720MPD2    H510703   2.116   3.828  13.880 -0.0560  0.1196  0.8694
  720MPD2    N110704   1.698   3.722  13.643  0.4969  0.6260 -0.2484
  720MPD2    H710705   1.654   3.664  13.572 -0.5192  1.0165  0.0660
  721TMC3    C110706   2.369   3.781  13.922  0.0461  0.0527  0.4065
  721TMC3    C210707   2.315   3.876  14.006  0.0851 -0.1997  0.0030
  721TMC3    C310708   2.412   3.958  14.059 -0.3024 -0.0169  0.4277
  721TMC3    C410709   2.501   3.760  13.897 -0.0199 -0.2105  0.3842
  721TMC3    C510710   2.592   3.836  13.969  0.1613  0.9311 -0.0803
  721TMC3    C610711   2.546   3.945  14.045 -0.6465  0.5369 -0.2039
  721TMC3     C10712   2.283   3.701  13.836  0.1827  0.5221  0.5908
  721TMC3     O10713   2.330   3.604  13.781 -0.1952  0.0275 -0.2256
  721TMC3     H10714   2.210   3.885  14.033 -0.1506 -1.6411 -0.4614
  721TMC3    H110715   2.533   3.689  13.821  0.4430  0.1576  0.2333
  721TMC3    H210716   2.607   4.006  14.111  0.0592 -0.6198  0.2146
  721TMC3    C710717   2.731   3.822  13.941 -0.3789  0.5803 -0.4567
  721TMC3    C810718   2.363   4.066  14.144  0.2897  0.6123 -0.3553
  721TMC3    O110719   2.760   3.803  13.822 -0.1535  0.5629  0.2560
  721TMC3    O210720   2.262   4.123  14.108  0.3886 -0.3321  0.3838
  722MPD2     C10721   0.665   2.276  13.351  0.4507  0.1469  0.9763
  722MPD2    C110722   0.618   2.402  13.372 -0.7269  0.1487 -0.3450
  722MPD2    C210723   0.553   2.466  13.270 -1.3313 -0.2504  0.4676
  722MPD2    C310724   0.521   2.402  13.147  0.1107  0.2396 -0.4280
  722MPD2    C410725   0.561   2.272  13.130 -0.2637  0.5174 -0.3439
  722MPD2    C510726   0.636   2.216  13.231  0.1237  0.2507  0.8115
  722MPD2     H10727   0.519   2.567  13.289  0.3316  0.7128 -1.7304
  722MPD2    H110728   0.552   2.218  13.037 -1.0440  2.7235 -1.5410
  722MPD2    H210729   0.722   2.225  13.428  1.2069  1.1835  1.1073
  722MPD2    H310730   0.673   2.115  13.219  2.2624  1.0521  0.7645
  722MPD2     N10731   0.439   2.470  13.051 -0.0166 -0.4095  0.0696
  722MPD2    H510732   0.401   2.561  13.078  0.7397  0.6509 -2.3791
  722MPD2    N110733   0.648   2.476  13.492 -0.1260 -0.0102  0.6206
  722MPD2    H710734   0.631   2.576  13.487  2.5968  0.4202 -0.1702
  723TMC3    C110735   0.284   2.500  12.866  0.7540 -0.2693  0.2662
  723TMC3    C210736   0.172   2.432  12.824 -0.2133  0.0999 -0.6713
  723TMC3    C310737   0.052   2.505  12.804  0.3055 -0.0076 -1.0005
  723TMC3    C410738   0.284   2.636  12.888  0.4553  0.4116 -0.0202
  723TMC3    C510739   0.166   2.703  12.856  0.1406  0.3936  0.3192
  723TMC3    C610740   0.047   2.647  12.822 -0.0513 -0.3353 -0.3631
  723TMC3     C10741   0.381   2.411  12.937  0.6521 -0.5161 -0.3333
  723TMC3     O10742   0.387   2.300  12.896  0.0333 -1.0906 -0.1626
  723TMC3     H10743   0.172   2.323  12.822  1.6661  0.0934  0.2137
  723TMC3    H110744   0.380   2.683  12.903  0.1492  1.0653 -0.0988
  723TMC3    H210745   4.699   2.705  12.787  0.6122  0.9574  0.1782
  723TMC3    C710746   0.164   2.850  12.856 -0.0174 -0.1517 -0.3024
  723TMC3    C810747   4.693   2.452  12.708 -0.0512  0.9428 -0.4970
  723TMC3    O110748   0.086   2.910  12.784 -0.4432  0.0461 -0.0065
  723TMC3    O210749   4.585   2.508  12.704 -0.1987  0.4591  0.7817
  724TMC3    C110750   1.703   0.361   9.616  0.2776  0.4545  0.4551
  724TMC3    C210751   1.756   0.448   9.706 -0.6332 -0.2424 -0.4105
  724TMC3    C310752   1.883   0.431   9.752  0.9899  0.0672  0.1690
  724TMC3    C410753   1.761   0.245   9.578  0.1495  0.0714 -0.1132
  724TMC3    C510754   1.888   0.227   9.629 -1.1246 -0.3362 -0.3114
  724TMC3    C610755   1.948   0.318   9.713  0.2965  0.2952  0.4634
  724TMC3     C10756   1.566   0.375   9.568 -0.1956  0.4391  0.4281
  724TMC3     O10757   1.536   0.304   9.471 -0.4485 -0.3897 -0.1403
  724TMC3     H10758   1.711   0.546   9.714  1.5800  0.6907  0.5336
  724TMC3    H110759   1.726   0.176   9.501 -2.4954 -0.4656  1.5620
  724TMC3    H210760   2.046   0.294   9.753  0.9561 -0.3514 -1.5498
  724TMC3    C710761   1.950   0.104   9.585  0.8940  0.9967 -0.2374
  724TMC3    C810762   1.943   0.546   9.820 -0.1754  0.2953  0.2979
  724TMC3    O110763   1.889   0.026   9.515  0.0345 -0.1905  0.3374
  724TMC3    O210764   1.869   0.645   9.841 -0.4752 -0.1384 -0.0951
  725TMC3    C110765   2.771   4.111  12.573 -0.0656 -0.4343  0.1986
  725TMC3    C210766   2.657   4.181  12.542 -0.1214 -0.8881  0.1096
  725TMC3    C310767   2.609   4.155  12.412  0.3802 -0.7935  0.0842
  725TMC3    C410768   2.831   4.027  12.486 -0.5313  0.3409  0.4390
  725TMC3    C510769   2.786   4.013  12.362  0.2087 -0.6370  0.3692
  725TMC3    C610770   2.671   4.073  12.321 -0.2434 -0.0400 -0.3939
  725TMC3     C10771   2.829   4.138  12.702  0.4414  1.0853  0.3332
  725TMC3     O10772   2.768   4.210  12.781 -0.1285 -0.4884  0.1642
  725TMC3     H10773   2.612   4.249  12.614 -0.1555 -0.1713 -0.5795
  725TMC3    H110774   2.916   3.962  12.504 -0.7111  0.2252  0.8571
  725TMC3    H210775   2.621   4.033  12.233  0.0059 -2.1185  0.3925
  725TMC3    C710776   2.842   3.921  12.269  0.8188  0.4386  0.1151
  725TMC3    C810777   2.483   4.218  12.381 -0.4546  0.2024 -0.2419
  725TMC3    O110778   2.885   3.820  12.320  0.3015 -0.3760 -0.2044
  725TMC3    O210779   2.418   4.264  12.469  0.4414  0.2561  0.2968
  726MPD2     C10780   0.377   0.583   9.912  0.3100  0.5950 -0.1318
  726MPD2    C110781   0.272   0.666   9.875  0.3667 -0.1079 -0.3566
  726MPD2    C210782   0.151   0.663   9.939 -0.1045 -0.5051  0.2926
  726MPD2    C310783   0.123   0.562  10.032  0.8021 -1.0692 -0.9049
  726MPD2    C410784   0.229   0.483  10.078  0.7162  0.4639  0.2955
  726MPD2    C510785   0.348   0.497  10.016 -0.0849  0.8106 -0.0059
  726MPD2     H10786   0.071   0.727   9.901  0.4275  1.3936  2.3534
  726MPD2    H110787   0.220   0.406  10.154  0.9146 -0.7784 -0.9397
  726MPD2    H210788   0.477   0.591   9.872  0.4571 -2.3551 -0.3804
  726MPD2    H310789   0.434   0.449  10.060 -0.9696 -0.5284  0.2635
  726MPD2     N10790   4.731   0.548  10.089 -0.5981 -0.6250  0.6896
  726MPD2    H510791   4.720   0.496  10.175 -0.4006  0.2068  1.2167
  726MPD2    N110792   0.308   0.779   9.793  0.0444  0.2055 -0.3129
  726MPD2    H710793   0.388   0.764   9.732 -0.3180 -2.0776 -0.2286
  727TMC3    C110794   0.333   0.997   9.725  0.0722  0.2179 -0.5809
  727TMC3    C210795   0.361   1.109   9.793 -0.0984  0.8502  0.1125
  727TMC3    C310796   0.454   1.190   9.731  0.0045  0.1048  0.0685
  727TMC3    C410797   0.395   0.964   9.608  0.0361  0.2323 -0.6674
  727TMC3    C510798   0.470   1.060   9.544  0.4527 -0.4733 -0.0809
  727TMC3    C610799   0.505   1.181   9.606 -0.6852 -0.4363 -0.2626
  727TMC3     C10800   0.250   0.904   9.796 -0.4074 -1.0961 -0.1657
  727TMC3     O10801   0.159   0.950   9.862 -0.6719 -0.1192 -0.1043
  727TMC3     H10802   0.304   1.133   9.882  0.9141  3.6403  0.0021
  727TMC3    H110803   0.359   0.874   9.558  1.8546 -0.3547 -0.9265
  727TMC3    H210804   0.600   1.225   9.577 -1.9755  2.4299 -0.1101
  727TMC3    C710805   0.511   1.028   9.409  0.1042  0.0898 -0.6986
  727TMC3    C810806   0.498   1.297   9.818  0.4446 -1.1127  0.4656
  727TMC3    O110807   0.527   0.910   9.383  0.0896 -0.5139  0.0994
  727TMC3    O210808   0.475   1.295   9.940 -1.0317  0.1541 -0.5567
  728TMC3    C110809   4.541   0.121  15.176  0.2646 -0.0016 -0.6104
  728TMC3    C210810   4.673   0.131  15.145 -0.5349 -1.2251  0.1820
  728TMC3    C310811   4.705   0.112  15.011 -0.3633  0.0818 -0.0097
  728TMC3    C410812   4.444   0.084  15.088  0.2808 -0.1259  0.1578
  728TMC3    C510813   4.481   0.070  14.957 -0.1636  0.5564 -0.5495
  728TMC3    C610814   4.611   0.085  14.914  0.0807  0.3328  0.2070
  728TMC3     C10815   4.514   0.108  15.314 -0.7206  0.3639  0.4180
  728TMC3     O10816   4.580   0.182  15.391 -0.2626 -0.0881  0.3125
  728TMC3     H10817   0.003   0.175  15.218 -1.6375  0.6131  0.0726
  728TMC3    H110818   4.339   0.078  15.114  0.2066 -2.0572 -0.6192
  728TMC3    H210819   4.650   0.046  14.821  2.9901  1.3043  1.0408
  728TMC3    C710820   4.385   0.021  14.866 -0.0168  0.1763  0.0013
  728TMC3    C810821   0.108   0.102  14.968  0.2549 -0.5527 -0.6905
  728TMC3    O110822   4.284   4.718  14.918 -0.0843  0.2343  0.2899
  728TMC3    O210823   0.125   0.115  14.847 -0.0198  0.2869  0.3599
  729MPD2     C10824   1.875   1.007  16.548 -0.0804  0.0834 -0.4405
  729MPD2    C110825   2.009   1.029  16.581 -0.2240  0.1043 -0.3732
  729MPD2    C210826   2.049   1.032  16.712  0.3464  0.4410  0.3058
  729MPD2    C310827   1.949   1.029  16.808 -0.4480  0.0886  0.2040
  729MPD2    C410828   1.816   1.015  16.773  0.4685 -0.2516 -0.4338
  729MPD2    C510829   1.782   0.995  16.647 -0.3892 -0.4859  0.7433
  729MPD2     H10830   2.149   1.057  16.745  0.1121  0.5567  0.9350
  729MPD2    H110831   1.734   0.996  16.842 -0.1322  0.4892 -0.9382
  729MPD2    H210832   1.838   1.004  16.446 -0.1958 -1.3890 -0.3660
  729MPD2    H310833   1.676   0.979  16.631 -0.7994  2.1885  0.7696
  729MPD2     N10834   1.984   1.037  16.947  0.3469  0.7624 -0.3831
  729MPD2    H510835   1.906   1.039  17.012  0.1381 -2.3073 -0.5578
  729MPD2    N110836   2.094   1.077  16.477  0.2458  0.3354  0.2092
  729MPD2    H710837   2.057   1.081  16.383 -2.3354  0.8656  1.2417
  730TMC3    C110838   2.116   1.081  17.139 -0.1629 -0.2086  0.0481
  730TMC3    C210839   2.243   1.085  17.196 -0.0065 -0.5465  0.4276
  730TMC3    C310840   2.269   1.167  17.305 -0.4602  0.3286  0.3220
  730TMC3    C410841   2.018   1.175  17.182 -0.1151 -0.1762 -0.0339
  730TMC3    C510842   2.043   1.249  17.293 -0.6171 -0.2926  1.3088
  730TMC3    C610843   2.168   1.228  17.361 -0.2545 -0.2976  0.1718
  730TMC3     C10844   2.116   1.060  16.998 -0.4445  0.8327 -0.6659
  730TMC3     O10845   2.224   1.060  16.942  0.3220 -0.2797  0.3095
  730TMC3     H10846   2.323   1.030  17.149  0.5753  0.5762  0.1176
  730TMC3    H110847   1.931   1.189  17.119  0.7605 -0.2017 -1.2677
  730TMC3    H210848   2.186   1.280  17.455 -3.5149 -0.0645  0.6574
  730TMC3    C710849   2.038   1.385  17.242  0.4088 -0.6648 -0.2728
  730TMC3    C810850   2.377   1.259  17.282 -0.0902 -0.4767 -0.5281
  730TMC3    O110851   1.985   1.396  17.134  0.4015  0.0004  0.3839
  730TMC3    O210852   2.418   1.316  17.381  0.3442 -0.5947 -0.1086
  731MPD2     C10853   1.520   2.810  12.237  0.3829 -0.6579 -0.7841
  731MPD2    C110854   1.634   2.750  12.279 -0.9256  0.5157 -0.3478
  731MPD2    C210855   1.658   2.731  12.414 -0.4550  0.3318  0.8766
  731MPD2    C310856   1.558   2.774  12.506 -0.1358  0.0402 -0.0352
  731MPD2    C410857   1.442   2.830  12.463 -0.4651 -0.8907  0.3826
  731MPD2    C510858   1.423   2.841  12.332  0.0507  0.0327  0.2739
  731MPD2     H10859   1.743   2.674  12.449  0.2860 -0.3412 -2.0666
  731MPD2    H110860   1.368   2.858  12.537 -0.9679 -1.2960  0.0462
  731MPD2    H210861   1.498   2.835  12.134 -2.8841 -0.3572 -0.0324
  731MPD2    H310862   1.325   2.870  12.298 -1.2021 -2.2893  1.9166
  731MPD2     N10863   1.587   2.760  12.641 -0.1316 -0.0138 -0.1944
  731MPD2    H510864   1.661   2.694  12.665  0.9410  1.7779  1.4445
  731MPD2    N110865   1.727   2.726  12.182  0.2227 -0.0748  0.6293
  731MPD2    H710866   1.697   2.772  12.096  0.8548  1.8362  1.4433
  732TMC3    C110867   1.942   2.720  12.094 -0.6570  0.1887  0.6765
  732TMC3    C210868   1.926   2.849  12.054  0.6164 -0.2066 -0.7573
  732TMC3    C310869   2.031   2.904  11.993 -0.1882  0.0933 -0.2404
  732TMC3    C410870   2.066   2.664  12.094 -0.1978 -0.8358 -0.3075
  732TMC3    C510871   2.177   2.726  12.051  0.3823  0.1645 -0.4430
  732TMC3    C610872   2.156   2.848  11.996 -1.1371 -0.3499  0.2826
  732TMC3     C10873   1.857   2.682  12.200 -0.1745  0.5724 -0.5160
  732TMC3     O10874   1.912   2.613  12.287  0.1973  0.4095 -0.1631
  732TMC3     H10875   1.838   2.903  12.087 -0.4118 -1.9109 -0.7313
  732TMC3    H110876   2.082   2.570  12.146 -1.8029 -0.6469  0.5242
  732TMC3    H210877   2.228   2.886  11.924 -1.9881  0.0089 -0.3744
  732TMC3    C710878   2.303   2.662  12.046  0.2659 -0.5458 -0.2046
  732TMC3    C810879   2.014   3.030  11.920  0.3387 -0.5413 -0.3007
  732TMC3    O110880   2.304   2.539  12.033 -0.4522 -0.2640  0.2373
  732TMC3    O210881   2.113   3.081  11.869 -0.4196 -0.4975  0.8161
  733TMC3    C110882   3.023   1.709  12.224 -0.3730  1.2989 -0.5164
  733TMC3    C210883   3.048   1.812  12.317  0.2691  0.6231  0.1430
  733TMC3    C310884   3.170   1.868  12.315 -0.2925  0.2776  0.4487
  733TMC3    C410885   3.119   1.671  12.129 -0.1526  0.5432  0.4952
  733TMC3    C510886   3.244   1.723  12.131 -0.4709  0.0687 -0.5185
  733TMC3    C610887   3.266   1.829  12.219 -0.2107  0.5101  0.8320
  733TMC3     C10888   2.885   1.709  12.196 -0.7189 -0.7361 -0.3469
  733TMC3     O10889   2.824   1.811  12.217 -0.1849  0.0015 -0.2081
  733TMC3     H10890   2.976   1.835  12.395 -0.2934  0.6078 -0.3676
  733TMC3    H110891   3.096   1.602  12.048 -1.6404  0.0976  1.3077
  733TMC3    H210892   3.365   1.872  12.228 -0.3852  0.8655  1.0452
  733TMC3    C710893   3.330   1.704  12.012  0.5036 -0.0250 -0.1812
  733TMC3    C810894   3.182   1.993  12.381 -0.0485 -0.1943 -0.4090
  733TMC3    O110895   3.295   1.618  11.932  0.2128 -0.4455 -0.0642
  733TMC3    O210896   3.106   2.018  12.475  0.0043 -0.4898  0.2849
  734MPD2     C10897   0.137   4.131  12.662  0.4577 -0.4479 -0.1252
  734MPD2    C110898   0.056   4.050  12.583 -0.7137 -0.6927 -0.2057
  734MPD2    C210899   0.064   4.067  12.448 -0.0766 -0.4120  0.0321
  734MPD2    C310900   0.139   4.167  12.384  0.1531  0.3116  0.6234
  734MPD2    C410901   0.213   4.244  12.468 -0.2586 -0.7499 -0.7557
  734MPD2    C510902   0.211   4.229  12.605  0.6607  0.0326 -0.3434
  734MPD2     H10903   0.013   3.998  12.382 -0.2897  0.2173 -0.4578
  734MPD2    H110904   0.270   4.329  12.433 -0.1221 -1.2017 -1.6189
  734MPD2    H210905   0.126   4.118  12.769 -1.0620 -3.4651 -0.6547
  734MPD2    H310906   0.272   4.297  12.663 -5.2511  2.8960  2.5547
  734MPD2     N10907   0.133   4.166  12.244 -0.4560  0.0075  0.6684
  734MPD2    H510908   0.074   4.097  12.198  1.5226 -1.9693  1.0727
  734MPD2    N110909   4.725   3.946  12.646 -0.8764  0.3519 -0.3264
  734MPD2    H710910   4.726   3.929  12.746 -1.3879  2.4916  0.0466
  735TMC3    C110911   4.611   3.744  12.649 -0.5614 -1.3212 -0.2641
  735TMC3    C210912   4.508   3.680  12.580 -0.7586  0.2407  0.0536
  735TMC3    C310913   4.522   3.543  12.560  0.0191 -0.3109  0.1772
  735TMC3    C410914   4.721   3.682  12.707 -0.2373  0.5500  0.2139
  735TMC3    C510915   4.721   3.550  12.686  0.4957 -0.4187  0.4752
  735TMC3    C610916   4.622   3.475  12.622 -0.1003  0.5983 -0.2858
  735TMC3     C10917   4.632   3.868  12.585 -0.0093  0.8315 -0.4627
  735TMC3     O10918   4.577   3.873  12.474  0.2624 -0.2520 -0.3005
  735TMC3     H10919   4.419   3.733  12.547 -0.3069  0.9502 -0.0388
  735TMC3    H110920   0.067   3.736  12.751 -0.1535 -0.4976  1.3532
  735TMC3    H210921   4.625   3.366  12.615  1.6190  0.4128  3.2597
  735TMC3    C710922   0.119   3.504  12.675 -0.1609  0.4387  0.3405
  735TMC3    C810923   4.521   3.503  12.425  0.4048 -0.6454 -0.1821
  735TMC3    O110924   0.218   3.576  12.689 -0.3460  0.9558  0.2649
  735TMC3    O210925   4.554   3.390  12.393  0.5294  0.0153  0.0295
  736MPD2     C10926   0.188   3.191  12.491 -0.7300  0.4197 -0.2657
  736MPD2    C110927   0.218   3.318  12.535 -0.0182  0.4662 -0.1690
  736MPD2    C210928   0.343   3.376  12.495 -0.1167  0.6336 -0.0324
  736MPD2    C310929   0.428   3.298  12.415 -0.4037  0.0709 -0.5681
  736MPD2    C410930   0.394   3.175  12.372  0.6427  0.0061  0.2038
  736MPD2    C510931   0.279   3.122  12.415 -0.1805 -0.6236 -0.5486
  736MPD2     H10932   0.374   3.475  12.526  1.3121  0.6202 -1.4038
  736MPD2    H110933   0.464   3.111  12.320 -0.4811  1.2853 -2.8576
  736MPD2    H210934   0.100   3.139  12.527 -0.6221  0.8244  0.5683
  736MPD2    H310935   0.259   3.020  12.386 -2.9452 -0.0222 -0.7979
  736MPD2     N10936   0.552   3.348  12.361  0.0116 -0.3273  0.2445
  736MPD2    H510937   0.590   3.278  12.297  1.2193  1.1179 -0.6097
  736MPD2    N110938   0.117   3.383  12.606 -0.1811  0.3363 -0.2702
  736MPD2    H710939   0.033   3.328  12.621 -0.1751  0.2366 -0.6067
  737TMC3    C110940   0.691   3.499  12.264  0.2796 -0.0364  0.2530
  737TMC3    C210941   0.694   3.618  12.190 -0.2971  0.1089 -0.9442
  737TMC3    C310942   0.715   3.623  12.058  0.5757  0.0831  0.1683
  737TMC3    C410943   0.726   3.387  12.201 -0.1464 -0.2805 -0.8904
  737TMC3    C510944   0.769   3.395  12.073 -0.6349  0.0126  0.4272
  737TMC3    C610945   0.758   3.508  11.997 -0.7579 -0.1677 -0.2265
  737TMC3     C10946   0.593   3.485  12.368  0.6115 -0.2715  0.6462
  737TMC3     O10947   0.555   3.593  12.417  0.5239 -0.2252  0.1206
  737TMC3     H10948   0.638   3.701  12.233  0.0742 -0.3550  0.4248
  737TMC3    H110949   0.761   3.301  12.257 -0.1828 -2.8714 -4.9131
  737TMC3    H210950   0.776   3.513  11.890  0.6344 -0.1858  0.0127
  737TMC3    C710951   0.862   3.295  12.026 -0.6207 -0.9374 -0.4092
  737TMC3    C810952   0.727   3.750  11.997  0.1530  0.2778 -0.3050
  737TMC3    O110953   0.867   3.184  12.081 -0.2193  0.1671 -0.3780
  737TMC3    O210954   0.774   3.844  12.065  0.2341  0.8873 -0.2707
  738MPD2     C10955   0.795   3.018  14.910 -0.2628 -0.5202 -0.3242
  738MPD2    C110956   0.833   2.897  14.958 -0.4383 -0.3935  0.6172
  738MPD2    C210957   0.936   2.890  15.045 -0.3825 -0.3642 -0.4791
  738MPD2    C310958   1.006   3.008  15.084  0.0851  0.8468  0.7216
  738MPD2    C410959   0.958   3.129  15.040  0.2460 -0.2833 -0.0143
  738MPD2    C510960   0.861   3.135  14.939 -0.3632  0.6617  0.3837
  738MPD2     H10961   0.969   2.794  15.082  0.1597 -0.9369 -2.4623
  738MPD2    H110962   1.001   3.222  15.075  0.4163  0.3946 -2.0193
  738MPD2    H210963   0.722   3.027  14.831 -1.0185 -0.1369  0.4159
  738MPD2    H310964   0.835   3.226  14.887  1.1713  1.0402  0.2821
  738MPD2     N10965   1.129   3.009  15.150 -0.5912 -0.0376 -0.0348
  738MPD2    H510966   1.172   3.099  15.169  1.9401 -1.4913  1.2865
  738MPD2    N110967   0.792   2.773  14.905 -0.3729  0.0525  0.1084
  738MPD2    H710968   0.840   2.691  14.941 -0.6340  0.3199  1.0840
  739TMC3    C110969   1.330   2.923  15.240 -0.3375  0.2946  0.0016
  739TMC3    C210970   1.410   2.925  15.128  0.4034  0.1579 -0.1709
  739TMC3    C310971   1.519   3.007  15.111 -0.6677  0.7181  0.2912
  739TMC3    C410972   1.355   3.012  15.340 -0.2687  1.0579 -0.1804
  739TMC3    C510973   1.468   3.083  15.334 -0.1461  0.1551  0.4691
  739TMC3    C610974   1.550   3.083  15.223  0.0691 -0.0087 -0.1128
  739TMC3     C10975   1.189   2.898  15.200  0.0139  0.5143 -0.6939
  739TMC3     O10976   1.170   2.777  15.194  0.8224 -0.0352 -0.0310
  739TMC3     H10977   1.367   2.868  15.047  1.6175 -1.8707  0.6117
  739TMC3    H110978   1.284   3.021  15.422  2.1625  1.4336  1.8768
  739TMC3    H210979   1.620   3.165  15.210  1.1366 -0.6373  1.6972
  739TMC3    C710980   1.503   3.149  15.455 -0.1708 -0.2138  0.6222
  739TMC3    C810981   1.534   3.039  14.974  0.1069  0.0349 -0.1964
  739TMC3    O110982   1.414   3.173  15.534 -1.1216  0.0311 -0.0120
  739TMC3    O210983   1.481   2.963  14.894 -0.5763 -0.3884 -0.0620
  740TMC3    C110984   1.813   4.188  14.287  0.1170  0.5326 -0.2975
  740TMC3    C210985   1.846   4.081  14.363 -0.0435  0.3251  0.7142
  740TMC3    C310986   1.920   3.975  14.303  0.7374 -0.0407 -0.0784
  740TMC3    C410987   1.847   4.177  14.151 -0.1302 -0.0343 -0.0867
  740TMC3    C510988   1.913   4.072  14.095  0.0305  0.6908 -0.8595
  740TMC3    C610989   1.953   3.970  14.173  0.2796  1.2089 -0.2643
  740TMC3     C10990   1.709   4.288  14.335  0.1125 -0.0243 -0.5861
  740TMC3     O10991   1.680   4.369  14.247  0.0234  0.1014 -0.1620
  740TMC3     H10992   1.846   4.089  14.471  2.1417 -2.7338  0.9743
  740TMC3    H110993   1.841   4.263  14.085  0.4899 -0.0811 -0.2108
  740TMC3    H210994   1.998   3.881  14.130 -0.3633  0.1592  1.2449
  740TMC3    C710995   1.944   4.058  13.956 -0.5692 -0.2283 -0.1859
  740TMC3    C810996   1.983   3.880  14.391  0.2368  0.3333 -0.2202
  740TMC3    O110997   2.027   3.976  13.924  0.3776 -0.2289 -0.6795
  740TMC3    O210998   2.083   3.821  14.346  0.0053  0.0472  0.1549
  741TMC3    C110999   1.344   3.425  14.681 -0.2953 -0.5090  0.0828
  741TMC3    C211000   1.286   3.316  14.617  0.4809  0.4680 -0.0471
  741TMC3    C311001   1.234   3.211  14.691 -0.2570 -0.6695 -0.3229
  741TMC3    C411002   1.343   3.433  14.814 -0.8925 -0.0498 -0.3420
  741TMC3    C511003   1.273   3.337  14.885  0.2821 -0.6945 -0.0777
  741TMC3    C611004   1.223   3.226  14.828 -0.0433  0.3662  0.1291
  741TMC3     C11005   1.300   3.540  14.606  0.0387  0.4926  0.0683
  741TMC3     O11006   1.373   3.637  14.601 -0.3308  0.1602  0.1604
  741TMC3     H11007   1.319   3.295  14.516 -0.7984  2.3353 -0.8426
  741TMC3    H111008   1.386   3.520  14.861 -3.2301  1.0147 -0.1796
  741TMC3    H211009   1.170   3.153  14.888 -1.8263  1.0681 -0.5835
  741TMC3    C711010   1.253   3.351  15.026 -0.5139 -0.3922  0.2236
  741TMC3    C811011   1.121   3.167  14.615 -0.2487  0.6649  0.0578
  741TMC3    O111012   1.251   3.245  15.086 -0.8260 -0.3717  0.3930
  741TMC3    O211013   1.076   3.255  14.544 -0.2243 -0.0967 -0.1746
  742TMC3    C111014   1.260   2.011  15.201 -0.7401 -0.7139 -0.2248
  742TMC3    C211015   1.185   1.977  15.088 -0.0024  0.4707  0.1069
  742TMC3    C311016   1.214   1.855  15.028 -1.2934 -0.2323  0.7358
  742TMC3    C411017   1.381   1.949  15.230  0.3221  0.1692 -0.1901
  742TMC3    C511018   1.412   1.837  15.160  0.4270 -0.3552  0.1459
  742TMC3    C611019   1.328   1.786  15.066  0.0288  0.0030  0.1006
  742TMC3     C11020   1.224   2.135  15.270 -0.0522  0.0518 -0.6457
  742TMC3     O11021   1.178   2.216  15.192  0.0777  0.7068 -0.4077
  742TMC3     H11022   1.094   2.036  15.082  0.5344  1.3470  0.5350
  742TMC3    H111023   1.437   1.982  15.317 -1.4317  2.7150 -0.0319
  742TMC3    H211024   1.347   1.690  15.019  0.8478  0.1881  0.0534
  742TMC3    C711025   1.512   1.743  15.208  0.3551 -0.2092  0.0381
  742TMC3    C811026   1.134   1.799  14.919 -0.6519 -0.0389  0.5835
  742TMC3    O111027   1.565   1.673  15.121 -0.7725  0.5590 -0.1273
  742TMC3    O211028   1.179   1.706  14.856 -0.5016  0.1544 -0.4379
  743MPD2     C11029   3.070   2.899   1.257 -0.3370 -0.0168  0.4088
  743MPD2    C111030   3.153   2.850   1.158 -0.1663  0.0944  0.3454
  743MPD2    C211031   3.238   2.750   1.194  0.1346  0.2847  0.1009
  743MPD2    C311032   3.231   2.681   1.317 -0.3492  0.5894 -0.3788
  743MPD2    C411033   3.128   2.714   1.406 -0.4909 -0.1381  0.0218
  743MPD2    C511034   3.051   2.827   1.376  0.3829 -0.0848  0.1383
  743MPD2     H11035   3.316   2.721   1.125  1.1298  0.4182  1.1672
  743MPD2    H111036   3.112   2.671   1.504  1.0705 -0.2834  0.2112
  743MPD2    H211037   2.996   2.974   1.230  0.3401  1.8238  3.7099
  743MPD2    H311038   2.959   2.842   1.430  0.4150 -0.3985  0.2790
  743MPD2     N11039   3.338   2.587   1.328 -0.0341  0.0384  0.8457
  743MPD2    H511040   3.395   2.572   1.246  1.7302  0.5149  1.9787
  743MPD2    N111041   3.176   2.934   1.045 -0.5101  0.2975 -0.5518
  743MPD2    H711042   3.140   3.029   1.050 -1.5240 -0.1455  0.5625
  744TMC3    C111043   3.268   2.991   0.832  0.4116 -0.0641  0.0409
  744TMC3    C211044   3.157   3.070   0.811  0.0115  0.4072  0.1809
  744TMC3    C311045   3.171   3.160   0.702  0.9700  1.0576  0.0063
  744TMC3    C411046   3.376   2.982   0.757 -0.4776  0.5886  0.6150
  744TMC3    C511047   3.382   3.081   0.665 -0.6589  0.2881 -0.3316
  744TMC3    C611048   3.287   3.169   0.635 -0.3384  0.3039  0.0910
  744TMC3     C11049   3.250   2.895   0.932 -0.4590 -0.1810 -0.2014
  744TMC3     O11050   3.297   2.786   0.908 -0.0614  0.0567  0.4460
  744TMC3     H11051   3.062   3.057   0.862 -0.4311  0.8122 -0.5282
  744TMC3    H111052   3.463   2.927   0.790 -1.2962 -0.7162  0.6090
  744TMC3    H211053   3.306   3.244   0.559  2.2158 -0.3966  0.0485
  744TMC3    C711054   3.486   3.064   0.564 -0.4014 -0.1601 -0.3443
  744TMC3    C811055   3.074   3.247   0.659  0.6826  0.0282 -0.1071
  744TMC3    O111056   3.529   3.165   0.513  0.5674 -0.0860 -0.3350
  744TMC3    O211057   3.096   3.342   0.588  0.2131  0.4664 -0.0756
  745TMC3    C111058   2.072   1.961  13.101 -0.5612  0.8029  0.3518
  745TMC3    C211059   2.045   1.926  13.229 -0.1646 -0.4785  0.3004
  745TMC3    C311060   1.943   1.833  13.247  0.5630 -0.4476  0.0632
  745TMC3    C411061   1.992   1.922  12.991 -0.1063  0.1433 -0.5353
  745TMC3    C511062   1.898   1.826  13.019 -0.2672  0.1073 -0.5840
  745TMC3    C611063   1.864   1.785  13.147  0.2309  0.1927  0.1322
  745TMC3     C11064   2.116   2.102  13.096 -0.0953  0.1339  0.0209
  745TMC3     O11065   2.181   2.140  13.004  0.4740  0.0025  0.3074
  745TMC3     H11066   2.106   1.958  13.313  1.2104  1.8241 -1.5930
  745TMC3    H111067   2.014   1.965  12.894  3.3929 -0.2106  0.0724
  745TMC3    H211068   1.777   1.724  13.167  0.7423  0.2490  2.6108
  745TMC3    C711069   1.798   1.791  12.916  0.3722 -0.7776  0.1082
  745TMC3    C811070   1.882   1.826  13.379  0.0534  0.8807  0.3239
  745TMC3    O111071   1.684   1.775  12.955 -0.0190 -0.0309  0.1140
  745TMC3    O211072   1.761   1.820  13.378  0.2541 -0.2653 -0.4016
  746TMC3    C111073   3.750   3.649  10.495  0.1999  0.2117 -0.1546
  746TMC3    C211074   3.714   3.638  10.361 -0.2145  0.1679  0.8909
  746TMC3    C311075   3.581   3.602  10.336  0.2438 -0.0860 -0.5126
  746TMC3    C411076   3.672   3.603  10.598 -0.5819  0.6484 -1.0570
  746TMC3    C511077   3.543   3.565  10.562  0.3057 -0.0529  0.2191
  746TMC3    C611078   3.495   3.561  10.434 -0.3431 -0.1593 -0.1910
  746TMC3     C11079   3.873   3.730  10.526  0.2440  0.2771 -0.1288
  746TMC3     O11080   3.954   3.741  10.435 -0.1668 -0.0029  0.3951
  746TMC3     H11081   3.790   3.648  10.284  1.7849 -1.2918  2.6483
  746TMC3    H111082   3.716   3.614  10.696  0.7978 -0.3368 -1.5528
  746TMC3    H211083   3.398   3.520  10.407 -0.5497 -0.3782  0.8765
  746TMC3    C711084   3.459   3.483  10.654  0.3301  0.2679 -0.7482
  746TMC3    C811085   3.524   3.626  10.203  0.3385  0.1716 -0.0494
  746TMC3    O111086   3.348   3.471  10.609 -0.0323  0.6138 -0.4797
  746TMC3    O211087   3.414   3.575  10.190 -0.1249  0.3129  0.1215
  747TMC3    C111088   1.645   3.421  11.310  0.9160 -0.9230  0.3818
  747TMC3    C211089   1.531   3.367  11.349  0.6029 -0.4263 -0.5334
  747TMC3    C311090   1.477   3.398  11.470 -0.2002  0.6843  0.4305
  747TMC3    C411091   1.718   3.513  11.387 -0.1746 -0.5510  0.6996
  747TMC3    C511092   1.660   3.557  11.504  0.1450 -0.3932  0.1022
  747TMC3    C611093   1.535   3.500  11.548  0.4820 -0.0615 -0.0285
  747TMC3     C11094   1.707   3.378  11.186 -0.2380  0.5374  0.1688
  747TMC3     O11095   1.818   3.422  11.168  0.5786 -0.3771  0.2023
  747TMC3     H11096   1.482   3.293  11.287 -3.3273  0.1207  1.9199
  747TMC3    H111097   1.797   3.563  11.333 -0.6327 -0.6050 -0.0191
  747TMC3    H211098   1.492   3.535  11.641 -0.5871 -1.0280 -0.1423
  747TMC3    C711099   1.674   3.693  11.529  0.8798 -0.5803  0.3040
  747TMC3    C811100   1.403   3.297  11.527 -0.7960  0.0028 -1.1557
  747TMC3    O111101   1.574   3.747  11.575 -0.2679  0.1084 -0.2708
  747TMC3    O211102   1.386   3.194  11.465  0.2747  0.3873  0.5736
  748MPD2     C11103   3.402   4.082   0.809 -0.4099  0.5957 -0.3771
  748MPD2    C111104   3.336   4.189   0.867 -0.5906 -1.1150 -0.4021
  748MPD2    C211105   3.409   4.274   0.947  0.3504  0.1933 -0.7374
  748MPD2    C311106   3.543   4.245   0.974 -0.1763  0.0197 -0.0257
  748MPD2    C411107   3.603   4.138   0.918 -0.9791 -0.2750 -0.5117
  748MPD2    C511108   3.536   4.064   0.828  0.6046 -0.6388 -0.5184
  748MPD2     H11109   3.364   4.366   0.983 -1.6408 -1.0986  0.0291
  748MPD2    H111110   3.711   4.132   0.925 -0.8208  3.1416  0.0342
  748MPD2    H211111   3.355   4.010   0.743 -2.5919  0.0841  1.7369
  748MPD2    H311112   3.585   3.983   0.774  1.2341 -0.8106  0.3142
  748MPD2     N11113   3.612   4.346   1.051 -0.1944  0.0183  0.1634
  748MPD2    H511114   3.557   4.424   1.085  0.8891  1.5855 -1.7243
  748MPD2    N111115   3.199   4.193   0.841  0.0094  0.0835 -0.1637
  748MPD2    H711116   3.150   4.118   0.793  0.9277  0.8258 -2.2599
  749TMC3    C111117   3.783   4.455   1.172 -0.9709 -0.0198 -0.0986
  749TMC3    C211118   3.858   4.432   1.279  0.2286 -0.2200  0.7132
  749TMC3    C311119   3.916   4.542   1.339  0.0192 -0.3878 -0.1812
  749TMC3    C411120   3.758   4.574   1.119 -0.5144 -0.0036  0.4550
  749TMC3    C511121   3.822   4.685   1.177 -0.4421  0.6035  0.4132
  749TMC3    C611122   3.908   4.667   1.282 -0.5950  0.1201  0.5696
  749TMC3     C11123   3.740   4.341   1.094 -0.8984  0.1333 -0.1625
  749TMC3     O11124   3.815   4.241   1.097  0.1908 -0.0689 -0.8195
  749TMC3     H11125   3.854   4.330   1.315 -3.1535  0.1330  1.3435
  749TMC3    H111126   3.701   4.583   1.027  0.5122  1.8654  0.0048
  749TMC3    H211127   3.974   0.003   1.328  1.4105 -0.8619 -0.7918
  749TMC3    C711128   3.845   0.070   1.109 -0.5759  0.6729 -0.1803
  749TMC3    C811129   4.045   4.508   1.396 -0.0900  0.4959  0.3428
  749TMC3    O111130   3.918   0.149   1.161 -0.0893 -0.2841 -0.3012
  749TMC3    O211131   4.101   4.588   1.471 -0.2627 -0.3268 -0.1264
  750MPD2     C11132   4.017   0.595  11.199  0.0093 -0.7976  0.3467
  750MPD2    C111133   3.935   0.555  11.302  0.2550  0.1409  0.2285
  750MPD2    C211134   3.891   0.424  11.307  0.2766  0.0685 -0.1313
  750MPD2    C311135   3.952   0.332  11.221 -0.0432 -0.3282 -0.0570
  750MPD2    C411136   4.036   0.374  11.116  0.3229 -0.5300 -0.1548
  750MPD2    C511137   4.071   0.507  11.103  0.3244  0.1747 -0.2718
  750MPD2     H11138   3.811   0.386  11.369 -0.9516  0.5302 -1.4142
  750MPD2    H111139   4.083   0.299  11.053 -0.1726 -0.0342 -1.1147
  750MPD2    H211140   4.040   0.695  11.165  1.3746 -0.7984  1.2637
  750MPD2    H311141   4.133   0.544  11.022  1.3565  1.9349  1.3305
  750MPD2     N11142   3.923   0.193  11.229 -0.3299  0.0553  0.2134
  750MPD2    H511143   3.952   0.135  11.152 -1.1133 -1.2173  0.8894
  750MPD2    N111144   3.884   0.653  11.396 -0.0113 -0.1911 -0.3729
  750MPD2    H711145   3.896   0.749  11.367  0.9102  0.6557  2.7869
  751TMC3    C111146   3.863   4.722  11.321 -0.1882 -0.2016  0.3042
  751TMC3    C211147   3.741   4.680  11.379  0.5642 -0.6591  0.2295
  751TMC3    C311148   3.698   4.554  11.344 -0.2450  0.2469  0.3958
  751TMC3    C411149   3.933   4.642  11.230 -0.3898  0.1342 -0.4603
  751TMC3    C511150   3.885   4.516  11.210 -0.1351 -0.0780 -0.6636
  751TMC3    C611151   3.774   4.469  11.275  0.2765 -0.3626  0.2332
  751TMC3     C11152   3.882   0.128  11.339 -0.0518 -0.0684 -0.5885
  751TMC3     O11153   3.853   0.176  11.447  0.3227 -0.1944  0.2367
  751TMC3     H11154   3.679   0.006  11.443  0.1555  0.0941 -0.9087
  751TMC3    H111155   4.025   4.677  11.185 -0.8602  2.1109  0.1017
  751TMC3    H211156   3.742   4.366  11.269  5.2323 -1.8090 -1.0211
  751TMC3    C711157   3.909   4.468  11.077 -0.3698  0.3606 -0.6404
  751TMC3    C811158   3.553   4.530  11.327 -0.2127  0.3231 -0.9295
  751TMC3    O111159   3.995   4.527  11.018  0.4823  0.5165 -0.4308
  751TMC3    O211160   3.528   4.461  11.232  0.2038 -0.0609 -0.0772
  752TMC3    C111161   2.792   1.420  17.123  0.7231 -0.1560 -0.1132
  752TMC3    C211162   2.775   1.290  17.148  0.7663  0.1076  1.0449
  752TMC3    C311163   2.742   1.250  17.276  0.1465  0.2463 -0.7726
  752TMC3    C411164   2.779   1.506  17.227  0.2277  0.3026 -0.1498
  752TMC3    C511165   2.731   1.467  17.349 -0.5051  0.5845  0.1371
  752TMC3    C611166   2.717   1.339  17.380 -0.2725  0.7286 -0.5336
  752TMC3     C11167   2.825   1.472  16.991  0.4293  0.5326 -0.0653
  752TMC3     O11168   2.862   1.589  16.980  0.7990  0.4024 -0.2304
  752TMC3     H11169   2.807   1.215  17.076  1.7498  0.5403  1.0367
  752TMC3    H111170   2.781   1.610  17.196  0.6481  0.4520  0.3824
  752TMC3    H211171   2.698   1.307  17.482 -0.5364  1.4617 -0.3558
  752TMC3    C711172   2.681   1.568  17.437 -0.3907 -0.0290  0.1838
  752TMC3    C811173   2.752   1.106  17.293  1.1931  0.6058 -0.6678
  752TMC3    O111174   2.707   1.687  17.416  0.2863 -0.9538 -0.2348
  752TMC3    O211175   2.754   1.046  17.187 -0.2459 -0.1313  0.0190
  753TMC3    C111176   4.728   1.849  13.012  0.3248  0.4106 -0.0603
  753TMC3    C211177   0.028   1.768  13.115  0.5196 -0.1564  0.0757
  753TMC3    C311178   0.045   1.636  13.085  0.2334  0.4268  0.1089
  753TMC3    C411179   4.713   1.806  12.881 -0.1373 -0.3870  0.4982
  753TMC3    C511180   4.733   1.670  12.855  0.3848 -0.3160  0.0847
  753TMC3    C611181   0.024   1.584  12.960 -1.1624 -0.1948  0.4535
  753TMC3     C11182   0.002   1.997  13.021 -0.6820  0.0974 -0.4825
  753TMC3     O11183   4.657   2.058  12.957  0.3560 -0.4339  0.4389
  753TMC3     H11184   0.024   1.811  13.214 -0.4226 -1.3735  0.5643
  753TMC3    H111185   4.692   1.877  12.802  0.0183  1.3786  2.0367
  753TMC3    H211186   0.053   1.480  12.958  2.7824  0.8172  4.2339
  753TMC3    C711187   0.007   1.632  12.717  0.1530  0.4239 -0.3929
  753TMC3    C811188   0.100   1.544  13.194  0.1961  0.2803  0.2971
  753TMC3    O111189   0.010   1.724  12.635  0.0585 -0.0512  0.3440
  753TMC3    O211190   0.083   1.425  13.181 -0.5426  0.1496  0.0998
  754MPD2     C11191   3.905   0.341  13.002  0.3508 -0.1442  0.5700
  754MPD2    C111192   3.889   0.205  13.020  0.6452 -0.1169 -0.4367
  754MPD2    C211193   3.760   0.153  13.034 -0.1115  0.7013  1.0165
  754MPD2    C311194   3.654   0.233  13.019  0.3516 -0.7070 -0.5644
  754MPD2    C411195   3.669   0.370  12.993 -0.4829 -0.0708  0.4465
  754MPD2    C511196   3.802   0.420  12.984 -0.4197 -0.9227  0.1407
  754MPD2     H11197   3.750   0.045  13.037 -1.5469  0.7875 -0.2509
  754MPD2    H111198   3.582   0.431  12.974 -0.9090 -0.6668  0.4798
  754MPD2    H211199   3.999   0.395  13.006 -0.4027  1.1593  0.6193
  754MPD2    H311200   3.819   0.526  12.974  0.3579 -1.1854 -1.2118
  754MPD2     N11201   3.519   0.188  13.022  0.6845 -0.0379  0.0614
  754MPD2    H511202   3.453   0.263  13.003 -0.4473 -0.3681  2.6015
  754MPD2    N111203   4.010   0.133  13.025 -0.9975 -0.2099  0.2651
  754MPD2    H711204   4.092   0.181  12.990 -0.7638 -0.5408  0.3509
  755MPD2     C11205   2.870   0.341  13.649  0.0658  0.5744  0.2068
  755MPD2    C111206   2.867   0.403  13.532  0.0444  0.1142  0.6157
  755MPD2    C211207   2.915   0.345  13.416  0.6954 -0.3800  0.2472
  755MPD2    C311208   2.966   0.220  13.410  0.4609 -0.6808 -0.0400
  755MPD2    C411209   2.959   0.152  13.529 -0.6072 -0.5330  0.1882
  755MPD2    C511210   2.920   0.215  13.647 -0.0523 -0.0898 -1.0491
  755MPD2     H11211   2.901   0.392  13.319  0.5885 -3.5797 -1.2905
  755MPD2    H111212   2.997   0.051  13.541  2.3469  0.7303  1.6405
  755MPD2    H211213   2.828   0.386  13.738  0.8403 -2.0212  1.8847
  755MPD2    H311214   2.919   0.150  13.734  0.7830 -0.4695 -1.3258
  755MPD2     N11215   3.015   0.153  13.299  0.3221  0.4725  0.8987
  755MPD2    H511216   3.061   0.066  13.322  2.0921  1.5246  1.3422
  755MPD2    N111217   2.803   0.527  13.528 -0.1437 -0.4470 -0.2411
  755MPD2    H711218   2.779   0.558  13.434 -1.7399 -0.5655  0.1235
  756MPD2     C11219   3.244   1.544   9.376 -0.3716  0.6458 -0.1325
  756MPD2    C111220   3.167   1.468   9.468  0.9785  0.0454  0.1134
  756MPD2    C211221   3.041   1.438   9.433 -0.1980  0.0819  0.5578
  756MPD2    C311222   2.982   1.474   9.316 -0.2091  0.3006 -0.2453
  756MPD2    C411223   3.053   1.549   9.227  0.2961 -0.7207 -0.2913
  756MPD2    C511224   3.179   1.587   9.260 -0.4715  0.4043 -0.5924
  756MPD2     H11225   2.993   1.364   9.496 -1.4008  0.3716 -0.0159
  756MPD2    H111226   3.018   1.576   9.128  0.1655 -0.5408 -0.1969
  756MPD2    H211227   3.348   1.566   9.394 -0.9427  1.3947  2.3620
  756MPD2    H311228   3.237   1.629   9.177  0.7100  0.6627  0.3605
  756MPD2     N11229   2.852   1.427   9.287  0.9708  0.4277  0.0014
  756MPD2    H511230   2.811   1.362   9.353 -0.0551 -0.7341 -1.7870
  756MPD2    N111231   3.217   1.408   9.587 -0.4352 -0.9627 -0.3497
  756MPD2    H711232   3.155   1.347   9.638  1.5295 -0.1668  2.9735
  757MPD2     C11233   2.638   0.660   9.567 -0.9735 -0.9873 -0.3002
  757MPD2    C111234   2.707   0.769   9.621  0.5234  0.5245 -0.5022
  757MPD2    C211235   2.691   0.899   9.567 -0.2947  0.4534  0.0025
  757MPD2    C311236   2.600   0.925   9.471  0.1015  0.0780 -1.1950
  757MPD2    C411237   2.527   0.813   9.421 -0.1296 -0.8098  0.3430
  757MPD2    C511238   2.545   0.690   9.472 -0.1924  0.0360  0.4951
  757MPD2     H11239   2.738   0.979   9.622  1.5742  0.3427 -1.4087
  757MPD2    H111240   2.461   0.824   9.335 -0.5382 -0.1519  0.7388
  757MPD2    H211241   2.637   0.558   9.601  0.3721 -0.7703  0.4073
  757MPD2    H311242   2.495   0.601   9.437  1.4156 -0.7286  0.1346
  757MPD2     N11243   2.599   1.053   9.419  1.3968 -0.2061 -0.3518
  757MPD2    H511244   2.675   1.118   9.438 -0.7272  2.3394 -0.5997
  757MPD2    N111245   2.805   0.728   9.712 -0.3428 -0.3084 -0.0596
  757MPD2    H711246   2.794   0.629   9.732  1.9193 -0.7701 -1.1123
  758MPD2     C11247   3.543   0.468  15.566 -0.5628 -0.3288  0.0279
  758MPD2    C111248   3.602   0.393  15.671  0.0180  0.2199 -0.1161
  758MPD2    C211249   3.543   0.396  15.795  0.1525  0.1410 -0.0186
  758MPD2    C311250   3.430   0.469  15.826 -0.0933 -0.1035 -0.1538
  758MPD2    C411251   3.375   0.546  15.726 -0.4411 -0.4489 -0.5875
  758MPD2    C511252   3.430   0.546  15.597 -0.3806 -0.1324 -1.1705
  758MPD2     H11253   3.595   0.347  15.876  2.4545 -0.0567 -1.5956
  758MPD2    H111254   3.291   0.610  15.750  1.4408  0.6894  2.9010
  758MPD2    H211255   3.585   0.489  15.469  0.0251  1.3336  0.6460
  758MPD2    H311256   3.387   0.620  15.531 -1.0757 -0.3568 -0.9712
  758MPD2     N11257   3.373   0.485  15.957 -0.4995  0.2039  0.2943
  758MPD2    H511258   3.335   0.575  15.987  1.4386  1.0773  0.1301
  758MPD2    N111259   3.718   0.313  15.644  0.0905 -0.1334 -0.1018
  758MPD2    H711260   3.739   0.308  15.545 -0.7612  0.9157 -0.3404
  759MPD2     C11261   2.654   2.859   9.762  0.9681  0.2849  0.3257
  759MPD2    C111262   2.541   2.927   9.803  0.1530  0.6566  0.0381
  759MPD2    C211263   2.549   3.066   9.825 -0.2671  0.4601  0.0869
  759MPD2    C311264   2.665   3.136   9.799 -0.4259 -0.3312  0.4819
  759MPD2    C411265   2.771   3.071   9.743  0.4299 -0.2211  0.2810
  759MPD2    C511266   2.768   2.935   9.734  0.4983  0.5158 -0.3645
  759MPD2     H11267   2.463   3.120   9.863 -1.5713 -0.8310 -1.0508
  759MPD2    H111268   2.860   3.115   9.699  1.5217 -0.4404  2.2740
  759MPD2    H211269   2.651   2.754   9.737 -0.4950  0.8057 -1.6576
  759MPD2    H311270   2.859   2.894   9.692  0.7964  1.9692 -1.1518
  759MPD2     N11271   2.673   3.280   9.813  0.0472 -0.1917 -0.5529
  759MPD2    H511272   2.600   3.328   9.864  1.4149  2.5310 -1.1223
  759MPD2    N111273   2.416   2.870   9.818  0.0023  0.1315  0.4422
  759MPD2    H711274   2.342   2.932   9.851  2.2808  1.9989  2.0286
  760MPD2     C11275   1.761   0.425  11.548 -0.1547  0.6415 -0.4643
  760MPD2    C111276   1.896   0.429  11.536 -0.0402 -0.3667 -0.5420
  760MPD2    C211277   1.963   0.305  11.520 -0.0916  0.2573 -0.3521
  760MPD2    C311278   1.890   0.186  11.528  0.1205  0.2453 -0.3422
  760MPD2    C411279   1.751   0.184  11.542  0.3422 -0.2771 -0.1730
  760MPD2    C511280   1.690   0.305  11.542  0.1824  0.2969  0.1609
  760MPD2     H11281   2.071   0.317  11.510 -0.2497  0.9205 -1.3684
  760MPD2    H111282   1.688   0.096  11.548 -0.2407  0.2680  1.6446
  760MPD2    H211283   1.698   0.513  11.558  1.1804  1.4164  1.2046
  760MPD2    H311284   1.582   0.312  11.542  0.1570  0.0514  1.8227
  760MPD2     N11285   1.972   0.069  11.515 -0.4954  0.0598  1.1250
  760MPD2    H511286   2.069   0.085  11.492 -0.8083 -1.0010 -0.9902
  760MPD2    N111287   1.970   0.549  11.551 -0.1253 -0.4000  0.4466
  760MPD2    H711288   2.063   0.566  11.514  0.3623  0.7547  2.1813
  761MPD2     C11289   3.062   4.665  11.383 -0.3552  0.8506  1.0797
  761MPD2    C111290   3.123   4.609  11.274  0.0583  0.2262  0.0913
  761MPD2    C211291   3.261   4.583  11.288  0.0975 -0.0570  0.0342
  761MPD2    C311292   3.330   4.620  11.405  0.2126  0.0106 -0.3316
  761MPD2    C411293   3.262   4.681  11.511 -0.3188  0.5562 -0.0369
  761MPD2    C511294   3.126   4.700  11.496 -0.2085  0.2097 -0.2388
  761MPD2     H11295   3.315   4.547  11.201  0.1427 -2.7751  1.1763
  761MPD2    H111296   3.316   4.706  11.602 -0.9767 -0.0250  0.5110
  761MPD2    H211297   2.955   4.686  11.387 -0.7513 -0.8735 -0.4868
  761MPD2    H311298   3.069   4.734  11.582  0.3579 -0.2733  0.3238
  761MPD2     N11299   3.476   4.602  11.416 -0.4335  0.1529  0.0734
  761MPD2    H511300   3.529   4.632  11.497  1.4683  0.2723 -1.1906
  761MPD2    N111301   3.049   4.588  11.157 -0.3087  0.1952  0.3703
  761MPD2    H711302   2.951   4.615  11.152  0.5019  2.8189 -1.6741
  762MPD2     C11303   3.208   3.953  10.620  0.2726 -0.7551 -0.1920
  762MPD2    C111304   3.224   4.085  10.614 -0.1383  0.1189  0.6297
  762MPD2    C211305   3.332   4.134  10.544  0.3053 -1.2680 -0.3456
  762MPD2    C311306   3.424   4.043  10.490 -0.2388  0.3195  0.7718
  762MPD2    C411307   3.399   3.909  10.492  0.0475  0.3630  0.7742
  762MPD2    C511308   3.290   3.860  10.564  0.1792 -0.5669 -0.1697
  762MPD2     H11309   3.354   4.240  10.536  1.1947 -1.5103 -1.2685
  762MPD2    H111310   3.461   3.836  10.442  0.0774 -0.3015  1.7831
  762MPD2    H211311   3.124   3.917  10.680 -0.7899  0.7640 -0.7776
  762MPD2    H311312   3.271   3.754  10.581 -2.0154 -0.0552  0.4832
  762MPD2     N11313   3.524   4.102  10.403  0.3391 -0.3074 -0.0090
  762MPD2    H511314   3.512   4.200  10.382 -1.0530 -0.2108  1.2392
  762MPD2    N111315   3.119   4.164  10.677  0.4002 -0.3106  0.6033
  762MPD2    H711316   3.054   4.112  10.735  0.2547 -0.4752  0.2896
  763MPD2     C11317   0.537   0.541  15.933  0.1908 -0.3437 -0.7073
  763MPD2    C111318   0.566   0.606  15.811 -0.3073 -0.3488 -0.0467
  763MPD2    C211319   0.587   0.744  15.815 -0.5262 -0.2515 -0.6888
  763MPD2    C311320   0.577   0.813  15.929  0.1502 -1.1355 -0.2211
  763MPD2    C411321   0.550   0.752  16.044 -0.2338 -0.7387 -0.0629
  763MPD2    C511322   0.520   0.618  16.047 -1.0353 -0.5252 -0.6318
  763MPD2     H11323   0.626   0.788  15.724 -0.7787 -2.1050 -1.7003
  763MPD2    H111324   0.562   0.802  16.140  3.3112 -0.8983 -0.4545
  763MPD2    H211325   0.514   0.435  15.932  0.7152 -0.4512 -1.9306
  763MPD2    H311326   0.516   0.566  16.142 -1.6205  0.2306 -0.2492
  763MPD2     N11327   0.592   0.952  15.917 -0.1655  0.2887 -0.1131
  763MPD2    H511328   0.631   0.982  15.828 -2.6024  0.5409 -1.0963
  763MPD2    N111329   0.570   0.538  15.689  0.5574 -0.6802  0.5773
  763MPD2    H711330   0.588   0.593  15.605  1.3647 -2.6420 -0.5385
  764MPD2     C11331   3.846   1.980  17.136 -0.0283 -0.0302 -0.3461
  764MPD2    C111332   3.711   1.967  17.112 -0.1010  0.8057  0.2974
  764MPD2    C211333   3.636   1.914  17.217 -0.0436 -0.1785  0.4831
  764MPD2    C311334   3.684   1.862  17.338 -0.7191  0.3602 -0.6162
  764MPD2    C411335   3.821   1.873  17.358  0.6301 -0.5922 -0.7765
  764MPD2    C511336   3.894   1.927  17.256  0.5678  0.1050  0.4875
  764MPD2     H11337   3.528   1.920  17.212  0.0369  0.7893 -0.2104
  764MPD2    H111338   3.881   1.825  17.434 -0.7721  2.6528  2.4051
  764MPD2    H211339   3.919   1.997  17.058 -0.5066 -1.4764 -1.1048
  764MPD2    H311340   3.995   1.948  17.290  0.4894 -0.0969  0.8554
  764MPD2     N11341   3.593   1.828  17.436  0.5476  0.6890  0.1100
  764MPD2    H511342   3.495   1.831  17.411  0.5553  1.1680  0.1525
  764MPD2    N111343   3.645   2.009  16.997 -1.3252  0.1301 -0.0437
  764MPD2    H711344   3.550   1.978  16.978 -0.7864 -1.1667 -0.5836
  765MPD2     C11345   3.309   4.413  15.280 -0.2805 -0.7063  0.5613
  765MPD2    C111346   3.401   4.490  15.346  0.4136  0.6890  0.2456
  765MPD2    C211347   3.529   4.444  15.360  0.2331 -0.1723  0.4263
  765MPD2    C311348   3.570   4.322  15.316 -0.2394  0.0969  0.5213
  765MPD2    C411349   3.480   4.246  15.243 -0.5298 -0.4644 -0.1076
  765MPD2    C511350   3.353   4.295  15.230  0.2252 -0.4179 -0.1775
  765MPD2     H11351   3.604   4.499  15.416 -0.0692 -0.4209  1.0746
  765MPD2    H111352   3.499   4.145  15.208 -2.2284 -0.8259  0.0330
  765MPD2    H211353   3.209   4.448  15.256  0.7179  1.9218  0.2663
  765MPD2    H311354   3.280   4.236  15.175  0.9073 -2.4046  1.0270
  765MPD2     N11355   3.699   4.286  15.345 -0.4485  0.7863 -0.0212
  765MPD2    H511356   3.761   4.349  15.394 -0.1485 -0.2776  0.9529
  765MPD2    N111357   3.342   4.597  15.411 -0.0219  0.3592 -0.1286
  765MPD2    H711358   3.245   4.617  15.389 -1.1949 -1.8314  3.1688
  766MPD2     C11359   2.674   4.688  15.273  0.2945  0.4238  0.3882
  766MPD2    C111360   2.808   4.654  15.285 -0.5594 -0.2144 -0.8937
  766MPD2    C211361   2.867   4.559  15.196  0.2892 -0.8989 -0.2044
  766MPD2    C311362   2.790   4.511  15.090 -0.5422  1.0845 -0.8531
  766MPD2    C411363   2.657   4.551  15.086  0.0719 -0.0289 -0.5250
  766MPD2    C511364   2.600   4.639  15.170  0.5089  0.4330  0.1062
  766MPD2     H11365   2.972   4.536  15.189 -0.3272 -3.1020 -2.1503
  766MPD2    H111366   2.604   4.527  14.995 -0.4826  1.3086 -0.5548
  766MPD2    H211367   2.621   0.019  15.338  0.4042  0.5581  0.3368
  766MPD2    H311368   2.500   4.677  15.149 -0.2741 -2.0819 -0.6884
  766MPD2     N11369   2.848   4.432  14.981 -0.7930  0.2819  0.2782
  766MPD2    H511370   2.791   4.403  14.903 -1.4276 -3.0551  1.9768
  766MPD2    N111371   2.881   4.722  15.382 -0.7768 -0.5628 -0.4986
  766MPD2    H711372   2.840   0.075  15.408  0.7760  0.1296 -0.4357
  767MPD2     C11373   2.451   0.016  14.816 -0.7370  0.0535 -0.1938
  767MPD2    C111374   2.586   0.021  14.783  0.6514  0.4459 -0.3866
  767MPD2    C211375   2.633   4.691  14.674 -0.2466  0.2634  0.3291
  767MPD2    C311376   2.554   4.605  14.602  0.5219  0.1846 -0.0842
  767MPD2    C411377   2.420   4.608  14.636 -0.1561 -0.4451 -0.0105
  767MPD2    C511378   2.369   4.677  14.743  0.6162 -0.3003 -0.7880
  767MPD2     H11379   2.736   4.704  14.644 -0.2857 -0.8976 -0.3230
  767MPD2    H111380   2.345   4.545  14.589  0.4581 -2.1707  1.2940
  767MPD2    H211381   2.402   0.059  14.903 -2.0215 -0.8143 -0.4915
  767MPD2    H311382   2.261   4.667  14.756  0.5498  2.0833  0.4329
  767MPD2     N11383   2.606   4.522  14.504  0.1358 -0.0389  0.0008
  767MPD2    H511384   2.707   4.510  14.500  0.5417  2.5799  2.6909
  767MPD2    N111385   2.671   0.098  14.865 -0.1538 -0.2611  0.3508
  767MPD2    H711386   2.620   0.160  14.926  0.3965 -0.2264  0.7730
  768MPD2     C11387   3.206   3.167  10.375 -0.3612  0.0666 -0.2136
  768MPD2    C111388   3.244   3.067  10.465  0.2292 -0.0022  0.4271
  768MPD2    C211389   3.383   3.067  10.496  0.2431  0.7078  0.4770
  768MPD2    C311390   3.473   3.153  10.438 -0.4188 -0.4186  0.4830
  768MPD2    C411391   3.435   3.249  10.346 -0.0388 -0.3828 -0.2691
  768MPD2    C511392   3.303   3.245  10.314  0.7150 -0.3879 -0.6788
  768MPD2     H11393   3.421   3.002  10.574 -2.8259 -1.2558  0.3212
  768MPD2    H111394   3.504   3.319  10.301 -1.3532  0.2990 -1.2431
  768MPD2    H211395   3.103   3.182  10.343  0.8447  2.3450 -2.9954
  768MPD2    H311396   3.269   3.318  10.241 -0.4191 -0.1844  0.0603
  768MPD2     N11397   3.611   3.152  10.470  0.6730 -0.4219  0.1580
  768MPD2    H511398   3.665   3.218  10.414 -0.3116  2.0131  2.1190
  768MPD2    N111399   3.157   2.991  10.549  0.3577 -0.4132 -0.2473
  768MPD2    H711400   3.210   2.943  10.620 -1.0281  2.6980  2.8984
  769MPD2     C11401   4.677   1.132  14.520 -0.2893 -0.6375 -0.1308
  769MPD2    C111402   4.557   1.161  14.574 -0.3539 -0.9509 -0.2616
  769MPD2    C211403   4.551   1.192  14.707  0.4967  0.5781 -1.0415
  769MPD2    C311404   4.659   1.213  14.787  0.6315 -0.2637  0.0787
  769MPD2    C411405   0.045   1.193  14.732 -0.1118  0.2791  0.4027
  769MPD2    C511406   0.050   1.148  14.598  0.9109 -0.3654 -0.4869
  769MPD2     H11407   4.456   1.183  14.758  1.2231 -2.5787 -0.2138
  769MPD2    H111408   0.137   1.189  14.788 -0.4030 -1.0537  0.7775
  769MPD2    H211409   4.686   1.131  14.412  3.1267  1.0061  0.1417
  769MPD2    H311410   0.146   1.132  14.551  2.3606  0.8562  2.0051
  769MPD2     N11411   4.632   1.268  14.915 -0.3382 -0.0720  0.5856
  769MPD2    H511412   4.537   1.293  14.941 -0.2332  1.3469 -0.3677
  769MPD2    N111413   4.444   1.162  14.487 -0.2053  0.0936  0.2337
  769MPD2    H711414   4.474   1.135  14.393  0.6985 -1.4704  0.9668
  770MPD2     C11415   3.659   0.752  14.616  0.0916  0.5245 -0.7185
  770MPD2    C111416   3.757   0.714  14.525 -0.5015 -0.3660  0.3118
  770MPD2    C211417   3.823   0.817  14.454 -0.7200 -0.2005 -0.0833
  770MPD2    C311418   3.780   0.945  14.456 -0.5280  0.1780 -0.8435
  770MPD2    C411419   3.686   0.977  14.560  0.0382 -0.1259  0.7998
  770MPD2    C511420   3.621   0.880  14.634  0.2242 -0.4845  0.3245
  770MPD2     H11421   3.901   0.789  14.384 -2.3486 -0.2203 -1.8878
  770MPD2    H111422   3.658   1.080  14.576 -0.5387  0.2806 -2.6892
  770MPD2    H211423   3.620   0.682  14.689  3.4529 -1.3506 -0.7098
  770MPD2    H311424   3.547   0.905  14.709 -0.6453  1.6799 -1.2413
  770MPD2     N11425   3.854   1.041  14.387  0.2772  0.7890 -0.3434
  770MPD2    H511426   3.916   1.001  14.318 -2.1471 -2.4034 -0.6513
  770MPD2    N111427   3.801   0.579  14.525  0.4944  0.1153 -0.4975
  770MPD2    H711428   3.772   0.513  14.597 -2.0464  0.6343 -1.0325
  771MPD2     C11429   0.951   3.726  13.823 -0.8298  0.2754 -0.1305
  771MPD2    C111430   0.833   3.772  13.768  0.3042  1.0006 -0.5307
  771MPD2    C211431   0.722   3.691  13.751  0.1037 -0.2540  0.0735
  771MPD2    C311432   0.737   3.554  13.774 -0.0417 -0.7926 -0.0933
  771MPD2    C411433   0.864   3.500  13.803 -0.5024 -0.0590 -0.5319
  771MPD2    C511434   0.967   3.592  13.830 -0.4910  0.3181  0.1607
  771MPD2     H11435   0.623   3.721  13.719 -1.3671 -3.2567  1.7503
  771MPD2    H111436   0.876   3.392  13.813  0.1327  0.1012  0.4468
  771MPD2    H211437   1.026   3.797  13.855  0.0172 -1.9283  2.7845
  771MPD2    H311438   1.063   3.550  13.856 -0.8328  1.0235  2.5202
  771MPD2     N11439   0.618   3.484  13.760 -0.0630 -0.2413 -0.3322
  771MPD2    H511440   0.534   3.540  13.744 -0.5465 -0.9536 -0.2567
  771MPD2    N111441   0.820   3.904  13.716  0.0611  0.4689  0.0160
  771MPD2    H711442   0.735   3.933  13.669 -1.0818  0.4578  2.0497
  772MPD2     C11443   0.302   4.407  13.641 -0.2597 -0.2291 -0.6989
  772MPD2    C111444   0.351   4.281  13.670 -0.4478  0.0280  0.6638
  772MPD2    C211445   0.264   4.180  13.686 -0.4310  0.1187  0.5421
  772MPD2    C311446   0.127   4.203  13.677 -0.4523  0.7029  0.5863
  772MPD2    C411447   0.088   4.335  13.659 -0.9167 -0.5899  0.5836
  772MPD2    C511448   0.174   4.436  13.645  0.3786 -0.2217 -0.5627
  772MPD2     H11449   0.310   4.083  13.703  0.2439  0.5323  1.0592
  772MPD2    H111450   4.720   4.362  13.662 -1.0591 -1.0220 -0.3137
  772MPD2    H211451   0.365   4.495  13.633 -1.1697  0.5808  1.0412
  772MPD2    H311452   0.147   4.538  13.620 -0.5331  0.3205  2.6898
  772MPD2     N11453   0.022   4.103  13.673 -0.0141 -0.3449 -0.0746
  772MPD2    H511454   4.662   4.134  13.668  0.8852  2.0414 -2.2912
  772MPD2    N111455   0.490   4.253  13.667  0.4928 -0.6036 -0.0173
  772MPD2    H711456   0.502   4.153  13.682 -1.2197 -0.6876  0.7631
  773MPD2     C11457   4.011   0.636   0.059 -0.3153 -0.1378  0.2723
  773MPD2    C111458   4.051   0.567  17.693 -0.8094 -0.0129 -0.4750
  773MPD2    C211459   4.149   0.457  17.708 -0.3417 -0.6731 -0.4466
  773MPD2    C311460   4.195   0.433   0.091  0.3193  0.1591 -0.5952
  773MPD2    C411461   4.150   0.512   0.206 -0.7280 -0.4920 -0.0942
  773MPD2    C511462   4.055   0.611   0.189 -0.0293 -0.4032 -0.2036
  773MPD2     H11463   4.194   0.414  17.619  1.0272 -1.1789  0.4966
  773MPD2    H111464   4.202   0.517   0.301  1.8163  1.0444 -1.5792
  773MPD2    H211465   3.946   0.723   0.053  0.2885  0.2286 -0.9389
  773MPD2    H311466   4.030   0.677   0.272  2.2808  1.0380 -0.6463
  773MPD2     N11467   4.306   0.350   0.106 -0.0666  0.4251 -0.8607
  773MPD2    H511468   4.356   0.325   0.021 -0.1262 -1.5030 -0.3244
  773MPD2    N111469   4.012   0.598  17.564 -0.2937  0.4104  0.3063
  773MPD2    H711470   4.052   0.534  17.496  0.1938  0.4345  0.5687
  774MPD2     C11471   3.538   3.910  13.066 -0.0340 -0.3632  0.3547
  774MPD2    C111472   3.505   3.959  13.187  0.1341 -0.1297  0.2686
  774MPD2    C211473   3.551   4.081  13.224  0.2072 -0.0194 -0.1333
  774MPD2    C311474   3.635   4.152  13.133  0.0784  0.0746 -0.2194
  774MPD2    C411475   3.659   4.107  13.007 -0.6796 -0.5018 -0.7333
  774MPD2    C511476   3.613   3.985  12.977 -0.6742 -0.4652  0.0946
  774MPD2     H11477   3.543   4.117  13.326  0.6004  1.0382 -0.4700
  774MPD2    H111478   3.726   4.149  12.933 -0.7119 -1.7498 -1.4632
  774MPD2    H211479   3.524   3.805  13.043 -0.5255  0.0373 -1.1578
  774MPD2    H311480   3.643   3.939  12.884 -0.0101  3.1934 -1.4952
  774MPD2     N11481   3.681   4.275  13.183 -0.2006 -0.1884  0.1999
  774MPD2    H511482   3.657   4.307  13.276  1.0606 -1.0152  0.8040
  774MPD2    N111483   3.447   3.867  13.276  0.6418 -0.2998 -0.1357
  774MPD2    H711484   3.411   3.777  13.246 -0.6058 -0.3267  1.4054
  775MPD2     C11485   4.677   1.026  15.561 -0.1279  0.5524 -0.3573
  775MPD2    C111486   4.693   1.158  15.598  0.6319  0.1971  0.3395
  775MPD2    C211487   0.060   1.229  15.544 -0.2457 -0.0473  0.0097
  775MPD2    C311488   0.133   1.172  15.449  0.0084  0.1043 -0.0467
  775MPD2    C411489   0.125   1.043  15.418 -0.0050 -0.0942  0.6252
  775MPD2    C511490   0.029   0.973  15.465  0.0850  0.8205  0.0992
  775MPD2     H11491   0.068   1.330  15.583  0.0121 -0.4800  1.0806
  775MPD2    H111492   0.181   1.010  15.331 -0.3312 -1.5127  0.9479
  775MPD2    H211493   4.598   0.974  15.616 -0.7432  2.0107  0.1341
  775MPD2    H311494   0.020   0.872  15.427  0.3565 -0.1009  2.4682
  775MPD2     N11495   0.230   1.237  15.368  0.0695  0.5225 -0.4564
  775MPD2    H511496   0.274   1.182  15.295 -0.0504 -0.5972  0.3160
  775MPD2    N111497   4.592   1.204  15.684 -0.4498 -0.2380 -0.3657
  775MPD2    H711498   4.528   1.136  15.724 -1.1730 -0.3089 -1.6440
  776MPD2     C11499   3.150   1.107  11.420 -0.1123  0.2622 -0.2017
  776MPD2    C111500   3.278   1.100  11.382  0.3631  0.4333  0.0916
  776MPD2    C211501   3.341   1.197  11.302  0.0448 -0.2554  0.1850
  776MPD2    C311502   3.270   1.302  11.253 -0.3269  0.5784 -0.0943
  776MPD2    C411503   3.142   1.315  11.296  0.1817 -0.8772  0.4438
  776MPD2    C511504   3.089   1.221  11.380 -0.0387  0.0384  0.2016
  776MPD2     H11505   3.443   1.179  11.271 -0.4849 -1.0564 -1.1073
  776MPD2    H111506   3.076   1.391  11.255  0.0847 -0.8689  0.6182
  776MPD2    H211507   3.099   1.041  11.488 -1.5625  0.7520 -0.8020
  776MPD2    H311508   2.988   1.237  11.416  0.1110 -0.7683  0.9883
  776MPD2     N11509   3.325   1.399  11.164 -0.5810  0.1960 -0.4695
  776MPD2    H511510   3.272   1.483  11.144 -0.5349  0.0990 -0.9936
  776MPD2    N111511   3.352   0.987  11.432 -0.1721  0.3316  0.2691
  776MPD2    H711512   3.299   0.923  11.491  0.8211  0.6037  1.4541
  777MPD2     C11513   4.298   3.941   0.466 -0.3872  0.4708 -0.8992
  777MPD2    C111514   4.325   3.818   0.533 -0.1344  0.5008  0.9255
  777MPD2    C211515   4.305   3.702   0.466 -0.5355  0.3212  0.4092
  777MPD2    C311516   4.256   3.709   0.338 -0.4838  0.0341  0.4351
  777MPD2    C411517   4.223   3.832   0.275  0.4563  0.1829 -0.1833
  777MPD2    C511518   4.234   3.944   0.344  0.0907 -0.5263 -0.2128
  777MPD2     H11519   4.306   3.602   0.508  0.1259  0.7783  1.4795
  777MPD2    H111520   4.170   3.832   0.180 -0.0963  0.2229  0.1212
  777MPD2    H211521   4.317   4.034   0.518  0.8834  0.0198 -0.5404
  777MPD2    H311522   4.212   4.044   0.309  0.1127 -0.0193  1.2117
  777MPD2     N11523   4.226   3.586   0.272 -0.0690  0.0984 -0.0207
  777MPD2    H511524   4.228   3.505   0.333 -0.7192  0.3538  0.3481
  777MPD2    N111525   4.386   3.831   0.657 -0.6723 -0.0249  0.1801
  777MPD2    H711526   4.403   3.927   0.687  1.7706 -0.3978  0.0458
  778MPD2     C11527   0.747   4.327  14.802 -0.1267  0.8445  0.2862
  778MPD2    C111528   0.750   4.207  14.732  0.1016 -0.5865  0.0933
  778MPD2    C211529   0.843   4.192  14.630  0.1247  0.6830 -0.7414
  778MPD2    C311530   0.937   4.287  14.596 -0.0809 -0.3990  0.2730
  778MPD2    C411531   0.930   4.407  14.665 -0.6278  0.0071 -0.2278
  778MPD2    C511532   0.833   4.426  14.764 -0.1214 -0.6217  0.5130
  778MPD2     H11533   0.845   4.102  14.570  0.2571  1.0593 -1.3091
  778MPD2    H111534   0.996   4.489  14.640  0.5333 -0.8155  0.1386
  778MPD2    H211535   0.668   4.339  14.876 -0.9348 -2.7827  0.0398
  778MPD2    H311536   0.838   4.513  14.828  0.3894 -3.4848  4.3785
  778MPD2     N11537   1.030   4.265  14.485  0.3235  0.7231 -0.2235
  778MPD2    H511538   1.030   4.176  14.436  0.5315  0.1680  0.8044
  778MPD2    N111539   0.666   4.099  14.759  0.0999 -0.3486 -0.2397
  778MPD2    H711540   0.674   4.014  14.704 -1.2077 -0.0372 -0.9206
  779MPD2     C11541   0.388   2.604  13.649  0.4973  0.0961  0.2512
  779MPD2    C111542   0.411   2.567  13.785 -0.0970 -0.9036 -0.3378
  779MPD2    C211543   0.401   2.666  13.883  0.1768 -0.3284  0.4092
  779MPD2    C311544   0.378   2.801  13.848  0.4502 -0.8845  0.2253
  779MPD2    C411545   0.368   2.831  13.718  0.4022 -0.2376 -0.6371
  779MPD2    C511546   0.366   2.737  13.622  0.0140  0.3805  0.6065
  779MPD2     H11547   0.404   2.634  13.986 -0.0506  1.2665  0.9012
  779MPD2    H111548   0.353   2.931  13.678 -1.4812 -0.4557 -0.4862
  779MPD2    H211549   0.400   2.542  13.561  0.3997  0.7903 -0.2531
  779MPD2    H311550   0.336   2.770  13.523  1.3395 -2.6141 -0.7997
  779MPD2     N11551   0.379   2.900  13.951  0.0548  0.6466 -0.3237
  779MPD2    H511552   0.392   2.872  14.048  1.9037  1.7015 -0.2554
  779MPD2    N111553   0.446   2.430  13.822 -0.0751 -0.1038  0.5259
  779MPD2    H711554   0.445   2.417  13.923  0.2754 -3.7347  0.0419
  780MPD2     C11555   4.048   3.058   0.758  0.3485 -0.0346  0.7177
  780MPD2    C111556   4.081   2.953   0.676  0.6816 -0.4182  0.4246
  780MPD2    C211557   4.187   2.967   0.590 -0.1545  0.3955 -0.0145
  780MPD2    C311558   4.247   3.089   0.564 -0.4246  0.0119  0.0155
  780MPD2    C411559   4.216   3.194   0.642 -0.4421  0.0812  0.6265
  780MPD2    C511560   4.128   3.174   0.749 -0.5674 -0.3460  0.3849
  780MPD2     H11561   4.223   2.884   0.530 -0.6022  0.3143 -0.1740
  780MPD2    H111562   4.276   3.284   0.631  0.5947 -0.6420  0.3856
  780MPD2    H211563   3.967   3.057   0.831 -0.4614 -0.3915 -0.1871
  780MPD2    H311564   4.113   3.252   0.822  1.8739  1.2739 -0.8421
  780MPD2     N11565   4.336   3.100   0.451  0.1781  0.1951  0.7828
  780MPD2    H511566   4.372   3.012   0.416  0.6148  0.8329 -0.3624
  780MPD2    N111567   4.002   2.836   0.685  0.6639 -0.2185 -0.6136
  780MPD2    H711568   3.928   2.833   0.754  0.4261 -0.5449 -0.8866
  781MPD2     C11569   0.858   4.396  11.906  0.0800 -0.5683  0.1619
  781MPD2    C111570   0.975   4.417  11.972  0.7631  0.0590  1.2269
  781MPD2    C211571   1.088   4.441  11.896 -0.2808  0.3689 -0.1491
  781MPD2    C311572   1.079   4.441  11.759  0.6367 -0.4332 -0.4875
  781MPD2    C411573   0.956   4.424  11.687  0.2706  0.6040  0.3307
  781MPD2    C511574   0.848   4.401  11.768 -0.2366 -1.0601 -0.1469
  781MPD2     H11575   1.178   4.458  11.953  0.5866  0.7917 -1.6376
  781MPD2    H111576   0.939   4.439  11.581  1.2972  1.2159  0.2478
  781MPD2    H211577   0.768   4.371  11.962 -0.7389  0.7890 -0.5526
  781MPD2    H311578   0.749   4.384  11.728  0.7275  1.2820 -3.5379
  781MPD2     N11579   1.191   4.456  11.676 -0.0041  0.3362 -0.4329
  781MPD2    H511580   1.169   4.462  11.577 -1.5946  2.6798  0.0774
  781MPD2    N111581   0.985   4.417  12.111 -0.1358 -0.2102  0.2851
  781MPD2    H711582   1.076   4.429  12.155  0.4412 -2.3712 -0.2908
  782MPD2     C11583   3.867   0.138  10.048 -0.0789 -0.1814 -0.0608
  782MPD2    C111584   3.986   0.101  10.089 -0.3427  0.4220 -0.2886
  782MPD2    C211585   4.083   0.193  10.117 -0.2830  0.2206 -0.5053
  782MPD2    C311586   4.055   0.328  10.103 -0.2819  0.1891  0.4664
  782MPD2    C411587   3.933   0.367  10.054 -0.6992 -0.5900  0.1524
  782MPD2    C511588   3.839   0.274  10.030  0.0844  0.6897 -0.2740
  782MPD2     H11589   4.172   0.160  10.170 -0.9975  0.8882  1.1016
  782MPD2    H111590   3.905   0.468  10.025  0.9291 -0.2909 -0.3663
  782MPD2    H211591   3.785   0.068  10.032  0.2800 -0.4384 -0.7713
  782MPD2    H311592   3.744   0.301   9.985  0.4195 -1.1803 -2.0637
  782MPD2     N11593   4.153   0.420  10.123 -0.0977 -0.1476 -0.1954
  782MPD2    H511594   4.246   0.378  10.128 -0.8980 -1.8969  0.1027
  782MPD2    N111595   3.997   4.698  10.108  0.0910  0.1450 -0.0891
  782MPD2    H711596   3.916   4.637  10.109 -0.9140  1.5078  1.1784
  783MPD2     C11597   3.715   4.239  10.873 -0.4167 -0.3060 -1.0039
  783MPD2    C111598   3.817   4.316  10.907 -1.1096 -0.0439  0.0793
  783MPD2    C211599   3.910   4.343  10.802  0.1290 -0.1804 -0.1199
  783MPD2    C311600   3.891   4.298  10.674 -0.0384 -0.3405  0.2714
  783MPD2    C411601   3.785   4.220  10.648 -0.5994 -0.5930 -0.4557
  783MPD2    C511602   3.696   4.189  10.743  0.3570  0.2467  0.0452
  783MPD2     H11603   3.999   4.404  10.819 -0.4813  0.7416 -0.2615
  783MPD2    H111604   3.776   4.183  10.546  1.5402  1.9440 -1.5747
  783MPD2    H211605   3.639   4.213  10.945 -0.2097 -0.4739 -0.8446
  783MPD2    H311606   3.611   4.126  10.718  1.4253 -0.9283 -0.6515
  783MPD2     N11607   3.971   4.347  10.573 -0.2059  0.3157  0.6442
  783MPD2    H511608   4.066   4.372  10.597  0.2545  0.6288 -1.4977
  783MPD2    N111609   3.816   4.372  11.035 -0.2015  0.0261  0.1379
  783MPD2    H711610   3.735   4.361  11.095 -0.6365 -0.0964 -0.4648
  784MPD2     C11611   2.337   0.940   0.391 -0.0020 -0.0533 -0.1582
  784MPD2    C111612   2.362   1.040   0.480 -0.2561 -0.3649 -0.0496
  784MPD2    C211613   2.282   1.152   0.467  0.2697 -0.3149  0.5644
  784MPD2    C311614   2.186   1.173   0.365 -0.0064 -1.0239 -0.1718
  784MPD2    C411615   2.165   1.066   0.278 -0.0038  0.6244  0.6470
  784MPD2    C511616   2.237   0.955   0.297  0.5112  0.0478  0.9428
  784MPD2     H11617   2.289   1.231   0.540  1.0731 -0.4279  0.6168
  784MPD2    H111618   2.094   1.058   0.196  1.1907  0.6643 -0.4006
  784MPD2    H211619   2.383   0.842   0.393  1.6673  0.7250 -0.2990
  784MPD2    H311620   2.230   0.874   0.226  0.9707  0.2013  0.7211
  784MPD2     N11621   2.110   1.298   0.359 -0.4282 -0.2317  0.1090
  784MPD2    H511622   2.135   1.370   0.426 -0.3203  0.5697 -0.7857
  784MPD2    N111623   2.456   1.024   0.581 -0.2830 -0.4521  0.0411
  784MPD2    H711624   2.472   1.104   0.641 -1.2767 -0.2605  0.0534
  785MPD2     C11625   1.898   4.293  10.752  0.5477  0.5170 -0.0123
  785MPD2    C111626   1.803   4.322  10.665 -0.2449 -0.7017 -0.0230
  785MPD2    C211627   1.735   4.218  10.605  0.3689  0.1268 -0.7614
  785MPD2    C311628   1.784   4.086  10.621  0.4356 -0.1008 -0.1833
  785MPD2    C411629   1.887   4.053  10.710 -1.5648 -0.0675 -0.2560
  785MPD2    C511630   1.935   4.162  10.774 -0.2077  0.3710 -0.0437
  785MPD2     H11631   1.652   4.229  10.536 -1.9446 -1.3201  1.7590
  785MPD2    H111632   1.923   3.952  10.729  0.0247  0.6239  0.4082
  785MPD2    H211633   1.932   4.382  10.804  0.3396  0.0489  0.9238
  785MPD2    H311634   2.007   4.145  10.853 -0.9484  1.5437  0.8912
  785MPD2     N11635   1.726   3.992  10.527 -0.5423 -0.3088  0.3230
  785MPD2    H511636   1.656   4.026  10.462  1.4860 -0.5752 -2.0485
  785MPD2    N111637   1.783   4.456  10.633 -0.2460 -0.3789 -0.2383
  785MPD2    H711638   1.849   4.517  10.681 -0.8131  0.7893 -0.9302
  786MPD2     C11639   0.726   1.867  14.618  0.1030  0.1113 -0.2401
  786MPD2    C111640   0.838   1.784  14.594  0.8436  0.2800 -0.6657
  786MPD2    C211641   0.929   1.760  14.697 -0.2459  0.3263 -0.0671
  786MPD2    C311642   0.912   1.836  14.815 -0.2900 -0.5498  0.6255
  786MPD2    C411643   0.799   1.909  14.837  0.7568 -0.3890  0.9174
  786MPD2    C511644   0.707   1.920  14.742  0.0805 -0.3324  0.4668
  786MPD2     H11645   1.021   1.704  14.686  0.3667  0.9927  1.7211
  786MPD2    H111646   0.784   1.974  14.922  0.8552 -0.4634  0.9907
  786MPD2    H211647   0.657   1.899  14.541 -0.1584 -1.1124 -0.5269
  786MPD2    H311648   0.620   1.980  14.768 -0.8537 -2.4943  2.4382
  786MPD2     N11649   1.011   1.859  14.913  0.1848 -0.4828 -0.0956
  786MPD2    H511650   0.981   1.916  14.991  1.8534  3.2598 -2.2111
  786MPD2    N111651   0.865   1.712  14.468 -0.0555  0.2749  0.4766
  786MPD2    H711652   0.943   1.646  14.463  1.2929  2.0177 -2.1351
  787MPD2     C11653   1.422   1.675  13.908 -1.1388  0.3718 -0.8190
  787MPD2    C111654   1.367   1.633  14.024 -0.4814 -0.2902 -0.3807
  787MPD2    C211655   1.439   1.625  14.142 -0.3040 -0.5075  0.2233
  787MPD2    C311656   1.574   1.661  14.146 -0.0292  0.0265 -0.1091
  787MPD2    C411657   1.630   1.702  14.024 -0.1971  0.3886 -0.1451
  787MPD2    C511658   1.548   1.718  13.913  0.8775 -0.3705 -0.0686
  787MPD2     H11659   1.394   1.596  14.236  0.8380 -1.2703  0.5302
  787MPD2    H111660   1.730   1.741  14.011 -0.3446  0.0623 -2.3883
  787MPD2    H211661   1.368   1.684  13.814  1.0686 -0.2383 -2.1414
  787MPD2    H311662   1.589   1.752  13.818  1.9164  0.2209  0.5797
  787MPD2     N11663   1.645   1.639  14.264 -0.4447 -0.5884 -0.0036
  787MPD2    H511664   1.600   1.581  14.335  0.1909 -0.2635  0.6644
  787MPD2    N111665   1.225   1.628  14.030 -0.6086 -0.2658 -0.0109
  787MPD2    H711666   1.175   1.671  13.953 -0.4367 -1.0931 -0.5828
  788MPD2     C11667   3.206   0.847   0.918 -0.6657 -0.5564 -0.3373
  788MPD2    C111668   3.181   0.800   0.789  0.6636  0.0359  0.4234
  788MPD2    C211669   3.158   0.883   0.685  0.4413  0.1603  0.0160
  788MPD2    C311670   3.161   1.023   0.707  0.1546  0.7021 -0.3736
  788MPD2    C411671   3.216   1.065   0.825 -0.2526 -0.2717  0.0670
  788MPD2    C511672   3.217   0.985   0.936 -0.5796 -0.6120  0.3466
  788MPD2     H11673   3.139   0.834   0.590 -0.1808  0.5564 -0.0662
  788MPD2    H111674   3.228   1.172   0.839  1.6422 -0.5608  0.5559
  788MPD2    H211675   3.221   0.790   1.008 -2.1160  3.7193  2.6106
  788MPD2    H311676   3.243   1.024   1.033  0.1297  2.9760 -1.3112
  788MPD2     N11677   3.131   1.122   0.608 -0.9241 -0.2753 -0.0845
  788MPD2    H511678   3.162   1.215   0.633 -0.1265 -0.0296 -2.0302
  788MPD2    N111679   3.177   0.657   0.766 -0.2688 -0.3561  0.0159
  788MPD2    H711680   3.161   0.631   0.669  0.6035 -1.3995  0.1497
  789MPD2     C11681   3.231   0.242  16.564 -0.6145  0.2356 -0.1461
  789MPD2    C111682   3.148   0.286  16.460 -1.0373  0.6075  0.5718
  789MPD2    C211683   3.057   0.391  16.476 -0.5680 -0.4374  0.3475
  789MPD2    C311684   3.039   0.449  16.600 -0.1477  0.3593 -0.1812
  789MPD2    C411685   3.127   0.407  16.700 -0.4237  0.1473  0.1824
  789MPD2    C511686   3.221   0.307  16.687 -0.2974  0.4090  0.4517
  789MPD2     H11687   2.994   0.408  16.390  1.4925  0.5630 -0.9528
  789MPD2    H111688   3.115   0.455  16.797  1.1484  0.3008  0.2921
  789MPD2    H211689   3.301   0.160  16.552 -0.2707  0.3199  1.3416
  789MPD2    H311690   3.285   0.289  16.772 -0.7266 -1.7053  0.3240
  789MPD2     N11691   2.948   0.552  16.625 -0.4977  0.2858  0.3311
  789MPD2    H511692   2.935   0.579  16.722  0.7284  2.1293 -0.0249
  789MPD2    N111693   3.157   0.232  16.332  0.7922  0.2296  0.1058
  789MPD2    H711694   3.102   0.283  16.263  1.2535  0.0876 -0.3657
  790MPD2     C11695   4.033   1.704  13.210 -0.8975 -0.2963 -0.8929
  790MPD2    C111696   4.050   1.569  13.189  0.2898 -0.7455 -0.6211
  790MPD2    C211697   4.029   1.523  13.066  0.0290 -0.6737 -0.1865
  790MPD2    C311698   3.990   1.597  12.957 -0.2953 -0.1154 -0.3215
  790MPD2    C411699   3.986   1.731  12.979  0.1322  0.0447 -0.1720
  790MPD2    C511700   4.003   1.782  13.100 -1.1054 -0.1760  0.6677
  790MPD2     H11701   4.026   1.415  13.053  2.8697 -0.8631  0.7382
  790MPD2    H111702   3.951   1.790  12.895  1.0126 -0.4866 -0.9200
  790MPD2    H211703   4.057   1.762  13.299  1.7276 -1.2571 -0.9881
  790MPD2    H311704   3.994   1.886  13.131 -0.7632  0.2182 -0.5415
  790MPD2     N11705   3.973   1.539  12.827  0.4001  0.2545  0.4701
  790MPD2    H511706   3.985   1.438  12.825  3.4275  0.6642 -2.0940
  790MPD2    N111707   4.098   1.496  13.300  0.4783  0.5640 -0.0567
  790MPD2    H711708   4.101   1.550  13.386 -0.4503 -0.5212  0.6451
  791MPD2     C11709   3.317   1.305  12.403 -0.7042 -0.4154  0.1902
  791MPD2    C111710   3.420   1.248  12.479 -0.1952  0.4332 -0.2664
  791MPD2    C211711   3.396   1.127  12.552  0.9404 -1.0369 -1.0110
  791MPD2    C311712   3.270   1.078  12.555  0.1470  0.1946  0.3761
  791MPD2    C411713   3.169   1.138  12.484  0.1417 -0.2167 -0.1967
  791MPD2    C511714   3.189   1.251  12.410  0.3386  0.2157 -0.5829
  791MPD2     H11715   3.480   1.078  12.600  0.0994  0.1279  1.5934
  791MPD2    H111716   3.064   1.113  12.487 -0.6201  3.0337  0.4843
  791MPD2    H211717   3.335   1.398  12.351  0.4477 -1.3536 -1.1113
  791MPD2    H311718   3.107   1.297  12.357  2.2371  3.1956 -0.9200
  791MPD2     N11719   3.243   0.963  12.632 -0.2644 -0.1931 -0.8739
  791MPD2    H511720   3.323   0.927  12.684 -0.6565 -0.5070 -0.4873
  791MPD2    N111721   3.551   1.306  12.454 -0.2597  0.3840  0.2416
  791MPD2    H711722   3.551   1.377  12.383 -0.9799 -0.2529 -0.4001
  792MPD2     C11723   4.097   1.189  10.828  0.1183 -0.3845 -0.0613
  792MPD2    C111724   4.006   1.246  10.746 -0.3383  0.4627 -0.4482
  792MPD2    C211725   3.874   1.239  10.778 -1.1430  0.4732 -0.7744
  792MPD2    C311726   3.836   1.174  10.888 -0.4687 -0.6960  0.0854
  792MPD2    C411727   3.934   1.120  10.971  0.5219 -0.5369  0.1647
  792MPD2    C511728   4.068   1.127  10.940  0.5246  0.1593  0.4556
  792MPD2     H11729   3.805   1.281  10.705 -0.2301  1.9439 -0.8092
  792MPD2    H111730   3.918   1.061  11.061 -0.8313  0.9234  0.8935
  792MPD2    H211731   4.195   1.175  10.782  0.0335 -2.7537  0.4511
  792MPD2    H311732   4.149   1.093  11.003 -0.0135 -0.8873  0.5748
  792MPD2     N11733   3.698   1.146  10.913 -0.0500 -0.2632  0.0377
  792MPD2    H511734   3.671   1.098  10.999 -1.7859 -2.1894 -1.6059
  792MPD2    N111735   4.064   1.302  10.624 -1.2116 -0.3016 -0.0912
  792MPD2    H711736   4.161   1.285  10.601 -1.9233 -2.8903 -1.2139
  793MPD2     C11737   2.986   1.283  10.303  0.2258  0.5140 -0.0489
  793MPD2    C111738   3.110   1.237  10.307 -0.3879 -0.2869  0.2938
  793MPD2    C211739   3.167   1.215  10.429 -0.2650 -0.5084  0.6381
  793MPD2    C311740   3.091   1.228  10.544  0.3326  0.9311  0.5565
  793MPD2    C411741   2.962   1.272  10.540  0.0987  0.5579 -0.3171
  793MPD2    C511742   2.912   1.302  10.419  0.3225 -0.6188 -0.2139
  793MPD2     H11743   3.272   1.188  10.440 -0.0954  0.2474  0.8506
  793MPD2    H111744   2.904   1.296  10.629  0.8049  1.0116  0.0192
  793MPD2    H211745   2.933   1.324  10.217  0.0688 -0.0336 -0.2104
  793MPD2    H311746   2.810   1.337  10.414  1.1313  1.8455  0.4624
  793MPD2     N11747   3.164   1.183  10.663 -0.5339 -0.2549  0.3802
  793MPD2    H511748   3.250   1.131  10.648  0.6787  2.3475 -1.7936
  793MPD2    N111749   3.194   1.219  10.197 -0.2710 -0.3934 -0.3148
  793MPD2    H711750   3.288   1.189  10.220 -0.1944  1.1131  1.3662
  794MPD2     C11751   3.769   1.210  16.995  0.0581 -0.1233 -0.4849
  794MPD2    C111752   3.720   1.086  16.947 -0.1366  0.1675 -0.0486
  794MPD2    C211753   3.640   1.083  16.840 -0.0443 -0.3529 -0.0672
  794MPD2    C311754   3.594   1.201  16.781 -1.0588 -0.1199 -0.8946
  794MPD2    C411755   3.633   1.325  16.828  0.1635 -0.4080 -0.2639
  794MPD2    C511756   3.726   1.324  16.930 -0.1768  0.7564  0.4157
  794MPD2     H11757   3.593   0.988  16.815 -0.0308 -0.7226  1.3162
  794MPD2    H111758   3.604   1.413  16.772 -1.9466 -0.8122  0.1971
  794MPD2    H211759   3.846   1.223  17.070  2.1048 -2.0842 -2.2240
  794MPD2    H311760   3.767   1.419  16.962 -0.6229  0.9532  0.4013
  794MPD2     N11761   3.493   1.197  16.679 -0.2517  0.1660  0.2322
  794MPD2    H511762   3.438   1.279  16.656 -1.4322 -0.8985 -0.7348
  794MPD2    N111763   3.751   0.962  17.006  0.4736 -0.2980 -0.1882
  794MPD2    H711764   3.717   0.880  16.956 -0.0748 -0.0849 -0.1652
  795MPD2     C11765   1.178   2.367  14.109  0.1063  0.1622  0.0385
  795MPD2    C111766   1.203   2.454  14.001 -0.1474  0.5012  0.0420
  795MPD2    C211767   1.330   2.487  13.965 -0.2097  0.7235  0.7700
  795MPD2    C311768   1.441   2.423  14.021  0.1290 -0.0128  0.0391
  795MPD2    C411769   1.417   2.342  14.127  0.4978  0.4554  0.0413
  795MPD2    C511770   1.289   2.315  14.169 -0.4724 -0.3802 -0.2544
  795MPD2     H11771   1.356   2.560  13.889 -0.6319 -0.7212 -0.7693
  795MPD2    H111772   1.496   2.298  14.187  0.7214 -0.3523 -0.8528
  795MPD2    H211773   1.082   2.344  14.153 -0.2026 -1.4094 -1.4388
  795MPD2    H311774   1.264   2.251  14.253 -1.1743 -0.6980 -0.7108
  795MPD2     N11775   1.568   2.464  13.979 -0.1584  0.5030 -0.6636
  795MPD2    H511776   1.563   2.525  13.898  1.5934  1.1945 -0.2563
  795MPD2    N111777   1.091   2.512  13.931  0.5462  0.3883 -0.4275
  795MPD2    H711778   0.996   2.478  13.943  0.0813  1.7075 -0.3577
  796MPD2     C11779   1.132   4.594  15.627 -0.1536  1.0760 -0.3294
  796MPD2    C111780   1.203   4.686  15.707  0.2516  0.4446 -0.1808
  796MPD2    C211781   1.191   0.086  15.675 -0.7274  0.0774  0.5214
  796MPD2    C311782   1.096   0.128  15.582  0.8020  0.1497  0.6077
  796MPD2    C411783   1.023   0.029  15.511  0.3636  0.1225 -0.2931
  796MPD2    C511784   1.043   4.631  15.532  0.3195  0.0824  1.3682
  796MPD2     H11785   1.235   0.164  15.736  0.3142  1.3195 -1.8317
  796MPD2    H111786   0.947   0.052  15.437 -0.4164 -0.7993  0.2167
  796MPD2    H211787   1.146   4.487  15.643  0.0669  1.7080  3.4498
  796MPD2    H311788   0.997   4.554  15.472  0.4141  0.6879  0.5284
  796MPD2     N11789   1.079   0.273  15.564 -0.5702 -0.5392 -0.4497
  796MPD2    H511790   1.133   0.334  15.623 -0.4441  1.9480 -3.1580
  796MPD2    N111791   1.284   4.630  15.809  0.0481 -0.1819 -0.4981
  796MPD2    H711792   1.279   4.529  15.820  0.5936  0.0618  2.0283
  797MPD2     C11793   2.031   4.249  17.527 -0.4991  0.3530 -0.0384
  797MPD2    C111794   2.133   4.331  17.495  0.2767 -0.5285 -0.7735
  797MPD2    C211795   2.144   4.374  17.367 -0.8381  0.6533 -0.0062
  797MPD2    C311796   2.046   4.352  17.274  0.5940 -0.0422  0.2485
  797MPD2    C411797   1.937   4.275  17.301 -0.3523  0.4963 -0.4620
  797MPD2    C511798   1.939   4.215  17.426 -0.1978  0.3655  0.3788
  797MPD2     H11799   2.233   4.434  17.350  0.0355 -0.2690  1.3500
  797MPD2    H111800   1.866   4.252  17.222 -1.5244  1.4210  0.3364
  797MPD2    H211801   2.017   4.209  17.627 -2.0401 -0.8466 -0.7362
  797MPD2    H311802   1.865   4.138  17.443 -0.8243  0.4616 -1.8902
  797MPD2     N11803   2.058   4.432  17.164  0.5021  1.0609  0.1990
  797MPD2    H511804   2.143   4.487  17.158  0.7605  0.6797  0.3504
  797MPD2    N111805   2.233   4.373  17.589  0.0471  0.1499 -0.4527
  797MPD2    H711806   2.314   4.418  17.548 -0.2598  1.5388  0.4524
  798MPD2     C11807   2.500   0.219  17.251 -0.6773 -0.1602  0.1717
  798MPD2    C111808   2.420   0.104  17.251 -0.2992 -0.9592 -0.8464
  798MPD2    C211809   2.424   0.027  17.371  0.8320 -0.4098  0.0231
  798MPD2    C311810   2.490   0.061  17.482 -0.2050  0.5515 -0.5150
  798MPD2    C411811   2.579   0.166  17.472 -0.2460 -0.1059 -0.6820
  798MPD2    C511812   2.575   0.243  17.361  0.0396 -0.6696 -0.6118
  798MPD2     H11813   2.371   4.669  17.374  2.1046 -1.0565  2.7821
  798MPD2    H111814   2.641   0.190  17.558 -0.1281 -0.0192 -0.7909
  798MPD2    H211815   2.502   0.290  17.169  3.2396 -1.3164 -0.7559
  798MPD2    H311816   2.633   0.335  17.360 -0.7664 -0.1650 -0.8704
  798MPD2     N11817   2.467   4.719  17.595 -0.1300  0.0153 -0.7511
  798MPD2    H511818   2.414   4.634  17.583  1.1335 -0.8186 -0.4349
  798MPD2    N111819   2.340   0.076  17.129 -0.0429 -0.0012  0.3956
  798MPD2    H711820   2.324   0.143  17.054 -1.8201  1.3323  1.9694
  799MPD2     C11821   1.222   0.946  14.489 -0.2390 -0.0451 -0.6074
  799MPD2    C111822   1.216   0.884  14.366 -0.9328 -0.2995 -0.0384
  799MPD2    C211823   1.174   0.953  14.259  0.7747  0.2839 -0.8428
  799MPD2    C311824   1.137   1.083  14.271 -0.6394  0.5388  0.5088
  799MPD2    C411825   1.144   1.146  14.393  0.7647 -0.0093 -0.0656
  799MPD2    C511826   1.186   1.075  14.501 -0.4809 -0.3626  0.9617
  799MPD2     H11827   1.162   0.906  14.163 -0.8818  0.2208 -0.6122
  799MPD2    H111828   1.109   1.249  14.394  0.7866 -0.0062  0.5023
  799MPD2    H211829   1.266   0.892  14.572 -1.2652  1.4671  0.9269
  799MPD2    H311830   1.182   1.127  14.596 -1.1010 -0.7521  1.1534
  799MPD2     N11831   1.080   1.159  14.167 -0.1997  0.1992  0.2057
  799MPD2    H511832   1.074   1.260  14.179  1.8264  0.1097  1.8572
  799MPD2    N111833   1.260   0.751  14.343 -0.2473  0.0177 -1.0081
  799MPD2    H711834   1.249   0.707  14.252  1.7501  1.4872 -1.9583
  800MPD2     C11835   1.909   1.930  13.878  0.2926 -0.6831 -0.3062
  800MPD2    C111836   2.039   1.917  13.829  0.3215  0.2008  0.4094
  800MPD2    C211837   2.059   1.882  13.695 -0.1008 -0.0467  0.3061
  800MPD2    C311838   1.955   1.866  13.613  0.1050  0.3610  0.1434
  800MPD2    C411839   1.824   1.891  13.659 -0.6998 -0.1621 -0.1304
  800MPD2    C511840   1.806   1.915  13.792 -0.5489  0.7100 -0.2477
  800MPD2     H11841   2.159   1.865  13.655 -0.2230 -1.2488  0.5196
  800MPD2    H111842   1.735   1.885  13.597  0.5910  1.4232 -2.0850
  800MPD2    H211843   1.888   1.960  13.980 -1.0346 -0.3548 -0.6766
  800MPD2    H311844   1.708   1.960  13.807 -1.1999 -0.3628 -1.2825
  800MPD2     N11845   1.980   1.839  13.478  0.0580 -0.5364  0.2200
  800MPD2    H511846   2.078   1.830  13.453 -0.0512  0.8515 -0.7355
  800MPD2    N111847   2.150   1.944  13.919 -0.2730  0.5642  0.4999
  800MPD2    H711848   2.117   1.959  14.014 -1.1387 -0.4139  0.3602
  801MPD2     C11849   2.380   1.660  14.499  0.3531  0.1635 -0.0349
  801MPD2    C111850   2.296   1.764  14.469  0.2325  0.8904  0.0242
  801MPD2    C211851   2.178   1.772  14.549  0.3706 -0.1999 -0.2401
  801MPD2    C311852   2.146   1.683  14.646  0.0678  0.4583 -0.6136
  801MPD2    C411853   2.228   1.573  14.666  0.6186  0.7293 -0.2012
  801MPD2    C511854   2.344   1.571  14.598  0.7389 -0.5233 -0.3177
  801MPD2     H11855   2.115   1.857  14.524  0.8766  0.3806  0.4910
  801MPD2    H111856   2.210   1.488  14.731 -1.1719 -0.0416 -1.6967
  801MPD2    H211857   2.474   1.649  14.445 -0.5144  1.4940 -1.8322
  801MPD2    H311858   2.411   1.486  14.612  0.8285 -0.2936  0.6311
  801MPD2     N11859   2.030   1.680  14.724 -0.7105 -0.6816  0.8507
  801MPD2    H511860   2.013   1.606  14.792 -3.4045 -0.1358  0.7940
  801MPD2    N111861   2.324   1.855  14.361 -0.4663 -0.1603 -0.0939
  801MPD2    H711862   2.252   1.919  14.330  0.2412  0.4305 -0.5054
  802MPD2     C11863   0.584   3.597   0.386  0.3707  0.6183  0.1093
  802MPD2    C111864   0.602   3.658   0.264  0.0545 -0.3587  0.4851
  802MPD2    C211865   0.681   3.597   0.167 -0.3481  0.2976  0.0349
  802MPD2    C311866   0.723   3.462   0.186  0.0555  0.0780  0.2534
  802MPD2    C411867   0.689   3.397   0.305  0.2817 -0.4888 -0.4154
  802MPD2    C511868   0.632   3.470   0.407  0.0968  0.5714  0.4020
  802MPD2     H11869   0.705   3.655   0.079 -1.0808  2.3940  1.2062
  802MPD2    H111870   0.717   3.297   0.336  1.4483 -0.2629 -0.7434
  802MPD2    H211871   0.515   3.641   0.457 -2.7608  1.0348 -3.2576
  802MPD2    H311872   0.617   3.419   0.502 -1.1374 -0.3969 -0.3023
  802MPD2     N11873   0.787   3.403   0.079 -0.1231 -0.8672 -0.3368
  802MPD2    H511874   0.822   3.463   0.005 -0.7430  0.4335  0.4268
  802MPD2    N111875   0.539   3.784   0.250  0.2305 -0.1038 -0.0654
  802MPD2    H711876   0.478   3.815   0.325  0.8147  2.0422 -0.4732
  803MPD2     C11877   1.512   0.432  12.639  0.2414  0.2270 -0.0744
  803MPD2    C111878   1.627   0.480  12.574  0.4121 -0.7770 -0.4670
  803MPD2    C211879   1.728   0.545  12.648  0.2057 -0.5756  0.2333
  803MPD2    C311880   1.702   0.564  12.787 -0.5027  0.0360 -0.4338
  803MPD2    C411881   1.588   0.517  12.845 -0.8060 -0.2698  0.1901
  803MPD2    C511882   1.499   0.451  12.772  0.2071  0.2985 -0.3356
  803MPD2     H11883   1.822   0.571  12.600  1.1470  0.0811  2.4847
  803MPD2    H111884   1.559   0.545  12.946  1.0826 -0.4660  0.7819
  803MPD2    H211885   1.431   0.377  12.593 -0.2845  1.0532 -0.1389
  803MPD2    H311886   1.411   0.412  12.821  1.2011  0.3796  1.4949
  803MPD2     N11887   1.801   0.625  12.868 -0.5180  0.1888  0.2790
  803MPD2    H511888   1.797   0.613  12.969 -0.1762 -0.7423  0.1748
  803MPD2    N111889   1.652   0.462  12.431 -0.5755 -0.1911 -0.3291
  803MPD2    H711890   1.741   0.492  12.393  1.1035 -2.5577  1.7740
  804MPD2     C11891   1.700   3.015  16.751 -0.2713  0.1817  0.2863
  804MPD2    C111892   1.691   3.027  16.891 -0.9637  0.1806  0.5053
  804MPD2    C211893   1.760   3.125  16.952 -0.1015  0.6006 -0.5484
  804MPD2    C311894   1.826   3.221  16.881  0.2512  0.1522  0.2641
  804MPD2    C411895   1.823   3.213  16.739  0.1299 -0.1142  0.0277
  804MPD2    C511896   1.766   3.108  16.676  0.1691 -0.1621  0.3456
  804MPD2     H11897   1.751   3.142  17.058  1.9705  1.3586 -0.4872
  804MPD2    H111898   1.869   3.290  16.678  1.9893  0.2500  1.8736
  804MPD2    H211899   1.648   2.939  16.695 -0.9820  0.7018  0.2392
  804MPD2    H311900   1.762   3.098  16.568  1.6695 -2.1040  0.4635
  804MPD2     N11901   1.897   3.319  16.950 -0.2231  0.2187 -0.1092
  804MPD2    H511902   1.897   3.321  17.051 -2.4431  1.0398 -0.1349
  804MPD2    N111903   1.627   2.936  16.979 -0.0288 -0.1003  0.3334
  804MPD2    H711904   1.622   2.959  17.078 -1.5528 -0.8262  0.4220
  805MPD2     C11905   0.781   1.108  14.664  0.6250 -0.7100  0.0502
  805MPD2    C111906   0.852   0.990  14.626  0.7605  0.3063 -0.8284
  805MPD2    C211907   0.955   0.950  14.709 -0.6559  0.0580  0.3530
  805MPD2    C311908   1.002   1.028  14.812 -0.1472 -0.7446 -0.2382
  805MPD2    C411909   0.936   1.138  14.847  0.9670  0.3515 -0.0841
  805MPD2    C511910   0.822   1.176  14.777 -0.0613  0.6443  0.1364
  805MPD2     H11911   0.986   0.846  14.697 -0.4855  0.3284 -1.5348
  805MPD2    H111912   0.964   1.186  14.941  0.7767  1.7897 -0.7590
  805MPD2    H211913   0.697   1.148  14.608  3.4764  1.8640 -2.3678
  805MPD2    H311914   0.769   1.265  14.810 -2.2163 -0.8596  0.6660
  805MPD2     N11915   1.117   0.977  14.877 -0.3025 -0.4436 -0.3987
  805MPD2    H511916   1.158   0.898  14.828  0.0141 -1.6279  1.7691
  805MPD2    N111917   0.819   0.903  14.519 -0.6247 -0.4722 -0.0590
  805MPD2    H711918   0.871   0.816  14.510 -2.0852 -1.2068 -1.3534
  806MPD2     C11919   1.601   0.984   0.105 -0.0238 -0.3109 -0.6899
  806MPD2    C111920   1.522   1.088   0.142  0.1629  0.8070 -0.0823
  806MPD2    C211921   1.528   1.209   0.078 -0.5849  0.4641  0.3354
  806MPD2    C311922   1.619   1.223  17.723  0.0465  0.6075 -0.0881
  806MPD2    C411923   1.687   1.114  17.668 -0.2022  0.1644  0.2007
  806MPD2    C511924   1.672   0.992  17.729 -0.4146 -0.1851 -0.4369
  806MPD2     H11925   1.465   1.291   0.111 -0.4360 -0.1645  2.1617
  806MPD2    H111926   1.755   1.130  17.585  2.5006 -2.7281  1.8440
  806MPD2    H211927   1.600   0.884   0.145  0.6532  0.0481  0.2246
  806MPD2    H311928   1.728   0.905  17.698 -0.0396  0.5678 -1.8953
  806MPD2     N11929   1.640   1.361  17.680 -0.6489  0.3568 -0.3910
  806MPD2    H511930   1.596   1.437  17.730  3.1389  1.9515  0.4854
  806MPD2    N111931   1.454   1.069   0.265 -0.3347  0.3973 -0.1758
  806MPD2    H711932   1.479   0.992   0.326 -1.4238  0.7437  0.7321
  807MPD2     C11933   0.821   0.980   0.778  0.0604  0.2191  0.3537
  807MPD2    C111934   0.943   0.972   0.838 -0.8710  0.1812 -0.1835
  807MPD2    C211935   0.956   0.884   0.940 -0.1108 -0.4351 -0.4622
  807MPD2    C311936   0.853   0.803   0.986  0.7229 -0.3742 -0.2217
  807MPD2    C411937   0.743   0.800   0.909  0.2681  0.5825 -0.0024
  807MPD2    C511938   0.722   0.889   0.806 -0.4843 -0.5067 -0.2502
  807MPD2     H11939   1.047   0.886   1.000  0.0947  0.7795 -0.8085
  807MPD2    H111940   0.670   0.721   0.926  0.6900 -0.2546 -2.0539
  807MPD2    H211941   0.802   1.040   0.689 -2.2903 -2.4105 -0.8986
  807MPD2    H311942   0.638   0.883   0.738 -0.4384 -0.9255 -0.2682
  807MPD2     N11943   0.872   0.712   1.091  0.8905 -0.2406  0.3465
  807MPD2    H511944   0.968   0.704   1.123  2.3436  4.3824 -2.9998
  807MPD2    N111945   1.056   1.042   0.792  0.0747  0.3003  0.1321
  807MPD2    H711946   1.144   1.018   0.835  0.7412  0.0184 -1.3858
  808MPD2     C11947   1.716   1.695   9.789  0.9855 -0.5406 -0.4254
  808MPD2    C111948   1.780   1.703   9.903 -0.1045  0.4475 -0.1865
  808MPD2    C211949   1.789   1.823   9.973  0.3999 -0.0921  0.6562
  808MPD2    C311950   1.737   1.935   9.920  0.4000  0.1483 -0.7219
  808MPD2    C411951   1.682   1.930   9.801  0.4381  0.3258 -0.3916
  808MPD2    C511952   1.673   1.809   9.731  0.1509 -0.6444  0.0886
  808MPD2     H11953   1.832   1.821  10.072  1.9079  1.3290  0.0376
  808MPD2    H111954   1.638   2.018   9.758  0.5186  0.9198  0.7591
  808MPD2    H211955   1.702   1.607   9.727  0.7367 -0.0390 -1.0831
  808MPD2    H311956   1.621   1.797   9.637 -0.6323  1.3704  0.2554
  808MPD2     N11957   1.737   2.056   9.996 -0.2858  0.6431 -0.0842
  808MPD2    H511958   1.712   2.140   9.944 -1.7457  0.8579  0.9745
  808MPD2    N111959   1.828   1.585   9.966 -0.3876  0.3658 -0.3245
  808MPD2    H711960   1.859   1.595  10.062  0.8512 -1.0674 -0.5738
  809MPD2     C11961   1.850   3.021   9.908  0.1735 -0.2902  0.3317
  809MPD2    C111962   1.900   2.905   9.846  0.2658 -0.4478 -0.0740
  809MPD2    C211963   1.857   2.787   9.892  0.1074  0.1337  0.2588
  809MPD2    C311964   1.771   2.781  10.008  0.3972  0.2427 -0.4390
  809MPD2    C411965   1.725   2.898  10.066  0.0370  0.4989  0.2411
  809MPD2    C511966   1.767   3.015  10.020  0.0541  0.2923 -0.3927
  809MPD2     H11967   1.894   2.693   9.851 -2.0604  0.7188 -3.0424
  809MPD2    H111968   1.663   2.894  10.154 -0.2789  0.7938  0.0345
  809MPD2    H211969   1.874   3.120   9.870 -2.2044 -0.1667 -0.8374
  809MPD2    H311970   1.733   3.100  10.079 -1.9506 -0.3617 -0.6139
  809MPD2     N11971   1.730   2.656  10.066 -0.0279 -0.1779  0.3324
  809MPD2    H511972   1.676   2.658  10.152 -0.2566 -0.0596  0.1868
  809MPD2    N111973   1.974   2.905   9.724  0.2506  0.0519  0.0523
  809MPD2    H711974   1.982   2.814   9.680 -3.1604 -1.0278  1.7445
  810MPD2     C11975   0.883   0.984  10.845  0.2632 -0.3670 -0.0826
  810MPD2    C111976   0.892   1.004  10.709 -0.2426  0.0735 -0.1179
  810MPD2    C211977   0.878   1.130  10.659 -0.4090 -0.5008 -0.3614
  810MPD2    C311978   0.843   1.234  10.741 -0.1048  0.0770  0.1137
  810MPD2    C411979   0.837   1.218  10.871 -0.8086  0.0241 -0.2221
  810MPD2    C511980   0.858   1.091  10.921 -0.0195 -0.4533  0.0903
  810MPD2     H11981   0.897   1.153  10.555 -3.0742 -0.4304 -0.8468
  810MPD2    H111982   0.831   1.311  10.928 -1.5006 -0.5517  0.6350
  810MPD2    H211983   0.890   0.887  10.892 -3.3864  0.3047  1.8499
  810MPD2    H311984   0.843   1.080  11.028 -0.7551 -2.6222 -0.2386
  810MPD2     N11985   0.821   1.366  10.685 -0.1948 -0.5364  0.3604
  810MPD2    H511986   0.799   1.440  10.752 -2.5632  1.7686 -2.9918
  810MPD2    N111987   0.913   0.888  10.639  0.3818  0.0130 -0.2124
  810MPD2    H711988   0.912   0.801  10.691 -1.3331 -1.3383 -2.5289
  811MPD2     C11989   0.757   0.850   9.850 -0.0465  0.5015 -0.1382
  811MPD2    C111990   0.805   0.893   9.971  0.4259  0.3429 -0.4721
  811MPD2    C211991   0.842   1.024   9.985  0.0286  0.7327  0.0044
  811MPD2    C311992   0.835   1.112   9.877 -0.3303 -0.0937 -0.0608
  811MPD2    C411993   0.794   1.065   9.750 -0.8406 -0.2543  0.5964
  811MPD2    C511994   0.747   0.935   9.738  0.2248  0.4878 -0.6633
  811MPD2     H11995   0.873   1.059  10.083 -0.2293  0.7234  0.0887
  811MPD2    H111996   0.784   1.123   9.659 -2.0202 -1.8061 -0.2686
  811MPD2    H211997   0.714   0.751   9.859 -0.4144  0.6183 -0.5876
  811MPD2    H311998   0.707   0.896   9.645  0.3760 -1.7205  0.2045
  811MPD2     N11999   0.878   1.248   9.898  0.2893  0.3223 -0.3943
  811MPD2    H512000   0.918   1.274   9.988 -1.6700  2.4812 -0.1323
  811MPD2    N112001   0.809   0.816  10.083 -0.1178  0.3839  0.1631
  811MPD2    H712002   0.857   0.864  10.159 -1.2518  1.4692  0.1953
  812MPD2     C12003   0.069   1.110  11.387  0.4574  0.7144 -0.2494
  812MPD2    C112004   0.055   1.236  11.449  0.3662  0.1338 -0.0065
  812MPD2    C212005   0.128   1.257  11.568 -0.1677  0.1703 -0.3637
  812MPD2    C312006   0.204   1.156  11.626  0.0113 -0.4789  0.0287
  812MPD2    C412007   0.212   1.033  11.563  0.0864  0.8020  0.6113
  812MPD2    C512008   0.148   1.015  11.444  0.1870  0.3825 -0.1330
  812MPD2     H12009   0.129   1.351  11.622  0.6691 -0.7099  1.1488
  812MPD2    H112010   0.275   0.956  11.605  0.3918  0.9344  0.3912
  812MPD2    H212011   0.027   1.078  11.293  1.2969 -0.8138 -0.0980
  812MPD2    H312012   0.161   0.929  11.379 -0.6825 -0.9094  1.3975
  812MPD2     N12013   0.282   1.168  11.743  0.2287 -0.2349 -0.2053
  812MPD2    H512014   0.340   1.089  11.769 -0.8949 -0.0047  2.9778
  812MPD2    N112015   4.709   1.334  11.390 -0.2926 -0.0055 -0.0532
  812MPD2    H712016   4.641   1.292  11.328 -0.5863 -1.5646  1.3072
  813MPD2     C12017   3.712   2.653  12.984 -0.3286 -0.2425 -0.3814
  813MPD2    C112018   3.712   2.786  12.996  0.0914  0.2678 -0.0167
  813MPD2    C212019   3.614   2.854  13.061 -0.0267  0.4294  0.6908
  813MPD2    C312020   3.502   2.788  13.112 -0.2558  0.1443  0.2139
  813MPD2    C412021   3.492   2.657  13.085  0.0444 -0.0582 -0.7741
  813MPD2    C512022   3.608   2.591  13.037 -0.4914 -0.1428 -0.0604
  813MPD2     H12023   3.620   2.962  13.073  3.6461  0.1307  1.4281
  813MPD2    H112024   3.405   2.599  13.115  0.2502 -0.6816 -1.3762
  813MPD2    H212025   3.795   2.590  12.952 -0.7106 -0.7804 -0.3003
  813MPD2    H312026   3.607   2.483  13.022  1.6731 -0.4977  2.3296
  813MPD2     N12027   3.406   2.870  13.180  0.3340 -0.0502  0.3348
  813MPD2    H512028   3.414   2.971  13.165 -2.2002  0.1902  0.6189
  813MPD2    N112029   3.818   2.868  12.959 -0.6506 -0.6656 -0.1367
  813MPD2    H712030   3.801   2.968  12.956  0.2173 -0.5419 -0.9887
  814MPD2     C12031   4.264   4.074  12.459  0.3537  1.0545 -0.1283
  814MPD2    C112032   4.291   4.095  12.325  0.1363 -0.1702 -0.3092
  814MPD2    C212033   4.315   4.223  12.280 -0.4006  1.1573  0.3095
  814MPD2    C312034   4.348   4.328  12.364 -0.1773 -0.0269  0.4754
  814MPD2    C412035   4.322   4.307  12.503  0.2110  0.0332 -0.6524
  814MPD2    C512036   4.274   4.183  12.544  0.2364 -0.4502 -0.5545
  814MPD2     H12037   4.330   4.246  12.175  0.6227  0.9748  0.4148
  814MPD2    H112038   4.342   4.382  12.578  0.0234 -0.0162 -0.5508
  814MPD2    H212039   4.243   3.976  12.502 -1.9056  2.4457  1.9137
  814MPD2    H312040   4.245   4.180  12.648 -1.9318 -1.1057 -1.1714
  814MPD2     N12041   4.401   4.456  12.319 -0.0481  0.4050  0.2589
  814MPD2    H512042   4.433   4.521  12.389  0.1879 -0.2382  0.7457
  814MPD2    N112043   4.281   3.988  12.229 -0.5276  0.5708  0.2924
  814MPD2    H712044   4.297   4.011  12.131 -1.4303 -0.0525 -0.0055
  815MPD2     C12045   0.139   2.358  11.252  0.3190 -0.4965  0.2150
  815MPD2    C112046   0.064   2.420  11.157  0.4585  0.3785  0.9551
  815MPD2    C212047   0.015   2.543  11.183  0.0546  0.3892 -0.2871
  815MPD2    C312048   0.063   2.617  11.286 -0.0147  0.0454  0.2008
  815MPD2    C412049   0.152   2.554  11.368 -1.0185  0.5110 -0.0130
  815MPD2    C512050   0.185   2.426  11.356 -0.3502  0.0803  0.1405
  815MPD2     H12051   4.672   2.579  11.120  0.7565  4.4011  1.1223
  815MPD2    H112052   0.206   2.607  11.447 -0.2145  1.2675 -1.0734
  815MPD2    H212053   0.154   2.251  11.245  0.1114 -0.4230 -1.4392
  815MPD2    H312054   0.262   2.384  11.420 -0.8785  0.1051  0.8033
  815MPD2     N12055   0.004   2.740  11.322 -0.0747 -0.1070  0.4517
  815MPD2    H512056   4.670   2.776  11.258 -1.3870 -1.8640  0.8964
  815MPD2    N112057   0.017   2.347  11.046 -0.0484 -0.5405  0.4286
  815MPD2    H712058   0.053   2.252  11.038  1.8905  0.3155 -0.8398
  816MPD2     C12059   4.493   2.269  17.006 -0.2952 -0.1510  0.3748
  816MPD2    C112060   4.586   2.354  17.061  0.0932  0.1884 -0.5021
  816MPD2    C212061   4.721   2.331  17.038  0.3278 -0.4526  1.0769
  816MPD2    C312062   0.028   2.222  16.957 -0.0579  0.1125 -0.0478
  816MPD2    C412063   4.666   2.148  16.902 -1.0370  0.1659 -0.4607
  816MPD2    C512064   4.529   2.172  16.925 -0.3805  0.8621  0.6007
  816MPD2     H12065   0.060   2.399  17.074  0.1967  1.4501 -2.2348
  816MPD2    H112066   4.688   2.067  16.832 -1.3967 -2.1000  2.0421
  816MPD2    H212067   4.389   2.291  17.028 -0.4171 -0.5013  0.1551
  816MPD2    H312068   4.456   2.108  16.876  1.4531  0.5123 -1.7022
  816MPD2     N12069   0.166   2.212  16.922 -0.1256  0.3443  0.1471
  816MPD2    H512070   0.236   2.274  16.961 -0.8891 -1.0239  3.6481
  816MPD2    N112071   4.533   2.474  17.123 -0.2242  0.0984 -0.0422
  816MPD2    H712072   4.435   2.497  17.109  0.3723  0.6952 -3.3565
  817MPD2     C12073   4.456   3.344   9.156 -0.0572 -0.1811 -0.6119
  817MPD2    C112074   4.331   3.337   9.214  0.4887  0.4662  0.1535
  817MPD2    C212075   4.242   3.447   9.216  0.0372 -0.0156 -0.2601
  817MPD2    C312076   4.290   3.572   9.174 -0.2285 -0.0568 -0.1958
  817MPD2    C412077   4.424   3.586   9.137 -0.6497 -0.2656  0.6920
  817MPD2    C512078   4.497   3.468   9.123  0.4122  0.0824 -0.1056
  817MPD2     H12079   4.142   3.437   9.257 -0.5784  0.2678 -1.7171
  817MPD2    H112080   4.474   3.678   9.110 -0.9365 -0.9819 -2.2370
  817MPD2    H212081   4.532   3.268   9.168  1.0961  1.0978  0.2083
  817MPD2    H312082   4.601   3.480   9.095  0.3310  1.1772  0.0283
  817MPD2     N12083   4.200   3.676   9.160  0.0306  0.9850 -0.0577
  817MPD2    H512084   4.109   3.653   9.198  1.3027 -0.0241  2.3692
  817MPD2    N112085   4.279   3.221   9.264 -0.4416  0.1417 -0.3804
  817MPD2    H712086   4.183   3.227   9.296 -0.1047 -1.5817  0.9593
  818MPD2     C12087   3.040   3.705  10.006  0.3546 -0.2905  0.2627
  818MPD2    C112088   2.959   3.664  10.106 -0.1167  0.1859  0.6549
  818MPD2    C212089   2.923   3.529  10.114  0.4656  0.7686 -0.2108
  818MPD2    C312090   2.989   3.444  10.030 -0.0852 -0.2109 -0.0486
  818MPD2    C412091   3.083   3.487   9.937  0.5745  0.1439  0.0942
  818MPD2    C512092   3.104   3.618   9.920  0.7357  0.1657  1.0141
  818MPD2     H12093   2.850   3.487  10.182 -0.4960  0.4400 -1.4573
  818MPD2    H112094   3.144   3.418   9.880  0.4818  0.7870 -0.7769
  818MPD2    H212095   3.058   3.811   9.992 -1.7332  0.1979  1.3127
  818MPD2    H312096   3.173   3.659   9.847 -1.4129 -0.4771 -1.3645
  818MPD2     N12097   2.970   3.304  10.037  0.5330  0.8208  0.2343
  818MPD2    H512098   3.039   3.250   9.986 -0.3996  0.1256 -0.2879
  818MPD2    N112099   2.902   3.751  10.199  0.0893  0.1893  0.2853
  818MPD2    H712100   2.853   3.698  10.270 -1.7271 -0.2425 -1.3041
  819MPD2     C12101   1.704   0.554  15.128  0.4005 -0.2458 -0.0881
  819MPD2    C112102   1.622   0.525  15.238 -0.3160  0.5690 -0.6689
  819MPD2    C212103   1.669   0.550  15.366 -0.3510 -0.0055 -0.4271
  819MPD2    C312104   1.802   0.592  15.380 -0.0814 -0.5901 -0.3817
  819MPD2    C412105   1.876   0.625  15.271  0.4090 -0.2423  0.1822
  819MPD2    C512106   1.830   0.605  15.143  0.3895  0.0629 -0.7236
  819MPD2     H12107   1.605   0.515  15.447  0.5668 -3.4610 -1.1861
  819MPD2    H112108   1.979   0.657  15.283 -0.3904  2.0920  0.8811
  819MPD2    H212109   1.682   0.532  15.025  1.5257  0.1146 -0.4078
  819MPD2    H312110   1.895   0.631  15.061 -1.8540  3.4586 -1.4099
  819MPD2     N12111   1.865   0.580  15.508  1.0658 -0.5136  0.2224
  819MPD2    H512112   1.799   0.571  15.585 -0.6613 -1.7223 -1.4156
  819MPD2    N112113   1.483   0.486  15.206 -0.1355  0.3466 -0.1228
  819MPD2    H712114   1.468   0.454  15.111 -0.2546  1.4831 -0.4871
  820MPD2     C12115   1.074   0.215  14.411  0.1641  0.3536 -0.0016
  820MPD2    C112116   1.036   0.332  14.471  0.2883  0.0013 -0.1992
  820MPD2    C212117   1.054   0.346  14.607  0.2286 -0.3296  0.6479
  820MPD2    C312118   1.121   0.251  14.674 -0.1208  0.1451  0.1700
  820MPD2    C412119   1.166   0.133  14.609  0.0794  0.3364 -0.3822
  820MPD2    C512120   1.139   0.117  14.477 -0.0235  0.0044 -0.4905
  820MPD2     H12121   1.016   0.435  14.657 -1.5079 -1.1213  0.7497
  820MPD2    H112122   1.200   0.048  14.667 -0.5925 -0.3450 -0.9846
  820MPD2    H212123   1.066   0.190  14.306 -1.2286 -0.0532  0.1982
  820MPD2    H312124   1.182   0.026  14.435  0.7852  0.9072 -1.6311
  820MPD2     N12125   1.155   0.263  14.814  0.4153 -0.2939  0.0904
  820MPD2    H512126   1.204   0.185  14.854 -0.7865 -1.6908 -1.1522
  820MPD2    N112127   0.977   0.427  14.388 -0.4556 -0.0457  0.0422
  820MPD2    H712128   0.959   0.402  14.291  0.2676  0.3974 -0.2099
  821MPD2     C12129   1.643   1.812  12.658  0.6602 -0.0822 -0.3093
  821MPD2    C112130   1.782   1.822  12.671  0.2326 -0.0153 -0.3400
  821MPD2    C212131   1.852   1.837  12.554 -0.5036 -0.0729  0.1072
  821MPD2    C312132   1.796   1.852  12.429 -0.3499 -0.7392 -0.8939
  821MPD2    C412133   1.658   1.862  12.425  0.3298  0.2611 -0.5197
  821MPD2    C512134   1.581   1.838  12.537 -1.0206  0.4201  0.5999
  821MPD2     H12135   1.960   1.841  12.560 -0.3966 -2.4919 -0.2476
  821MPD2    H112136   1.615   1.905  12.335 -1.0236  1.8755  0.9248
  821MPD2    H212137   1.583   1.786  12.745  1.6452 -0.7280  0.1827
  821MPD2    H312138   1.473   1.845  12.526 -0.8964  0.6813 -0.4484
  821MPD2     N12139   1.876   1.881  12.319  0.8954 -0.6883 -0.1113
  821MPD2    H512140   1.826   1.905  12.234  0.9060  0.1377  0.1168
  821MPD2    N112141   1.852   1.800  12.797 -0.7530 -0.9224  1.1145
  821MPD2    H712142   1.954   1.793  12.791 -0.7045 -0.2184  1.0609
  822MPD2     C12143   2.383   2.375  15.526  0.8819 -0.1325  0.5047
  822MPD2    C112144   2.370   2.328  15.657 -0.3087  0.2776  0.4088
  822MPD2    C212145   2.318   2.413  15.757 -0.9101  0.5326  0.6242
  822MPD2    C312146   2.277   2.544  15.728 -0.4273 -0.1965 -0.1545
  822MPD2    C412147   2.284   2.587  15.599  0.0036  0.6355 -0.2798
  822MPD2    C512148   2.336   2.504  15.498 -0.5417 -0.5568 -0.3679
  822MPD2     H12149   2.300   2.374  15.856  0.0569 -2.7169 -0.4752
  822MPD2    H112150   2.270   2.688  15.560  2.3949  0.9582 -0.3051
  822MPD2    H212151   2.424   2.326  15.439 -0.3782 -0.2062 -0.0465
  822MPD2    H312152   2.349   2.549  15.400 -0.6712  1.1986  0.4039
  822MPD2     N12153   2.240   2.617  15.839 -0.5230  0.0157  0.1059
  822MPD2    H512154   2.230   2.574  15.930  0.2494 -2.5522 -1.0469
  822MPD2    N112155   2.403   2.206  15.708  0.2557  0.5503 -0.5354
  822MPD2    H712156   2.386   2.191  15.807  0.8031 -0.5983 -0.6180
  823MPD2     C12157   1.912   2.718  16.594  0.0808 -0.6138  0.2452
  823MPD2    C112158   1.991   2.649  16.502 -0.3377  0.5453 -0.0286
  823MPD2    C212159   2.048   2.521  16.523 -0.0665  0.2796  0.8948
  823MPD2    C312160   2.030   2.468  16.650  0.1517  0.2242 -0.0874
  823MPD2    C412161   1.950   2.534  16.738  0.5442 -0.3676  0.4117
  823MPD2    C512162   1.898   2.662  16.716  0.9421  0.6530  0.8597
  823MPD2     H12163   2.095   2.474  16.437 -2.3545  1.3544 -0.9520
  823MPD2    H112164   1.926   2.493  16.835  0.2680 -1.2903 -0.0446
  823MPD2    H212165   1.877   2.819  16.576  0.9390 -0.0346  1.8902
  823MPD2    H312166   1.831   2.707  16.789 -1.1188  1.3072 -1.4214
  823MPD2     N12167   2.087   2.346  16.685  0.5595  0.5226 -0.0015
  823MPD2    H512168   2.074   2.314  16.781 -1.4424  3.5036  0.7406
  823MPD2    N112169   2.025   2.733  16.388  0.6250  0.2060 -0.5263
  823MPD2    H712170   2.000   2.832  16.393  1.2204  0.3275 -0.0431
  824MPD2     C12171   2.898   1.447  15.861 -0.1299  0.1763  0.7829
  824MPD2    C112172   2.871   1.521  15.748 -0.8036 -0.2490 -0.0718
  824MPD2    C212173   2.925   1.494  15.630  0.5356 -0.4330 -0.3328
  824MPD2    C312174   2.994   1.373  15.616  0.4913  0.0613  0.3862
  824MPD2    C412175   3.014   1.291  15.728 -0.2437 -0.0619 -0.3187
  824MPD2    C512176   2.973   1.334  15.854 -1.1385  0.4103 -0.3680
  824MPD2     H12177   2.902   1.560  15.547  1.7341  2.3845  1.5572
  824MPD2    H112178   3.050   1.189  15.728 -1.4729 -0.4857  2.0087
  824MPD2    H212179   2.862   1.477  15.959  0.2543  4.4298 -0.3809
  824MPD2    H312180   2.983   1.261  15.934 -1.7908 -0.4211 -1.0491
  824MPD2     N12181   3.044   1.337  15.490  0.0930 -0.4366 -0.0624
  824MPD2    H512182   3.045   1.408  15.418  0.9259  0.1807  0.5581
  824MPD2    N112183   2.788   1.631  15.775 -0.1561  0.1270  0.2218
  824MPD2    H712184   2.755   1.639  15.871 -0.3692 -0.9320  0.2366
  825MPD2     C12185   3.336   1.521  14.740 -0.0639  0.3064  0.1396
  825MPD2    C112186   3.315   1.555  14.870 -0.9002  0.1626  0.2769
  825MPD2    C212187   3.367   1.680  14.908 -0.4537 -0.3020 -0.3139
  825MPD2    C312188   3.437   1.760  14.818 -0.3691 -0.1736  0.0661
  825MPD2    C412189   3.457   1.718  14.690  0.8259 -0.4444  0.1845
  825MPD2    C512190   3.407   1.599  14.656 -0.3229 -1.2222  0.2416
  825MPD2     H12191   3.349   1.721  15.007  0.8729  2.0778 -1.0481
  825MPD2    H112192   3.518   1.779  14.624  2.5334 -1.8059  0.5066
  825MPD2    H212193   3.297   1.424  14.711 -4.0100  1.3603  1.9334
  825MPD2    H312194   3.426   1.571  14.553 -0.3596  0.0173 -0.0971
  825MPD2     N12195   3.496   1.884  14.855  0.0090  0.5251 -0.0709
  825MPD2    H512196   3.528   1.941  14.778 -0.1575 -0.4751 -0.8855
  825MPD2    N112197   3.265   1.449  14.948 -0.3436  0.4879  0.3825
  825MPD2    H712198   3.224   1.363  14.914 -0.8209  0.3868  1.1961
  826MPD2     C12199   2.991   0.953  13.649 -0.2622 -0.3393 -0.3394
  826MPD2    C112200   2.961   0.965  13.514 -0.3084  0.4484 -0.5953
  826MPD2    C212201   2.864   1.062  13.479 -0.5038  0.5495  0.3128
  826MPD2    C312202   2.799   1.130  13.580  0.0136  0.4902 -0.0512
  826MPD2    C412203   2.831   1.109  13.714  0.5563 -0.0111 -0.6673
  826MPD2    C512204   2.925   1.016  13.749 -0.5157 -0.5984  1.0902
  826MPD2     H12205   2.830   1.086  13.378  0.7667 -0.1440 -0.2787
  826MPD2    H112206   2.781   1.173  13.785  1.6914  1.6396 -1.3693
  826MPD2    H212207   3.069   0.884  13.678 -1.7110 -2.6004 -1.7578
  826MPD2    H312208   2.949   0.982  13.849  0.6747  0.2094  1.0728
  826MPD2     N12209   2.706   1.236  13.559 -0.2379 -0.4068 -0.1042
  826MPD2    H512210   2.683   1.302  13.632  0.3554  0.3062 -0.5655
  826MPD2    N112211   3.031   0.884  13.421  0.5428 -0.1846  0.3261
  826MPD2    H712212   3.108   0.837  13.468  0.4413  0.7276  1.3953
  827MPD2     C12213   3.390   2.877   9.661  0.1564  0.1608 -0.1824
  827MPD2    C112214   3.403   2.749   9.713 -0.1958  0.7779 -0.1057
  827MPD2    C212215   3.323   2.647   9.650 -0.9888 -0.6761  0.3572
  827MPD2    C312216   3.243   2.672   9.541 -0.3050 -0.1865 -0.3130
  827MPD2    C412217   3.232   2.801   9.494  0.2615  0.4900 -0.1380
  827MPD2    C512218   3.293   2.900   9.560 -1.0147  0.0357  0.2788
  827MPD2     H12219   3.332   2.543   9.680  0.8534  0.0944  2.4949
  827MPD2    H112220   3.165   2.830   9.414 -2.1474 -0.3442  1.5917
  827MPD2    H212221   3.441   2.964   9.701  2.2063 -1.0057 -0.2656
  827MPD2    H312222   3.265   3.000   9.527  0.5835 -0.0081 -1.2322
  827MPD2     N12223   3.155   2.571   9.485 -0.7803  0.2481 -0.0430
  827MPD2    H512224   3.179   2.479   9.518 -2.8244 -0.0477  0.6289
  827MPD2    N112225   3.506   2.737   9.809  0.1307 -0.1118 -0.0786
  827MPD2    H712226   3.556   2.822   9.831  1.5706 -1.1285  0.6430
  828MPD2     C12227   1.517   1.842  11.844 -0.2450 -0.0587  0.2378
  828MPD2    C112228   1.592   1.926  11.759  0.3015 -0.1046 -0.4189
  828MPD2    C212229   1.619   1.888  11.633  0.0554 -0.1583  0.6169
  828MPD2    C312230   1.570   1.772  11.580  0.2434 -1.4294 -0.1432
  828MPD2    C412231   1.501   1.683  11.654 -0.0658 -0.6336 -0.3734
  828MPD2    C512232   1.473   1.727  11.784  0.2628  0.2387 -0.7516
  828MPD2     H12233   1.686   1.950  11.575  0.1167 -0.2326  0.6096
  828MPD2    H112234   1.447   1.593  11.627 -1.0667  0.2220 -1.2404
  828MPD2    H212235   1.483   1.854  11.946 -1.3327 -0.8437 -0.0328
  828MPD2    H312236   1.410   1.657  11.838  0.3268  1.4148  0.8720
  828MPD2     N12237   1.606   1.728  11.447  0.1873 -0.2771 -0.4924
  828MPD2    H512238   1.579   1.633  11.423 -1.9518 -0.1927  1.5146
  828MPD2    N112239   1.638   2.054  11.807  0.9982 -0.0531  0.2770
  828MPD2    H712240   1.668   2.121  11.737  0.3234  1.6475  1.6167
  829MPD2     C12241   0.878   2.543  12.109  0.2814  0.1793  0.4892
  829MPD2    C112242   0.921   2.436  12.034 -0.7290 -1.0353 -0.6551
  829MPD2    C212243   1.056   2.414  12.013 -0.1383 -0.0954  0.2340
  829MPD2    C312244   1.153   2.499  12.058 -0.4070  0.2768 -0.3170
  829MPD2    C412245   1.106   2.606  12.132  0.1995 -0.9803 -0.5555
  829MPD2    C512246   0.973   2.621  12.169 -0.2046 -0.7028  0.0712
  829MPD2     H12247   1.098   2.328  11.962 -0.9674  0.0831 -0.7474
  829MPD2    H112248   1.172   2.683  12.169 -0.3690 -0.7129 -0.0844
  829MPD2    H212249   0.773   2.569  12.115  0.8379  2.5987  0.0187
  829MPD2    H312250   0.942   2.715  12.213  1.0539  0.1123 -0.7673
  829MPD2     N12251   1.290   2.488  12.035  0.0510 -0.0183 -0.8578
  829MPD2    H512252   1.348   2.562  12.073 -1.5462  0.4586  0.6464
  829MPD2    N112253   0.822   2.345  11.993 -0.2922  0.2053 -0.6573
  829MPD2    H712254   0.735   2.344  12.046  1.3376 -0.4372  2.0011
  830MPD2     C12255   2.569   0.199  16.033  0.1728  0.0977  0.0612
  830MPD2    C112256   2.523   0.270  15.923  0.1733  0.4629  0.2284
  830MPD2    C212257   2.615   0.346  15.854  0.4887 -0.3344 -0.6015
  830MPD2    C312258   2.755   0.337  15.878 -0.4400 -0.7574 -0.5270
  830MPD2    C412259   2.796   0.261  15.977 -0.3506  0.3404 -0.8621
  830MPD2    C512260   2.705   0.194  16.058 -0.8069 -0.1960 -0.1235
  830MPD2     H12261   2.585   0.410  15.773  2.1833  0.8273 -0.3159
  830MPD2    H112262   2.898   0.263  16.014 -0.6568  0.2201 -0.0027
  830MPD2    H212263   2.490   0.160  16.097  1.7904 -4.1014 -0.5186
  830MPD2    H312264   2.746   0.140  16.142  1.6992 -0.2112 -1.3535
  830MPD2     N12265   2.850   0.409  15.792 -0.2044 -0.1144 -1.2021
  830MPD2    H512266   2.948   0.390  15.809 -0.5196 -0.6214  0.0476
  830MPD2    N112267   2.388   0.291  15.904  0.1509  0.2718  0.0562
  830MPD2    H712268   2.339   0.261  15.987  0.0616 -0.0448 -0.1116
  831MPD2     C12269   2.519   2.565  16.117 -0.0572  1.0371  0.6200
  831MPD2    C112270   2.522   2.440  16.056  0.2295 -0.4957  0.5590
  831MPD2    C212271   2.424   2.345  16.079  0.1960 -0.1238 -0.3374
  831MPD2    C312272   2.332   2.370  16.174  0.6788 -0.6833 -0.2299
  831MPD2    C412273   2.340   2.486  16.251 -0.1985 -0.1094  0.2316
  831MPD2    C512274   2.435   2.583  16.227  0.2334  0.5420 -0.1460
  831MPD2     H12275   2.418   2.258  16.015 -1.3256 -0.8953  0.8359
  831MPD2    H112276   2.272   2.490  16.335 -0.4271 -1.1931  0.0947
  831MPD2    H212277   2.582   2.648  16.088  1.4049  0.4618  2.1678
  831MPD2    H312278   2.442   2.675  16.284  0.9449  1.0013 -0.9727
  831MPD2     N12279   2.218   2.285  16.200 -0.1710  0.3878 -0.2554
  831MPD2    H512280   2.166   2.298  16.286  1.0331  2.1548  0.2164
  831MPD2    N112281   2.611   2.414  15.948  0.1720  0.0063 -0.4403
  831MPD2    H712282   2.596   2.330  15.893 -1.3334 -0.7469  1.1396
  832MPD2     C12283   0.744   3.447  17.328 -0.5349  0.5342  0.0806
  832MPD2    C112284   0.765   3.552  17.241  0.1756  0.2584 -0.0478
  832MPD2    C212285   0.695   3.563  17.121 -0.7721 -0.1401  0.1646
  832MPD2    C312286   0.590   3.475  17.104  0.0225 -0.3931  0.0018
  832MPD2    C412287   0.573   3.368  17.186 -0.4741 -0.3186 -0.0921
  832MPD2    C512288   0.649   3.350  17.298  0.2563 -0.6420  0.2895
  832MPD2     H12289   0.718   3.643  17.051  0.1595  0.9679  1.7318
  832MPD2    H112290   0.484   3.306  17.182  2.1696 -4.0777 -0.5604
  832MPD2    H212291   0.806   3.431  17.416  1.6435 -1.4274 -1.7842
  832MPD2    H312292   0.626   3.276  17.374 -3.4353 -0.4335 -0.5997
  832MPD2     N12293   0.499   3.476  16.997  0.1295  0.4339 -0.4648
  832MPD2    H512294   0.437   3.397  16.983 -0.1670  0.1447  2.4715
  832MPD2    N112295   0.870   3.640  17.276 -0.5106 -0.8202 -0.0042
  832MPD2    H712296   0.919   3.609  17.360  1.1751  1.1285 -0.2655
  833MPD2     C12297   2.652   4.706  12.772 -0.7085  0.0845 -0.0026
  833MPD2    C112298   2.665   0.065  12.670 -0.4060 -0.0586 -0.2965
  833MPD2    C212299   2.735   0.035  12.559 -0.2107  0.2807 -0.1859
  833MPD2    C312300   2.786   4.643  12.542  0.4442  0.4767  0.3388
  833MPD2    C412301   2.767   4.547  12.641  0.4603 -0.4506 -0.2308
  833MPD2    C512302   2.702   4.578  12.753  0.2851  0.0375 -0.2443
  833MPD2     H12303   2.745   0.114  12.485  0.0449  1.0877  0.7135
  833MPD2    H112304   2.802   4.445  12.631  0.0220 -0.6494  0.2385
  833MPD2    H212305   2.597   4.727  12.864 -1.4437 -0.8073 -0.2447
  833MPD2    H312306   2.698   4.516  12.842 -0.1809  0.9366  0.3557
  833MPD2     N12307   2.853   4.610  12.417 -0.6801 -0.0126 -0.5840
  833MPD2    H512308   2.870   4.684  12.349 -0.5026 -0.4493 -1.0152
  833MPD2    N112309   2.614   0.199  12.683  0.1469  0.3607  0.1263
  833MPD2    H712310   2.636   0.255  12.601 -1.3277  1.2326  0.3273
  834MPD2     C12311   2.478   4.068  11.644 -0.2297  0.0731  0.3559
  834MPD2    C112312   2.521   4.182  11.580 -0.6479  0.2297  0.3166
  834MPD2    C212313   2.591   4.274  11.658 -0.3576  0.7991 -0.1922
  834MPD2    C312314   2.626   4.250  11.791 -0.1847 -0.6342 -0.2979
  834MPD2    C412315   2.575   4.134  11.847  0.9150 -0.0966  0.2031
  834MPD2    C512316   2.502   4.046  11.770 -0.4977 -0.2243  0.8371
  834MPD2     H12317   2.633   4.365  11.615  1.8598 -0.5496 -0.8315
  834MPD2    H112318   2.591   4.117  11.953  0.2895  0.6079  0.4162
  834MPD2    H212319   2.418   3.997  11.587 -1.9331 -1.3989  4.0186
  834MPD2    H312320   2.470   3.956  11.821  1.2688 -0.6702  1.1505
  834MPD2     N12321   2.712   4.342  11.858 -0.2375 -0.5099 -0.4957
  834MPD2    H512322   2.757   4.411  11.799 -0.2190 -1.1225 -1.1949
  834MPD2    N112323   2.474   4.212  11.449  0.5187 -0.0435  0.2252
  834MPD2    H712324   2.426   4.134  11.405  2.0425 -0.7046 -0.2768
  835MPD2     C12325   2.885   2.562  10.784  0.4336 -0.3204  0.5439
  835MPD2    C112326   2.864   2.587  10.918 -0.8195 -0.5651 -0.5222
  835MPD2    C212327   2.966   2.553  11.009  0.3628 -1.1120  0.1769
  835MPD2    C312328   3.080   2.489  10.963  0.2144 -0.2639  0.8731
  835MPD2    C412329   3.100   2.474  10.828  0.3507 -0.0867 -0.2399
  835MPD2    C512330   3.006   2.514  10.746  0.9113 -0.3480  0.1136
  835MPD2     H12331   2.952   2.590  11.110  0.7451  0.7797 -0.4648
  835MPD2    H112332   3.196   2.441  10.790 -0.2836 -1.2434 -0.8420
  835MPD2    H212333   2.817   2.595  10.705  0.8116  1.3191  0.9134
  835MPD2    H312334   3.038   2.504  10.643  2.1999  0.7331  0.4094
  835MPD2     N12335   3.184   2.446  11.051  0.4047 -0.0564 -0.1940
  835MPD2    H512336   3.252   2.381  11.011 -0.6949 -1.4518  0.1883
  835MPD2    N112337   2.734   2.607  10.975 -0.1814  0.1674  0.2345
  835MPD2    H712338   2.730   2.605  11.076 -3.0828  2.1380  0.1820
  836MPD2     C12339   3.119   1.933  11.765 -0.5092 -0.8720  0.5112
  836MPD2    C112340   3.150   2.068  11.753 -0.1428  0.2054  0.4821
  836MPD2    C212341   3.131   2.161  11.860 -0.1612  0.9655  0.6786
  836MPD2    C312342   3.062   2.125  11.975 -0.0773 -0.4510  0.4607
  836MPD2    C412343   3.024   1.997  11.973 -0.1454  0.1819 -0.5523
  836MPD2    C512344   3.051   1.901  11.879  0.5082 -0.3014  0.1101
  836MPD2     H12345   3.174   2.260  11.845  1.2242  0.4799  1.5068
  836MPD2    H112346   2.974   1.956  12.060  0.6667 -1.4034 -0.8170
  836MPD2    H212347   3.144   1.857  11.693  2.5569 -2.2686  3.0316
  836MPD2    H312348   3.021   1.798  11.896 -1.7480  0.1038 -1.5173
  836MPD2     N12349   3.026   2.210  12.084  0.1069  0.3308 -0.0973
  836MPD2    H512350   2.964   2.166  12.152  1.2598  0.1941  0.8587
  836MPD2    N112351   3.197   2.110  11.621  0.3194  0.9245  0.1653
  836MPD2    H712352   3.208   2.033  11.556  0.5190 -0.8765  2.3367
  837MPD2     C12353   1.068   1.838  10.345 -1.0815 -0.2494  0.2198
  837MPD2    C112354   1.060   1.881  10.211  0.0138 -0.4541 -0.2747
  837MPD2    C212355   1.032   2.018  10.192  0.8166 -0.1999  0.0624
  837MPD2    C312356   1.007   2.105  10.304 -0.3782 -0.1304  0.6792
  837MPD2    C412357   1.030   2.060  10.427 -0.4969  0.4005  0.6363
  837MPD2    C512358   1.066   1.928  10.451  0.5163  0.4067  0.3218
  837MPD2     H12359   1.026   2.057  10.092  2.5213  0.9223  0.3954
  837MPD2    H112360   1.013   2.118  10.517  1.5779 -0.9943  1.9131
  837MPD2    H212361   1.089   1.736  10.375 -0.9233 -0.2864 -0.0184
  837MPD2    H312362   1.089   1.886  10.549 -2.2789  1.7825  1.5515
  837MPD2     N12363   0.968   2.236  10.269 -0.7308  0.6893  0.4149
  837MPD2    H512364   0.952   2.255  10.171 -2.0208  1.0011  0.6862
  837MPD2    N112365   1.060   1.804  10.092  0.9148 -0.3093  0.3534
  837MPD2    H712366   1.031   1.860  10.013  0.6415 -0.3413  0.4292
  838MPD2     C12367   4.313   0.843  11.696  0.7893 -0.4634 -0.0880
  838MPD2    C112368   4.286   0.710  11.665 -0.1502  0.3894 -0.0685
  838MPD2    C212369   4.240   0.621  11.765 -1.0716 -0.8865  0.1240
  838MPD2    C312370   4.243   0.670  11.896  0.1220  0.7144  0.0801
  838MPD2    C412371   4.254   0.806  11.918  0.4076  0.1181  0.8739
  838MPD2    C512372   4.286   0.897  11.818  1.2186 -0.2937 -0.2402
  838MPD2     H12373   4.210   0.520  11.737 -3.2410  0.2251 -1.5371
  838MPD2    H112374   4.242   0.850  12.016 -0.4280 -0.8885  1.2231
  838MPD2    H212375   4.371   0.903  11.626 -0.3513 -0.7420 -1.2640
  838MPD2    H312376   4.308   0.998  11.849 -0.6370  0.1107 -0.2360
  838MPD2     N12377   4.213   0.589  12.006  0.7036  0.5862 -0.3462
  838MPD2    H512378   4.188   0.641  12.090 -2.1753 -0.1741 -0.7318
  838MPD2    N112379   4.328   0.658  11.540 -0.1793  0.5107  0.0560
  838MPD2    H712380   4.324   0.557  11.535 -1.4422  0.6157 -0.9553
  839MPD2     C12381   4.148   4.645  11.658  0.6840 -1.7312  0.6489
  839MPD2    C112382   4.179   4.623  11.527 -0.0013  0.0930  0.7852
  839MPD2    C212383   4.230   4.732  11.454 -0.3785 -0.6377 -0.3412
  839MPD2    C312384   4.240   0.121  11.510  0.1919  0.9696 -1.0403
  839MPD2    C412385   4.210   0.142  11.644 -0.2565 -0.2199  0.3110
  839MPD2    C512386   4.161   0.036  11.716 -1.2303  0.2805 -0.3543
  839MPD2     H12387   4.273   4.718  11.356 -3.0818 -2.8754 -1.2066
  839MPD2    H112388   4.202   0.238  11.694  0.5033 -1.7014  3.2916
  839MPD2    H212389   4.105   4.570  11.723 -1.9126  0.4068  1.4012
  839MPD2    H312390   4.138   0.047  11.822 -1.5518  2.1425 -0.6246
  839MPD2     N12391   4.291   0.233  11.449 -0.0725  0.3722 -0.0794
  839MPD2    H512392   4.301   0.311  11.513 -0.6635 -1.0040  1.6863
  839MPD2    N112393   4.175   4.495  11.466  0.3790 -0.3716  0.2088
  839MPD2    H712394   4.211   4.476  11.373  1.3487  0.7266  0.3511
  840MPD2     C12395   3.909   3.155   9.860 -0.2382 -0.2129 -0.2155
  840MPD2    C112396   3.962   3.052   9.937  0.5876  0.0157 -0.1126
  840MPD2    C212397   4.091   3.073   9.992 -0.1255 -0.4262 -0.7496
  840MPD2    C312398   4.155   3.197   9.995  0.2170 -0.1351  0.0123
  840MPD2    C412399   4.087   3.303   9.938  0.3471 -0.0426  0.4664
  840MPD2    C512400   3.976   3.279   9.861  0.8084  0.3334 -0.1623
  840MPD2     H12401   4.149   2.986  10.021 -1.8081 -1.4154 -0.3101
  840MPD2    H112402   4.126   3.404   9.940  0.5694 -0.1490  1.4764
  840MPD2    H212403   3.819   3.144   9.802 -2.0677  1.5472  2.3182
  840MPD2    H312404   3.945   3.364   9.802 -1.3154 -0.5571 -0.3108
  840MPD2     N12405   4.285   3.222  10.041  0.0608  0.0135 -0.0274
  840MPD2    H512406   4.321   3.316  10.026  0.4098 -0.2890 -1.1374
  840MPD2    N112407   3.893   2.933   9.955  0.0155  0.7798  0.1502
  840MPD2    H712408   3.808   2.935   9.900  0.8450 -0.6557 -1.1896
  841MPD2     C12409   4.727   2.465  13.931 -0.1136  0.1587 -0.0062
  841MPD2    C112410   4.642   2.414  14.024 -0.1961  0.3268 -0.7991
  841MPD2    C212411   4.633   2.485  14.143  0.3877 -0.5997 -0.1665
  841MPD2    C312412   4.714   2.596  14.166  0.6121 -0.0606 -0.3502
  841MPD2    C412413   0.070   2.634  14.068  0.5612  0.7818  0.4331
  841MPD2    C512414   0.073   2.569  13.950 -0.1208 -0.5775 -0.8406
  841MPD2     H12415   4.561   2.454  14.218  0.1984  0.2525  0.0150
  841MPD2    H112416   0.136   2.719  14.084 -2.5668  3.0634  1.3139
  841MPD2    H212417   4.729   2.430  13.828  2.4805  0.0808  0.0866
  841MPD2    H312418   0.136   2.613  13.874  2.3468  0.4618  1.8338
  841MPD2     N12419   4.697   2.667  14.289 -0.3003  0.4443 -0.0880
  841MPD2    H512420   4.617   2.641  14.346  1.0139 -0.3242  1.4153
  841MPD2    N112421   4.559   2.303  13.997  0.4070  0.4279  0.0372
  841MPD2    H712422   4.499   2.271  14.072 -0.5364 -0.2841 -1.0325
  842MPD2     C12423   0.164   3.905  16.719  0.1207 -0.7423 -0.0666
  842MPD2    C112424   0.065   3.813  16.736  0.2527 -0.2762  0.2279
  842MPD2    C212425   0.061   3.743  16.855 -0.5310  0.5776 -0.2370
  842MPD2    C312426   0.136   3.763  16.960  0.7190 -0.5429 -0.4621
  842MPD2    C412427   0.229   3.860  16.950  0.5371 -0.1384  0.0662
  842MPD2    C512428   0.242   3.929  16.830 -0.0435  0.3132  0.1750
  842MPD2     H12429   4.734   3.656  16.856 -1.5816  1.3600  0.4987
  842MPD2    H112430   0.313   3.876  17.017  0.4682 -1.9448  0.5682
  842MPD2    H212431   0.182   3.964  16.629  0.5741 -2.4429 -1.0902
  842MPD2    H312432   0.329   3.994  16.824  0.1521 -0.0384 -0.6867
  842MPD2     N12433   0.124   3.691  17.084  0.1112 -0.0468 -0.1625
  842MPD2    H512434   0.207   3.702  17.142 -1.3229  1.1893  1.6958
  842MPD2    N112435   4.726   3.781  16.627 -0.1677  0.5021  0.4035
  842MPD2    H712436   0.005   3.852  16.556 -1.5934  0.6860  0.2600
  843MPD2     C12437   1.923   4.604   0.030 -0.6983 -0.0774  0.5871
  843MPD2    C112438   1.955   4.674  17.661  0.2843  0.0855  0.1136
  843MPD2    C212439   2.048   0.037  17.676  0.4462 -0.0535 -0.0852
  843MPD2    C312440   2.109   0.066   0.051  0.3253 -0.8301 -0.5185
  843MPD2    C412441   2.075   4.727   0.165 -0.1419  0.7104 -0.1487
  843MPD2    C512442   1.989   4.626   0.146  0.8853 -0.9970  0.2291
  843MPD2     H12443   2.064   0.101  17.590 -1.9880 -0.2824 -0.7026
  843MPD2    H112444   2.102   0.018   0.266  1.4279 -0.5932 -0.2147
  843MPD2    H212445   1.844   4.531   0.020  0.5871 -1.1686 -1.7880
  843MPD2    H312446   1.955   4.572   0.234  0.8948 -1.1054  0.1672
  843MPD2     N12447   2.207   0.173   0.063 -0.5084  0.5385  0.0983
  843MPD2    H512448   2.256   0.167   0.152 -0.4347 -0.1489  0.0168
  843MPD2    N112449   1.884   4.644  17.535 -0.6171 -0.4444  0.1149
  843MPD2    H712450   1.812   4.573  17.543 -1.3100  0.3765  1.2320
  844MPD2     C12451   0.257   2.893  16.456  0.3802  0.9339  0.6148
  844MPD2    C112452   0.317   2.973  16.363 -0.6852  0.0777 -1.0008
  844MPD2    C212453   0.392   3.087  16.390 -0.3319  0.4484 -0.0744
  844MPD2    C312454   0.425   3.109  16.520  1.0358 -0.6073 -0.4359
  844MPD2    C412455   0.378   3.028  16.619  0.4357 -0.6715  0.3169
  844MPD2    C512456   0.294   2.921  16.588  0.5310  0.0094  0.0707
  844MPD2     H12457   0.416   3.141  16.299 -3.1085 -0.1479 -1.1587
  844MPD2    H112458   0.411   3.040  16.722  1.0847 -2.3650  0.3178
  844MPD2    H212459   0.192   2.807  16.439  2.4976 -0.7530  1.0547
  844MPD2    H312460   0.256   2.862  16.670  0.3172  1.0868  0.7325
  844MPD2     N12461   0.517   3.217  16.553 -0.1434  0.0333  0.2783
  844MPD2    H512462   0.545   3.222  16.650  2.9525  0.7150 -0.6517
  844MPD2    N112463   0.285   2.940  16.228  0.3713  0.1517  0.4135
  844MPD2    H712464   0.265   2.842  16.213  2.8370 -0.4317  0.8592
  845MPD2     C12465   0.748   4.300  16.533  0.4859  0.0925  0.6345
  845MPD2    C112466   0.773   4.239  16.657 -0.0314 -0.5219  0.2427
  845MPD2    C212467   0.778   4.097  16.665  0.7570  0.2692  0.0114
  845MPD2    C312468   0.749   4.018  16.556 -0.1963  0.2877  0.7180
  845MPD2    C412469   0.709   4.075  16.433  0.1912  0.7612  0.2933
  845MPD2    C512470   0.716   4.216  16.423 -0.0867  0.3212  0.2779
  845MPD2     H12471   0.797   4.055  16.763  0.6622  1.4446  0.5415
  845MPD2    H112472   0.672   4.029  16.342 -1.5373 -1.2058  2.0088
  845MPD2    H212473   0.753   4.407  16.517  1.5436 -0.0132  0.1838
  845MPD2    H312474   0.698   4.273  16.332  0.1822 -1.5677 -0.9550
  845MPD2     N12475   0.760   3.877  16.572  0.3703  0.2914 -0.5499
  845MPD2    H512476   0.788   3.849  16.665  1.5782 -1.3034 -1.3892
  845MPD2    N112477   0.801   4.332  16.764  0.3693  0.2671 -0.4400
  845MPD2    H712478   0.792   4.431  16.746  4.6333  0.8224  0.6022
  846MPD2     C12479   1.853   4.102  13.448 -0.0867  0.5004 -0.2347
  846MPD2    C112480   1.773   4.199  13.515  0.4159 -0.1233  0.2617
  846MPD2    C212481   1.790   4.217  13.651 -0.5881 -0.6321 -0.3926
  846MPD2    C312482   1.879   4.140  13.727  0.4993  0.2385 -0.0417
  846MPD2    C412483   1.961   4.055  13.659 -0.5958  0.1949 -0.2854
  846MPD2    C512484   1.953   4.037  13.521 -0.0087  0.4290  0.3248
  846MPD2     H12485   1.729   4.286  13.707  0.7482  0.0231  0.2456
  846MPD2    H112486   2.041   4.001  13.708 -0.5114  1.0699  0.5428
  846MPD2    H212487   1.837   4.077  13.344 -1.2591 -1.2128  0.3554
  846MPD2    H312488   2.024   3.975  13.468  0.5407 -0.2286  1.8135
  846MPD2     N12489   1.890   4.152  13.870  0.3972 -0.8261 -0.3079
  846MPD2    H512490   1.833   4.224  13.913  2.4542  1.1181 -0.8063
  846MPD2    N112491   1.692   4.287  13.442 -0.5450 -0.1225 -0.2578
  846MPD2    H712492   1.663   4.370  13.494 -4.4150 -2.6636  1.6088
  847MPD2     C12493   2.342   0.153  14.245 -0.2429 -0.6656  0.2209
  847MPD2    C112494   2.362   0.289  14.224 -0.0476 -0.3775 -0.0652
  847MPD2    C212495   2.483   0.348  14.256  0.5128 -0.2296 -0.1907
  847MPD2    C312496   2.587   0.280  14.309  0.4193  0.1383 -0.2670
  847MPD2    C412497   2.564   0.145  14.339  0.0890  0.5346  0.0454
  847MPD2    C512498   2.443   0.084  14.301 -0.4590  0.3181 -0.0490
  847MPD2     H12499   2.488   0.454  14.236  3.2077 -0.5305 -1.1382
  847MPD2    H112500   2.641   0.079  14.379  1.6326  0.5777 -2.7914
  847MPD2    H212501   2.246   0.108  14.222  0.4097 -1.0324 -1.7293
  847MPD2    H312502   2.422   4.719  14.329 -0.2632 -0.0185 -1.1417
  847MPD2     N12503   2.703   0.352  14.344 -0.3401  0.5393  0.3067
  847MPD2    H512504   2.708   0.448  14.311 -0.0204  0.5301  0.3322
  847MPD2    N112505   2.255   0.366  14.170  0.0668  0.4127  0.1085
  847MPD2    H712506   2.271   0.464  14.190  0.9072  0.3213 -0.1206
  848MPD2     C12507   0.321   3.669  16.201 -0.3466  0.0310 -0.3178
  848MPD2    C112508   0.328   3.750  16.311  0.4547  0.0976  0.0838
  848MPD2    C212509   0.362   3.887  16.291 -0.0038  0.3313 -0.0111
  848MPD2    C312510   0.370   3.933  16.158 -0.5148  0.0549 -0.4101
  848MPD2    C412511   0.350   3.851  16.054  0.7296 -0.1687  0.4805
  848MPD2    C512512   0.330   3.718  16.076  0.1316 -0.1783 -0.7412
  848MPD2     H12513   0.386   3.961  16.367 -0.3954 -0.6327  1.0449
  848MPD2    H112514   0.344   3.899  15.957 -0.8238 -2.7896 -0.7162
  848MPD2    H212515   0.312   3.563  16.224 -1.3863  0.1957  0.0622
  848MPD2    H312516   0.306   3.661  15.987  3.7181 -2.0499 -0.5118
  848MPD2     N12517   0.360   4.065  16.121  0.2830 -0.9013  0.3191
  848MPD2    H512518   0.350   4.083  16.022  1.9625  1.2039  0.5227
  848MPD2    N112519   0.308   3.707  16.444 -0.3734  0.0815  0.3301
  848MPD2    H712520   0.335   3.765  16.522  2.7902 -1.6278  0.5055
  849MPD2     C12521   3.951   3.412  14.466 -0.1854 -0.2380 -0.2520
  849MPD2    C112522   4.042   3.462  14.373  0.4070  0.3992 -0.1669
  849MPD2    C212523   4.166   3.490  14.420  0.3645  0.5025  0.3241
  849MPD2    C312524   4.200   3.464  14.552 -0.0099 -0.1772 -0.2471
  849MPD2    C412525   4.111   3.416  14.640 -0.5800 -0.1798  0.8042
  849MPD2    C512526   3.986   3.388  14.596  0.2297  0.0435  0.1054
  849MPD2     H12527   4.244   3.530  14.357 -1.7431 -0.7364 -3.0538
  849MPD2    H112528   4.139   3.381  14.738 -0.3407  0.0373  0.8125
  849MPD2    H212529   3.853   3.378  14.434 -0.2669 -1.1141  0.9224
  849MPD2    H312530   3.917   3.341  14.665 -0.1739 -1.4628 -1.3318
  849MPD2     N12531   4.336   3.479  14.588 -0.0843 -0.1126  0.0734
  849MPD2    H512532   4.393   3.540  14.530 -0.4250 -1.1621 -1.3584
  849MPD2    N112533   4.001   3.461  14.239 -1.0111 -0.0435 -0.5990
  849MPD2    H712534   3.916   3.414  14.210 -2.1754  1.7430 -0.1133
  850MPD2     C12535   2.449   1.294  14.817  0.2799  0.1409 -0.4131
  850MPD2    C112536   2.513   1.334  14.932 -0.7127  0.5902 -0.6399
  850MPD2    C212537   2.645   1.377  14.917  0.4435  0.1824  0.4209
  850MPD2    C312538   2.699   1.408  14.790  0.5368 -0.2992 -0.0241
  850MPD2    C412539   2.637   1.357  14.686 -0.6221  0.1521 -0.8382
  850MPD2    C512540   2.519   1.294  14.700 -0.3026 -0.5445 -0.5458
  850MPD2     H12541   2.688   1.411  15.010  0.3307 -0.6400  0.7682
  850MPD2    H112542   2.675   1.380  14.587  1.5172 -0.4276 -0.1549
  850MPD2    H212543   2.354   1.242  14.811 -0.6197  1.7301  0.1924
  850MPD2    H312544   2.479   1.245  14.612 -1.5268 -0.6163  0.0437
  850MPD2     N12545   2.816   1.484  14.774 -0.1733  0.3181  0.2276
  850MPD2    H512546   2.842   1.497  14.676  1.2049 -4.1732 -0.0154
  850MPD2    N112547   2.448   1.337  15.060 -0.3479 -0.1643  0.2073
  850MPD2    H712548   2.498   1.363  15.145  0.3697 -0.3235 -0.1661
  851MPD2     C12549   2.570   1.205  15.806  0.8408  0.7671 -0.1005
  851MPD2    C112550   2.562   1.149  15.680  0.2262 -0.4488  0.0883
  851MPD2    C212551   2.653   1.051  15.642  0.7429 -0.0005 -0.3998
  851MPD2    C312552   2.760   1.014  15.723  0.7823 -0.4670 -0.7374
  851MPD2    C412553   2.768   1.070  15.848  0.6459  0.4347  0.4155
  851MPD2    C512554   2.676   1.166  15.885  0.3198 -0.0001 -0.8551
  851MPD2     H12555   2.648   1.008  15.542 -1.9217  0.4171 -0.4613
  851MPD2    H112556   2.847   1.046  15.918 -0.5946 -0.8457  1.3766
  851MPD2    H212557   2.501   1.274  15.854  0.4890  1.0553 -1.0135
  851MPD2    H312558   2.679   1.217  15.981  0.4795  0.7216 -1.2455
  851MPD2     N12559   2.855   0.919  15.677  0.5482 -0.2565  0.1000
  851MPD2    H512560   2.842   0.886  15.582  2.5316  0.5002 -0.4264
  851MPD2    N112561   2.455   1.191  15.599 -0.2612 -0.5981 -0.2161
  851MPD2    H712562   2.404   1.272  15.633  1.1783  0.3506 -0.3337
  852MPD2     C12563   2.208   3.850   9.916 -0.5784  0.6558 -1.5146
  852MPD2    C112564   2.126   3.958   9.952  0.2857 -0.6171 -0.0360
  852MPD2    C212565   2.155   4.086   9.914  0.1710  0.0739  0.1421
  852MPD2    C312566   2.264   4.108   9.830 -0.3381  0.1390 -0.6922
  852MPD2    C412567   2.335   3.998   9.789  0.0172  0.2514  0.2088
  852MPD2    C512568   2.301   3.869   9.824 -0.0334 -0.6159 -0.1611
  852MPD2     H12569   2.086   4.160   9.954  0.5314  0.2209  0.4882
  852MPD2    H112570   2.422   4.019   9.727  0.8637  1.1434  1.7113
  852MPD2    H212571   2.183   3.748   9.943  0.7474  1.0113  1.0778
  852MPD2    H312572   2.363   3.788   9.789  0.1687 -0.5510  0.0407
  852MPD2     N12573   2.301   4.242   9.821 -0.4764 -0.5129  0.3222
  852MPD2    H512574   2.231   4.303   9.864  1.6493  0.0443  3.0060
  852MPD2    N112575   2.031   3.951  10.049 -0.6109 -0.6227  0.3111
  852MPD2    H712576   1.978   4.036  10.064  1.5598  1.0432 -1.5197
  853MPD2     C12577   3.407   3.179  12.023 -0.0232 -0.1637  0.1601
  853MPD2    C112578   3.368   3.313  12.009 -1.1650  0.7984 -1.0293
  853MPD2    C212579   3.380   3.377  11.892 -0.3092  0.2518 -0.3570
  853MPD2    C312580   3.438   3.313  11.780  0.0420  0.0862 -0.1005
  853MPD2    C412581   3.482   3.183  11.793 -0.4606  0.6106 -0.3131
  853MPD2    C512582   3.459   3.117  11.912 -0.0642 -0.5221  0.1791
  853MPD2     H12583   3.321   3.467  11.889  2.9941  2.3463 -1.9226
  853MPD2    H112584   3.529   3.133  11.708 -2.3796 -2.5927  0.4957
  853MPD2    H212585   3.396   3.124  12.115  1.6619 -1.1447 -0.2283
  853MPD2    H312586   3.495   3.016  11.929  0.2762 -0.5319 -0.5921
  853MPD2     N12587   3.434   3.365  11.649  0.2827  0.1868 -0.4333
  853MPD2    H512588   3.455   3.302  11.573  1.9206 -0.7963  0.8444
  853MPD2    N112589   3.314   3.372  12.123  0.3889  0.0192 -0.6489
  853MPD2    H712590   3.298   3.308  12.199  1.3053  0.8459  0.2412
  854MPD2     C12591   0.651   4.047  13.253 -0.3099  0.1652 -0.1241
  854MPD2    C112592   0.677   3.985  13.127 -0.1573 -0.0031  0.4810
  854MPD2    C212593   0.763   3.873  13.130  0.5687 -0.0742 -0.2324
  854MPD2    C312594   0.818   3.833  13.252 -0.3170  0.5390 -0.6725
  854MPD2    C412595   0.795   3.892  13.373 -0.2461 -0.2108 -0.5368
  854MPD2    C512596   0.713   4.001  13.367 -0.6648  0.3937 -0.3367
  854MPD2     H12597   0.781   3.823  13.036 -0.6527 -0.9335 -0.0028
  854MPD2    H112598   0.848   3.859  13.461  1.0819 -1.5889 -1.8357
  854MPD2    H212599   0.595   4.139  13.261  1.9182  1.5823 -0.6719
  854MPD2    H312600   0.681   4.048  13.460 -1.4800 -0.2273 -0.3073
  854MPD2     N12601   0.916   3.726  13.273 -0.5617  0.1371  0.2015
  854MPD2    H512602   0.959   3.720  13.365 -0.3023  0.0612  0.0747
  854MPD2    N112603   0.612   4.036  13.014  0.2240  0.1457  0.0754
  854MPD2    H712604   0.548   4.113  13.029  0.4799  0.1078  1.3811
  855MPD2     C12605   1.363   3.552  13.983  0.1876 -0.6076  0.3096
  855MPD2    C112606   1.331   3.417  13.944  0.5054  0.4049  0.0650
  855MPD2    C212607   1.305   3.401  13.803  0.5003  0.1824 -0.0475
  855MPD2    C312608   1.285   3.510  13.719 -0.6088  0.4141  1.0113
  855MPD2    C412609   1.315   3.634  13.765  0.0839  0.9315 -0.0420
  855MPD2    C512610   1.349   3.652  13.897 -0.3645 -0.0816 -0.1175
  855MPD2     H12611   1.274   3.305  13.762  1.6738 -0.2278  0.0439
  855MPD2    H112612   1.321   3.723  13.702  3.2470  0.9337  0.2419
  855MPD2    H212613   1.401   3.572  14.083 -0.0040 -3.0587  0.8729
  855MPD2    H312614   1.392   3.747  13.928  1.5592 -0.3470 -1.9635
  855MPD2     N12615   1.227   3.497  13.590  0.2645 -0.0530  0.3643
  855MPD2    H512616   1.228   3.577  13.528 -0.6497 -1.1351 -1.0538
  855MPD2    N112617   1.335   3.313  14.045  0.3213 -0.5513  0.3897
  855MPD2    H712618   1.339   3.333  14.144 -0.0460  2.4360 -0.2038
  856MPD2     C12619   3.244   4.101  13.850 -0.5823  0.0759 -0.0983
  856MPD2    C112620   3.240   4.234  13.891  0.3660 -0.7031  0.0232
  856MPD2    C212621   3.127   4.308  13.879 -0.3910 -0.7097  0.1249
  856MPD2    C312622   3.014   4.257  13.815  0.3209  0.5929 -0.5366
  856MPD2    C412623   3.025   4.128  13.762 -0.1518 -0.7251 -0.5652
  856MPD2    C512624   3.137   4.054  13.781  0.1275  0.1797 -0.2764
  856MPD2     H12625   3.120   4.396  13.941 -1.4538  1.1811 -2.7238
  856MPD2    H112626   2.941   4.078  13.716 -0.1206 -1.7707  0.5080
  856MPD2    H212627   3.318   4.029  13.883 -0.4252 -0.3693 -1.4572
  856MPD2    H312628   3.129   3.951  13.750 -0.4163  0.3661 -0.7737
  856MPD2     N12629   2.906   4.340  13.785 -0.6917 -0.6453  0.2656
  856MPD2    H512630   2.827   4.299  13.735 -2.2681  1.2056  1.2663
  856MPD2    N112631   3.335   4.302  13.976  0.0843  0.0264 -1.0457
  856MPD2    H712632   3.311   4.393  14.014  1.5310  0.0969 -0.2675
  857MPD2     C12633   4.489   2.064  12.453 -0.2255 -0.1233 -0.3253
  857MPD2    C112634   4.626   2.038  12.466 -0.3346 -0.3884  0.0874
  857MPD2    C212635   4.704   2.117  12.544 -0.3138 -0.3593  0.4137
  857MPD2    C312636   4.653   2.235  12.597 -0.2045  0.2268 -0.1243
  857MPD2    C412637   4.518   2.249  12.595 -0.1746  0.3222  0.1992
  857MPD2    C512638   4.438   2.161  12.526  0.2828 -0.8865 -0.4242
  857MPD2     H12639   0.070   2.088  12.566  0.4090  2.0474  0.2472
  857MPD2    H112640   4.474   2.337  12.640  0.0898  1.5462 -1.9399
  857MPD2    H212641   4.413   2.019  12.390  0.2435 -1.1993 -0.1372
  857MPD2    H312642   4.331   2.171  12.539 -0.0563 -3.5259 -1.1972
  857MPD2     N12643   0.003   2.333  12.659  0.1342  0.0074 -0.0350
  857MPD2    H512644   0.103   2.318  12.665  0.0139 -0.2659  1.2921
  857MPD2    N112645   4.683   1.942  12.384 -0.4053 -0.1762  0.0834
  857MPD2    H712646   4.625   1.901  12.311 -2.1320 -1.7521  2.3535
  858MPD2     C12647   0.647   1.827  16.210  0.0089 -0.3129 -0.7440
  858MPD2    C112648   0.634   1.698  16.258  0.3363  0.2599  0.3404
  858MPD2    C212649   0.646   1.670  16.395  0.2546  0.2332 -0.2343
  858MPD2    C312650   0.672   1.770  16.485  0.1893 -0.3651  0.5669
  858MPD2    C412651   0.689   1.893  16.439 -0.7273  0.1427  1.0646
  858MPD2    C512652   0.682   1.922  16.302 -0.4237 -0.6766  0.3626
  858MPD2     H12653   0.623   1.573  16.438 -0.8157  0.1134 -1.0737
  858MPD2    H112654   0.706   1.976  16.505  0.9045  0.5865  0.0790
  858MPD2    H212655   0.644   1.847  16.103  0.3839  1.3375 -0.4468
  858MPD2    H312656   0.706   2.023  16.270  1.2726 -0.4366  2.4312
  858MPD2     N12657   0.684   1.764  16.629  1.0332  0.9878  0.3525
  858MPD2    H512658   0.707   1.843  16.689  0.2742  1.5551 -0.1112
  858MPD2    N112659   0.621   1.595  16.166 -0.2609 -0.2194 -0.0722
  858MPD2    H712660   0.620   1.623  16.068  2.1944  0.2506  0.0342
  859MPD2     C12661   4.136   3.450  15.595  0.5742 -0.5287 -0.2947
  859MPD2    C112662   4.179   3.398  15.473  1.0248  0.3864  0.3134
  859MPD2    C212663   4.151   3.266  15.448  0.3755  0.1977 -0.0944
  859MPD2    C312664   4.084   3.190  15.547 -0.5442 -0.3161 -0.4657
  859MPD2    C412665   4.042   3.249  15.664  0.1271 -0.2469  0.0856
  859MPD2    C512666   4.066   3.383  15.689 -0.8297 -0.5112 -0.0381
  859MPD2     H12667   4.194   3.221  15.359  1.0594  0.8371 -0.0928
  859MPD2    H112668   3.982   3.182  15.724 -0.9718  0.6572 -0.0053
  859MPD2    H212669   4.139   3.556  15.617  0.0617 -0.2483 -1.6052
  859MPD2    H312670   4.047   3.433  15.783 -1.5366 -0.0455 -0.4339
  859MPD2     N12671   4.071   3.053  15.541  0.5098 -0.1608 -0.3738
  859MPD2    H512672   4.050   3.007  15.630 -0.3531  2.0929  0.5751
  859MPD2    N112673   4.257   3.473  15.380  0.3696  0.5453  0.0681
  859MPD2    H712674   4.293   3.564  15.405 -1.3353  1.0148  0.8002
  860MPD2     C12675   1.891   3.291  11.840 -0.2981 -0.0610 -0.6836
  860MPD2    C112676   1.828   3.182  11.885 -0.3944  0.1944  0.3526
  860MPD2    C212677   1.695   3.198  11.921 -0.4829 -0.2376  0.4927
  860MPD2    C312678   1.628   3.323  11.926  0.2897 -0.1955 -0.6097
  860MPD2    C412679   1.699   3.431  11.891 -0.7635 -0.9472 -0.1383
  860MPD2    C512680   1.824   3.412  11.835 -0.1509  0.5760 -0.5089
  860MPD2     H12681   1.636   3.112  11.952 -0.8151  0.2931  1.3181
  860MPD2    H112682   1.662   3.530  11.869  0.5906 -0.6174 -0.9280
  860MPD2    H212683   1.998   3.289  11.821  0.2481  0.3073  2.3977
  860MPD2    H312684   1.876   3.505  11.818 -0.8502  0.9632 -0.5191
  860MPD2     N12685   1.496   3.321  11.976  0.2592  0.0061 -0.2326
  860MPD2    H512686   1.462   3.230  12.004  1.6609 -0.9373 -1.6254
  860MPD2    N112687   1.886   3.066  11.923  0.6489  0.6841  0.1695
  860MPD2    H712688   1.817   3.007  11.970 -0.1732 -1.1334 -3.3086
  861MPD2     C12689   0.584   1.145  10.480  0.6018 -0.1851  0.5377
  861MPD2    C112690   0.499   1.247  10.522 -0.1356  0.0749  0.1554
  861MPD2    C212691   0.457   1.340  10.429  0.2085 -0.5136  0.1288
  861MPD2    C312692   0.482   1.333  10.292 -0.4231 -0.0175  0.0866
  861MPD2    C412693   0.564   1.228  10.253 -0.5311 -0.2405  0.3741
  861MPD2    C512694   0.612   1.137  10.345  0.9601  0.0410 -0.2201
  861MPD2     H12695   0.385   1.411  10.468  0.0447 -0.2778 -0.5942
  861MPD2    H112696   0.585   1.209  10.148 -1.5881 -2.1206  0.4986
  861MPD2    H212697   0.630   1.080  10.553  0.2504 -0.1611  0.7784
  861MPD2    H312698   0.682   1.058  10.320  1.9458  1.4517 -1.8841
  861MPD2     N12699   0.428   1.418  10.189 -0.0719 -0.1035  0.2886
  861MPD2    H512700   0.435   1.401  10.089  1.1702 -1.3969  0.6005
  861MPD2    N112701   0.459   1.260  10.661 -0.0986  0.1436 -0.1953
  861MPD2    H712702   0.402   1.341  10.681 -3.7759 -3.0359  2.3016
  862MPD2     C12703   0.022   1.387   9.578 -0.1469  0.2346 -0.6713
  862MPD2    C112704   0.069   1.354   9.700 -0.4388  0.5466 -0.5841
  862MPD2    C212705   0.020   1.240   9.755 -0.7342 -0.7518  0.8205
  862MPD2    C312706   4.669   1.151   9.696 -0.5871  0.0390 -0.4666
  862MPD2    C412707   4.622   1.194   9.569  0.5540  0.1033 -0.1352
  862MPD2    C512708   4.674   1.307   9.512 -0.5941  0.7510 -0.0460
  862MPD2     H12709   0.056   1.216   9.855 -0.4204  0.3321  0.9636
  862MPD2    H112710   4.546   1.136   9.518  0.5654 -0.5056  0.5366
  862MPD2    H212711   0.048   1.483   9.535  0.9025  0.2532 -0.0156
  862MPD2    H312712   4.638   1.348   9.418  2.2669  2.6532 -0.3271
  862MPD2     N12713   4.632   1.041   9.770  0.3470 -0.1802  0.2167
  862MPD2    H512714   4.697   1.024   9.845  1.1539  0.0831 -0.4281
  862MPD2    N112715   0.140   1.441   9.790 -0.0755  0.4275 -0.7116
  862MPD2    H712716   0.148   1.395   9.880  0.6901  2.6862  0.3523
  863MPD2     C12717   3.630   4.727  16.477  0.1737 -0.3697  0.5057
  863MPD2    C112718   3.669   0.114  16.522  0.6608  0.0186 -0.1380
  863MPD2    C212719   3.784   0.135  16.600  0.0078  0.1369 -0.1663
  863MPD2    C312720   3.878   0.030  16.617 -1.0329  0.2659 -0.1323
  863MPD2    C412721   3.833   4.643  16.581 -0.3789  0.1093 -0.4453
  863MPD2    C512722   3.715   4.617  16.514  0.0769 -0.0667 -0.2866
  863MPD2     H12723   3.797   0.233  16.645  1.1111  0.4133 -1.1168
  863MPD2    H112724   3.897   4.562  16.615 -1.9551 -2.5735 -3.8213
  863MPD2    H212725   3.541   4.706  16.420  0.4776 -1.4188  0.4202
  863MPD2    H312726   3.694   4.518  16.477 -1.8061 -0.2915  1.4112
  863MPD2     N12727   4.012   0.048  16.664 -0.2775 -0.4497 -0.0997
  863MPD2    H512728   4.065   4.700  16.680  1.3854  0.7132  0.6491
  863MPD2    N112729   3.573   0.213  16.482 -0.8026 -0.6824 -0.1742
  863MPD2    H712730   3.503   0.177  16.419  0.0920 -1.6052 -0.6419
  864MPD2     C12731   4.140   1.258  17.074 -0.0080 -0.1004 -0.4116
  864MPD2    C112732   4.199   1.197  16.967  0.0171 -0.1625 -0.2830
  864MPD2    C212733   4.275   1.275  16.884 -0.3352  0.3298  0.2264
  864MPD2    C312734   4.293   1.409  16.910  0.0861  0.3733 -0.7503
  864MPD2    C412735   4.245   1.468  17.020 -0.3220 -0.2599  0.1551
  864MPD2    C512736   4.156   1.394  17.090 -0.3255  0.0522  0.3047
  864MPD2     H12737   4.336   1.220  16.812 -2.3450 -2.1728  0.4267
  864MPD2    H112738   4.270   1.570  17.049 -3.1403  0.3990  0.2730
  864MPD2    H212739   4.074   1.214  17.148  1.7110  1.5715  2.1091
  864MPD2    H312740   4.114   1.430  17.184 -2.2185  1.2493 -1.0107
  864MPD2     N12741   4.393   1.492  16.845 -0.5332 -0.0070 -0.3690
  864MPD2    H512742   4.395   1.588  16.877 -1.1604 -0.0039 -0.3426
  864MPD2    N112743   4.190   1.059  16.934  0.5337 -0.7131  0.2078
  864MPD2    H712744   4.234   1.035  16.846  2.5367  0.1161  1.0096
  865MPD2     C12745   4.585   1.887  16.092 -0.3451 -0.0943  0.2770
  865MPD2    C112746   4.518   1.787  16.165  0.4194 -0.9489 -0.7796
  865MPD2    C212747   4.468   1.816  16.295 -0.8957  0.2654 -0.1059
  865MPD2    C312748   4.488   1.946  16.346  0.0899  0.1293 -0.8662
  865MPD2    C412749   4.547   2.034  16.270  0.3989 -0.0680  0.6041
  865MPD2    C512750   4.609   2.005  16.156  0.7582  0.0652 -0.4234
  865MPD2     H12751   4.408   1.741  16.346  0.0371 -0.4916 -0.1246
  865MPD2    H112752   4.564   2.139  16.289 -0.1624 -0.2151  1.9356
  865MPD2    H212753   4.621   1.885  15.989  2.9532 -2.9027  1.4966
  865MPD2    H312754   4.650   2.087  16.098  0.2246  0.9340  0.4291
  865MPD2     N12755   4.442   1.985  16.475  0.0334 -0.2237  0.3000
  865MPD2    H512756   4.436   2.086  16.486 -0.1275 -0.2548  0.4929
  865MPD2    N112757   4.494   1.662  16.095 -0.1192  0.1973 -0.1496
  865MPD2    H712758   4.522   1.667  15.998  1.0082  0.5909  0.2044
  866MPD2     C12759   0.868   1.935  11.229  0.0048 -0.3258  0.0787
  866MPD2    C112760   0.817   1.815  11.196  0.3623 -0.6332 -0.5853
  866MPD2    C212761   0.724   1.802  11.099 -0.2061 -0.2794 -0.4746
  866MPD2    C312762   0.661   1.918  11.045  0.4964 -0.3037 -0.1082
  866MPD2    C412763   0.712   2.044  11.072 -0.4395 -0.3365  0.2231
  866MPD2    C512764   0.812   2.046  11.173  0.5971  0.1500  0.4236
  866MPD2     H12765   0.679   1.705  11.082 -0.3094 -0.0704 -1.3919
  866MPD2    H112766   0.684   2.135  11.022 -0.0798 -0.2845  0.1177
  866MPD2    H212767   0.929   1.945  11.318 -0.4209 -0.1235  0.3478
  866MPD2    H312768   0.854   2.138  11.211 -0.9936  0.3752  1.6456
  866MPD2     N12769   0.551   1.910  10.958 -0.7658  0.5015 -0.2074
  866MPD2    H512770   0.530   1.999  10.912  1.2600 -0.0525 -2.2191
  866MPD2    N112771   0.862   1.707  11.276  0.1679 -0.4081  0.9839
  866MPD2    H712772   0.931   1.733  11.345  2.1949  2.2717 -2.0314
  867MPD2     C12773   3.047   1.703  16.260  0.3353  0.1572  1.0113
  867MPD2    C112774   3.136   1.645  16.352  0.7043 -0.0553 -0.1876
  867MPD2    C212775   3.216   1.732  16.417  0.0777  0.7002  0.9001
  867MPD2    C312776   3.221   1.868  16.394 -0.6232  0.1966  0.2050
  867MPD2    C412777   3.138   1.920  16.291  0.2037  0.3428  0.4450
  867MPD2    C512778   3.052   1.839  16.232  0.5242 -0.5055  0.0726
  867MPD2     H12779   3.275   1.690  16.497 -0.9699 -0.9168  0.8343
  867MPD2    H112780   3.136   2.027  16.275  0.4779  0.0941 -1.2848
  867MPD2    H212781   2.985   1.636  16.202  0.9332  1.0682 -0.6821
  867MPD2    H312782   2.978   1.880  16.164  0.0282 -1.8624 -0.1951
  867MPD2     N12783   3.318   1.953  16.461 -0.1383 -0.4376 -0.2788
  867MPD2    H512784   3.353   2.038  16.417 -1.6625  1.3595  1.9758
  867MPD2    N112785   3.130   1.502  16.374  0.6475  0.9231  0.5409
  867MPD2    H712786   3.061   1.456  16.316  1.1851  0.2547  0.4299
  868MPD2     C12787   0.264   0.710  12.906  0.0273  0.2729  0.5909
  868MPD2    C112788   0.297   0.594  12.968  0.1128  0.6090  0.1121
  868MPD2    C212789   0.198   0.522  13.033 -0.4952  0.3324  0.8409
  868MPD2    C312790   0.072   0.578  13.054 -1.0779  0.4926  0.0768
  868MPD2    C412791   0.049   0.703  12.997  0.6449 -0.2449  0.2555
  868MPD2    C512792   0.143   0.768  12.918 -0.5594  0.0641 -0.7080
  868MPD2     H12793   0.223   0.421  13.065 -1.9921  0.2090  1.5958
  868MPD2    H112794   4.684   0.738  12.997  0.9173  0.5658  2.3587
  868MPD2    H212795   0.335   0.765  12.845 -0.0075 -0.5775 -0.2159
  868MPD2    H312796   0.110   0.851  12.858 -0.2309  1.2610  0.7702
  868MPD2     N12797   4.713   0.494  13.109  0.1843  0.1887  0.2041
  868MPD2    H512798   0.009   0.398  13.119 -0.9602 -0.2636 -0.4258
  868MPD2    N112799   0.430   0.560  12.949 -0.1451  0.3494 -0.0175
  868MPD2    H712800   0.482   0.617  12.883  0.9319  0.3970  0.8797
  869MPD2     C12801   1.249   2.932  17.168 -0.8530  0.6563 -0.4294
  869MPD2    C112802   1.245   2.960  17.304 -0.3713 -0.3113  1.2305
  869MPD2    C212803   1.307   3.081  17.341 -1.0520 -0.1727 -0.4184
  869MPD2    C312804   1.371   3.161  17.250 -0.3652 -0.5170 -1.1139
  869MPD2    C412805   1.359   3.139  17.114 -0.3481 -0.2547 -0.1308
  869MPD2    C512806   1.286   3.028  17.074 -0.2685  0.3048 -0.1072
  869MPD2     H12807   1.326   3.103  17.446  0.5895  0.7926 -0.9221
  869MPD2    H112808   1.399   3.210  17.043  3.1787 -0.8876  1.2250
  869MPD2    H212809   1.217   2.834  17.134  0.5746 -0.1799  0.6407
  869MPD2    H312810   1.279   3.007  16.968  0.9522 -2.2474  0.3353
  869MPD2     N12811   1.442   3.273  17.306  0.0516  0.0146 -0.4388
  869MPD2    H512812   1.432   3.277  17.407  0.6395  0.1245 -0.3858
  869MPD2    N112813   1.190   2.863  17.384  0.0467 -0.3030 -0.8694
  869MPD2    H712814   1.177   2.768  17.351 -0.8428 -0.2878 -0.5672
  870MPD2     C12815   1.999   1.665   1.482  0.4614 -0.3260 -0.1405
  870MPD2    C112816   1.933   1.690   1.364 -0.2290 -0.2427 -0.9974
  870MPD2    C212817   1.882   1.818   1.338 -0.5358 -0.3741  0.0444
  870MPD2    C312818   1.880   1.915   1.438 -0.2306  0.5048  0.1678
  870MPD2    C412819   1.950   1.884   1.556 -0.1606 -0.1781  0.4213
  870MPD2    C512820   2.003   1.764   1.577  0.1707  0.0121  0.2659
  870MPD2     H12821   1.839   1.848   1.243  0.4292 -0.1636 -0.3238
  870MPD2    H112822   1.953   1.957   1.636  3.4006  1.8425 -1.5640
  870MPD2    H212823   2.031   1.566   1.511 -1.9823 -0.9634  0.3787
  870MPD2    H312824   2.057   1.741   1.668  0.1298 -2.7244 -0.3777
  870MPD2     N12825   1.826   2.043   1.408 -0.1702  0.2120  0.1123
  870MPD2    H512826   1.780   2.052   1.318  0.3135 -0.6577 -0.2196
  870MPD2    N112827   1.926   1.579   1.273  0.3990 -0.5690 -0.8691
  870MPD2    H712828   1.994   1.505   1.288  1.2304  0.8207  2.2743
  871MPD2     C12829   2.310   1.841  16.189  0.6377 -0.2270  0.1956
  871MPD2    C112830   2.281   1.787  16.308 -0.0875 -0.2790  0.1559
  871MPD2    C212831   2.269   1.649  16.307  0.7227  0.5740  0.1037
  871MPD2    C312832   2.254   1.576  16.189 -0.3490  0.6247 -0.8642
  871MPD2    C412833   2.252   1.651  16.070 -0.1748  1.0104 -0.4203
  871MPD2    C512834   2.292   1.784  16.067 -0.5757 -0.1001  0.5767
  871MPD2     H12835   2.269   1.607  16.407  1.9748 -0.6592 -0.4206
  871MPD2    H112836   2.224   1.605  15.976 -1.2624  1.3264 -0.2459
  871MPD2    H212837   2.346   1.943  16.195 -0.7813  0.1803  1.7147
  871MPD2    H312838   2.312   1.831  15.971  3.1091 -2.0469  0.3934
  871MPD2     N12839   2.246   1.436  16.187 -0.5540  0.0778 -0.5059
  871MPD2    H512840   2.238   1.393  16.279 -0.3699 -0.1137 -0.5790
  871MPD2    N112841   2.298   1.870  16.418  0.2613  0.6084 -0.1087
  871MPD2    H712842   2.307   1.967  16.390 -1.0546  0.6351 -0.4433
  872MPD2     C12843   3.214   3.776  14.095 -0.2463  0.1203 -0.4037
  872MPD2    C112844   3.160   3.772  13.967  0.3657  0.7179  0.7924
  872MPD2    C212845   3.026   3.787  13.956  0.2065  0.4127  0.1839
  872MPD2    C312846   2.945   3.817  14.062  0.4632 -0.0713  0.5187
  872MPD2    C412847   3.007   3.823  14.192  0.6141  0.0990 -0.1047
  872MPD2    C512848   3.138   3.800  14.206  0.2142  0.1501  0.1914
  872MPD2     H12849   2.981   3.779  13.858 -0.7628  1.3617  0.5569
  872MPD2    H112850   2.943   3.856  14.273  0.6701  0.5360 -0.2415
  872MPD2    H212851   3.322   3.783  14.102  0.0177 -2.3983 -2.0545
  872MPD2    H312852   3.191   3.821  14.298 -0.7948  0.6064  0.6643
  872MPD2     N12853   2.806   3.841  14.054 -0.3501  0.7708  0.2934
  872MPD2    H512854   2.762   3.856  14.144  1.2620 -0.0657  1.2130
  872MPD2    N112855   3.231   3.736  13.848  0.6741  0.1429 -0.6980
  872MPD2    H712856   3.188   3.757  13.759  0.1936 -2.6232 -1.0993
  873MPD2     C12857   0.361   3.230   0.769  0.5433 -0.1673 -0.6040
  873MPD2    C112858   0.272   3.343   0.766 -0.2177 -0.5077 -0.2378
  873MPD2    C212859   0.135   3.329   0.786 -0.3310 -0.2865  0.3179
  873MPD2    C312860   0.083   3.202   0.817  0.7100  0.1388 -0.4588
  873MPD2    C412861   0.165   3.088   0.794  0.8103  0.2539  0.3771
  873MPD2    C512862   0.299   3.110   0.780 -0.0416  0.1701  0.1908
  873MPD2     H12863   0.070   3.416   0.792 -0.7071 -0.5464  0.0304
  873MPD2    H112864   0.130   2.987   0.814 -3.2559  1.6019  0.0427
  873MPD2    H212865   0.464   3.242   0.739  1.4431 -4.0672  1.0223
  873MPD2    H312866   0.375   3.032   0.777  1.6963  1.8623  0.2425
  873MPD2     N12867   4.690   3.182   0.852  0.3682  0.3530  0.5499
  873MPD2    H512868   4.658   3.087   0.837  2.3347 -0.2668  0.2186
  873MPD2    N112869   0.319   3.478   0.755  0.8908 -0.0397 -0.0745
  873MPD2    H712870   0.243   3.543   0.774 -0.2414 -1.2683 -0.4349
  874MPD2     C12871   4.381   4.167  15.999  0.5477 -0.3687 -0.1885
  874MPD2    C112872   4.484   4.098  16.053  0.6795 -0.4273 -0.8290
  874MPD2    C212873   4.614   4.147  16.054 -0.4903 -0.4841 -0.3423
  874MPD2    C312874   4.643   4.265  15.983  0.0879  0.1512 -0.4483
  874MPD2    C412875   4.536   4.342  15.932  0.3318 -0.3896 -0.1089
  874MPD2    C512876   4.413   4.293  15.943 -0.1866 -0.5875 -0.5130
  874MPD2     H12877   4.696   4.102  16.108  1.6514  1.1328 -2.2596
  874MPD2    H112878   4.551   4.438  15.884  1.0629 -0.3738  0.1438
  874MPD2    H212879   4.279   4.133  16.010 -0.1440  2.4272  2.0771
  874MPD2    H312880   4.338   4.366  15.915 -0.3504 -0.7376 -0.4698
  874MPD2     N12881   0.041   4.302  15.973 -0.1842  0.5085 -0.0479
  874MPD2    H512882   0.111   4.238  16.009  1.2814  1.8848 -0.4495
  874MPD2    N112883   4.469   3.981  16.136 -0.0684  0.3908  0.2543
  874MPD2    H712884   4.374   3.969  16.169  0.2052 -3.5700 -0.3933
  875MPD2     C12885   0.377   1.933  14.373  0.2610  0.6590 -0.4539
  875MPD2    C112886   0.450   2.044  14.325  0.4452 -0.1606  0.0306
  875MPD2    C212887   0.494   2.135  14.414  0.0188 -0.3573 -0.0643
  875MPD2    C312888   0.478   2.118  14.545  0.9629  0.3238  0.3829
  875MPD2    C412889   0.422   1.997  14.591  0.7962 -0.1945  0.0809
  875MPD2    C512890   0.373   1.904  14.508 -0.2855  0.0279  0.5688
  875MPD2     H12891   0.539   2.226  14.376  0.3924 -0.3887  0.2982
  875MPD2    H112892   0.393   1.987  14.695  0.5168 -0.3012 -0.0071
  875MPD2    H212893   0.313   1.865  14.317 -0.2675  0.5603  0.2595
  875MPD2    H312894   0.321   1.815  14.543  0.7277 -1.2594 -1.1866
  875MPD2     N12895   0.516   2.209  14.644  0.4211 -0.5899 -0.1232
  875MPD2    H512896   0.477   2.191  14.736 -0.7420  2.4957 -0.0114
  875MPD2    N112897   0.477   2.064  14.191  0.7503  0.1167  0.8577
  875MPD2    H712898   0.538   2.141  14.162 -0.2836  0.1955 -1.1579
  876MPD2     C12899   4.195   3.633  16.070 -0.3866  0.5029 -0.4001
  876MPD2    C112900   4.325   3.623  16.029 -0.1904 -0.2103 -0.7128
  876MPD2    C212901   4.411   3.530  16.084  0.0201 -0.1014  0.3641
  876MPD2    C312902   4.360   3.440  16.170  0.9017 -0.3611  0.7490
  876MPD2    C412903   4.223   3.445  16.204  0.0893 -0.0168  0.7222
  876MPD2    C512904   4.144   3.550  16.163 -0.4810  0.4936  0.2553
  876MPD2     H12905   4.517   3.512  16.069 -0.2827 -2.2191  0.7926
  876MPD2    H112906   4.174   3.370  16.265 -0.9723 -0.9263 -1.2306
  876MPD2    H212907   4.119   3.695  16.024  1.0680  3.4594  1.1975
  876MPD2    H312908   4.039   3.559  16.189 -1.6072 -0.3769 -3.9725
  876MPD2     N12909   4.440   3.333  16.199 -0.1902 -0.5190  0.3930
  876MPD2    H512910   4.533   3.339  16.159 -0.0235 -3.8566  0.2964
  876MPD2    N112911   4.371   3.717  15.932 -0.2474 -0.3404 -0.2725
  876MPD2    H712912   4.317   3.802  15.923 -0.3368 -0.4144 -0.4243
  877MPD2     C12913   4.370   4.125  15.263  0.0569 -0.1056 -0.1498
  877MPD2    C112914   4.482   4.175  15.330  0.6087  0.0231  0.0947
  877MPD2    C212915   4.586   4.227  15.253 -0.1311 -0.2984 -0.6274
  877MPD2    C312916   4.576   4.229  15.114 -0.5160 -0.1276  0.5998
  877MPD2    C412917   4.467   4.174  15.054 -0.1801  1.0455  0.0055
  877MPD2    C512918   4.364   4.129  15.129  0.9228 -0.4648  0.0971
  877MPD2     H12919   4.676   4.262  15.303 -0.6711 -0.9721  0.8094
  877MPD2    H112920   4.454   4.155  14.948  0.2112  0.1403  0.1133
  877MPD2    H212921   4.288   4.086  15.321  1.0850 -0.3324  1.1693
  877MPD2    H312922   4.271   4.105  15.079  2.2795 -0.5088 -2.4193
  877MPD2     N12923   4.677   4.276  15.035  0.2557  0.0841  0.1833
  877MPD2    H512924   4.676   4.256  14.935  0.9025  0.5528  0.0868
  877MPD2    N112925   4.499   4.156  15.470  0.2184 -0.0909 -0.2970
  877MPD2    H712926   4.577   4.205  15.513 -0.2539  0.2349  0.1982
  878MPD2     C12927   4.145   3.516  13.178  0.2164 -0.1834 -0.4799
  878MPD2    C112928   4.166   3.379  13.214 -0.3159  0.0058 -0.5594
  878MPD2    C212929   4.168   3.334  13.342 -0.1127  0.1773 -0.1121
  878MPD2    C312930   4.157   3.436  13.439  0.2487 -0.4230  0.7351
  878MPD2    C412931   4.143   3.571  13.406 -0.0095  0.7281 -0.5077
  878MPD2    C512932   4.132   3.610  13.273 -0.5014 -0.6150  0.1928
  878MPD2     H12933   4.181   3.232  13.375 -1.4371  0.2584  0.6684
  878MPD2    H112934   4.129   3.655  13.473 -0.3433  2.3906 -2.6664
  878MPD2    H212935   4.136   3.550  13.075  2.2413 -0.0461 -0.6296
  878MPD2    H312936   4.112   3.716  13.262 -0.2778 -0.6711 -0.8146
  878MPD2     N12937   4.170   3.383  13.571  0.1151  0.6327 -0.8154
  878MPD2    H512938   4.173   3.283  13.589  0.6726  0.7097 -0.4734
  878MPD2    N112939   4.173   3.290  13.095  0.1373  0.4171 -0.0097
  878MPD2    H712940   4.169   3.327  13.001  0.7173  1.2247  0.2816
  879MPD2     C12941   4.633   0.464  16.655  0.3959  0.0678  0.7238
  879MPD2    C112942   4.702   0.372  16.723  0.2428  0.0292  0.0427
  879MPD2    C212943   4.681   0.239  16.684  0.5604 -1.1030 -0.3291
  879MPD2    C312944   4.588   0.210  16.586  0.1426  0.7003 -0.5143
  879MPD2    C412945   4.508   0.306  16.530  0.4569  0.1039  0.6205
  879MPD2    C512946   4.541   0.430  16.558 -0.1256 -0.1837  0.4272
  879MPD2     H12947   0.002   0.156  16.723 -1.8148 -2.8774 -0.5593
  879MPD2    H112948   4.438   0.275  16.453 -0.4726  0.2884  1.3833
  879MPD2    H212949   4.640   0.572  16.666 -2.2734  0.4084 -0.9130
  879MPD2    H312950   4.495   0.507  16.497 -1.1335  0.9921  2.6792
  879MPD2     N12951   4.577   0.071  16.536  0.4068  0.3623  0.6419
  879MPD2    H512952   4.511   0.059  16.461 -0.7641  1.1526  1.5523
  879MPD2    N112953   0.064   0.425  16.812  0.0856  0.4746 -0.3766
  879MPD2    H712954   0.074   0.526  16.817 -0.2369  0.5394 -1.0367
  880MPD2     C12955   1.194   1.910   0.146  0.7084  0.2345 -0.0601
  880MPD2    C112956   1.289   1.967   0.231 -0.4038  0.3324 -0.4155
  880MPD2    C212957   1.404   1.903   0.258 -0.6559 -0.2813  0.2589
  880MPD2    C312958   1.441   1.787   0.199  0.2013 -0.5506 -0.4444
  880MPD2    C412959   1.350   1.728   0.108 -0.5867 -0.1201  0.1326
  880MPD2    C512960   1.225   1.785   0.094 -0.1175  0.2616  0.1168
  880MPD2     H12961   1.477   1.951   0.322 -1.5120 -0.6499  1.4889
  880MPD2    H112962   1.370   1.627   0.073  0.7919  0.3139 -0.3511
  880MPD2    H212963   1.101   1.957   0.115  0.5200  0.7198  1.2358
  880MPD2    H312964   1.169   1.719   0.029 -0.0934  0.1550  0.2043
  880MPD2     N12965   1.575   1.744   0.224  0.2771 -0.0731 -0.6202
  880MPD2    H512966   1.626   1.809   0.284 -0.9457 -1.2228  1.6946
  880MPD2    N112967   1.272   2.094   0.290 -0.0467  0.6524 -0.0189
  880MPD2    H712968   1.197   2.154   0.255 -0.2763  0.8450  0.8028
  881MPD2     C12969   1.518   2.953  17.612 -0.1237 -0.1100 -0.4170
  881MPD2    C112970   1.478   2.829  17.576 -0.3196 -0.4510 -0.4162
  881MPD2    C212971   1.451   2.735  17.670 -0.1350  0.2452  0.3487
  881MPD2    C312972   1.449   2.773   0.060  0.1043 -0.0300 -0.2937
  881MPD2    C412973   1.468   2.906   0.089  0.0639  0.6502 -0.1730
  881MPD2    C512974   1.504   3.000  17.743  0.6887  0.2237  0.7951
  881MPD2     H12975   1.436   2.633  17.636 -0.6434  0.7945 -1.0911
  881MPD2    H112976   1.433   2.937   0.187 -0.1062 -0.0943  0.0020
  881MPD2    H212977   1.537   3.025  17.533 -0.7689  0.1733 -0.3110
  881MPD2    H312978   1.516   3.103   0.030  0.8646 -0.0283  1.5115
  881MPD2     N12979   1.414   2.688   0.167  0.2325  0.2251 -0.4725
  881MPD2    H512980   1.391   2.725   0.259 -2.1427 -0.2166 -0.8904
  881MPD2    N112981   1.501   2.793  17.442  0.7091 -0.4624  0.3710
  881MPD2    H712982   1.567   2.849  17.390 -0.6442 -0.2626 -1.1217
  882MPD2     C12983   0.024   4.588  14.343 -0.2118  0.6790  0.1445
  882MPD2    C112984   4.722   4.533  14.460  0.3099  0.3333 -0.9324
  882MPD2    C212985   4.608   4.453  14.472 -0.4756  0.4620 -0.1628
  882MPD2    C312986   4.522   4.446  14.361 -0.2811 -1.0738  0.1963
  882MPD2    C412987   4.560   4.506  14.243 -0.8621 -0.6276 -0.5843
  882MPD2    C512988   4.678   4.572  14.233 -0.1816 -0.2470 -0.5924
  882MPD2     H12989   4.579   4.420  14.571  3.2785  1.3147  1.2294
  882MPD2    H112990   4.499   4.496  14.154  1.3001  0.0662 -2.1434
  882MPD2    H212991   0.113   4.645  14.320  0.2381  0.4144  1.2473
  882MPD2    H312992   4.705   4.625  14.143  2.9669 -1.8073 -0.5668
  882MPD2     N12993   4.405   4.370  14.368 -0.3072 -0.4270 -0.4427
  882MPD2    H512994   4.345   4.351  14.289 -2.4768  2.3372  0.5362
  882MPD2    N112995   0.075   4.541  14.568  0.1300  0.0009  0.2139
  882MPD2    H712996   0.159   4.596  14.552  0.2979 -0.3240 -0.0423
  883MPD2     C12997   1.779   4.173  16.213 -0.0070 -0.2247  0.0410
  883MPD2    C112998   1.834   4.251  16.115 -0.0613 -0.0117  0.2694
  883MPD2    C212999   1.924   4.352  16.152 -0.1063 -0.2982  0.6319
  883MPD2    C313000   1.948   4.380  16.284  0.9852 -0.9693  0.3340
  883MPD2    C413001   1.879   4.306  16.379  0.4793 -0.2862  0.1226
  883MPD2    C513002   1.790   4.207  16.345  0.5699  0.4164 -0.3570
  883MPD2     H13003   1.954   4.422  16.076 -2.6056 -3.0691 -2.9153
  883MPD2    H113004   1.891   4.332  16.484  0.5990  1.2352 -0.2716
  883MPD2    H213005   1.706   4.096  16.189  0.3273 -0.6671  0.4326
  883MPD2    H313006   1.726   4.165  16.421 -0.1412  1.0561 -0.6008
  883MPD2     N13007   2.007   4.507  16.307 -0.4313  0.5949  0.8506
  883MPD2    H513008   2.042   4.564  16.231  0.5528 -0.0393  0.8335
  883MPD2    N113009   1.816   4.226  15.976 -0.0744 -0.0436  0.2430
  883MPD2    H713010   1.860   4.289  15.910 -1.5057 -0.0400 -0.7227
  884MPD2     C13011   3.692   0.032  14.988  0.1667 -0.0999 -0.5141
  884MPD2    C113012   3.641   0.114  14.889 -0.3616 -0.0764  0.6185
  884MPD2    C213013   3.513   0.159  14.904 -0.1347  0.6854 -0.3769
  884MPD2    C313014   3.441   0.117  15.006 -0.1653 -0.0055  0.2887
  884MPD2    C413015   3.500   0.040  15.110  0.3582  0.0192 -0.3912
  884MPD2    C513016   3.633   4.733  15.098 -0.0973  0.0599 -0.0521
  884MPD2     H13017   3.476   0.221  14.822  0.2653 -1.0617 -1.8697
  884MPD2    H113018   3.451   0.021  15.205  0.4144  1.0187 -0.1617
  884MPD2    H213019   3.798   0.006  14.993  0.4961  1.3306  0.0734
  884MPD2    H313020   3.688   4.671  15.168  2.3912  1.3037 -0.9146
  884MPD2     N13021   3.308   0.167  15.004 -0.4174 -0.2771  0.0718
  884MPD2    H513022   3.284   0.227  14.927  1.3848 -2.1255 -1.9177
  884MPD2    N113023   3.715   0.162  14.777  0.0511 -0.2260  0.3578
  884MPD2    H713024   3.675   0.239  14.726  4.3181  1.4472 -0.4645
  885MPD2     C13025   1.849   0.224   0.136  0.0434  0.0431 -0.4005
  885MPD2    C113026   1.903   0.351   0.120  0.4774 -0.2806  0.5784
  885MPD2    C213027   1.879   0.425  17.744 -0.8083 -0.2289 -0.4307
  885MPD2    C313028   1.810   0.365  17.636 -0.7796  0.2703 -0.2386
  885MPD2    C413029   1.751   0.243  17.660 -0.5757 -0.0419  0.3580
  885MPD2    C513030   1.764   0.181   0.036  0.1388  0.4182  0.3423
  885MPD2     H13031   1.924   0.524  17.740 -1.5419  0.1301  0.1454
  885MPD2    H113032   1.693   0.187  17.589 -1.2560 -0.7983  1.5052
  885MPD2    H213033   1.852   0.164   0.226 -0.2994  0.7664  0.0921
  885MPD2    H313034   1.723   0.082   0.048  0.2874 -0.1431 -3.5581
  885MPD2     N13035   1.785   0.446  17.523 -0.1690 -0.0623 -0.2659
  885MPD2    H513036   1.842   0.530  17.515 -1.9459  1.4952  3.0170
  885MPD2    N113037   1.976   0.400   0.232  0.2476 -0.0266 -0.1990
  885MPD2    H713038   1.991   0.330   0.304  1.2924  0.7468  0.3537
  886MPD2     C13039   3.029   3.301  15.250 -0.4495 -0.7740 -0.4400
  886MPD2    C113040   3.170   3.303  15.246 -0.5080  0.2068  0.0265
  886MPD2    C213041   3.229   3.365  15.141 -0.5889  0.3170  0.1117
  886MPD2    C313042   3.152   3.410  15.031 -1.2117  0.1697  0.5268
  886MPD2    C413043   3.017   3.402  15.033  0.3553 -0.3383  0.5812
  886MPD2    C513044   2.953   3.357  15.148  0.0738 -0.4446  0.8945
  886MPD2     H13045   3.337   3.365  15.137 -0.6156  1.9633 -0.5816
  886MPD2    H113046   2.944   3.446  14.965  1.1883 -0.4365 -0.3614
  886MPD2    H213047   2.978   3.281  15.344  2.7332  2.8414  2.0405
  886MPD2    H313048   2.845   3.344  15.143  0.0835 -0.9107  2.0933
  886MPD2     N13049   3.216   3.477  14.920 -0.6761 -0.4855 -0.0562
  886MPD2    H513050   3.164   3.496  14.835  0.1653  0.9046 -0.2625
  886MPD2    N113051   3.255   3.246  15.350  0.5363  0.0376 -0.3132
  886MPD2    H713052   3.354   3.260  15.337  0.4240 -0.4354 -1.6647
  887MPD2     C13053   3.741   3.421  15.815  0.1013 -0.5053 -0.7316
  887MPD2    C113054   3.716   3.420  15.685 -0.0613  0.1055  0.7758
  887MPD2    C213055   3.747   3.535  15.615 -0.3760 -0.3933  0.6179
  887MPD2    C313056   3.811   3.649  15.668 -0.7925 -0.2638  0.1269
  887MPD2    C413057   3.821   3.646  15.802 -0.2925 -0.3375 -0.5784
  887MPD2    C513058   3.779   3.540  15.874  0.7367 -0.5822  0.1896
  887MPD2     H13059   3.719   3.532  15.510  0.7810 -1.2405  0.3362
  887MPD2    H113060   3.856   3.733  15.857 -2.0858  0.5234 -0.7986
  887MPD2    H213061   3.704   3.347  15.885  0.7467 -0.0185  0.1203
  887MPD2    H313062   3.790   3.541  15.982  0.0137  1.0574  0.2493
  887MPD2     N13063   3.850   3.761  15.597 -0.0774  0.2600 -0.4870
  887MPD2    H513064   3.818   3.769  15.501 -0.0372 -0.5383 -0.5707
  887MPD2    N113065   3.646   3.319  15.623 -0.2643  0.1454 -0.7178
  887MPD2    H713066   3.612   3.332  15.528  0.2874 -0.2093 -0.9675
  888MPD2     C13067   0.735   3.475  15.115  1.0211 -0.6661 -0.0903
  888MPD2    C113068   0.765   3.559  15.220 -0.1027  0.2920 -0.0652
  888MPD2    C213069   0.795   3.686  15.198  0.5032  0.4601  0.2901
  888MPD2    C313070   0.794   3.733  15.067 -0.2361 -0.6572 -0.5068
  888MPD2    C413071   0.755   3.649  14.963 -0.4119  0.0733  0.4058
  888MPD2    C513072   0.718   3.524  14.990 -0.2987 -0.2661 -0.1365
  888MPD2     H13073   0.833   3.746  15.279 -1.5267  1.8323  0.2297
  888MPD2    H113074   0.739   3.680  14.860  1.7044 -0.9752 -0.2220
  888MPD2    H213075   0.708   3.370  15.127 -3.0755  0.4075  0.3010
  888MPD2    H313076   0.700   3.459  14.905 -3.2882  1.7472 -1.0404
  888MPD2     N13077   0.847   3.860  15.052 -0.4876  0.3883  0.1678
  888MPD2    H513078   0.845   3.919  15.135 -0.0880  0.2907  0.2448
  888MPD2    N113079   0.783   3.511  15.359  0.1012 -0.2116 -0.0271
  888MPD2    H713080   0.809   3.576  15.432 -0.7096 -1.4966  1.4104
  889MPD2     C13081   0.295   3.125  12.852  0.4167  0.2153  0.0339
  889MPD2    C113082   0.290   3.034  12.956 -0.0451 -0.8330 -0.6905
  889MPD2    C213083   0.357   3.077  13.074  0.1927 -0.0120 -0.1331
  889MPD2    C313084   0.395   3.211  13.097 -0.3257 -0.1011  0.5405
  889MPD2    C413085   0.387   3.298  12.994  0.7961 -0.2199 -0.7703
  889MPD2    C513086   0.335   3.256  12.873 -0.1130  0.8923 -0.5850
  889MPD2     H13087   0.361   3.004  13.153  1.6460 -0.2720 -0.4494
  889MPD2    H113088   0.417   3.402  12.997 -3.2750  0.9364  0.3188
  889MPD2    H213089   0.251   3.095  12.758 -1.2391  1.6301  0.3574
  889MPD2    H313090   0.326   3.323  12.789  0.1488  0.8926 -0.6134
  889MPD2     N13091   0.428   3.272  13.223 -0.0137  0.4838 -0.0376
  889MPD2    H513092   0.455   3.370  13.223  0.7374  0.2809 -1.3825
  889MPD2    N113093   0.263   2.898  12.944 -0.3210  0.1352  0.8863
  889MPD2    H713094   0.289   2.838  13.022  1.7953  1.1677  0.9829
  890MPD2     C13095   4.237   4.683  14.385 -0.5645 -0.8202 -0.0397
  890MPD2    C113096   4.355   0.017  14.380  0.3020  0.2190  1.1499
  890MPD2    C213097   4.421   0.041  14.500  0.4371 -0.3703 -1.2563
  890MPD2    C313098   4.366   4.734  14.616 -0.0243 -0.6099 -0.2466
  890MPD2    C413099   4.253   4.658  14.620 -0.1772 -0.5226 -0.0990
  890MPD2    C513100   4.178   4.644  14.501  0.3523  0.7389 -0.6051
  890MPD2     H13101   4.504   0.110  14.504 -0.4851  0.6370  0.9748
  890MPD2    H113102   4.200   4.631  14.711  0.9930  0.9988  1.0315
  890MPD2    H213103   4.183   4.657  14.295  0.5934 -1.2140 -0.6015
  890MPD2    H313104   4.079   4.601  14.508 -0.1879  2.3115  1.8429
  890MPD2     N13105   4.429   0.039  14.734  0.2931  0.4030 -0.3694
  890MPD2    H513106   4.519   0.084  14.723  0.0378  1.0633  0.2469
  890MPD2    N113107   4.397   0.067  14.253 -0.0496 -0.1444 -0.5328
  890MPD2    H713108   4.353   0.035  14.168  0.1421 -0.0095 -0.6813
  891MPD2     C13109   2.869   4.392  16.892  0.0007  0.1754  0.1914
  891MPD2    C113110   2.799   4.291  16.829 -0.1999  0.5106 -1.0332
  891MPD2    C213111   2.866   4.167  16.805 -0.3700 -0.4597  0.4487
  891MPD2    C313112   3.002   4.147  16.834  0.3462 -1.0252  0.0080
  891MPD2    C413113   3.069   4.248  16.892  0.4271  0.1585 -0.2122
  891MPD2    C513114   3.000   4.364  16.914 -0.2113 -0.4457  0.2219
  891MPD2     H13115   2.823   4.076  16.765  1.6098 -1.9240  1.6758
  891MPD2    H113116   3.177   4.250  16.897  0.4451  0.8253 -0.7284
  891MPD2    H213117   2.813   4.474  16.935  2.3520  0.7849  2.0552
  891MPD2    H313118   3.056   4.448  16.956  0.0550  0.9482 -2.9184
  891MPD2     N13119   3.056   4.020  16.804  0.1890 -0.4630  0.2917
  891MPD2    H513120   2.993   3.953  16.761  1.6859 -0.6278 -1.6355
  891MPD2    N113121   2.665   4.316  16.801 -0.6049  0.3229  0.0982
  891MPD2    H713122   2.629   4.401  16.845  0.8492  1.2274 -0.4719
  892MPD2     C13123   3.602   4.406  14.974  0.0307  0.8534  0.8688
  892MPD2    C113124   3.567   4.349  14.859  0.2506 -1.0226 -1.1171
  892MPD2    C213125   3.665   4.312  14.770 -0.4344 -0.1488 -0.1875
  892MPD2    C313126   3.799   4.311  14.809  0.1390  0.6980 -0.3208
  892MPD2    C413127   3.835   4.365  14.928  0.2980  0.4059  0.4507
  892MPD2    C513128   3.734   4.403  15.015  0.5647 -0.5143 -0.2323
  892MPD2     H13129   3.641   4.258  14.679 -0.1662 -0.8724  0.1704
  892MPD2    H113130   3.936   4.356  14.966 -0.0734 -2.2939  0.7931
  892MPD2    H213131   3.528   4.444  15.043 -3.1434  1.7990 -3.1011
  892MPD2    H313132   3.753   4.454  15.109  1.4125 -1.3162  0.0361
  892MPD2     N13133   3.901   4.260  14.737  0.1563 -0.2946  0.2265
  892MPD2    H513134   3.994   4.260  14.778  0.7307 -0.3533 -1.0664
  892MPD2    N113135   3.423   4.338  14.837  0.3306  0.2119  0.0556
  892MPD2    H713136   3.365   4.373  14.912 -0.7325  0.7047 -1.0069
  893MPD2     C13137   0.421   3.013   1.109  0.6650  0.6177  0.2151
  893MPD2    C113138   0.523   3.099   1.144 -0.0975  0.9773 -0.4265
  893MPD2    C213139   0.490   3.201   1.237  0.8101 -0.9021 -0.1967
  893MPD2    C313140   0.370   3.200   1.299  0.7069 -0.4284  0.2668
  893MPD2    C413141   0.277   3.100   1.271  0.2333 -0.1818 -0.9272
  893MPD2    C513142   0.302   3.015   1.175 -0.4308 -0.3885 -0.0017
  893MPD2     H13143   0.561   3.281   1.253  0.7163 -0.7256 -0.6506
  893MPD2    H113144   0.180   3.109   1.319  0.2843 -2.6788 -0.3622
  893MPD2    H213145   0.445   2.949   1.025 -1.9034 -2.4339  1.7986
  893MPD2    H313146   0.223   2.951   1.137  0.3263 -1.0088 -0.5351
  893MPD2     N13147   0.324   3.304   1.380 -0.0247  0.0056 -0.9780
  893MPD2    H513148   0.232   3.291   1.421 -0.1592  1.5098 -0.8272
  893MPD2    N113149   0.640   3.091   1.068  0.4993 -0.3133 -0.7992
  893MPD2    H713150   0.647   3.018   0.998 -0.6028 -0.3107 -0.9117
  894MPD2     C13151   3.573   0.470   0.799 -0.1681  0.3142 -0.8978
  894MPD2    C113152   3.494   0.504   0.911  0.1738 -0.3040  0.4181
  894MPD2    C213153   3.485   0.633   0.947  0.8026  0.3194  0.8671
  894MPD2    C313154   3.533   0.739   0.870 -0.3698  0.5028 -0.0291
  894MPD2    C413155   3.597   0.713   0.754  0.3633 -0.0875  0.4294
  894MPD2    C513156   3.616   0.576   0.719 -0.1569  0.5881  0.1023
  894MPD2     H13157   3.431   0.663   1.036  0.5036  1.8201  0.1797
  894MPD2    H113158   3.644   0.791   0.695 -1.4533 -0.1008 -1.0649
  894MPD2    H213159   3.606   0.369   0.774 -0.6559 -0.4760  1.6424
  894MPD2    H313160   3.678   0.560   0.632 -1.4053 -0.2701 -0.6330
  894MPD2     N13161   3.521   0.868   0.918  0.1182 -0.0333  0.8069
  894MPD2    H513162   3.471   0.875   1.006  1.5732 -2.0169  1.7866
  894MPD2    N113163   3.449   0.411   1.006 -0.4248  0.1779  0.0512
  894MPD2    H713164   3.409   0.455   1.089 -0.9077  0.0742 -0.1278
  895MPD2     C13165   2.848   3.154  13.250 -0.0441 -0.4506  1.0226
  895MPD2    C113166   2.812   3.050  13.164  0.3816 -0.0295  0.1256
  895MPD2    C213167   2.831   2.917  13.202  0.1023  0.0169  0.1472
  895MPD2    C313168   2.876   2.883  13.327  0.5866  0.6173  0.0975
  895MPD2    C413169   2.918   2.989  13.406 -0.0096 -0.4599  0.1905
  895MPD2    C513170   2.899   3.117  13.372 -0.5885 -0.1847  0.3282
  895MPD2     H13171   2.788   2.851  13.127 -0.0003  0.7818 -0.4643
  895MPD2    H113172   2.974   2.973  13.498  0.6676  2.1250  0.2137
  895MPD2    H213173   2.837   3.259  13.224  1.1812 -0.9680 -1.5305
  895MPD2    H313174   2.947   3.194  13.431 -0.0115 -0.4526  0.2094
  895MPD2     N13175   2.893   2.752  13.366 -0.6294  0.1053 -0.6616
  895MPD2    H513176   2.853   2.679  13.307 -0.2936 -1.6257  1.2490
  895MPD2    N113177   2.751   3.069  13.041 -0.2150  0.3200  0.3447
  895MPD2    H713178   2.697   2.993  13.001 -0.8796  1.2407 -0.4960
  896MPD2     C13179   0.757   1.468   1.423 -0.2541 -0.5222  0.5694
  896MPD2    C113180   0.683   1.442   1.313  0.4937  0.5001 -0.3465
  896MPD2    C213181   0.558   1.391   1.322  0.2806  0.3414 -0.4148
  896MPD2    C313182   0.520   1.367   1.451 -0.6508 -0.0234 -0.9166
  896MPD2    C413183   0.588   1.416   1.567  0.5617  0.1502 -0.0715
  896MPD2    C513184   0.714   1.466   1.555 -0.4355  0.2564  0.1619
  896MPD2     H13185   0.488   1.368   1.242  1.3546  0.3723 -1.3641
  896MPD2    H113186   0.547   1.398   1.666  0.1904 -1.3014 -0.4820
  896MPD2    H213187   0.855   1.512   1.407 -0.8934 -0.2921 -2.7522
  896MPD2    H313188   0.781   1.490   1.636  0.7234  0.0712 -0.7336
  896MPD2     N13189   0.397   1.298   1.467 -0.0964  0.1650 -0.2015
  896MPD2    H513190   0.365   1.258   1.379  0.4427 -1.9530  0.5701
  896MPD2    N113191   0.739   1.468   1.188 -0.4672 -0.3199 -0.0552
  896MPD2    H713192   0.838   1.490   1.191 -0.3315 -0.8638 -0.4716
  897MPD2     C13193   0.955   2.932  10.980  0.2793 -0.1537 -0.2801
  897MPD2    C113194   0.956   2.832  10.890  0.3838  0.2156 -0.2869
  897MPD2    C213195   0.841   2.758  10.871 -0.0728  0.3820  0.2444
  897MPD2    C313196   0.736   2.785  10.951 -0.6179 -0.1198  0.6646
  897MPD2    C413197   0.738   2.881  11.050  0.2547  0.1372  0.2308
  897MPD2    C513198   0.847   2.969  11.055 -0.5327  0.3384  0.0695
  897MPD2     H13199   0.840   2.672  10.804  1.4444  1.0256 -0.6015
  897MPD2    H113200   0.662   2.886  11.127  0.3179 -1.5851  0.4058
  897MPD2    H213201   1.051   2.981  10.990 -0.2656  0.7070  0.7929
  897MPD2    H313202   0.848   3.048  11.129  1.1903  0.1579  0.2542
  897MPD2     N13203   0.625   2.700  10.939  0.0697 -0.3420  0.3747
  897MPD2    H513204   0.631   2.635  10.861  0.1190  1.6610 -1.2822
  897MPD2    N113205   1.078   2.816  10.810  0.7974 -0.8427 -0.3090
  897MPD2    H713206   1.162   2.871  10.829  0.7350 -1.1153  0.7703
  898MPD2     C13207   2.653   3.921  17.478 -0.2683  0.3956  0.5045
  898MPD2    C113208   2.785   3.921  17.526  0.0316 -0.7331 -0.4287
  898MPD2    C213209   2.841   4.041  17.532 -0.0360  0.2520 -0.5143
  898MPD2    C313210   2.775   4.164  17.536 -0.5317 -0.2951  0.0501
  898MPD2    C413211   2.643   4.157  17.508 -0.1084  0.3120 -0.1069
  898MPD2    C513212   2.586   4.036  17.468  0.9552 -0.0292 -0.4760
  898MPD2     H13213   2.950   4.047  17.534  0.0717 -2.0536 -0.3561
  898MPD2    H113214   2.580   4.245  17.507 -1.0117 -0.3343 -0.5960
  898MPD2    H213215   2.596   3.830  17.461 -1.2541  1.1767 -0.3945
  898MPD2    H313216   2.485   4.029  17.429  0.5073  1.8504  0.3054
  898MPD2     N13217   2.855   4.282  17.562 -0.3733  0.2536  0.0125
  898MPD2    H513218   2.952   4.258  17.581 -1.1646 -0.9549  2.4933
  898MPD2    N113219   2.872   3.811  17.549 -1.2228 -0.4472  0.7793
  898MPD2    H713220   2.967   3.830  17.579 -1.7885  2.8531  0.5394
  899MPD2     C13221   4.266   4.293  16.978 -0.3113  0.2340  0.0164
  899MPD2    C113222   4.245   4.418  17.040  0.1331 -0.0213 -0.0667
  899MPD2    C213223   4.176   4.421  17.159  0.0461 -0.0360  0.2989
  899MPD2    C313224   4.122   4.305  17.212  0.3208  0.0758  0.7338
  899MPD2    C413225   4.141   4.184  17.143 -0.4522  0.8324 -0.3981
  899MPD2    C513226   4.215   4.180  17.030 -0.2517  0.0727  0.3888
  899MPD2     H13227   4.141   4.515  17.202  1.1431  0.5987 -0.1892
  899MPD2    H113228   4.087   4.100  17.184 -1.5785  0.4441 -2.7021
  899MPD2    H213229   4.310   4.292  16.879 -1.9546  2.2293 -0.7383
  899MPD2    H313230   4.212   4.092  16.967 -0.1884  0.2762  0.1020
  899MPD2     N13231   4.032   4.312  17.318  0.0591 -0.6030 -0.2950
  899MPD2    H513232   3.983   4.224  17.328 -0.2865 -0.2096  1.5922
  899MPD2    N113233   4.279   4.531  16.976 -0.3070  0.5576  0.0943
  899MPD2    H713234   4.290   4.531  16.875 -1.7788 -1.2993 -0.0583
  900MPD2     C13235   3.628   0.770  12.528  0.4304  0.0543  0.4972
  900MPD2    C113236   3.554   0.663  12.493 -0.5503 -0.1013 -1.3070
  900MPD2    C213237   3.454   0.674  12.396 -0.5519  0.4953  0.5133
  900MPD2    C313238   3.437   0.793  12.327 -0.5493  0.3129  0.4735
  900MPD2    C413239   3.530   0.892  12.358  0.0340  0.4491 -0.6479
  900MPD2    C513240   3.622   0.881  12.459 -0.1323 -0.1128 -0.1702
  900MPD2     H13241   3.393   0.590  12.365  0.3509  0.4872 -1.2128
  900MPD2    H113242   3.517   0.990  12.313 -0.1425  0.3489 -0.8207
  900MPD2    H213243   3.695   0.770  12.613  1.0657 -1.1342 -0.0017
  900MPD2    H313244   3.677   0.970  12.489  1.3819 -0.2062 -2.7172
  900MPD2     N13245   3.342   0.809  12.217 -0.2130  0.7857  0.3238
  900MPD2    H513246   3.276   0.735  12.197 -0.7053  1.3397 -0.1133
  900MPD2    N113247   3.579   0.544  12.566  0.2141 -0.4551  0.4588
  900MPD2    H713248   3.657   0.555  12.630  0.7473 -3.1802  0.2768
  901MPD2     C13249   3.479   4.193  12.688 -0.7851 -0.1701  0.6149
  901MPD2    C113250   3.604   4.231  12.658  0.3194 -0.0387  0.2921
  901MPD2    C213251   3.636   4.361  12.662 -0.4743 -0.9995 -0.5927
  901MPD2    C313252   3.545   4.462  12.703 -0.4261  0.7245  0.0191
  901MPD2    C413253   3.417   4.419  12.737 -0.6250  0.4352 -0.2730
  901MPD2    C513254   3.388   4.287  12.732  0.4298  0.1211  0.9006
  901MPD2     H13255   3.732   4.394  12.624 -0.8204 -0.8117 -1.3005
  901MPD2    H113256   3.334   4.487  12.752 -0.8839 -0.3873  2.0947
  901MPD2    H213257   3.442   4.091  12.682  0.0811 -0.4947  0.6854
  901MPD2    H313258   3.290   4.251  12.761 -0.8627  2.9774  0.0595
  901MPD2     N13259   3.589   4.598  12.688 -0.2957  0.1615 -0.3860
  901MPD2    H513260   3.686   4.612  12.659  0.1481  0.5078  1.2179
  901MPD2    N113261   3.692   4.126  12.620  0.6241 -0.3200  0.8865
  901MPD2    H713262   3.644   4.037  12.606  1.3076 -0.5156 -0.2432
  902MPD2     C13263   2.853   3.949  11.902 -0.8349 -0.0932  0.4298
  902MPD2    C113264   2.869   3.888  12.028 -0.1277 -0.2258  0.0787
  902MPD2    C213265   2.899   3.753  12.035 -0.9749  0.6958 -0.0656
  902MPD2    C313266   2.904   3.679  11.915  0.4714  0.3435  0.4285
  902MPD2    C413267   2.880   3.744  11.793  0.1335 -0.4145  0.1999
  902MPD2    C513268   2.853   3.877  11.787  0.4666  0.0956  0.1664
  902MPD2     H13269   2.909   3.707  12.132 -1.4454  0.9505  0.0972
  902MPD2    H113270   2.869   3.682  11.705  2.5553 -0.9867  0.3050
  902MPD2    H213271   2.813   4.049  11.896 -1.0776 -0.2712 -0.9841
  902MPD2    H313272   2.829   3.924  11.693  0.5150  2.6313  1.4449
  902MPD2     N13273   2.930   3.541  11.922  0.1270  0.0752  0.7824
  902MPD2    H513274   2.936   3.484  11.838 -3.2437 -2.1404  2.0587
  902MPD2    N113275   2.834   3.966  12.141  0.4388  1.0279  0.1670
  902MPD2    H713276   2.807   4.063  12.127 -1.7300  0.6140  1.4468
  903MPD2     C13277   2.822   2.664  12.047  1.1698 -0.2464 -0.5283
  903MPD2    C113278   2.780   2.792  12.068  0.1150 -0.5425  0.3676
  903MPD2    C213279   2.644   2.817  12.071 -0.0293  0.9048 -0.4314
  903MPD2    C313280   2.551   2.718  12.052  0.1540 -0.7142 -0.1369
  903MPD2    C413281   2.597   2.591  12.017 -0.2042  0.0103  0.0075
  903MPD2    C513282   2.729   2.565  12.016  0.2387  0.9667  0.3910
  903MPD2     H13283   2.610   2.920  12.086 -2.1318 -0.0109  1.1666
  903MPD2    H113284   2.532   2.514  11.977 -1.2028  1.5565 -1.3637
  903MPD2    H213285   2.926   2.635  12.053  1.8013  1.9908 -0.8262
  903MPD2    H313286   2.759   2.462  12.001 -0.2586  1.0331 -0.9962
  903MPD2     N13287   2.413   2.750  12.049  0.2328 -0.1319  0.4712
  903MPD2    H513288   2.380   2.845  12.063 -0.1475 -0.1373 -0.3822
  903MPD2    N113289   2.882   2.885  12.080 -0.4799  0.5323  0.0908
  903MPD2    H713290   2.979   2.858  12.085 -0.6740 -0.2102 -0.2024
  904MPD2     C13291   2.588   2.791  14.212 -0.5661 -0.4306  0.2653
  904MPD2    C113292   2.651   2.900  14.149 -0.2792 -0.2468  0.2282
  904MPD2    C213293   2.784   2.932  14.187 -0.2185  0.1950 -0.2161
  904MPD2    C313294   2.841   2.865  14.297 -0.1714  0.9270  0.5388
  904MPD2    C413295   2.770   2.763  14.359  0.0542  0.0946 -0.4008
  904MPD2    C513296   2.651   2.722  14.318 -0.0705  0.1609 -0.4602
  904MPD2     H13297   2.848   3.003  14.136 -0.0090 -1.5081 -2.3512
  904MPD2    H113298   2.823   2.709  14.437  0.6118  0.7558 -0.3155
  904MPD2    H213299   2.489   2.756  14.184 -0.7920 -1.1890  1.9678
  904MPD2    H313300   2.615   2.632  14.367 -0.4335 -0.6789 -2.2398
  904MPD2     N13301   2.972   2.910  14.340  0.1149  0.2172 -0.1470
  904MPD2    H513302   3.027   2.958  14.270 -0.6645  3.3087  1.3569
  904MPD2    N113303   2.582   2.975  14.044  0.1831 -0.7054 -0.4938
  904MPD2    H713304   2.486   2.956  14.019 -0.1798 -0.9523  1.0535
  905MPD2     C13305   2.489   2.847  13.208  0.4699  0.1437  0.0565
  905MPD2    C113306   2.511   2.803  13.336  0.0897 -0.2203  0.0948
  905MPD2    C213307   2.519   2.665  13.365 -0.0536  0.5136  0.9209
  905MPD2    C313308   2.527   2.577  13.259 -0.0400  0.0674 -0.1812
  905MPD2    C413309   2.512   2.621  13.127 -0.1050 -0.2552  0.7988
  905MPD2    C513310   2.491   2.754  13.108 -0.0006  0.6192  0.6825
  905MPD2     H13311   2.539   2.633  13.467 -2.4075 -0.9386  0.9222
  905MPD2    H113312   2.513   2.552  13.043 -0.7479 -0.2918  0.8138
  905MPD2    H213313   2.469   2.950  13.181  0.7435 -0.8676 -4.0365
  905MPD2    H313314   2.484   2.796  13.009  2.0173 -1.0895 -0.2055
  905MPD2     N13315   2.551   2.437  13.276 -0.3285 -0.1755  0.1683
  905MPD2    H513316   2.529   2.386  13.191  3.3002  0.7780 -1.3317
  905MPD2    N113317   2.522   2.897  13.435 -0.2355  0.1677 -0.3028
  905MPD2    H713318   2.502   2.991  13.403  1.6700  0.1260 -1.5955
  906MPD2     C13319   4.485   3.357  10.691 -0.0331  0.2396 -0.1715
  906MPD2    C113320   4.563   3.254  10.641 -0.0659  0.3740  0.3640
  906MPD2    C213321   4.572   3.137  10.705  0.1685 -0.2696  0.0924
  906MPD2    C313322   4.510   3.133  10.832  0.6069 -0.8353  0.3615
  906MPD2    C413323   4.439   3.236  10.880  0.1197 -0.2378 -0.7364
  906MPD2    C513324   4.430   3.354  10.816  0.1192 -0.2994 -0.5367
  906MPD2     H13325   4.638   3.059  10.668 -1.2067 -1.0543 -0.6968
  906MPD2    H113326   4.401   3.229  10.982 -1.4683 -0.9104 -1.3851
  906MPD2    H213327   4.469   3.457  10.651 -2.1174  0.2290  0.6146
  906MPD2    H313328   4.380   3.440  10.858  0.8905  0.4100 -1.0562
  906MPD2     N13329   4.494   2.999  10.896  0.0514 -0.0105 -0.4668
  906MPD2    H513330   4.439   2.981  10.979  2.7163 -0.0289  1.2886
  906MPD2    N113331   4.602   3.260  10.508 -0.9488 -0.2949  0.3613
  906MPD2    H713332   4.641   3.177  10.464 -1.7301 -0.6425  0.3123
  907MPD2     C13333   3.688   2.424  15.489  0.8435 -0.3679  0.1987
  907MPD2    C113334   3.728   2.309  15.426  0.0336  0.1075  0.8055
  907MPD2    C213335   3.794   2.209  15.496  1.1389  0.4285  0.3114
  907MPD2    C313336   3.831   2.229  15.624 -0.3080  0.2745  0.4569
  907MPD2    C413337   3.797   2.348  15.685  0.1575 -0.5338  0.3794
  907MPD2    C513338   3.726   2.449  15.619  1.0821  0.6314 -0.5005
  907MPD2     H13339   3.820   2.114  15.451  1.5318  0.4478  0.4961
  907MPD2    H113340   3.818   2.366  15.790 -0.8984 -0.2607  0.5428
  907MPD2    H213341   3.614   2.488  15.441 -0.4975 -1.1921  1.1832
  907MPD2    H313342   3.694   2.541  15.666 -0.7678 -0.7582  0.9891
  907MPD2     N13343   3.907   2.134  15.699 -0.1890 -0.0164 -0.1745
  907MPD2    H513344   3.943   2.058  15.641  0.9300  0.3250  0.0762
  907MPD2    N113345   3.685   2.276  15.297 -0.2037  0.0441 -0.0845
  907MPD2    H713346   3.712   2.185  15.262  0.3898  0.6789 -1.3000
  908MPD2     C13347   1.400   2.216  10.005 -0.2515 -0.4474 -0.6543
  908MPD2    C113348   1.385   2.185  10.139  0.2858 -0.2680 -0.5590
  908MPD2    C213349   1.348   2.282  10.236  0.4008 -0.1852 -0.1248
  908MPD2    C313350   1.338   2.412  10.195  0.2361 -0.3438 -0.3019
  908MPD2    C413351   1.372   2.442  10.063  0.0645  0.0154 -0.4890
  908MPD2    C513352   1.402   2.347   9.971  0.1044 -0.1333  0.1064
  908MPD2     H13353   1.330   2.257  10.339 -1.9945  1.5025 -0.1346
  908MPD2    H113354   1.376   2.546  10.033 -1.3280  0.8068  2.0556
  908MPD2    H213355   1.416   2.137   9.932  0.1618 -0.5832 -0.4134
  908MPD2    H313356   1.432   2.381   9.873  0.5719 -0.2300  0.2157
  908MPD2     N13357   1.315   2.512  10.298 -0.3424  0.0638 -0.3123
  908MPD2    H513358   1.272   2.485  10.386 -0.8548  0.9820 -0.2784
  908MPD2    N113359   1.407   2.048  10.170  0.6341  0.3884 -0.3072
  908MPD2    H713360   1.442   1.994  10.091 -2.1768 -1.3502 -0.3304
  909MPD2     C13361   1.398   0.661  11.393  0.3422 -0.1249  0.5607
  909MPD2    C113362   1.353   0.791  11.376 -0.3766 -1.1861 -0.1271
  909MPD2    C213363   1.266   0.845  11.473 -0.3139  0.4046  0.2041
  909MPD2    C313364   1.228   0.767  11.580  0.3555 -0.5889 -0.4425
  909MPD2    C413365   1.283   0.643  11.601  0.5388  0.1320  0.0505
  909MPD2    C513366   1.377   0.592  11.507 -0.2867  0.7211  0.7613
  909MPD2     H13367   1.220   0.942  11.462 -0.4247  0.3805  0.4627
  909MPD2    H113368   1.257   0.577  11.682  1.2270  2.6753  2.3311
  909MPD2    H213369   1.470   0.628  11.319  1.3759 -0.2938  1.6583
  909MPD2    H313370   1.419   0.492  11.503  1.1022  1.3084  0.7144
  909MPD2     N13371   1.134   0.822  11.663 -0.3806  0.0242  0.0023
  909MPD2    H513372   1.110   0.916  11.633 -0.2992  0.8567  2.4713
  909MPD2    N113373   1.402   0.876  11.277 -0.1050 -0.1027 -0.1675
  909MPD2    H713374   1.370   0.972  11.277  0.7266  0.1816  1.5477
  910MPD2     C13375   3.265   2.251  15.414 -0.3462 -0.3132  0.5291
  910MPD2    C113376   3.218   2.326  15.516  0.1778 -0.3968 -0.7324
  910MPD2    C213377   3.164   2.446  15.478  0.3754 -0.2257  0.5489
  910MPD2    C313378   3.171   2.499  15.347  0.0624 -0.1222 -0.2793
  910MPD2    C413379   3.219   2.414  15.245  0.6406 -0.6873 -0.2422
  910MPD2    C513380   3.267   2.290  15.283  1.3047  0.0016 -0.2373
  910MPD2     H13381   3.127   2.510  15.558 -1.1708 -1.4384  0.8069
  910MPD2    H113382   3.222   2.437  15.139 -2.3806  0.8487 -0.0145
  910MPD2    H213383   3.312   2.155  15.429 -0.0259 -0.1671  0.4707
  910MPD2    H313384   3.309   2.224  15.208  3.1874  0.5789  0.3114
  910MPD2     N13385   3.135   2.626  15.305 -0.6875  0.4795 -0.6340
  910MPD2    H513386   3.155   2.638  15.206  1.9678  0.7680 -0.0629
  910MPD2    N113387   3.221   2.264  15.648  0.2684  0.4280 -0.2727
  910MPD2    H713388   3.272   2.177  15.654 -0.2470  0.1001 -0.5658
  911MPD2     C13389   1.068   3.310  16.429  0.2874  0.0124  0.1213
  911MPD2    C113390   1.118   3.436  16.458  0.5602  0.7053  0.1586
  911MPD2    C213391   1.056   3.540  16.397 -0.1125  0.4372  0.5155
  911MPD2    C313392   0.958   3.518  16.299 -0.0386 -0.0167 -0.0744
  911MPD2    C413393   0.913   3.390  16.273  0.1661 -0.0333  0.3934
  911MPD2    C513394   0.962   3.286  16.348 -0.7987  0.5794 -0.4320
  911MPD2     H13395   1.083   3.641  16.424 -0.3441  0.4337  0.7574
  911MPD2    H113396   0.827   3.374  16.210  0.5155  0.0024 -0.0973
  911MPD2    H213397   1.117   3.227  16.478  1.2022  1.6741  1.9732
  911MPD2    H313398   0.922   3.188  16.326  2.2380 -0.8977  0.6380
  911MPD2     N13399   0.893   3.619  16.227  0.0308 -0.3142  0.1648
  911MPD2    H513400   0.831   3.590  16.152 -0.7529 -0.0809  0.7167
  911MPD2    N113401   1.239   3.435  16.530  0.1366  0.8127  0.3874
  911MPD2    H713402   1.296   3.351  16.529  2.1570  2.1918  0.6822
  912MPD2     C13403   0.523   3.556  15.560  0.4950  0.7736 -0.2763
  912MPD2    C113404   0.548   3.530  15.701 -0.7959 -0.9500  0.3401
  912MPD2    C213405   0.522   3.401  15.752 -0.0256  0.9265 -0.0773
  912MPD2    C313406   0.481   3.296  15.669  0.3124 -0.4858 -0.1711
  912MPD2    C413407   0.463   3.319  15.531 -0.6613  0.3440 -0.1068
  912MPD2    C513408   0.483   3.447  15.482 -0.3159 -0.3118 -0.4033
  912MPD2     H13409   0.530   3.388  15.859  2.3975  0.8691 -0.2651
  912MPD2    H113410   0.422   3.247  15.461 -3.5774  2.3283 -0.4457
  912MPD2    H213411   0.536   3.655  15.517 -0.9667  0.1098 -2.2468
  912MPD2    H313412   0.483   3.470  15.376 -2.3571  1.3297 -0.0402
  912MPD2     N13413   0.448   3.172  15.730  0.0192 -0.0888  0.0475
  912MPD2    H513414   0.457   3.154  15.830 -0.3136  0.3164  0.1512
  912MPD2    N113415   0.598   3.635  15.774 -0.1059  0.6675 -0.0848
  912MPD2    H713416   0.594   3.726  15.729  0.1696  0.8311  0.2259
  913MPD2     C13417   0.832   3.536  11.234 -0.8307 -0.2355 -0.1761
  913MPD2    C113418   0.881   3.637  11.155 -0.8626  0.1261 -0.0495
  913MPD2    C213419   0.879   3.625  11.017 -0.1645 -0.2274  0.7889
  913MPD2    C313420   0.845   3.498  10.958  0.2190 -0.1017 -0.3453
  913MPD2    C413421   0.808   3.395  11.044 -0.3454 -0.4296  0.1182
  913MPD2    C513422   0.793   3.414  11.177  0.8405  0.3806  0.2397
  913MPD2     H13423   0.921   3.703  10.954  1.2257  1.0936  3.3344
  913MPD2    H113424   0.774   3.302  11.000  0.4389  0.0109 -1.4234
  913MPD2    H213425   0.821   3.552  11.341 -0.2470 -0.7427 -0.0418
  913MPD2    H313426   0.748   3.332  11.231 -0.0571 -0.5943 -2.0036
  913MPD2     N13427   0.838   3.474  10.825  0.1243  0.1699  0.7351
  913MPD2    H513428   0.815   3.377  10.805 -1.8891  0.6144  0.8708
  913MPD2    N113429   0.919   3.752  11.226  0.0033  0.1609  0.2698
  913MPD2    H713430   0.924   3.742  11.327  0.1278  0.1721  0.2643
  914MPD2     C13431   4.244   4.537  11.952  0.3480  0.7466  0.0380
  914MPD2    C113432   4.170   4.577  12.062 -0.0033  0.0343 -0.2084
  914MPD2    C213433   4.096   4.487  12.127  0.3407 -0.6160  0.6539
  914MPD2    C313434   4.091   4.355  12.085  0.8871 -0.2513 -0.0735
  914MPD2    C413435   4.167   4.311  11.984  0.0184  0.2226 -0.1544
  914MPD2    C513436   4.238   4.406  11.913 -0.3873  0.5356 -0.2182
  914MPD2     H13437   4.036   4.513  12.214 -1.0478 -0.5909 -0.3120
  914MPD2    H113438   4.187   4.209  11.952  1.1521  0.4821 -0.2516
  914MPD2    H213439   4.311   4.599  11.894  0.9185 -2.8097 -3.0843
  914MPD2    H313440   4.301   4.370  11.833 -0.2377  1.4422 -0.5150
  914MPD2     N13441   4.010   4.262  12.163  0.2769  0.2906 -0.3541
  914MPD2    H513442   3.959   4.296  12.244 -1.1402 -0.6805 -0.8356
  914MPD2    N113443   4.167   4.716  12.096  0.0163  0.0609  0.3064
  914MPD2    H713444   4.222   0.038  12.034 -0.7210 -0.1183 -0.5204
  915MPD2     C13445   2.103   0.012  15.671 -0.5986 -0.4042  0.0653
  915MPD2    C113446   1.995   0.041  15.585  0.4281  0.2061  0.3532
  915MPD2    C213447   1.887   0.116  15.627  0.6093 -0.6903 -0.2984
  915MPD2    C313448   1.879   0.151  15.761  0.4275 -0.0149 -0.0420
  915MPD2    C413449   1.980   0.125  15.850  0.0846  0.1205 -0.2553
  915MPD2    C513450   2.090   0.050  15.804  0.8445 -0.3586 -0.3661
  915MPD2     H13451   1.804   0.131  15.560  1.1990  1.5780 -0.5147
  915MPD2    H113452   1.975   0.156  15.953  2.8453  1.2357 -0.4463
  915MPD2    H213453   2.199   4.710  15.641  1.5992  1.7933  4.2731
  915MPD2    H313454   2.178   0.045  15.866  0.0443  1.2165  0.8949
  915MPD2     N13455   1.763   0.224  15.797  0.5140  0.9616  0.3482
  915MPD2    H513456   1.705   0.259  15.721  2.0961 -1.4571 -2.0138
  915MPD2    N113457   2.010   0.010  15.451 -0.0239  0.3592  0.4739
  915MPD2    H713458   2.099   4.706  15.426  0.5965  1.9421  0.0636
  916MPD2     C13459   4.731   3.093  15.726 -0.3551  0.3530  0.3060
  916MPD2    C113460   4.720   2.981  15.803 -0.5785 -0.0596  0.3084
  916MPD2    C213461   0.013   2.859  15.751  0.1243 -0.2269  0.3614
  916MPD2    C313462   0.057   2.839  15.623 -0.1207 -0.2277 -0.1068
  916MPD2    C413463   0.057   2.943  15.541 -0.0581  0.5712  0.1481
  916MPD2    C513464   0.031   3.071  15.594  0.7506 -0.1986  0.6724
  916MPD2     H13465   4.736   2.766  15.805 -0.2923  1.4419  3.1417
  916MPD2    H113466   0.083   2.944  15.436 -1.1320  2.6871 -0.0949
  916MPD2    H213467   4.705   3.193  15.760 -3.5982  0.0630 -1.2595
  916MPD2    H313468   0.041   3.153  15.524  0.4907 -0.3169  0.4965
  916MPD2     N13469   0.087   2.711  15.573  0.0481  0.0787 -0.6920
  916MPD2    H513470   0.052   2.640  15.636 -0.3231 -0.9038 -2.0058
  916MPD2    N113471   4.686   3.004  15.937  0.6901 -0.0907  0.3727
  916MPD2    H713472   4.674   3.100  15.968  1.7912 -0.6117  2.4315
  917MPD2     C13473   4.588   4.674  10.994 -1.1522  0.6355  0.6392
  917MPD2    C113474   4.641   0.010  11.094 -0.3755  0.0848  0.4374
  917MPD2    C213475   4.704   0.133  11.058 -0.1262  0.2761 -0.0651
  917MPD2    C313476   4.716   0.178  10.929  0.4806  0.2443  0.3225
  917MPD2    C413477   4.654   0.103  10.833 -0.1389 -0.4642 -0.4725
  917MPD2    C513478   4.603   4.714  10.865  0.2406  0.0622 -0.4865
  917MPD2     H13479   0.016   0.187  11.138  0.7323  0.0456 -0.4377
  917MPD2    H113480   4.660   0.139  10.732 -2.2355 -1.6522 -1.0336
  917MPD2    H213481   4.537   4.580  11.016 -0.2485  0.4579  1.9935
  917MPD2    H313482   4.567   4.652  10.783 -0.0567  1.6439 -1.5579
  917MPD2     N13483   0.046   0.297  10.892 -0.5943 -0.0588  0.7983
  917MPD2    H513484   0.053   0.323  10.794  0.7685 -2.5364  0.2304
  917MPD2    N113485   4.621   4.706  11.227  0.0812 -0.0314  0.6183
  917MPD2    H713486   4.565   4.622  11.243 -2.6027  1.3754 -1.3469
  918MPD2     C13487   0.061   0.512  11.990 -0.2936  0.9437 -0.4653
  918MPD2    C113488   0.140   0.446  11.903 -0.0735 -0.1267  0.1709
  918MPD2    C213489   0.098   0.326  11.843 -0.0698  0.4413  0.5165
  918MPD2    C313490   4.713   0.276  11.874  0.6217  0.0585 -0.3410
  918MPD2    C413491   4.629   0.338  11.968 -0.8269  0.4047  0.0959
  918MPD2    C513492   4.674   0.459  12.017 -0.5470  0.1351 -0.1571
  918MPD2     H13493   0.150   0.281  11.760  0.2866 -0.4213  1.2104
  918MPD2    H113494   4.529   0.299  11.980 -0.0719 -1.6374 -0.2993
  918MPD2    H213495   0.084   0.608  12.036  1.8425 -0.3224  1.0947
  918MPD2    H313496   4.621   0.518  12.090 -0.8951 -0.5623  0.1491
  918MPD2     N13497   4.670   0.173  11.791  0.3640 -0.5265 -0.3235
  918MPD2    H513498   4.727   0.152  11.710  0.5103 -1.9622  0.1328
  918MPD2    N113499   0.274   0.497  11.876 -0.7957 -0.3310  0.2232
  918MPD2    H713500   0.325   0.450  11.802 -1.9975 -1.1461 -0.0866
  919MPD2     C13501   0.791   3.964  11.805  0.1811  0.3048 -0.1810
  919MPD2    C113502   0.717   3.848  11.774  0.1368 -0.2534 -0.3075
  919MPD2    C213503   0.675   3.837  11.643  0.1413 -0.1689  0.1002
  919MPD2    C313504   0.695   3.938  11.548  0.0834  0.2838 -0.0800
  919MPD2    C413505   0.762   4.052  11.590 -0.4744  0.1617 -0.2746
  919MPD2    C513506   0.810   4.063  11.717  0.2370 -0.7896 -0.7053
  919MPD2     H13507   0.627   3.744  11.613  0.9181 -0.9993  1.4512
  919MPD2    H113508   0.774   4.137  11.524 -2.6627  1.9113  1.5643
  919MPD2    H213509   0.824   3.991  11.905 -1.7627  4.1191 -0.5449
  919MPD2    H313510   0.869   4.152  11.738 -1.0601  0.0687 -0.7022
  919MPD2     N13511   0.650   3.936  11.410  0.2700 -0.0889 -0.8667
  919MPD2    H513512   0.664   4.022  11.359  0.0866  1.9152  2.4707
  919MPD2    N113513   0.698   3.741  11.863  0.6487 -0.2198 -0.4403
  919MPD2    H713514   0.640   3.664  11.830 -0.7528  0.5628  0.2066
  920MPD2     C13515   0.438   4.419  10.569  0.1591 -0.2295 -0.2434
  920MPD2    C113516   0.357   4.306  10.559  0.7844  0.1786 -0.3141
  920MPD2    C213517   0.363   4.205  10.651 -0.6321  0.0158  0.9916
  920MPD2    C313518   0.442   4.215  10.756  0.4135 -0.0440 -0.0073
  920MPD2    C413519   0.510   4.336  10.778  0.5443 -0.8534  0.0298
  920MPD2    C513520   0.508   4.430  10.679  0.0664  0.0943 -0.4371
  920MPD2     H13521   0.309   4.115  10.625 -0.6141  0.5137 -0.7923
  920MPD2    H113522   0.576   4.358  10.861 -0.1015 -2.1608  0.8856
  920MPD2    H213523   0.442   4.503  10.500 -2.1599  1.4990  1.7344
  920MPD2    H313524   0.555   4.527  10.692 -3.3117  1.6655 -0.0413
  920MPD2     N13525   0.451   4.104  10.844 -0.1796  0.0038 -0.1204
  920MPD2    H513526   0.403   4.020  10.815  1.0617 -1.1341  1.1502
  920MPD2    N113527   0.263   4.289  10.451  0.3666  0.3232  0.0096
  920MPD2    H713528   0.190   4.218  10.454 -0.3063  1.0530  0.5906
  921MPD2     C13529   1.994   4.000  17.054 -0.5386  0.9562  0.2277
  921MPD2    C113530   2.017   3.997  16.914  0.6605  0.2036  0.1306
  921MPD2    C213531   1.951   3.903  16.834 -0.5522 -0.3623 -0.1870
  921MPD2    C313532   1.868   3.812  16.892 -0.1298 -0.4314 -0.4887
  921MPD2    C413533   1.844   3.821  17.027  0.3233 -0.3857 -0.9412
  921MPD2    C513534   1.907   3.908  17.108  0.3355  0.4139 -0.5578
  921MPD2     H13535   1.975   3.901  16.729 -0.4878 -0.0584 -0.1787
  921MPD2    H113536   1.770   3.755  17.071  0.0601  0.1462 -0.5794
  921MPD2    H213537   2.036   4.079  17.115 -0.9929  2.0886 -0.9177
  921MPD2    H313538   1.898   3.902  17.216  2.9207 -0.6407 -0.4000
  921MPD2     N13539   1.796   3.719  16.808 -0.1434 -0.2545  0.5410
  921MPD2    H513540   1.826   3.710  16.711 -0.2467 -1.4672  0.6176
  921MPD2    N113541   2.105   4.096  16.867  0.3557 -0.3835  0.3064
  921MPD2    H713542   2.166   4.144  16.931  1.5520  0.2946 -1.3386
  922MPD2     C13543   2.499   1.646  16.940  0.6824  0.2453  0.5292
  922MPD2    C113544   2.502   1.647  17.079  0.5320  0.9214 -0.0372
  922MPD2    C213545   2.462   1.535  17.150 -0.7411 -0.1281  0.1072
  922MPD2    C313546   2.432   1.415  17.084 -0.0737 -0.4755  0.1044
  922MPD2    C413547   2.432   1.422  16.947  0.6265 -0.1499  0.0774
  922MPD2    C513548   2.469   1.533  16.874  0.1793 -0.2058  0.5216
  922MPD2     H13549   2.468   1.535  17.258  2.7150 -2.6280 -0.0884
  922MPD2    H113550   2.392   1.338  16.890 -0.2021  0.4386 -0.2180
  922MPD2    H213551   2.523   1.730  16.877  0.1197  0.6095  0.7991
  922MPD2    H313552   2.464   1.529  16.766  1.2521 -2.0271  0.5411
  922MPD2     N13553   2.389   1.290  17.145  0.0217 -0.4016 -1.0120
  922MPD2    H513554   2.367   1.216  17.079 -0.5244 -2.7466  1.8228
  922MPD2    N113555   2.534   1.762  17.160 -0.0421 -0.3034 -0.6882
  922MPD2    H713556   2.508   1.766  17.258  1.8529  1.0450 -0.2341
  923MPD2     C13557   3.808   3.214   9.435  0.0881  0.2207 -0.7524
  923MPD2    C113558   3.851   3.349   9.407  0.2987 -0.0542 -0.7563
  923MPD2    C213559   3.972   3.389   9.459 -0.9747  0.2277 -0.0603
  923MPD2    C313560   4.062   3.299   9.516  1.0698 -0.4866  0.6474
  923MPD2    C413561   4.026   3.168   9.527  0.6235  0.9051  0.0057
  923MPD2    C513562   3.899   3.123   9.491 -0.1975  0.3564 -0.0331
  923MPD2     H13563   4.008   3.490   9.444 -3.8369  1.2673  0.1847
  923MPD2    H113564   4.091   3.085   9.553 -1.9833 -1.6543 -1.6640
  923MPD2    H213565   3.711   3.177   9.405 -1.7445  2.5642  2.2889
  923MPD2    H313566   3.869   3.020   9.504 -1.0926  0.7511  1.0309
  923MPD2     N13567   4.193   3.337   9.557  0.2971  0.6478 -0.1500
  923MPD2    H513568   4.255   3.261   9.585 -1.3803  0.2465  2.4705
  923MPD2    N113569   3.777   3.438   9.328  0.2574  0.0199  0.0537
  923MPD2    H713570   3.683   3.410   9.300  0.3712  2.8060 -3.0694
  924MPD2     C13571   3.987   1.242  15.909 -0.3617  0.5623  0.7378
  924MPD2    C113572   3.989   1.322  16.020 -0.2526 -0.5194  0.7175
  924MPD2    C213573   4.033   1.450  16.012  0.7029 -0.6563  0.3322
  924MPD2    C313574   4.076   1.502  15.894 -0.6717  0.0158  0.1371
  924MPD2    C413575   4.064   1.425  15.778  0.4463 -0.5184  0.1165
  924MPD2    C513576   4.022   1.298  15.788 -0.6381 -0.6859 -0.3760
  924MPD2     H13577   4.049   1.515  16.097  1.4187 -0.4271  0.0228
  924MPD2    H113578   4.100   1.456  15.680  0.1391 -0.6408 -0.0357
  924MPD2    H213579   3.955   1.139  15.921  2.0993 -0.5202 -2.0945
  924MPD2    H313580   4.020   1.237  15.698  2.9890 -1.3727 -0.0032
  924MPD2     N13581   4.122   1.641  15.893  0.0246  0.5798 -0.0511
  924MPD2    H513582   4.129   1.682  15.986 -0.6246 -0.9098  0.6514
  924MPD2    N113583   3.954   1.267  16.142  0.4541 -0.3954 -0.1561
  924MPD2    H713584   3.911   1.175  16.137 -0.8949  0.1568  1.0623
  925MPD2     C13585   2.270   4.220  14.378  0.1916  0.4217 -0.1033
  925MPD2    C113586   2.362   4.116  14.385  0.2192 -0.9855  0.4812
  925MPD2    C213587   2.414   4.079  14.504  0.2264 -0.2288 -0.3396
  925MPD2    C313588   2.371   4.156  14.609 -0.4610  0.0333  1.5164
  925MPD2    C413589   2.266   4.245  14.609 -0.0523  0.1948  0.8468
  925MPD2    C513590   2.219   4.277  14.489 -0.3602 -0.6509 -0.0010
  925MPD2     H13591   2.481   3.994  14.518 -0.0808 -0.4110  0.0509
  925MPD2    H113592   2.229   4.298  14.697  0.2089  1.4174  0.2255
  925MPD2    H213593   2.223   4.249  14.284 -1.5642 -0.5216  0.4810
  925MPD2    H313594   2.135   4.344  14.478  0.6577  0.6544  0.1957
  925MPD2     N13595   2.426   4.139  14.739  0.2323  0.1119  0.0966
  925MPD2    H513596   2.374   4.181  14.816 -1.5878 -3.4474  0.8398
  925MPD2    N113597   2.423   4.059  14.268  0.1502 -0.0753 -0.1965
  925MPD2    H713598   2.506   4.003  14.286  1.0861  1.6846  0.9486
  926MPD2     C13599   1.305   1.981  13.997  0.4307  0.2146  0.0680
  926MPD2    C113600   1.190   2.039  13.963  0.1165 -0.2152  0.4526
  926MPD2    C213601   1.176   2.119  13.847  0.0765  0.6308 -0.1665
  926MPD2    C313602   1.295   2.147  13.773 -0.0949  0.5897 -0.1179
  926MPD2    C413603   1.410   2.095  13.821 -0.2049 -0.1108 -0.0072
  926MPD2    C513604   1.415   2.010  13.929  0.0280 -0.2321  0.6364
  926MPD2     H13605   1.089   2.178  13.823 -0.6673 -1.1188 -1.7344
  926MPD2    H113606   1.506   2.123  13.779  0.3482 -1.5649  0.2848
  926MPD2    H213607   1.323   1.927  14.089  1.0346  0.2457 -0.0357
  926MPD2    H313608   1.510   1.964  13.954 -0.1016 -1.4307 -1.0955
  926MPD2     N13609   1.302   2.243  13.670 -0.0491 -0.2296  0.2749
  926MPD2    H513610   1.390   2.262  13.624 -1.0981  1.0847 -1.1870
  926MPD2    N113611   1.071   2.029  14.035  0.2339  0.0713  0.1212
  926MPD2    H713612   0.992   2.084  14.003 -0.3894 -0.7533  0.2411
  927MPD2     C13613   1.346   4.272   0.290 -0.2902 -0.0366  0.2635
  927MPD2    C113614   1.216   4.298   0.241 -0.2041 -0.3098 -0.7431
  927MPD2    C213615   1.198   4.401   0.151 -0.0556 -0.7806  0.5424
  927MPD2    C313616   1.302   4.493   0.123 -0.2572 -0.1058  0.4383
  927MPD2    C413617   1.428   4.468   0.168 -0.5119 -0.2036 -0.0880
  927MPD2    C513618   1.443   4.359   0.253  0.4295 -0.1859 -0.7088
  927MPD2     H13619   1.100   4.420   0.110  0.2511 -0.6891 -0.1498
  927MPD2    H113620   1.513   4.528   0.137 -1.6581  2.1053  1.2520
  927MPD2    H213621   1.377   4.195   0.359  0.7709 -0.8446 -1.1032
  927MPD2    H313622   1.548   4.346   0.278 -0.2833  0.0308  2.2759
  927MPD2     N13623   1.261   4.599   0.039 -0.3515  0.6714  0.1375
  927MPD2    H513624   1.162   4.609   0.016 -0.5792 -0.5095  0.6030
  927MPD2    N113625   1.115   4.203   0.282 -0.3539  0.2405 -0.3323
  927MPD2    H713626   1.145   4.122   0.336 -2.5926 -0.6421 -0.4085
  928MPD2     C13627   3.650   2.773   0.425  0.1524 -0.7837  0.3664
  928MPD2    C113628   3.638   2.903   0.465  0.2424  0.6064  0.3163
  928MPD2    C213629   3.735   2.995   0.431 -0.4539  0.8417  0.3832
  928MPD2    C313630   3.839   2.958   0.347 -0.4402  0.7996  0.1237
  928MPD2    C413631   3.840   2.837   0.290 -0.8807 -0.7376 -0.1901
  928MPD2    C513632   3.751   2.738   0.333  0.0554  0.0701  0.4764
  928MPD2     H13633   3.740   3.095   0.473  0.1391  0.7223  0.6007
  928MPD2    H113634   3.922   2.817   0.222 -0.0236  0.4613  0.5081
  928MPD2    H213635   3.572   2.699   0.441 -0.2152 -0.9121 -2.0074
  928MPD2    H313636   3.760   2.632   0.310 -2.5202 -0.2533  1.0560
  928MPD2     N13637   3.936   3.050   0.295 -0.2777  0.0489  0.5164
  928MPD2    H513638   3.991   3.019   0.215  0.0444  0.3344  0.6272
  928MPD2    N113639   3.534   2.934   0.549  0.1661 -0.4038  0.1245
  928MPD2    H713640   3.473   2.862   0.585  0.7801 -0.4761  1.0283
  929MPD2     C13641   3.612   2.888  10.233  0.2583 -0.6911  0.4726
  929MPD2    C113642   3.530   2.792  10.273 -0.0027 -0.6146 -0.3127
  929MPD2    C213643   3.401   2.788  10.222  0.2035  0.5194 -0.6244
  929MPD2    C313644   3.362   2.881  10.124  0.1189 -0.8914 -0.4870
  929MPD2    C413645   3.451   2.980  10.093  0.5229 -0.2133  0.1007
  929MPD2    C513646   3.579   2.979  10.138 -0.7229  0.4586 -0.0980
  929MPD2     H13647   3.325   2.715  10.245 -0.5716  1.4419 -0.2513
  929MPD2    H113648   3.419   3.056  10.022 -0.0668  1.7233  2.4081
  929MPD2    H213649   3.717   2.882  10.255  0.1065 -0.2346  1.3012
  929MPD2    H313650   3.647   3.059  10.109 -1.2218  0.6993 -0.6076
  929MPD2     N13651   3.229   2.899  10.077 -0.0944  0.0238 -0.3685
  929MPD2    H513652   3.207   2.984  10.026  0.7112 -0.3869 -1.4117
  929MPD2    N113653   3.584   2.699  10.364 -0.7250  0.2136 -0.2358
  929MPD2    H713654   3.679   2.727  10.387 -0.1962 -2.0471  0.3762
  930MPD2     C13655   0.766   0.737  13.913 -0.2804  0.2780  0.5075
  930MPD2    C113656   0.883   0.678  13.888  0.9224 -0.3215 -1.0706
  930MPD2    C213657   0.882   0.577  13.792  0.1530 -0.1909  0.2550
  930MPD2    C313658   0.761   0.528  13.741  0.6534 -0.6842 -0.7899
  930MPD2    C413659   0.638   0.584  13.775 -0.0993  0.4069 -0.1743
  930MPD2    C513660   0.648   0.691  13.862  0.4845 -0.2983 -0.4172
  930MPD2     H13661   0.979   0.547  13.754  0.4693  0.6490  0.4016
  930MPD2    H113662   0.541   0.567  13.731  0.8229  1.8886 -2.8324
  930MPD2    H213663   0.756   0.822  13.980  1.8917  0.8564  0.0962
  930MPD2    H313664   0.563   0.745  13.901 -1.1889 -3.2904  0.0437
  930MPD2     N13665   0.759   0.442  13.632  0.1869 -0.5213 -0.3244
  930MPD2    H513666   0.665   0.429  13.595  0.3525  1.3668 -1.3888
  930MPD2    N113667   0.997   0.741  13.937  1.2231 -0.8521  0.4542
  930MPD2    H713668   0.988   0.828  13.987 -1.7693 -0.4602 -0.7668
  931MPD2     C13669   1.071   3.600   0.197 -0.4964 -0.0950 -0.6137
  931MPD2    C113670   1.017   3.609   0.320 -0.6872  0.3554  0.4812
  931MPD2    C213671   1.019   3.499   0.408  0.0373 -0.6349  1.0837
  931MPD2    C313672   1.087   3.382   0.365 -0.3599 -0.4964  0.3998
  931MPD2    C413673   1.143   3.373   0.243 -0.7049  0.4226 -0.9665
  931MPD2    C513674   1.131   3.483   0.159  0.8094  0.1246  0.1137
  931MPD2     H13675   0.952   3.503   0.493 -1.5956 -1.4452 -0.1570
  931MPD2    H113676   1.197   3.282   0.219  1.1862  1.1697  0.4267
  931MPD2    H213677   1.073   3.682   0.127 -1.6932  0.7883  0.3914
  931MPD2    H313678   1.176   3.469   0.062 -1.3629 -0.7763 -0.7674
  931MPD2     N13679   1.105   3.267   0.444  0.1884 -0.7460  0.4847
  931MPD2    H513680   1.171   3.205   0.397  0.8055  0.9085 -0.8087
  931MPD2    N113681   0.963   3.734   0.341 -0.3862 -0.0933  0.4587
  931MPD2    H713682   0.967   3.807   0.270  2.2573  0.2078  0.9056
  932MPD2     C13683   1.908   3.977  11.078 -1.2825 -0.7650 -0.6815
  932MPD2    C113684   2.027   3.971  11.138 -0.0042 -0.3314 -0.8413
  932MPD2    C213685   2.078   3.846  11.173 -0.4077  0.9702  0.1448
  932MPD2    C313686   2.016   3.730  11.144 -0.1535  0.1877  0.2955
  932MPD2    C413687   1.892   3.740  11.080 -0.1057  0.2382  0.8762
  932MPD2    C513688   1.839   3.858  11.046 -0.4473 -0.5528 -0.0509
  932MPD2     H13689   2.169   3.840  11.232 -0.9387 -0.0776  0.8589
  932MPD2    H113690   1.836   3.649  11.058  0.5632  0.1679 -0.5067
  932MPD2    H213691   1.867   4.071  11.043 -1.8014 -1.5467 -2.1642
  932MPD2    H313692   1.737   3.858  11.007  0.0710  0.5391 -1.3897
  932MPD2     N13693   2.061   3.599  11.174 -0.9540 -0.4098  0.2939
  932MPD2    H513694   2.003   3.521  11.143  0.1510 -0.2194 -2.2913
  932MPD2    N113695   2.104   4.087  11.175 -0.5168 -0.2289  0.3755
  932MPD2    H713696   2.193   4.058  11.214 -0.5908  2.1009  2.2441
  933MPD2     C13697   2.724   3.140   0.649  0.2632 -0.6394 -0.1063
  933MPD2    C113698   2.826   3.230   0.638  0.1411 -0.1523  0.0338
  933MPD2    C213699   2.804   3.367   0.608 -0.4759  0.0297  0.4760
  933MPD2    C313700   2.676   3.411   0.585  0.2496  0.1092  0.0704
  933MPD2    C413701   2.575   3.323   0.594  0.7540 -0.5514  0.7227
  933MPD2    C513702   2.600   3.195   0.616  0.6290 -0.3539 -0.0710
  933MPD2     H13703   2.889   3.434   0.602  0.2914 -0.6022  3.7748
  933MPD2    H113704   2.472   3.355   0.599  1.2064  1.0080  0.2719
  933MPD2    H213705   2.737   3.033   0.661  1.3420 -0.4118  0.8050
  933MPD2    H313706   2.512   3.131   0.610 -0.2229  0.7784  0.5555
  933MPD2     N13707   2.660   3.554   0.572 -0.9241  0.7075  0.0478
  933MPD2    H513708   2.747   3.603   0.556  0.3843 -1.3945  0.8390
  933MPD2    N113709   2.954   3.184   0.670  0.4877  0.0622  0.1420
  933MPD2    H713710   2.949   3.083   0.684 -0.1404 -0.0639 -0.9816
  934MPD2     C13711   0.289   0.926   1.764 -0.3764  0.1324  0.0718
  934MPD2    C113712   0.306   0.842   1.656  0.0047 -0.1986 -0.0880
  934MPD2    C213713   0.210   0.749   1.627 -0.5104  0.1526  0.1812
  934MPD2    C313714   0.081   0.764   1.680  0.1451 -0.1743  0.2305
  934MPD2    C413715   0.068   0.841   1.784  0.0668  0.3308 -0.7892
  934MPD2    C513716   0.173   0.916   1.829  0.0420 -1.0841  0.2929
  934MPD2     H13717   0.215   0.695   1.533 -0.0896 -0.4483  0.5486
  934MPD2    H113718   4.706   0.864   1.822  0.5836  0.7678  0.3081
  934MPD2    H213719   0.362   0.998   1.799 -1.2457  1.3846 -0.6678
  934MPD2    H313720   0.152   0.990   1.905 -1.9695  0.1547 -1.4718
  934MPD2     N13721   4.717   0.705   1.605 -0.1716  0.4803 -0.7253
  934MPD2    H513722   0.016   0.664   1.519 -1.0904  1.4721 -1.5878
  934MPD2    N113723   0.431   0.836   1.584 -0.8748 -0.1505 -0.4612
  934MPD2    H713724   0.432   0.772   1.505 -0.9626 -1.0698  0.2886
  935MPD2     C13725   0.058   0.094   1.004  0.5956  0.4879 -0.0848
  935MPD2    C113726   4.657   0.103   0.996  0.0075 -0.1831  0.1871
  935MPD2    C213727   4.592   0.196   1.076  0.6377  0.4154 -1.1203
  935MPD2    C313728   4.665   0.287   1.156  0.3769  0.1409  0.6822
  935MPD2    C413729   0.064   0.286   1.144 -0.2287 -0.6114  0.0882
  935MPD2    C513730   0.124   0.190   1.072 -0.0129  0.8785 -0.1021
  935MPD2     H13731   4.485   0.199   1.066  0.6450  1.3357 -0.9956
  935MPD2    H113732   0.121   0.353   1.207 -2.4875 -1.7220  3.3491
  935MPD2    H213733   0.110   0.020   0.945  0.3076 -1.0482  1.5842
  935MPD2    H313734   0.232   0.190   1.057  0.2304  0.3230  1.6676
  935MPD2     N13735   4.609   0.393   1.231 -0.7813  0.4965 -0.0542
  935MPD2    H513736   4.676   0.455   1.277  0.5117 -0.4339 -0.6821
  935MPD2    N113737   4.568   0.021   0.916  0.5917  0.7757 -0.3238
  935MPD2    H713738   4.467   0.022   0.924  0.7049  1.3381  0.9345
  936MPD2     C13739   3.487   1.776  11.763 -0.8067  0.0762 -1.0049
  936MPD2    C113740   3.458   1.860  11.868 -0.7091  0.1048 -0.1549
  936MPD2    C213741   3.483   1.999  11.857 -0.0532 -0.0332  0.7584
  936MPD2    C313742   3.529   2.051  11.738 -0.6702  0.3403  0.2597
  936MPD2    C413743   3.558   1.959  11.638 -0.6199 -0.7173 -0.1677
  936MPD2    C513744   3.549   1.822  11.657  0.4823  0.0147 -0.3495
  936MPD2     H13745   3.458   2.065  11.940 -1.7669  0.3006 -0.0307
  936MPD2    H113746   3.595   1.993  11.542 -0.7805 -0.8954 -0.2916
  936MPD2    H213747   3.460   1.671  11.758  2.2743 -0.7683  0.2779
  936MPD2    H313748   3.578   1.745  11.586 -0.3397 -1.1191  0.5272
  936MPD2     N13749   3.547   2.188  11.731  0.4106 -0.5021 -0.4482
  936MPD2    H513750   3.524   2.232  11.819  3.0642  1.2852 -0.6643
  936MPD2    N113751   3.392   1.823  11.992  0.6645  0.2076  0.3203
  936MPD2    H713752   3.393   1.896  12.062 -3.0930 -0.0482  0.6293
  937MPD2     C13753   1.056   3.128  11.873 -0.1493 -0.0747  0.1162
  937MPD2    C113754   1.051   3.268  11.864  0.2876 -0.7022  0.1918
  937MPD2    C213755   1.146   3.331  11.789  0.4300  1.1429  0.1036
  937MPD2    C313756   1.242   3.260  11.716  0.1267 -0.9314  0.2544
  937MPD2    C413757   1.245   3.121  11.726  0.6355 -0.0461 -0.0097
  937MPD2    C513758   1.150   3.057  11.803  0.8662 -0.9420  0.0096
  937MPD2     H13759   1.132   3.438  11.787  0.4916  1.1930  2.5500
  937MPD2    H113760   1.321   3.059  11.679 -0.3987  0.0057 -1.7548
  937MPD2    H213761   0.986   3.067  11.930 -0.7888 -0.8641 -1.5175
  937MPD2    H313762   1.148   2.948  11.807  0.3001 -0.9572 -0.7464
  937MPD2     N13763   1.321   3.342  11.633  0.1674 -0.6401 -0.9084
  937MPD2    H513764   1.310   3.442  11.647  3.2554 -0.5106  0.6718
  937MPD2    N113765   0.947   3.342  11.930  0.3561  0.0009 -0.0353
  937MPD2    H713766   0.937   3.439  11.901  0.7659  0.2088  0.5405
  938MPD2     C13767   3.899   0.316   0.651 -0.2301  0.2949  0.3537
  938MPD2    C113768   3.930   0.362   0.776 -0.1504  1.2788  0.8973
  938MPD2    C213769   3.903   0.280   0.892 -0.1090  0.1039  0.2054
  938MPD2    C313770   3.833   0.159   0.881 -0.0863  0.0686  0.0378
  938MPD2    C413771   3.799   0.122   0.752  0.3882 -0.0701 -0.1670
  938MPD2    C513772   3.825   0.196   0.637 -0.4494 -0.1966 -0.5082
  938MPD2     H13773   3.924   0.314   0.993  0.9119  1.9965 -0.6499
  938MPD2    H113774   3.749   0.026   0.742 -1.0179  0.6873 -0.3286
  938MPD2    H213775   3.915   0.369   0.558  0.5955  1.6903  1.3057
  938MPD2    H313776   3.784   0.170   0.540  0.9213  0.6919 -1.3289
  938MPD2     N13777   3.798   0.068   0.980  0.0256 -0.0937  0.0766
  938MPD2    H513778   3.743   4.723   0.953 -0.3518 -0.0842  0.8247
  938MPD2    N113779   3.979   0.498   0.796 -0.6683  0.0787 -0.0577
  938MPD2    H713780   4.005   0.512   0.893  0.2231 -1.1456 -0.1111
  939MPD2     C13781   4.567   1.083   0.755  0.3219  0.7697  1.1565
  939MPD2    C113782   4.516   1.191   0.687 -0.1201  0.9595 -0.3912
  939MPD2    C213783   4.553   1.192   0.553 -0.1222 -0.4006 -0.0312
  939MPD2    C313784   4.643   1.106   0.500 -0.5904  0.9915  0.3207
  939MPD2    C413785   4.701   1.005   0.568  0.1256  0.4329 -0.3158
  939MPD2    C513786   4.663   1.000   0.700 -0.2402 -0.2612 -0.0755
  939MPD2     H13787   4.524   1.275   0.489 -2.4499 -0.7346  0.5920
  939MPD2    H113788   0.038   0.935   0.530  1.7538  1.0449  1.7403
  939MPD2    H213789   4.537   1.076   0.858 -0.3742  1.5604  1.0064
  939MPD2    H313790   4.711   0.931   0.768 -0.8384  1.4611  2.1184
  939MPD2     N13791   4.675   1.134   0.360 -0.1632  0.1854  0.3651
  939MPD2    H513792   4.631   1.220   0.329  0.4393  0.3735  0.0486
  939MPD2    N113793   4.439   1.298   0.743  0.4415  0.9267  0.0259
  939MPD2    H713794   4.402   1.288   0.837 -0.3886  1.3318 -0.2465
  940MPD2     C13795   3.971   1.959  12.317 -0.0556 -0.1326  0.6994
  940MPD2    C113796   4.099   1.926  12.359  0.1422 -0.0152 -0.3683
  940MPD2    C213797   4.200   1.916  12.262 -0.4423  0.4537 -0.4584
  940MPD2    C313798   4.183   1.956  12.135 -0.2250 -0.0513  0.5157
  940MPD2    C413799   4.056   1.994  12.095 -0.0004  0.2518  0.5413
  940MPD2    C513800   3.952   1.991  12.187 -0.3426 -0.2042 -0.4490
  940MPD2     H13801   4.300   1.888  12.292 -0.4911 -0.4958 -1.1913
  940MPD2    H113802   4.038   2.026  11.993 -0.0433 -1.3198  0.0618
  940MPD2    H213803   3.881   1.954  12.377  1.0613  0.8045  2.4486
  940MPD2    H313804   3.854   2.027  12.157  0.0508  1.0376 -0.2584
  940MPD2     N13805   4.280   1.952  12.036 -0.3859 -0.2116  0.0785
  940MPD2    H513806   4.244   1.963  11.942  3.2200  0.3287 -1.2202
  940MPD2    N113807   4.114   1.900  12.499  0.0243  0.6251  0.3846
  940MPD2    H713808   4.037   1.908  12.563 -0.1897 -3.9550  0.7335
  941MPD2     C13809   2.514   1.631   9.433  0.2194 -0.3756  0.3610
  941MPD2    C113810   2.615   1.577   9.510 -0.2076  0.2510  0.7599
  941MPD2    C213811   2.593   1.461   9.579 -0.2269 -0.6432  1.4386
  941MPD2    C313812   2.469   1.402   9.575 -0.2735  0.0460  0.1771
  941MPD2    C413813   2.372   1.460   9.502  0.4138 -0.5801 -0.6577
  941MPD2    C513814   2.388   1.570   9.427 -0.7701 -0.0500  0.1356
  941MPD2     H13815   2.672   1.425   9.644  0.5427  1.2147  1.5464
  941MPD2    H113816   2.271   1.421   9.497 -0.4141  1.7489 -2.2053
  941MPD2    H213817   2.528   1.730   9.390 -1.0623  1.2391  3.7274
  941MPD2    H313818   2.298   1.614   9.386  0.2224 -0.1359 -2.1476
  941MPD2     N13819   2.436   1.285   9.645  0.1079 -0.5032  0.0819
  941MPD2    H513820   2.339   1.257   9.630 -0.5284  1.5133  0.5034
  941MPD2    N113821   2.737   1.640   9.520 -0.1895  0.2508 -0.1025
  941MPD2    H713822   2.792   1.594   9.592  0.4839  0.5680 -0.4062
  942MPD2     C13823   2.939   3.890   9.058 -0.0500  0.3622  0.2482
  942MPD2    C113824   2.979   3.762   9.077 -0.1637  0.3362 -0.4614
  942MPD2    C213825   3.091   3.720   9.010 -0.2230 -0.6250 -0.1124
  942MPD2    C313826   3.152   3.796   8.917 -0.4870  0.3850 -0.9896
  942MPD2    C413827   3.117   3.929   8.905  0.1209  0.0505 -0.4937
  942MPD2    C513828   3.010   3.976   8.979 -0.4989 -0.4684  0.5667
  942MPD2     H13829   3.126   3.618   9.008  4.2119  0.8427  2.7501
  942MPD2    H113830   3.178   3.992   8.842 -0.1111  0.6160 -0.1473
  942MPD2    H213831   2.853   3.930   9.109  1.6325  1.1108  2.5384
  942MPD2    H313832   2.977   4.079   8.977 -0.2001 -0.3822  0.2107
  942MPD2     N13833   3.260   3.747   8.844  0.4777 -0.0378 -0.1965
  942MPD2    H513834   3.297   3.658   8.878  0.7960 -0.3530 -1.3452
  942MPD2    N113835   2.903   3.667   9.145 -0.0454 -0.4089  0.4477
  942MPD2    H713836   2.936   3.572   9.133  1.0889 -0.0935  1.1082
  943MPD2     C13837   1.539   4.199   9.528 -0.3032  0.4586  0.7288
  943MPD2    C113838   1.581   4.083   9.483  0.2590 -0.0601 -0.0249
  943MPD2    C213839   1.686   4.086   9.396 -0.0463 -0.1614  0.1749
  943MPD2    C313840   1.757   4.206   9.366 -0.0524 -0.1989  0.0038
  943MPD2    C413841   1.703   4.329   9.416  0.4768  0.2033  0.4955
  943MPD2    C513842   1.591   4.322   9.495  0.3081  0.6357 -0.2363
  943MPD2     H13843   1.721   3.992   9.355 -2.3629 -0.3895 -1.2496
  943MPD2    H113844   1.762   4.416   9.390  1.0831 -0.2402  0.3941
  943MPD2    H213845   1.465   4.197   9.607 -0.6342  1.2110  0.4441
  943MPD2    H313846   1.561   4.416   9.539 -2.4629  0.1907 -1.2078
  943MPD2     N13847   1.874   4.216   9.284  0.2290  0.2576  0.3644
  943MPD2    H513848   1.905   4.311   9.267 -0.2171  0.2777 -0.3397
  943MPD2    N113849   1.508   3.964   9.516 -0.7286  0.0479  0.1356
  943MPD2    H713850   1.428   3.983   9.575  0.0279 -1.8826  1.7839
  944MPD2     C13851   1.453   0.381  10.328 -0.6090 -0.0076 -0.5456
  944MPD2    C113852   1.326   0.354  10.276 -0.1017  0.5165 -0.1516
  944MPD2    C213853   1.226   0.336  10.375 -0.1511  0.1105 -0.3067
  944MPD2    C313854   1.253   0.359  10.509  0.3387 -0.0592  0.4058
  944MPD2    C413855   1.375   0.393  10.550  0.2633  0.4763  1.0173
  944MPD2    C513856   1.485   0.406  10.462  0.1383 -0.5469 -0.3743
  944MPD2     H13857   1.129   0.298  10.345  0.5742 -2.4458  0.5748
  944MPD2    H113858   1.396   0.425  10.651 -0.5428  0.6049  1.1511
  944MPD2    H213859   1.531   0.387  10.253  0.9702  0.2949  1.0992
  944MPD2    H313860   1.581   0.427  10.508  0.3457 -3.0177  0.3350
  944MPD2     N13861   1.145   0.336  10.604  0.3954 -0.3693 -0.0717
  944MPD2    H513862   1.049   0.324  10.575  0.4609 -0.9362 -0.0651
  944MPD2    N113863   1.318   0.338  10.141  0.3085  0.2764  0.2639
  944MPD2    H713864   1.398   0.358  10.080  0.2421 -0.5120 -0.0860
    1TMC1    C113865   4.609   0.974  13.923  0.6697  0.0427 -0.7439
    1TMC1    C213866   4.480   1.001  13.883  0.2383  0.8345 -0.2932
    1TMC1    C313867   4.418   0.899  13.809  0.3286  0.3703 -0.1491
    1TMC1    C413868   4.667   0.850  13.900 -0.9788 -0.0891 -0.6333
    1TMC1    C513869   4.596   0.753  13.840  0.2579 -0.0582 -1.1643
    1TMC1    C613870   4.473   0.772  13.792 -0.2994  0.4509  0.1257
    1TMC1     C13871   4.698   1.069  13.998 -0.3711  0.9256 -0.1430
    1TMC1     O13872   0.055   1.031  14.065 -0.1725 -0.0504 -0.2352
    1TMC1     H13873   4.440   1.099  13.904  1.2772  0.6649  2.5085
    1TMC1    H113874   0.032   0.830  13.932 -1.8484  1.4166  3.0349
    1TMC1    H213875   4.432   0.687  13.738 -0.7406  0.5642  0.2853
    1TMC1    C713876   4.647   0.614  13.836  0.0710 -0.2839 -0.1620
    1TMC1    C813877   4.299   0.941  13.728  0.9511  1.0289  0.0588
    1TMC1    O113878   4.617   0.525  13.756  0.0541  0.2751 -0.1186
    1TMC1    O213879   4.219   1.020  13.780 -0.5517  0.4615  0.0926
    1TMC1    O313880   0.025   0.600  13.907 -0.2259 -0.0922  0.4747
    1TMC1    H313881   0.030   0.666  13.979  0.7096 -0.8383  1.1016
    1TMC1    O513882   4.367   0.973  13.617  0.8209 -0.5359 -0.1152
    1TMC1    H513883   4.434   0.906  13.593 -1.1263 -2.3678 -0.3453
    2MPD2     C13884   0.146   1.515  14.138 -0.5149 -0.0677  0.0091
    2MPD2    C113885   0.081   1.537  14.022  0.0872 -0.7352  0.0954
    2MPD2    C213886   4.729   1.442  13.981 -0.1331  0.0953 -0.9289
    2MPD2    C313887   0.000   1.313  14.033  0.5692 -0.3801 -0.3105
    2MPD2    C413888   0.078   1.295  14.152  0.5559 -0.5634  0.1630
    2MPD2    C513889   0.132   1.405  14.209  0.1303  0.4648 -0.1452
    2MPD2     H13890   4.673   1.455  13.890  1.1380 -1.5192 -1.9340
    2MPD2    H113891   0.072   1.206  14.214  0.3656 -0.3132  0.5043
    2MPD2    H213892   0.206   1.595  14.179  1.0187 -1.1029 -0.1848
    2MPD2    H313893   0.172   1.406  14.310  2.6591 -0.3218 -1.1527
    2MPD2     N13894   4.674   1.205  13.971  0.1080  0.0521  0.0836
    2MPD2    H513895   4.605   1.225  13.900 -0.5967 -0.3745  0.6524
    2MPD2    N113896   0.105   1.659  13.952  0.2689 -0.0859 -0.4261
    2MPD2    H713897   0.176   1.725  13.983 -0.4673  1.1188 -1.3383
    3TMC2    C113898   0.083   1.818  13.786  1.0301 -0.4780  0.6220
    3TMC2    C213899   0.119   1.913  13.880  0.0938  0.1931 -0.0116
    3TMC2    C313900   0.131   2.040  13.828  0.0668 -0.2536  0.2743
    3TMC2    C413901   0.061   1.848  13.656  0.0206  0.5476  0.0471
    3TMC2    C513902   0.060   1.979  13.619  0.1225  0.2329 -0.4209
    3TMC2    C613903   0.099   2.077  13.705  0.1002  0.3902 -0.3264
    3TMC2     C13904   0.031   1.697  13.844 -0.4474  0.8287 -0.7546
    3TMC2     O13905   4.676   1.639  13.782 -0.0348 -0.3267 -1.3156
    3TMC2     H13906   0.138   1.892  13.985  3.3641  1.9413 -0.2679
    3TMC2    H113907   0.031   1.777  13.580 -0.5931  0.6824  0.1637
    3TMC2    H213908   0.092   2.182  13.679  1.7149  0.7846  0.8697
    3TMC2    C713909   4.732   2.009  13.498  1.2569 -0.0768  1.0969
    3TMC2    C813910   0.168   2.143  13.927 -0.6354  0.2315 -0.0575
    3TMC2    O113911   4.720   1.918  13.417 -0.4971  0.2844  0.0106
    3TMC2    O213912   0.177   2.108  14.041 -0.0412 -0.2122  0.8127
    3TMC2    O513913   0.205   2.262  13.878  0.1593 -0.6389 -0.0966
    3TMC2    H513914   0.173   2.285  13.789 -0.1347 -0.0770  0.1540
    4TMC2    C113915   4.184   2.835  13.490 -0.0236  0.2357 -0.3029
    4TMC2    C213916   4.251   2.952  13.499 -0.0016 -0.5116  0.5917
    4TMC2    C313917   4.385   2.944  13.496  0.0931  0.4264 -0.0693
    4TMC2    C413918   4.250   2.712  13.477 -0.5145  0.4774  0.4692
    4TMC2    C513919   4.391   2.717  13.479  0.1913 -0.6804 -0.1554
    4TMC2    C613920   4.462   2.828  13.487  0.2204 -0.7300 -1.2656
    4TMC2     C13921   4.036   2.845  13.475 -0.6676  0.2509  0.0622
    4TMC2     O13922   3.987   2.956  13.486 -0.0817 -0.0769  0.6279
    4TMC2     H13923   4.207   3.050  13.488  0.8163 -0.3865 -1.4420
    4TMC2    H113924   4.195   2.619  13.465 -0.6009  0.9484 -2.7212
    4TMC2    H213925   4.570   2.837  13.490  0.2196 -0.6265 -1.4979
    4TMC2    C713926   4.464   2.599  13.480  0.0832 -0.1913 -0.4481
    4TMC2    C813927   4.440   3.067  13.549 -0.5914 -0.0564 -0.3269
    4TMC2    O113928   4.559   2.599  13.556  0.5637  0.2842  0.1640
    4TMC2    O213929   4.388   3.144  13.631  0.1599  0.2124  0.2394
    4TMC2    O513930   4.555   3.086  13.477  0.1253  0.0622 -0.3900
    4TMC2    H513931   4.562   3.020  13.405  0.4630  0.9808 -1.1917
    5MPD2     C13932   3.574   2.644  13.454  0.1699 -0.4802  0.4886
    5MPD2    C113933   3.656   2.553  13.391 -0.4787 -0.3249 -0.1566
    5MPD2    C213934   3.788   2.586  13.381 -0.0202  0.1247 -0.5521
    5MPD2    C313935   3.839   2.703  13.427  0.4674  0.2938  0.0614
    5MPD2    C413936   3.751   2.791  13.488  0.7122 -0.5693 -0.2072
    5MPD2    C513937   3.616   2.765  13.496  0.0762 -0.2873  1.2569
    5MPD2     H13938   3.864   2.526  13.332  1.0786  2.6195 -1.9417
    5MPD2    H113939   3.786   2.882  13.535  0.8410  0.1934 -1.8038
    5MPD2    H213940   3.468   2.629  13.474  0.0328 -0.2977 -0.1014
    5MPD2    H313941   3.563   2.825  13.569  0.6871  2.3368 -0.4734
    5MPD2     N13942   3.976   2.725  13.444  1.1017  0.0666  0.1595
    5MPD2    H513943   4.034   2.645  13.418 -0.7487 -0.2210 -3.1093
    5MPD2    N113944   3.599   2.429  13.359 -0.2027  0.0573  0.3796
    5MPD2    H713945   3.501   2.416  13.383 -0.8719  0.4633 -2.1384
    6MPD1     C13946   2.927   3.616  12.638  0.0362  0.2616 -0.5275
    6MPD1    C113947   2.903   3.524  12.543 -0.1622  0.5521  0.0883
    6MPD1    C213948   2.928   3.390  12.568  0.1640 -0.6024  0.2982
    6MPD1    C313949   2.977   3.344  12.689 -0.7595 -0.2251  0.0475
    6MPD1    C413950   2.997   3.444  12.784  0.0104  0.1877 -0.4442
    6MPD1    C513951   2.979   3.572  12.758  0.4656  0.2931 -0.2478
    6MPD1     H13952   2.912   3.321  12.486 -1.1076 -1.4074  1.2250
    6MPD1    H113953   3.042   3.431  12.882  0.0986 -1.9081 -0.7535
    6MPD1    H213954   2.897   3.719  12.626 -2.3612 -0.2329  1.1951
    6MPD1    H313955   2.990   3.645  12.838  1.0564 -0.3824  0.2814
    6MPD1     N13956   3.031   3.217  12.723  0.1316 -0.1582  0.3298
    6MPD1    H513957   3.049   3.201  12.821  1.7380  0.3162  0.1113
    6MPD1    N113958   2.853   3.565  12.420  0.2051  0.0839  0.9992
    6MPD1    H613959   2.874   3.663  12.400 -0.3089  0.3550  1.7828
    6MPD1    H713960   2.887   3.508  12.344  1.5564 -0.2384  1.8502
    7MPD2     C13961   2.854   2.513  13.042 -0.1982 -0.3978  0.6113
    7MPD2    C113962   2.979   2.556  13.084  0.2833 -0.8700 -0.0103
    7MPD2    C213963   3.061   2.472  13.165 -0.5245  0.8196 -0.0833
    7MPD2    C313964   3.028   2.340  13.188 -0.7636 -0.6081 -0.4020
    7MPD2    C413965   2.903   2.297  13.147  0.4402  0.1834  0.0021
    7MPD2    C513966   2.821   2.379  13.074  0.1108 -0.4181  0.4795
    7MPD2     H13967   3.161   2.506  13.189  0.2599 -0.9343 -0.8889
    7MPD2    H113968   2.876   2.195  13.170 -1.4026  0.5999 -0.2291
    7MPD2    H213969   2.794   2.576  12.978 -1.5338 -2.2930 -0.0109
    7MPD2    H313970   2.736   2.328  13.029 -0.6998  1.7457 -0.4487
    7MPD2     N13971   3.120   2.244  13.242 -0.2199 -0.3288 -0.3152
    7MPD2    H513972   3.096   2.146  13.243  0.3763 -0.4800 -0.9824
    7MPD2    N113973   3.048   2.674  13.035  0.8332 -0.0795 -0.0559
    7MPD2    H713974   3.143   2.689  13.068  1.4011 -0.4078 -1.5548
    8TMC3    C113975   3.344   2.167  13.282  0.0164  0.7034  0.7334
    8TMC3    C213976   3.457   2.203  13.343  0.4516  0.4297 -0.1421
    8TMC3    C313977   3.562   2.222  13.261  0.3302  0.1423 -0.2250
    8TMC3    C413978   3.347   2.120  13.149  0.2998  0.5641  0.0411
    8TMC3    C513979   3.455   2.132  13.072 -0.1048  1.2753  0.6074
    8TMC3    C613980   3.567   2.190  13.127 -0.3705  0.3066  0.0274
    8TMC3     C13981   3.247   2.277  13.294  0.2884  0.1902  0.9097
    8TMC3     O13982   3.296   2.387  13.319  0.0683  0.0656 -0.2430
    8TMC3     H13983   3.454   2.238  13.446  4.4494  2.2513 -0.6789
    8TMC3    H113984   3.256   2.092  13.096  0.8041  0.9387 -1.0216
    8TMC3    H213985   3.656   2.214  13.072 -1.2157 -0.3751 -1.6304
    8TMC3    C713986   3.428   2.185  12.942  0.2644 -0.0563  0.0990
    8TMC3    C813987   3.659   2.323  13.296  0.1871  0.9616  0.0543
    8TMC3    O113988   3.313   2.200  12.910  0.7619  0.0183 -0.1353
    8TMC3    O213989   3.771   2.317  13.245  0.5375  0.2747  0.4451
    9TMC3    C113990   3.100   3.001  12.700  0.0100 -0.4125  0.1231
    9TMC3    C213991   3.210   2.943  12.657  0.8527  0.2013  0.4508
    9TMC3    C313992   3.262   2.836  12.727  0.3713  0.2579 -0.2384
    9TMC3    C413993   3.033   2.950  12.812 -0.4337 -0.3036  0.4556
    9TMC3    C513994   3.096   2.856  12.886 -0.3714  0.0564 -0.1642
    9TMC3    C613995   3.216   2.797  12.851 -0.8340 -0.5203 -0.6163
    9TMC3     C13996   3.062   3.120  12.631  0.3372 -0.1053 -0.8498
    9TMC3     O13997   3.048   3.117  12.512 -0.1997  0.2643 -0.2072
    9TMC3     H13998   3.238   2.966  12.555 -1.4626 -0.1107 -0.2478
    9TMC3    H113999   2.937   2.990  12.843 -0.5465  0.1218 -0.4394
    9TMC3    H214000   3.252   2.713  12.909  0.5152  0.5887  0.1498
    9TMC3    C714001   3.000   2.770  12.948 -0.0414 -0.4429  0.6842
    9TMC3    C814002   3.367   2.759  12.665 -0.3495  0.2224  0.0152
    9TMC3    O114003   2.881   2.798  12.921 -0.0866 -0.0344 -0.2303
    9TMC3    O214004   3.432   2.817  12.581 -0.3791 -0.6945 -0.4147
   10MPD2     C14005   3.672   2.342  12.707 -0.5125  0.0993 -0.5847
   10MPD2    C114006   3.558   2.332  12.792  0.4498  0.7709  0.9611
   10MPD2    C214007   3.452   2.423  12.790 -0.4281  0.0388 -0.1144
   10MPD2    C314008   3.463   2.534  12.712 -0.5787  0.4200 -0.0666
   10MPD2    C414009   3.579   2.557  12.640 -0.1724 -0.3363  0.0388
   10MPD2    C514010   3.678   2.462  12.641  0.7234 -0.4760 -0.2943
   10MPD2     H14011   3.355   2.412  12.836  0.2475  2.9116  1.9959
   10MPD2    H114012   3.589   2.647  12.581 -0.4353  0.1006  0.6637
   10MPD2    H214013   3.750   2.267  12.707 -0.4473  0.1684 -0.4221
   10MPD2    H314014   3.767   2.467  12.578 -0.4637  1.4340 -1.7958
   10MPD2     N14015   3.368   2.638  12.724 -0.0418  0.8236  0.1275
   10MPD2    H514016   3.288   2.624  12.784  0.1364 -2.7668 -0.4694
   10MPD2    N114017   3.544   2.214  12.868  0.0783 -0.9800  0.0027
   10MPD2    H714018   3.626   2.162  12.899  0.5466 -1.7263 -2.4967
   11MPD2     C14019   4.537   2.123  13.301  0.4394  0.5691 -0.0629
   11MPD2    C114020   4.594   2.198  13.410  0.6733 -0.0117  0.3390
   11MPD2    C214021   4.553   2.330  13.436 -0.0414 -0.5098 -0.1816
   11MPD2    C314022   4.449   2.383  13.364 -0.4786  0.0711  0.4734
   11MPD2    C414023   4.385   2.303  13.268 -0.0099 -0.0527  0.1311
   11MPD2    C514024   4.431   2.180  13.234  0.2889  0.9697 -0.5398
   11MPD2     H14025   4.603   2.377  13.520  0.6867 -0.5985 -0.5706
   11MPD2    H114026   4.305   2.349  13.210  0.9069  2.5833  0.9249
   11MPD2    H214027   4.570   2.024  13.272  1.3197  1.2326 -1.3498
   11MPD2    H314028   4.381   2.118  13.160 -1.8443  1.9915  0.0336
   11MPD2     N14029   4.413   2.521  13.377  0.3886  0.1626  0.9307
   11MPD2    H514030   4.342   2.552  13.313  1.4495  0.7610  0.0421
   11MPD2    N114031   4.683   2.140  13.505  0.6859  0.2886 -0.2472
   11MPD2    H714032   4.703   2.190  13.591  0.2113 -0.9300  0.5703
    1MPD1     C14033   2.324   3.747  16.436  0.8523 -0.1467 -0.0583
    1MPD1    C114034   2.267   3.832  16.526  0.0968 -0.5289 -0.2402
    1MPD1    C214035   2.332   3.856  16.646  0.0429 -0.0656  0.2495
    1MPD1    C314036   2.467   3.811  16.652 -0.4648 -0.2268 -0.6090
    1MPD1    C414037   2.526   3.734  16.550 -0.0660 -0.1525 -0.3463
    1MPD1    C514038   2.446   3.696  16.445  0.1006  0.4362 -0.3303
    1MPD1     H14039   2.282   3.906  16.728  0.8100  0.5062  0.3814
    1MPD1    H114040   2.627   3.697  16.566  0.2047  1.3928  1.5493
    1MPD1    H214041   2.274   3.723  16.343 -1.1115 -0.4569  1.0854
    1MPD1    H314042   2.493   3.636  16.367  1.5103  1.7114 -0.4564
    1MPD1     N14043   2.556   3.844  16.754  0.0295 -0.4828 -0.7309
    1MPD1    H514044   2.645   3.803  16.727 -0.1477 -0.7267 -0.9483
    1MPD1    N114045   2.138   3.876  16.492  0.1850 -0.1213 -0.2801
    1MPD1    H614046   2.102   3.882  16.397  1.0800 -3.0769 -0.8082
    1MPD1    H714047   2.119   3.961  16.545 -1.4790 -1.1016  0.6772
    2MPD1     C14048   3.292   3.534  17.375  0.0387  0.2256 -0.0198
    2MPD1    C114049   3.308   3.667  17.378  0.1526  0.3188 -0.3854
    2MPD1    C214050   3.210   3.753  17.321  0.3587  0.8447 -0.3274
    2MPD1    C314051   3.097   3.697  17.258  0.5244  0.0559 -0.0920
    2MPD1    C414052   3.089   3.561  17.241  0.3219  0.4031 -0.2105
    2MPD1    C514053   3.179   3.484  17.310 -0.4161  0.4505  1.1147
    2MPD1     H14054   3.230   3.859  17.323  0.7724  0.7584  0.2681
    2MPD1    H114055   3.016   3.496  17.194  0.9430 -0.1531 -0.3976
    2MPD1    H214056   3.370   3.468  17.409  0.9742  1.1907 -0.2687
    2MPD1    H314057   3.180   3.376  17.318 -0.7798  0.2478 -1.7745
    2MPD1     N14058   3.018   3.786  17.187  0.2748 -0.3784 -0.3695
    2MPD1    H514059   3.053   3.881  17.194  3.0080 -1.3862 -0.3549
    2MPD1    N114060   3.413   3.720  17.455  0.1471  0.2540 -0.2550
    2MPD1    H614061   3.416   3.696  17.554 -2.2305  1.3733  0.1020
    2MPD1    H714062   3.428   3.821  17.454 -0.8409  0.4268  2.2381
    3TMC3    C114063   2.833   3.868  17.056  0.0919  0.9708  0.4106
    3TMC3    C214064   2.843   3.988  17.136  0.0818 -0.1896 -0.3831
    3TMC3    C314065   2.734   4.068  17.119  0.6680  0.1705  0.2239
    3TMC3    C414066   2.729   3.839  16.972 -0.4736 -0.0890  0.3504
    3TMC3    C514067   2.631   3.933  16.961  0.1952  0.4662 -0.0879
    3TMC3    C614068   2.628   4.045  17.039  0.6048 -0.6035 -0.3164
    3TMC3     C14069   2.912   3.752  17.102  0.1125  0.0289 -0.4300
    3TMC3     O14070   2.875   3.641  17.072  0.0167 -0.3772 -0.2564
    3TMC3     H14071   2.914   4.003  17.217  0.3098 -0.5401 -0.5156
    3TMC3    H114072   2.722   3.745  16.918 -0.3922 -0.3520  0.7941
    3TMC3    H214073   2.551   4.120  17.025  2.5962  1.2953 -1.0597
    3TMC3    C714074   2.522   3.904  16.873 -0.1294  1.0867 -0.3890
    3TMC3    C814075   2.749   4.203  17.166  0.1010  0.0500  0.2497
    3TMC3    O114076   2.417   3.953  16.912 -0.4155 -0.2778  0.3216
    3TMC3    O214077   2.652   4.275  17.152  0.0490  0.2932  0.1219
    4MPD1     C14078   3.024   4.604  17.330 -0.2832  0.3690 -0.4419
    4MPD1    C114079   3.109   4.500  17.327  0.7920 -0.7464  0.0291
    4MPD1    C214080   3.056   4.387  17.264 -0.0999 -0.0469 -0.0859
    4MPD1    C314081   2.920   4.372  17.245 -0.0543 -0.1083 -0.0207
    4MPD1    C414082   2.838   4.480  17.254  0.1812 -0.5966  0.4814
    4MPD1    C514083   2.894   4.598  17.295 -0.6745  0.1323 -0.4938
    4MPD1     H14084   3.118   4.301  17.241  0.7876  0.6521 -0.3090
    4MPD1    H114085   2.731   4.477  17.241  0.3349 -0.7773 -0.7267
    4MPD1    H214086   3.052   4.699  17.375  0.1629  0.4221 -0.8405
    4MPD1    H314087   2.832   4.684  17.320  1.1424  1.1665  0.4890
    4MPD1     N14088   2.879   4.241  17.202  0.0182 -0.2944 -0.2807
    4MPD1    H514089   2.950   4.170  17.186  0.4573  0.1897 -0.4779
    4MPD1    N114090   3.249   4.523  17.331 -0.2766 -0.8545  0.3926
    4MPD1    H614091   3.274   4.594  17.399 -0.3437 -0.0118 -0.4788
    4MPD1    H714092   3.302   4.438  17.348  1.9549  0.1500 -1.7324
    1TCq1    O114093   2.400   4.085  10.870 -0.2444  0.7430 -0.2337
    1TCq1    C114094   2.534   4.090  10.891  0.0735 -0.4497  0.2397
    1TCq1    O214095   2.610   4.125  10.802  0.4696  0.1646  0.0710
    1TCq1    C214096   2.558   3.986  10.985  0.8491 -0.4721 -0.4716
    1TCq1    C314097   2.480   3.988  11.096  0.6721  0.8317  0.2713
    1TCq1    C414098   2.490   3.885  11.185 -0.1464 -0.5370  1.3406
    1TCq1    C514099   2.594   3.792  11.160  0.8726 -0.0746  0.2249
    1TCq1    C614100   2.666   3.796  11.047  0.5707  0.0943  0.2575
    1TCq1    C714101   2.648   3.890  10.950  0.4340  0.1283  0.0030
    1TCq1    C814102   2.773   3.703  11.019 -0.2991 -1.1931 -0.1863
    1TCq1    O414103   2.853   3.735  10.929 -0.6733  0.5737  0.2859
    1TCq1    C914104   2.432   3.895  11.316 -0.1643 -0.0855 -0.2923
    1TCq1    O514105   2.480   3.827  11.410 -0.4837  0.1206  0.0479
    1TCq1    O614106   2.356   3.994  11.335  0.0771  0.5423  0.3961
    1TCq1    H114107   2.353   4.009  10.911 -0.6618  0.0377 -2.0472
    1TCq1    H214108   2.424   4.078  11.121  2.1464  0.6880  4.1032
    1TCq1    H314109   2.615   3.733  11.249 -0.5590 -0.7773  0.1023
    1TCq1    H414110   2.690   3.883  10.850 -1.0425 -1.4693 -0.4985
    2MPD1     C14111   3.114   3.362  11.135  0.6372  0.3370 -0.4447
    2MPD1    C114112   3.006   3.346  11.219  0.5537  0.0043 -0.3945
    2MPD1    C214113   2.885   3.409  11.202  0.1865 -0.2819 -0.0784
    2MPD1    C314114   2.879   3.490  11.088  0.2813 -0.4361  0.8460
    2MPD1    C414115   2.978   3.489  10.990  0.4274  0.4936  0.3067
    2MPD1    C514116   3.099   3.421  11.013 -0.6521 -0.5226 -0.3840
    2MPD1     H14117   2.805   3.405  11.275 -1.3771 -0.7195 -1.8038
    2MPD1    H114118   2.959   3.538  10.895  1.0952  0.5827  0.2242
    2MPD1    H214119   3.212   3.314  11.143  1.8363  2.8280 -0.2507
    2MPD1    H314120   3.176   3.411  10.937  0.3845  0.5028  0.5227
    2MPD1     N14121   2.776   3.585  11.094 -0.4363  0.1820  0.5241
    2MPD1    H514122   2.704   3.585  11.166 -2.1189  0.3012 -1.1671
    2MPD1    N114123   3.037   3.289  11.344  0.0984 -0.0786 -0.2071
    2MPD1    H614124   3.126   3.238  11.344 -0.2609 -0.6869 -1.4915
    2MPD1    H714125   2.960   3.229  11.371  0.7398  0.1497  2.1530
    1TMC1    C114126   4.444   2.674   1.294  0.1866 -0.6160 -0.4031
    1TMC1    C214127   4.476   2.561   1.223 -0.6008  0.5268 -0.6651
    1TMC1    C314128   4.419   2.444   1.263 -0.0062  0.4062  0.4812
    1TMC1    C414129   4.348   2.674   1.398  0.4271 -0.3726 -0.3356
    1TMC1    C514130   4.277   2.562   1.420 -0.3311  0.3697  0.1949
    1TMC1    C614131   4.317   2.447   1.356 -0.4854  0.5874  0.0847
    1TMC1     C14132   4.506   2.801   1.243 -0.2388  1.0254 -0.7147
    1TMC1     O14133   4.603   2.784   1.170 -0.3510 -0.0606 -0.2883
    1TMC1     H14134   4.552   2.561   1.145 -0.4966 -0.2628 -0.5619
    1TMC1    H114135   4.336   2.762   1.459  2.3009 -0.6405  0.4317
    1TMC1    H214136   4.264   2.353   1.367  0.4718  0.0266 -0.1183
    1TMC1    C714137   4.169   2.567   1.516  0.0681  0.4844  0.1416
    1TMC1    C814138   4.435   2.322   1.180  0.6254  0.5824 -0.3441
    1TMC1    O114139   4.116   2.675   1.551  0.0041 -0.1271 -0.7059
    1TMC1    O214140   4.359   2.225   1.202 -0.8344  0.2905 -0.3214
    1TMC1    O314141   4.123   2.442   1.547  0.4057  0.1545  0.2182
    1TMC1    H314142   4.183   2.368   1.521  2.6683  1.9649  0.2917
    1TMC1    O514143   4.563   2.302   1.149  0.2502 -0.0758  0.0150
    1TMC1    H514144   4.612   2.387   1.148  0.8641 -0.4203  0.9282
    2MPD1     C14145   4.623   3.306   1.289 -0.0827  0.8699  0.3101
    2MPD1    C114146   4.511   3.274   1.368 -0.1715 -0.1673  0.6036
    2MPD1    C214147   4.470   3.145   1.378 -0.3928  0.4414 -0.3525
    2MPD1    C314148   4.527   3.041   1.305 -0.0256 -0.4603  0.5110
    2MPD1    C414149   4.638   3.075   1.227  0.3503  0.1092 -0.6705
    2MPD1    C514150   4.681   3.204   1.222 -0.1970 -0.0751  0.7265
    2MPD1     H14151   4.384   3.126   1.441  0.6301 -0.5685  0.7597
    2MPD1    H114152   4.683   2.996   1.168  1.8996  0.5607 -0.1010
    2MPD1    H214153   4.652   3.408   1.267 -3.9531  2.1668  1.3526
    2MPD1    H314154   0.027   3.232   1.157 -0.5156  2.6523  1.5342
    2MPD1     N14155   4.467   2.913   1.315 -0.3183 -0.3898  0.2445
    2MPD1    H514156   4.381   2.900   1.367  0.6329 -1.4149  1.5869
    2MPD1    N114157   4.425   3.379   1.404  0.3933 -0.3600  0.4991
    2MPD1    H614158   4.482   3.460   1.427  0.3390 -0.3822  0.7091
    2MPD1    H714159   4.350   3.371   1.472 -0.3867  1.5448 -0.1556
    1MPD1     C14160   4.098   2.147  11.480 -0.4973 -0.0332  0.1714
    1MPD1    C114161   3.971   2.168  11.534  0.0113  0.0914 -0.1876
    1MPD1    C214162   3.961   2.207  11.674 -1.2611 -0.3820  0.0943
    1MPD1    C314163   4.079   2.235  11.746 -0.0868  0.4180  1.3272
    1MPD1    C414164   4.204   2.223  11.684  0.6206  0.2083 -0.1510
    1MPD1    C514165   4.211   2.174  11.557  0.2377  0.1766  0.2898
    1MPD1     H14166   3.866   2.230  11.722 -0.3284  0.7534  1.3650
    1MPD1    H114167   4.299   2.243  11.732  1.5187  1.9078 -2.6097
    1MPD1    H214168   4.125   2.113  11.380 -1.4053  0.6973 -0.3168
    1MPD1    H314169   4.308   2.161  11.511 -0.9461 -1.8174 -1.6461
    1MPD1     N14170   4.065   2.276  11.884  0.6277 -0.4699  1.0471
    1MPD1    H514171   3.972   2.262  11.923  0.4747  1.3599  1.3485
    1MPD1    N114172   3.853   2.127  11.467 -0.4910 -0.8259 -0.9574
    1MPD1    H614173   3.769   2.169  11.507  1.2205  1.1705  0.5130
    1MPD1    H714174   3.863   2.137  11.366 -1.0596  1.0960 -0.8361
    2MPD1     C14175   3.436   3.884  11.428  0.4548  0.3362  0.2075
    2MPD1    C114176   3.491   3.889  11.302 -0.5692  0.1042  0.6553
    2MPD1    C214177   3.617   3.836  11.278 -0.0994  0.4304  0.5003
    2MPD1    C314178   3.682   3.762  11.378 -0.4752 -0.1149 -0.3526
    2MPD1    C414179   3.621   3.747  11.502  0.3534 -0.5067  0.0015
    2MPD1    C514180   3.502   3.813  11.526  0.7423 -0.6430  0.4158
    2MPD1     H14181   3.657   3.833  11.178 -1.0958 -0.2484  0.1181
    2MPD1    H114182   3.648   3.678  11.580  1.2967 -0.6075 -0.4138
    2MPD1    H214183   3.340   3.929  11.450  0.4437  0.8083 -0.8372
    2MPD1    H314184   3.464   3.798  11.626 -1.0685  0.6828 -0.0733
    2MPD1     N14185   3.798   3.685  11.353 -0.1508 -0.3044 -0.0774
    2MPD1    H514186   3.811   3.620  11.430  0.9413 -0.8256 -0.7083
    2MPD1    N114187   3.433   3.985  11.213 -0.0800  0.0402 -0.2413
    2MPD1    H614188   3.332   3.975  11.225 -0.2198 -1.0592 -2.2405
    2MPD1    H714189   3.455   3.971  11.115  1.8177  0.7740  0.0873
    3MPD1     C14190   0.023   3.663  10.799 -0.0482 -0.2794  0.0939
    3MPD1    C114191   0.041   3.625  10.928 -0.1322  0.7709 -0.8657
    3MPD1    C214192   4.674   3.609  11.010 -0.1635  0.3217 -0.6284
    3MPD1    C314193   4.548   3.647  10.971  0.1069 -0.1762 -0.0291
    3MPD1    C414194   4.522   3.697  10.840  0.1576 -0.2040 -0.5340
    3MPD1    C514195   4.632   3.698  10.761  0.2673  0.5442 -0.0594
    3MPD1     H14196   4.700   3.567  11.106 -0.1868 -0.5371 -0.9955
    3MPD1    H114197   4.423   3.725  10.806 -0.3004 -2.0388 -0.7007
    3MPD1    H214198   0.113   3.665  10.739  0.6608  0.0910  1.1539
    3MPD1    H314199   4.628   3.715  10.654 -1.6962  0.9299  0.0739
    3MPD1     N14200   4.443   3.641  11.071  0.2727  0.0465 -0.1874
    3MPD1    H514201   4.470   3.603  11.161 -0.5138  0.8491  0.3861
    3MPD1    N114202   0.164   3.573  10.978  0.2344  0.2227  0.2137
    3MPD1    H614203   0.166   3.595  11.078 -3.4491 -2.9309  0.9675
    3MPD1    H714204   0.241   3.611  10.924 -0.7652  2.7208  0.5050
    4MPD2     C14205   3.738   2.734  12.276  1.0212  0.5069 -0.0718
    4MPD2    C114206   3.861   2.716  12.330 -0.2282 -0.4637  0.0850
    4MPD2    C214207   3.944   2.819  12.353  0.1252  0.2958 -0.1309
    4MPD2    C314208   3.911   2.944  12.303  0.0496 -0.2012 -0.0430
    4MPD2    C414209   3.788   2.962  12.248 -0.3580  0.8338  0.2500
    4MPD2    C514210   3.696   2.858  12.238 -0.4542  0.8683 -0.0486
    4MPD2     H14211   4.037   2.798  12.406  0.7977 -0.7697 -1.7424
    4MPD2    H114212   3.758   3.060  12.212 -0.8119  0.0829 -1.4261
    4MPD2    H214213   3.673   2.648  12.268  1.8077 -0.0093 -0.8144
    4MPD2    H314214   3.596   2.864  12.195 -0.6026  1.0960  0.3332
    4MPD2     N14215   4.000   3.053  12.303  0.2576 -0.3775 -0.5680
    4MPD2    H514216   3.967   3.134  12.250  3.3177  0.9234 -0.4608
    4MPD2    N114217   3.919   2.587  12.342  0.0634 -0.1682 -0.4061
    4MPD2    H714218   4.013   2.586  12.380 -0.4779  1.4130  0.9774
    5TMC3    C114219   3.971   2.379  12.269  0.5990  0.3805  0.1230
    5TMC3    C214220   3.996   2.341  12.141  0.8449 -0.3522  0.4669
    5TMC3    C314221   4.128   2.326  12.105 -0.4369  0.5146 -0.1882
    5TMC3    C414222   4.076   2.402  12.357  0.6942 -0.8623  0.0717
    5TMC3    C514223   4.206   2.393  12.314  0.1663 -0.1213 -0.2504
    5TMC3    C614224   4.230   2.359  12.182  0.0897 -0.0710  0.5966
    5TMC3     C14225   3.863   2.474  12.280  0.1059  0.3890 -0.4535
    5TMC3     O14226   3.789   2.464  12.181  0.2936 -0.3412  0.5437
    5TMC3     H14227   3.913   2.321  12.074 -2.2550  0.6668  3.9964
    5TMC3    H114228   4.050   2.409  12.462  0.4365 -1.0392  0.0208
    5TMC3    H214229   4.331   2.331  12.151 -0.3497  1.1183 -1.9083
    5TMC3    C714230   4.294   2.500  12.362  0.3047 -0.7535 -0.5489
    5TMC3    C814231   4.166   2.315  11.967  0.2735  0.0779 -0.0687
    5TMC3    O114232   4.236   2.581  12.427  0.7550 -0.1085 -0.5602
    5TMC3    O214233   4.281   2.340  11.934 -0.0586 -0.5982 -0.8200
    6TMC3    C114234   4.012   3.639  11.260  0.9463  0.2264  0.3977
    6TMC3    C214235   4.096   3.681  11.163 -0.4087 -0.1981  0.2544
    6TMC3    C314236   4.231   3.655  11.176 -0.0209  0.2619 -0.2906
    6TMC3    C414237   4.050   3.567  11.370 -0.1221  0.6676  0.5344
    6TMC3    C514238   4.178   3.525  11.372  0.2399  0.7762  0.5143
    6TMC3    C614239   4.273   3.577  11.281 -0.2373 -0.8544  0.0665
    6TMC3     C14240   3.882   3.707  11.246  0.1273  0.1212 -0.0831
    6TMC3     O14241   3.873   3.787  11.154 -0.2017 -0.0631  0.6678
    6TMC3     H14242   4.062   3.731  11.073 -0.5353 -0.4722  0.1527
    6TMC3    H114243   3.982   3.520  11.439  1.0219 -1.6214  0.1061
    6TMC3    H214244   4.380   3.564  11.293  0.0136 -0.2613 -1.4101
    6TMC3    C714245   4.222   3.467  11.496 -0.7479  0.1653 -0.5227
    6TMC3    C814246   4.310   3.681  11.056  0.5458 -0.6853  0.5506
    6TMC3    O114247   4.148   3.461  11.592  0.2394  0.2590 -0.0611
    6TMC3    O214248   4.255   3.713  10.951 -0.1025 -0.1767  0.8728
    7MPD2     C14249   4.696   2.816  12.365 -0.7349 -0.8457  0.2043
    7MPD2    C114250   4.565   2.833  12.393  0.0127  0.2374 -0.6800
    7MPD2    C214251   4.473   2.733  12.380 -0.7676 -0.5531  0.0269
    7MPD2    C314252   4.512   2.607  12.345 -0.0987 -0.0002  0.8316
    7MPD2    C414253   4.646   2.579  12.332  0.0710 -0.1271 -0.0491
    7MPD2    C514254   4.733   2.688  12.340 -0.1365  1.0177 -0.5152
    7MPD2     H14255   4.373   2.756  12.415  0.2525  2.9214  0.6470
    7MPD2    H114256   4.688   2.482  12.310 -0.2028 -0.8953  2.8157
    7MPD2    H214257   0.038   2.891  12.372  0.3974 -2.1143  1.1803
    7MPD2    H314258   0.101   2.664  12.324  0.0206  1.4252 -0.1062
    7MPD2     N14259   4.426   2.493  12.333 -0.0594 -0.4377  0.4771
    7MPD2    H514260   4.470   2.407  12.303 -1.2982  0.2678 -3.3034
    7MPD2    N114261   4.505   2.955  12.424  0.1060 -0.5851  0.7653
    7MPD2    H714262   4.405   2.956  12.443  0.1144 -1.5886  0.8679
    8TMC3    C114263   4.449   3.146  12.323  0.4096 -0.2169 -0.3309
    8TMC3    C214264   4.458   3.174  12.187 -0.7376  0.3384  0.0275
    8TMC3    C314265   4.336   3.186  12.116 -0.4446 -0.2285  0.2747
    8TMC3    C414266   4.331   3.139  12.385 -0.1640  0.4177  0.2111
    8TMC3    C514267   4.215   3.155  12.312 -0.1121 -0.3592 -0.5883
    8TMC3    C614268   4.215   3.163  12.175  1.1101 -0.0341 -0.7438
    8TMC3     C14269   4.559   3.070  12.376 -0.5671 -0.3865 -0.4310
    8TMC3     O14270   4.671   3.094  12.328 -0.0218 -0.2721  0.0995
    8TMC3     H14271   4.555   3.174  12.139 -1.2022 -0.4266 -0.9117
    8TMC3    H114272   4.331   3.124  12.493  1.9476 -0.4520  0.0933
    8TMC3    H214273   4.120   3.163  12.122  0.5253 -2.3353  0.3276
    8TMC3    C714274   4.132   3.048  12.352 -0.2150  0.7325 -0.6946
    8TMC3    C814275   4.330   3.221  11.974 -0.2447 -0.2750 -0.3926
    8TMC3    O114276   4.185   2.965  12.420  0.2484  0.3183  0.2816
    8TMC3    O214277   4.221   3.258  11.937 -0.4157 -0.5606  0.0741
    9MPD2     C14278   4.611   3.234  11.744  0.6273  0.3737  0.6381
    9MPD2    C114279   4.480   3.248  11.783 -1.1259 -0.4503  0.6740
    9MPD2    C214280   4.390   3.312  11.702 -0.9418  0.1339 -0.1558
    9MPD2    C314281   4.430   3.347  11.576 -0.3921  0.9096 -0.3494
    9MPD2    C414282   4.563   3.328  11.537  0.0306 -0.3746  0.0623
    9MPD2    C514283   4.652   3.282  11.627 -0.3038 -0.2996  0.0014
    9MPD2     H14284   4.288   3.342  11.718 -0.9567  0.1364 -0.2525
    9MPD2    H114285   4.606   3.345  11.440 -2.2723  0.9792 -0.7243
    9MPD2    H214286   4.690   3.183  11.799  1.5002 -1.8752 -2.6624
    9MPD2    H314287   0.020   3.266  11.602 -0.5515  0.0048 -1.2146
    9MPD2     N14288   4.352   3.424  11.488 -0.4592  0.1152  0.6378
    9MPD2    H514289   4.395   3.439  11.397  0.2645 -0.9899  0.8042
    9MPD2    N114290   4.451   3.221  11.912 -0.0285 -0.0022  0.1431
    9MPD2    H714291   4.521   3.179  11.972 -2.1759 -2.7406  0.7927
    1MPD1     C14292   0.187   2.440  14.737  0.4521  0.2480  0.4164
    1MPD1    C114293   0.083   2.403  14.819  1.3207  0.2612 -0.1934
    1MPD1    C214294   0.034   2.500  14.909 -0.1706  0.2046 -0.2251
    1MPD1    C314295   0.102   2.618  14.934 -0.1222 -0.5322  0.4133
    1MPD1    C414296   0.216   2.645  14.860  0.4850  0.3418 -0.0992
    1MPD1    C514297   0.251   2.558  14.760  0.6914 -0.3403 -0.5957
    1MPD1     H14298   4.690   2.457  14.968 -0.9394  1.4484 -0.3638
    1MPD1    H114299   0.276   2.735  14.877  1.7354 -0.1857 -1.7930
    1MPD1    H214300   0.222   2.389  14.648  3.7202  0.3113  1.6646
    1MPD1    H314301   0.344   2.564  14.705  1.5349  2.3439  1.0936
    1MPD1     N14302   0.062   2.709  15.040 -0.5352 -0.2561  0.4393
    1MPD1    H514303   0.081   2.809  15.035 -0.9481 -0.2643 -1.4420
    1MPD1    N114304   0.018   2.291  14.774  0.5656 -0.2356 -0.7253
    1MPD1    H614305   0.077   2.214  14.746 -0.7375 -1.1366 -1.0050
    1MPD1    H714306   4.703   2.256  14.854 -0.8649 -1.4504 -2.1912
    2TMC2    C114307   4.510   2.855  15.375 -0.1525 -0.4695  0.4747
    2TMC2    C214308   4.497   2.979  15.311 -0.1411 -0.5789 -0.2143
    2TMC2    C314309   4.567   3.000  15.194  0.7961  0.4621  0.0579
    2TMC2    C414310   4.586   2.759  15.321 -0.9180 -0.0695  0.4848
    2TMC2    C514311   4.647   2.784  15.198 -0.1119  0.3044  0.1749
    2TMC2    C614312   4.632   2.897  15.127  0.1793  0.3488  0.0068
    2TMC2     C14313   4.453   2.829  15.505  0.2129 -0.1798 -0.4846
    2TMC2     O14314   4.481   2.720  15.557  0.0794 -0.0216 -0.2451
    2TMC2     H14315   4.427   3.049  15.355  0.3140 -2.0655  2.8211
    2TMC2    H114316   4.598   2.663  15.368 -1.5840 -0.0154  0.7560
    2TMC2    H214317   4.676   2.917  15.030  1.6435  1.3367  0.8677
    2TMC2    C714318   4.699   2.672  15.131  1.0004 -0.6787 -0.4002
    2TMC2    C814319   4.529   3.123  15.131  0.0598  0.2531  0.4304
    2TMC2    O114320   4.675   2.557  15.167  0.7478  0.4448  0.1086
    2TMC2    O214321   4.484   3.226  15.185 -0.8503  0.0823 -0.4379
    2TMC2    O514322   4.513   3.089  15.000  0.0542 -0.3018  0.1262
    2TMC2    H514323   4.510   2.996  14.968 -2.5317  0.0427 -0.6958
    3MPD1     C14324   4.301   2.998  15.953 -0.1798 -0.1999 -0.5603
    3MPD1    C114325   4.324   3.110  15.877  0.2772  0.1376  0.0109
    3MPD1    C214326   4.355   3.095  15.748  0.0307  0.2028 -0.5221
    3MPD1    C314327   4.386   2.966  15.695  0.5881  0.4760  0.1299
    3MPD1    C414328   4.371   2.857  15.781 -0.1528 -0.7360  0.0331
    3MPD1    C514329   4.321   2.873  15.906  0.1705 -0.1329  0.4002
    3MPD1     H14330   4.372   3.185  15.690 -0.0753  1.7122  1.8368
    3MPD1    H114331   4.394   2.754  15.755 -0.1571 -1.2730  2.1746
    3MPD1    H214332   4.268   2.995  16.056 -0.8383 -1.7625 -0.8273
    3MPD1    H314333   4.304   2.794  15.978 -0.5730 -0.6962 -0.3900
    3MPD1     N14334   4.429   2.949  15.566  0.4731 -0.3419 -0.6124
    3MPD1    H514335   4.433   3.039  15.519 -0.5545  0.0790  0.1301
    3MPD1    N114336   4.298   3.240  15.920 -0.1770 -0.1808  0.6619
    3MPD1    H614337   4.345   3.311  15.865 -0.0609 -2.1004 -1.7131
    3MPD1    H714338   4.307   3.246  16.021 -0.8925 -1.3451  0.7935
    1TMC1    C114339   2.846   1.157  12.926 -0.5506 -0.8100 -0.2084
    1TMC1    C214340   2.768   1.096  13.019  0.5794  0.2018  0.3575
    1TMC1    C314341   2.664   1.024  12.969 -0.1905  0.4504 -0.4032
    1TMC1    C414342   2.832   1.145  12.793 -0.1021  0.0106 -0.5493
    1TMC1    C514343   2.718   1.077  12.746  0.4725  0.2343 -0.6285
    1TMC1    C614344   2.637   1.012  12.832 -0.0386  0.9884 -0.9905
    1TMC1     C14345   2.962   1.236  12.968 -0.1976  0.3171 -0.1251
    1TMC1     O14346   3.030   1.287  12.879  0.0189 -0.2652  0.3998
    1TMC1     H14347   2.774   1.106  13.127  0.6457 -0.2782  0.3961
    1TMC1    H114348   2.909   1.184  12.727 -1.3878  0.9228 -1.5216
    1TMC1    H214349   2.548   0.954  12.809 -0.1296  0.2185  1.3206
    1TMC1    C714350   2.686   1.053  12.606 -0.6148 -0.1542  0.0321
    1TMC1    C814351   2.594   0.928  13.054  0.4535  0.5195  0.7629
    1TMC1    O114352   2.590   0.978  12.573  0.1705 -0.6321  0.0185
    1TMC1    O214353   2.511   0.850  13.006 -0.3280 -0.4614  0.3176
    1TMC1    O314354   2.760   1.117  12.515 -0.4155  0.0132  0.3114
    1TMC1    H314355   2.801   1.196  12.556 -0.9236  0.8680 -0.8469
    1TMC1    O514356   2.681   0.896  13.152 -0.1904 -0.0471 -0.3182
    1TMC1    H514357   2.758   0.958  13.148  1.3959 -1.9923  0.2258
    2MPD2     C14358   3.172   1.390  13.100 -0.5245  0.3694  0.0523
    2MPD2    C114359   3.086   1.303  13.167 -0.7486  0.0256  0.4296
    2MPD2    C214360   3.107   1.276  13.302 -0.3180  0.5715  0.1237
    2MPD2    C314361   3.211   1.337  13.365  0.4417 -0.6382 -0.3221
    2MPD2    C414362   3.290   1.425  13.304  0.1528 -0.1514  0.5729
    2MPD2    C514363   3.272   1.455  13.173  1.0293  0.0285  0.2405
    2MPD2     H14364   3.050   1.207  13.362 -1.2933  0.4104 -1.0015
    2MPD2    H114365   3.380   1.460  13.354 -0.3017  1.6582  0.0958
    2MPD2    H214366   3.171   1.418  12.996  0.5208  1.7710  0.4127
    2MPD2    H314367   3.346   1.515  13.123 -1.4836  1.1406 -2.1704
    2MPD2     N14368   3.225   1.310  13.509  0.4060  0.5922 -0.9028
    2MPD2    H514369   3.161   1.241  13.547  1.7060 -0.3532 -0.4460
    2MPD2    N114370   2.984   1.233  13.106 -0.9100  0.3367  0.3903
    2MPD2    H714371   2.919   1.189  13.170  1.7085 -1.6550  1.6630
    3TCq1    O114372   3.155   1.364  14.168 -0.2055  0.1727  0.7046
    3TCq1    C114373   3.218   1.435  14.072 -0.3865 -0.4762  0.1987
    3TCq1    O214374   3.262   1.550  14.079 -0.1074  0.2464 -0.3573
    3TCq1    C214375   3.228   1.347  13.956 -0.2279 -0.6630 -0.5463
    3TCq1    C314376   3.226   1.213  13.972 -0.7190  0.3819 -0.2162
    3TCq1    C414377   3.248   1.133  13.863  0.8589 -0.4974 -0.0595
    3TCq1    C514378   3.268   1.183  13.736  0.5785  0.0926 -0.3209
    3TCq1    C614379   3.274   1.320  13.731  0.5928 -0.1619  0.1397
    3TCq1    C714380   3.237   1.400  13.831 -0.7409  0.3989 -0.5263
    3TCq1    C814381   3.289   1.383  13.605 -0.1227  0.7538  0.1767
    3TCq1    O414382   3.338   1.493  13.606 -0.3113  0.0051 -0.8032
    3TCq1    C914383   3.277   0.995  13.884  0.3437 -0.3377 -0.2357
    3TCq1    O514384   3.336   0.931  13.789 -0.6963 -0.2689 -0.2483
    3TCq1    O614385   3.261   0.952  14.004  0.2384 -0.0710 -0.1466
    3TCq1    H114386   3.127   1.271  14.151 -0.0003  0.2309  0.0312
    3TCq1    H214387   3.232   1.174  14.073  0.0682  0.3202 -0.2869
    3TCq1    H314388   3.296   1.117  13.655  0.6889 -1.2574  0.7919
    3TCq1    H414389   3.252   1.506  13.815  1.9144  0.4372  2.2191
    1MPD2     C14390   2.431   2.953  14.663  0.4888 -0.0419 -0.4389
    1MPD2    C114391   2.344   2.859  14.725  0.3862  0.3081 -0.3008
    1MPD2    C214392   2.389   2.731  14.758 -0.9357  0.1098 -0.6729
    1MPD2    C314393   2.520   2.697  14.726  0.5148 -0.3941 -0.7056
    1MPD2    C414394   2.599   2.788  14.652  0.2499 -0.1625 -0.6744
    1MPD2    C514395   2.556   2.914  14.629  0.0014  0.0152 -0.3926
    1MPD2     H14396   2.334   2.650  14.806  2.6073 -1.8912  0.0364
    1MPD2    H114397   2.699   2.766  14.615  0.0323 -0.4302 -1.1085
    1MPD2    H214398   2.400   3.054  14.636  2.0978  1.6033  3.8473
    1MPD2    H314399   2.624   2.977  14.573  2.2505  1.6295  4.1475
    1MPD2     N14400   2.566   2.573  14.776 -0.9138  0.0811 -0.2593
    1MPD2    H514401   2.497   2.512  14.820  0.1840 -1.8389 -1.2010
    1MPD2    N114402   2.214   2.901  14.751 -0.0445  0.7085 -0.1626
    1MPD2    H714403   2.189   2.990  14.708 -0.7354  1.2527  1.3510
    2TMC3    C114404   1.991   2.905  14.846 -0.7103  0.2180  0.0564
    2TMC3    C214405   1.943   2.866  14.972  0.4084 -0.9339  0.0276
    2TMC3    C314406   1.823   2.806  14.990 -0.1522  0.0101  0.2239
    2TMC3    C414407   1.908   2.905  14.737  0.2002 -0.4742 -0.0004
    2TMC3    C514408   1.788   2.841  14.754 -0.0659 -0.2618 -0.0662
    2TMC3    C614409   1.742   2.790  14.877  0.0691 -0.7966 -0.3050
    2TMC3     C14410   2.117   2.830  14.818 -0.1420  0.1300 -0.1327
    2TMC3     O14411   2.135   2.722  14.873  0.2602 -0.2069  0.3106
    2TMC3     H14412   2.013   2.877  15.054  2.1335 -0.5448 -1.5034
    2TMC3    H114413   1.961   2.913  14.643  0.2839 -0.4872  0.0453
    2TMC3    H214414   1.649   2.735  14.874 -0.2950 -0.1635 -0.7336
    2TMC3    C714415   1.703   2.806  14.640  0.0120  0.1188 -0.4315
    2TMC3    C814416   1.828   2.680  15.055  0.4312 -0.8052  0.0268
    2TMC3    O114417   1.591   2.760  14.665 -0.1668 -0.0103  0.4149
    2TMC3    O214418   1.725   2.614  15.053  0.5197  0.1767 -0.3998
    3TCq1    O114419   2.152   2.979  13.463  0.9351 -0.5072  0.2678
    3TCq1    C114420   2.127   2.890  13.567  0.5546 -0.2048 -0.4203
    3TCq1    O214421   2.098   2.773  13.548  0.8074  0.3803 -0.4245
    3TCq1    C214422   2.073   2.968  13.677 -0.9466  0.1855  0.5637
    3TCq1    C314423   2.154   3.066  13.730 -0.1178  0.1988 -0.6235
    3TCq1    C414424   2.104   3.124  13.846 -0.0834  0.1262 -0.1548
    3TCq1    C514425   1.993   3.082  13.906  0.4655 -0.1460  0.7447
    3TCq1    C614426   1.936   2.969  13.856  0.3602  1.0527  0.5168
    3TCq1    C714427   1.967   2.910  13.738  0.2312  0.3374 -0.1029
    3TCq1    C814428   1.825   2.905  13.923 -0.7913 -0.0430  0.7400
    3TCq1    O414429   1.750   2.844  13.848  0.1242  0.3551 -0.1013
    3TCq1    C914430   2.174   3.236  13.905  0.2386  0.9416 -0.8746
    3TCq1    O514431   2.135   3.267  14.018  0.5406  0.6699  0.4125
    3TCq1    O614432   2.280   3.276  13.847 -0.3509 -0.3889 -0.3485
    3TCq1    H114433   2.161   3.073  13.490 -0.4982 -0.7159  1.4566
    3TCq1    H214434   2.239   3.107  13.678  0.6127  0.6376  0.9152
    3TCq1    H314435   1.942   3.141  13.982  0.6288 -0.9939  1.5213
    3TCq1    H414436   1.918   2.820  13.705  1.2555 -0.1934 -0.1634
    4MPD2     C14437   1.621   2.789  14.131 -0.0290  0.1721  0.1133
    4MPD2    C114438   1.738   2.863  14.151 -0.2831  0.4396  0.0035
    4MPD2    C214439   1.779   2.880  14.284  0.7387  0.2487 -0.6274
    4MPD2    C314440   1.719   2.816  14.388 -0.3964 -0.3592  0.0170
    4MPD2    C414441   1.608   2.742  14.365  0.2299 -0.0674  0.0504
    4MPD2    C514442   1.565   2.724  14.241  0.6841  0.0583 -0.2655
    4MPD2     H14443   1.867   2.941  14.302  0.6822  0.2569 -0.3728
    4MPD2    H114444   1.570   2.691  14.452 -1.8589 -0.2967 -1.0057
    4MPD2    H214445   1.579   2.782  14.031 -0.9830 -1.5478  0.6485
    4MPD2    H314446   1.475   2.668  14.219  0.0080  1.7392 -1.7180
    4MPD2     N14447   1.761   2.844  14.520 -0.2306 -0.3909 -0.1212
    4MPD2    H514448   1.831   2.918  14.522 -0.7183  0.0743  0.0567
    4MPD2    N114449   1.828   2.927  14.057 -0.2274 -0.1141  0.0286
    4MPD2    H714450   1.914   2.972  14.085 -0.8232  2.1494 -1.7473
    5TMC2    C114451   2.493   2.277  14.938  0.2988  0.1347  0.8432
    5TMC2    C214452   2.559   2.275  15.062 -0.1615 -0.2960 -0.1753
    5TMC2    C314453   2.686   2.319  15.059 -0.0553 -0.2948 -0.5042
    5TMC2    C414454   2.558   2.331  14.830 -0.6788  0.0213  0.2150
    5TMC2    C514455   2.677   2.387  14.845  0.2991 -0.5371  0.3010
    5TMC2    C614456   2.755   2.368  14.948  0.4894  0.0517  0.1396
    5TMC2     C14457   2.356   2.322  14.942  0.3122  0.3757 -0.0277
    5TMC2     O14458   2.325   2.406  14.861 -0.2725 -0.3073 -0.1143
    5TMC2     H14459   2.512   2.246  15.155 -0.1000  0.4548  0.0921
    5TMC2    H114460   2.520   2.325  14.729 -0.6658 -0.1856  0.2236
    5TMC2    H214461   2.853   2.414  14.954  0.7411 -0.8038  2.7846
    5TMC2    C714462   2.688   2.510  14.769 -0.1344 -0.2289 -0.8133
    5TMC2    C814463   2.748   2.280  15.181 -0.1038  0.5911  0.1291
    5TMC2    O114464   2.801   2.551  14.736  0.4989 -0.2661 -0.2811
    5TMC2    O214465   2.688   2.245  15.282 -0.5784  0.1594 -0.4105
    5TMC2    O514466   2.882   2.286  15.159  0.1233 -0.2790  0.3686
    5TMC2    H514467   2.900   2.304  15.064  0.0509 -1.4974  0.1262
    6MPD2     C14468   1.913   2.431  15.171 -0.6323 -0.3426  0.5654
    6MPD2    C114469   2.002   2.507  15.097 -0.2096  0.4010  0.0851
    6MPD2    C214470   2.113   2.453  15.037  0.4488  0.3914 -0.0436
    6MPD2    C314471   2.150   2.326  15.073  0.1470 -0.4436 -0.7013
    6MPD2    C414472   2.065   2.252  15.158  0.4763  0.6874 -0.1489
    6MPD2    C514473   1.946   2.301  15.203  0.3536 -0.5392 -0.3816
    6MPD2     H14474   2.184   2.523  14.994 -0.1308  2.0692  1.7355
    6MPD2    H114475   2.106   2.156  15.186 -1.6932  0.2635  1.5743
    6MPD2    H214476   1.822   2.470  15.214  0.4185 -0.0552  2.5445
    6MPD2    H314477   1.889   2.239  15.271  1.1597 -2.0301 -1.0631
    6MPD2     N14478   2.279   2.273  15.045 -0.0119 -0.0769 -0.3239
    6MPD2    H514479   2.311   2.190  15.093 -0.7118  0.5484  1.2240
    6MPD2    N114480   1.957   2.633  15.057  0.1718 -0.0555  0.0069
    6MPD2    H714481   2.029   2.683  15.005  1.6059 -2.6885 -0.5570
  945NH4     N114482   2.305   1.078   8.502 -0.1100 -0.2933 -1.1300
  945NH4     H214483   2.205   1.088   8.474 -0.1185 -0.9487 -1.3387
  945NH4     H314484   2.307   1.084   8.606  1.1714  0.8181 -1.2211
  945NH4     H414485   2.363   1.155   8.465 -1.2991  0.5282 -1.2855
  945NH4     H514486   2.342   0.983   8.479 -0.9850 -0.6963 -0.8827
  946SOD     NA14487   0.874   1.441  12.037  0.4074 -0.2453 -0.0456
  947SOD     NA14488   0.769   1.373  16.517 -0.0615 -0.6381  0.2902
  948SOD     NA14489   2.437   3.690  12.812 -0.5129 -0.2933 -0.0098
  949SOD     NA14490   4.709   3.337  13.357 -0.4292  0.4333 -0.0637
  950SOD     NA14491   4.066   0.610   7.415  0.4034 -0.2003  0.2381
  951SOD     NA14492   2.732   2.327  11.710  0.1780 -0.4759 -0.0957
  952SOD     NA14493   1.397   2.825  14.736 -0.5371  0.1948  0.1534
  953SOL     OW14494   2.471   3.307   2.883  0.0385  0.2061  0.2373
  953SOL    HW114495   2.425   3.241   2.935  1.1903 -0.2723  0.6436
  953SOL    HW214496   2.452   3.276   2.795 -1.8882  0.4083  0.5841
  954SOL     OW14497   2.262   1.610   1.136  0.0584 -0.0650  0.8861
  954SOL    HW114498   2.252   1.665   1.059 -0.1141 -2.5053 -0.8516
  954SOL    HW214499   2.265   1.663   1.215  0.1628  0.8345  0.2808
  955SOL     OW14500   1.409   1.814   2.811 -0.6933  0.1334  0.0097
  955SOL    HW114501   1.458   1.760   2.873  1.8163 -0.7284 -2.7288
  955SOL    HW214502   1.468   1.830   2.738  0.5247 -2.0360  0.5363
  956SOL     OW14503   0.508   2.088  15.528 -0.2384 -0.6605  0.3626
  956SOL    HW114504   0.517   2.167  15.474 -0.6053 -0.7239  0.2138
  956SOL    HW214505   0.460   2.124  15.602 -1.5447  0.1672 -0.8888
  957SOL     OW14506   2.143   3.424   9.283 -0.2381 -0.3119  0.5668
  957SOL    HW114507   2.227   3.471   9.280 -0.2223 -0.3207  0.9106
  957SOL    HW214508   2.101   3.472   9.212  2.4024  0.0402 -0.7596
  958SOL     OW14509   3.413   4.262   1.280 -0.1305 -0.0670  0.1759
  958SOL    HW114510   3.341   4.202   1.258  1.5804 -2.5900  1.4845
  958SOL    HW214511   3.378   4.347   1.254  0.4094  0.4156  1.0352
  959SOL     OW14512   1.033   2.525   4.028  0.3349 -0.0237 -0.5607
  959SOL    HW114513   1.086   2.604   4.043 -0.9047  0.9222 -1.1618
  959SOL    HW214514   0.948   2.546   4.067  0.1438 -1.1989 -0.3430
  960SOL     OW14515   1.503   0.391   8.717  0.3598 -0.3295  0.1360
  960SOL    HW114516   1.555   0.360   8.792 -2.5142  0.7411  2.5942
  960SOL    HW214517   1.477   0.471   8.764 -0.1952 -0.8401  0.7040
  961SOL     OW14518   3.479   2.901   7.845 -0.3450  0.0736  0.2566
  961SOL    HW114519   3.552   2.871   7.790 -0.9054 -2.7388  1.0086
  961SOL    HW214520   3.419   2.827   7.834 -1.6505  1.3618 -1.0823
  962SOL     OW14521   0.172   1.093   2.132 -0.2421 -1.0599  0.0491
  962SOL    HW114522   0.200   1.164   2.074  2.1926 -3.0415 -1.2137
  962SOL    HW214523   0.161   1.148   2.209 -0.7641  0.9582 -1.4732
  963SOL     OW14524   1.694   2.245   0.331  0.0251 -0.2565  0.1803
  963SOL    HW114525   1.737   2.311   0.276  0.0529 -0.3595  0.0792
  963SOL    HW214526   1.627   2.211   0.272 -1.9857  2.1253  1.1130
  964SOL     OW14527   2.517   4.420   2.092 -0.0382 -0.7385  0.1849
  964SOL    HW114528   2.568   4.352   2.135  0.0031 -0.2438  0.9085
  964SOL    HW214529   2.526   4.484   2.162 -0.0509  1.3360 -1.6984
  965SOL     OW14530   2.057   0.363   1.967  0.1573  0.2773  0.0312
  965SOL    HW114531   2.120   0.379   2.037 -0.5497 -0.2537  0.7862
  965SOL    HW214532   1.975   0.350   2.014  0.0636 -1.3891 -0.5599
  966SOL     OW14533   0.075   0.173  17.347 -0.0516  0.2626 -0.7150
  966SOL    HW114534   0.139   0.241  17.363 -1.3621  1.3802 -0.2412
  966SOL    HW214535   0.126   0.099  17.314  0.0200 -0.6648  1.4551
  967SOL     OW14536   1.709   2.260   9.767  0.5630 -0.0881 -0.1206
  967SOL    HW114537   1.725   2.344   9.810 -0.7808  0.4251 -0.6374
  967SOL    HW214538   1.795   2.235   9.733  1.0924  0.4271  0.8439
  968SOL     OW14539   1.315   4.448   1.255 -0.2109 -0.1318 -0.0002
  968SOL    HW114540   1.298   4.539   1.231  0.6761  0.1010  0.2333
  968SOL    HW214541   1.410   4.444   1.246 -0.0227 -1.2665  2.2365
  969SOL     OW14542   3.987   4.326   8.037  0.1324  0.0036 -0.8179
  969SOL    HW114543   4.059   4.272   8.068  0.0336  0.4970  0.2467
  969SOL    HW214544   4.036   4.391   7.987  1.8078 -0.1728  0.6406
  970SOL     OW14545   3.416   0.373   4.487 -0.1172 -0.6820 -0.0494
  970SOL    HW114546   3.453   0.290   4.457 -1.4690 -0.5286 -2.1766
  970SOL    HW214547   3.477   0.436   4.450 -0.0653  0.0449  1.2971
  971SOL     OW14548   2.670   0.186   7.302 -0.7383  0.4808  0.0470
  971SOL    HW114549   2.643   0.276   7.286  1.3007  0.8692 -1.2613
  971SOL    HW214550   2.663   0.170   7.396 -1.3014 -0.5751 -0.1809
  972SOL     OW14551   1.184   2.423   3.596  0.0641 -0.3130  0.6803
  972SOL    HW114552   1.218   2.385   3.677 -0.4928  1.0957  1.5910
  972SOL    HW214553   1.129   2.496   3.625  0.7164  0.9363 -1.2373
  973SOL     OW14554   0.912   3.129   4.393 -0.5340 -0.1244 -0.1861
  973SOL    HW114555   0.819   3.134   4.370 -0.1310 -2.1525 -2.2612
  973SOL    HW214556   0.940   3.220   4.381  1.2121 -1.0338 -2.9607
  974SOL     OW14557   1.847   1.619   5.682  0.1412  0.0353  0.1884
  974SOL    HW114558   1.787   1.557   5.640 -1.1091  1.1669  0.2915
  974SOL    HW214559   1.787   1.671   5.735 -1.9962 -0.3733 -1.7880
  975SOL     OW14560   0.926   4.010   6.461 -0.2688  0.1646 -0.6038
  975SOL    HW114561   0.853   3.960   6.427  1.4653 -2.1954 -0.8609
  975SOL    HW214562   0.916   4.021   6.556  1.1479 -1.8269 -0.2133
  976SOL     OW14563   1.163   4.280   5.183 -0.1608 -0.1345 -0.0086
  976SOL    HW114564   1.255   4.309   5.185 -0.1259 -0.2634  0.1899
  976SOL    HW214565   1.165   4.224   5.105  0.2629 -2.4113  1.6417
  977SOL     OW14566   0.302   3.492   6.685 -0.6176 -0.3268  0.2741
  977SOL    HW114567   0.259   3.572   6.716 -0.6569 -0.1848 -0.1444
  977SOL    HW214568   0.312   3.443   6.767  1.6021  0.1672  0.3145
  978SOL     OW14569   1.547   2.904   5.069  1.0278 -0.0647 -0.5767
  978SOL    HW114570   1.509   2.913   5.157  2.2368  3.9681 -0.5046
  978SOL    HW214571   1.469   2.901   5.012  2.2624 -0.2989 -2.2407
  979SOL     OW14572   1.810   0.087   3.818 -0.0252 -0.0301 -0.2126
  979SOL    HW114573   1.890   0.035   3.817  0.2293  0.3498  0.4408
  979SOL    HW214574   1.755   0.046   3.885  0.6687  0.2905  0.5489
  980SOL     OW14575   4.096   3.472   4.759  0.0362 -0.1103 -0.1270
  980SOL    HW114576   4.153   3.405   4.721 -1.1845 -1.7183  0.8651
  980SOL    HW214577   4.150   3.482   4.838  2.1317 -2.6969 -1.2476
  981SOL     OW14578   0.128   1.494  14.715 -0.0864  0.1309  0.1644
  981SOL    HW114579   0.143   1.483  14.809 -0.4255 -1.3480  0.0326
  981SOL    HW214580   0.104   1.406  14.686  1.4175 -0.0789 -0.4399
  982SOL     OW14581   3.618   0.104   4.688  0.3438 -0.0730  0.0527
  982SOL    HW114582   3.700   0.144   4.657 -0.2997  2.4936  1.6805
  982SOL    HW214583   3.585   0.076   4.603  2.1137 -0.8988 -0.3765
  983SOL     OW14584   2.014   1.001   6.039 -0.3384 -0.4280  0.1002
  983SOL    HW114585   1.965   0.919   6.031 -1.5194  0.2671  0.1262
  983SOL    HW214586   2.028   1.021   5.947 -1.5181 -1.1574 -0.2445
  984SOL     OW14587   4.651   4.032   4.764 -0.3578  0.5536  0.4068
  984SOL    HW114588   4.677   3.947   4.801  0.0421  0.5230  0.0472
  984SOL    HW214589   4.616   3.999   4.681  1.2416  0.1549 -0.1067
  985SOL     OW14590   1.354   4.166   1.248 -0.1007  0.3243 -0.1549
  985SOL    HW114591   1.331   4.259   1.238 -1.6277 -0.3041 -2.2784
  985SOL    HW214592   1.288   4.136   1.311 -0.3636  0.6258 -0.2881
  986SOL     OW14593   0.099   0.850  14.801 -0.3741 -0.7737 -0.4014
  986SOL    HW114594   0.104   0.797  14.721 -0.5764  1.3100 -1.7943
  986SOL    HW214595   0.088   0.936  14.760 -0.2267 -0.9386 -0.7918
  987SOL     OW14596   3.758   1.951   9.629  0.1015 -0.5732  0.5849
  987SOL    HW114597   3.663   1.942   9.617  0.2251 -1.1224 -0.0018
  987SOL    HW214598   3.771   2.027   9.572 -0.3791 -0.7006  0.3001
  988SOL     OW14599   2.353   3.391  13.631 -0.0464 -0.4779  0.0426
  988SOL    HW114600   2.319   3.332  13.698 -1.6574  1.3510  0.8266
  988SOL    HW214601   2.331   3.476  13.668 -0.8943  0.8867 -3.6132
  989SOL     OW14602   3.930   2.753  14.392 -0.6418  0.3315 -0.2646
  989SOL    HW114603   3.913   2.847  14.385 -2.8055 -0.0507 -0.2124
  989SOL    HW214604   3.862   2.729  14.455  0.3506  0.4845  0.8691
  990SOL     OW14605   4.679   1.319   6.228 -0.5224  0.3582 -0.6147
  990SOL    HW114606   4.611   1.324   6.295 -0.0164 -1.7514  0.0661
  990SOL    HW214607   4.625   1.346   6.154 -1.2711  4.6644  1.4915
  991SOL     OW14608   3.088   0.046   4.266  0.6208  0.4630  0.0911
  991SOL    HW114609   3.165   0.100   4.243  0.1834  0.5966 -1.0493
  991SOL    HW214610   3.081   4.708   4.206 -1.0164 -0.1405  1.0463
  992SOL     OW14611   0.244   3.689  11.235 -0.3479 -0.1705  0.4366
  992SOL    HW114612   0.273   3.741  11.310 -1.5967  0.2546  0.6265
  992SOL    HW214613   0.229   3.764  11.178 -2.7968 -0.4674  0.6983
  993SOL     OW14614   2.745   2.788   7.733 -0.2892  0.2252 -0.1488
  993SOL    HW114615   2.674   2.780   7.797 -1.3451  4.4014 -0.7460
  993SOL    HW214616   2.820   2.782   7.791 -0.8726 -0.0821  0.5688
  994SOL     OW14617   4.653   4.326   5.452 -0.9461 -0.1769 -0.0034
  994SOL    HW114618   4.638   4.310   5.545 -2.7511 -0.7577 -0.3985
  994SOL    HW214619   4.703   4.407   5.454  0.1314 -0.7793 -1.6784
  995SOL     OW14620   4.193   3.514  12.580 -0.2784 -0.2814 -0.0295
  995SOL    HW114621   4.252   3.532  12.653  0.3156 -3.0201  0.1998
  995SOL    HW214622   4.138   3.444  12.615 -0.7521  1.1016  1.9830
  996SOL     OW14623   1.604   2.425  13.093 -0.4117 -1.0288 -0.6620
  996SOL    HW114624   1.683   2.425  13.039 -0.0576  0.8602 -0.1528
  996SOL    HW214625   1.646   2.430  13.178 -3.4004  1.3279  0.6789
  997SOL     OW14626   2.317   1.320  10.485  0.1891 -0.2662  0.8530
  997SOL    HW114627   2.231   1.299  10.447  0.1577  0.5369  0.4792
  997SOL    HW214628   2.351   1.230  10.482  0.1837 -0.3180  2.4300
  998SOL     OW14629   0.041   1.355   7.140 -0.6401  0.8554  0.1424
  998SOL    HW114630   4.724   1.299   7.196  2.5811 -1.2232  1.1985
  998SOL    HW214631   0.073   1.294   7.073 -0.3360 -2.3204  3.1658
  999SOL     OW14632   1.705   3.108  12.285 -0.1676  0.0207 -0.0191
  999SOL    HW114633   1.663   3.032  12.326  0.6886 -1.0781 -1.1978
  999SOL    HW214634   1.798   3.086  12.280 -0.4156 -1.6397  2.3746
 1000SOL     OW14635   4.466   2.459   5.014  0.2333  0.1659  0.1843
 1000SOL    HW114636   4.431   2.417   4.935  0.5604 -1.0189  0.6643
 1000SOL    HW214637   4.488   2.540   4.969  1.0938 -0.3455 -0.3077
 1001SOL     OW14638   1.129   0.176   9.016  0.0615  0.3435  0.6251
 1001SOL    HW114639   1.163   0.265   9.006 -0.3172  0.1484 -2.4511
 1001SOL    HW214640   1.067   0.180   9.088  0.3244 -0.0773  0.8741
 1002SOL     OW14641   0.396   3.801   7.039 -0.3377 -0.2913 -0.1583
 1002SOL    HW114642   0.455   3.815   6.965  1.6713 -0.0136  1.5004
 1002SOL    HW214643   0.419   3.712   7.067  2.3812  0.8414  1.1460
 1003SOL     OW14644   3.357   2.830  10.712 -0.2406  0.0590  0.2696
 1003SOL    HW114645   3.404   2.777  10.777  0.4410  2.4158  1.6885
 1003SOL    HW214646   3.427   2.895  10.710  0.4244 -0.5905  2.0616
 1004SOL     OW14647   4.452   2.322  15.443 -0.1432 -0.1111 -0.0126
 1004SOL    HW114648   4.376   2.370  15.410  0.0648  0.8825  0.9704
 1004SOL    HW214649   4.406   2.241  15.466 -0.7686  0.0258 -0.7788
 1005SOL     OW14650   1.346   3.416   1.141  0.1791  0.1354  0.2044
 1005SOL    HW114651   1.375   3.432   1.051 -1.3004 -1.1820 -0.5005
 1005SOL    HW214652   1.269   3.473   1.144 -0.7376 -1.0860 -0.1708
 1006SOL     OW14653   3.990   0.316   7.923  0.1503 -0.6197  0.2878
 1006SOL    HW114654   3.911   0.263   7.909  0.1117 -0.2191 -0.9677
 1006SOL    HW214655   4.058   0.258   7.891  0.4499 -0.0466 -0.1167
 1007SOL     OW14656   2.510   3.585   5.654 -0.4027 -0.1698 -0.1313
 1007SOL    HW114657   2.503   3.602   5.560  1.7722 -0.0484 -0.2664
 1007SOL    HW214658   2.542   3.495   5.666 -0.1238 -0.1014 -0.3555
 1008SOL     OW14659   4.485   1.850   3.011 -0.1703 -0.5141  0.7012
 1008SOL    HW114660   4.548   1.818   2.946  0.5280 -0.2372  1.2323
 1008SOL    HW214661   4.408   1.878   2.963 -0.5073 -2.2636  0.2146
 1009SOL     OW14662   3.277   2.350   2.278  0.3186 -0.1294 -0.0714
 1009SOL    HW114663   3.273   2.329   2.185 -0.3525  1.9393 -0.4858
 1009SOL    HW214664   3.256   2.443   2.285 -3.2907 -0.8781 -0.9161
 1010SOL     OW14665   2.167   0.681   3.880  0.2622  0.0646  0.2368
 1010SOL    HW114666   2.087   0.680   3.829  0.8787  1.0129 -0.7485
 1010SOL    HW214667   2.184   0.776   3.881  2.2923 -0.2865  0.7306
 1011SOL     OW14668   0.704   4.412   0.091  0.6794  0.8596  0.1799
 1011SOL    HW114669   0.790   4.383   0.121  0.0363  0.8237  2.0292
 1011SOL    HW214670   0.715   4.470   0.016  0.0057  2.6234  1.4241
 1012SOL     OW14671   3.491   1.273   9.129  0.4176 -0.2716 -0.6053
 1012SOL    HW114672   3.487   1.234   9.042 -0.9181 -0.9535 -0.2486
 1012SOL    HW214673   3.571   1.235   9.166 -0.7637 -2.0805  0.0936
 1013SOL     OW14674   2.738   2.026  14.729  0.5203 -0.3605  0.5038
 1013SOL    HW114675   2.710   2.090  14.663  3.2230  0.2860 -0.0141
 1013SOL    HW214676   2.708   1.951  14.678  1.1764 -0.8471  0.8322
 1014SOL     OW14677   1.170   1.167  10.852  0.2010  0.0077  0.0266
 1014SOL    HW114678   1.214   1.213  10.781 -1.0248  0.8276 -0.2032
 1014SOL    HW214679   1.081   1.199  10.833  0.9103  0.0496 -3.2914
 1015SOL     OW14680   1.045   1.602  10.718  0.1531 -0.0264 -0.8586
 1015SOL    HW114681   1.071   1.533  10.779 -1.5105  0.4328  0.3639
 1015SOL    HW214682   1.119   1.598  10.658  0.7450  1.2517 -0.1999
 1016SOL     OW14683   0.456   4.197  16.880 -0.3893 -0.0373  0.3805
 1016SOL    HW114684   0.365   4.205  16.849 -0.0891 -1.4351 -0.8143
 1016SOL    HW214685   0.505   4.258  16.825  0.8198 -1.4593 -0.0855
 1017SOL     OW14686   4.358   4.466   7.239  0.0470  0.2366 -0.5118
 1017SOL    HW114687   4.347   4.480   7.333  0.2187 -1.7978 -0.1845
 1017SOL    HW214688   4.449   4.439   7.228 -1.5416 -4.3877 -2.2298
 1018SOL     OW14689   4.570   2.277  11.844 -0.1978 -0.4286 -0.2310
 1018SOL    HW114690   4.475   2.278  11.852 -0.2885 -0.1150 -1.2689
 1018SOL    HW214691   4.590   2.352  11.900 -2.1939  0.8514 -1.2339
 1019SOL     OW14692   3.295   1.824  11.009  0.3122  0.3232 -0.4098
 1019SOL    HW114693   3.262   1.911  11.029 -0.2379  0.4186 -1.7244
 1019SOL    HW214694   3.284   1.776  11.091 -0.0162 -0.1790 -0.7485
 1020SOL     OW14695   0.078   0.001  12.906  0.1980 -0.0873 -0.0962
 1020SOL    HW114696   0.102   4.680  12.834  0.0023 -1.4680  0.9181
 1020SOL    HW214697   0.130   4.698  12.976 -0.2676  0.2607  0.4511
 1021SOL     OW14698   1.048   3.107   4.098  0.1784 -0.2916 -0.1003
 1021SOL    HW114699   1.129   3.157   4.091  0.9672 -1.8129 -1.7962
 1021SOL    HW214700   1.048   3.089   4.192  0.2685 -0.4768 -0.1355
 1022SOL     OW14701   3.570   0.799  16.340 -0.1417  0.5267  0.3635
 1022SOL    HW114702   3.610   0.761  16.418 -0.3792 -1.8616 -0.6603
 1022SOL    HW214703   3.600   0.735  16.275 -0.1822 -0.2941  1.1575
 1023SOL     OW14704   4.522   0.963   5.458  0.4716  0.2414  0.5718
 1023SOL    HW114705   4.447   0.905   5.464  0.8213  0.2716  5.0273
 1023SOL    HW214706   4.490   1.046   5.492 -0.3460  1.2931 -2.7506
 1024SOL     OW14707   1.185   0.077   2.057  0.1662  0.1588  0.0152
 1024SOL    HW114708   1.162   0.068   2.149  0.6572 -1.2330 -0.0029
 1024SOL    HW214709   1.175   4.722   2.032 -0.6492  0.1229  0.4695
 1025SOL     OW14710   3.863   1.237   5.753  0.4614 -0.6578  0.1227
 1025SOL    HW114711   3.868   1.271   5.664  0.9905 -1.4211 -0.1370
 1025SOL    HW214712   3.951   1.245   5.789  0.4830  1.4733 -0.4107
 1026SOL     OW14713   4.350   2.577   1.798 -0.5638  0.8631  0.5799
 1026SOL    HW114714   4.394   2.605   1.718 -1.2614 -2.9442 -1.1425
 1026SOL    HW214715   4.260   2.611   1.799 -0.5938  0.9427 -3.0979
 1027SOL     OW14716   3.892   2.487  16.782  0.1045  0.1129  0.2209
 1027SOL    HW114717   3.897   2.522  16.871 -1.5192 -1.6892  1.0418
 1027SOL    HW214718   3.796   2.486  16.776  0.1577  0.4943 -0.7390
 1028SOL     OW14719   4.452   1.077   4.662  0.0691 -0.0810  0.2860
 1028SOL    HW114720   4.476   1.137   4.733  0.0001 -1.0476  1.1195
 1028SOL    HW214721   4.359   1.099   4.653 -0.1803 -0.8141  1.1595
 1029SOL     OW14722   2.856   2.824   2.496 -0.4307  0.5362  0.2330
 1029SOL    HW114723   2.910   2.903   2.487 -0.4589  0.4679 -0.4644
 1029SOL    HW214724   2.891   2.799   2.582  2.1456  1.6580 -0.5087
 1030SOL     OW14725   0.624   0.030   3.898 -0.2692 -0.6058  0.2912
 1030SOL    HW114726   0.628   4.730   3.986  0.2048 -1.2250  0.0090
 1030SOL    HW214727   0.694   0.095   3.910 -0.8350  0.0110  0.2409
 1031SOL     OW14728   0.246   1.728   6.991  0.3649  0.2629  0.0527
 1031SOL    HW114729   0.252   1.655   7.052  2.3620 -1.0317 -1.6859
 1031SOL    HW214730   0.219   1.683   6.911 -0.1239  0.4396  0.1181
 1032SOL     OW14731   0.876   1.242   8.738 -0.0735 -0.3818  0.6543
 1032SOL    HW114732   0.922   1.324   8.719  2.3740 -1.4113  2.0660
 1032SOL    HW214733   0.946   1.180   8.716  1.0002  0.1961  2.4394
 1033SOL     OW14734   1.158   3.948   5.284 -0.0485 -0.1450  0.3431
 1033SOL    HW114735   1.120   3.960   5.371 -2.4584 -1.4141 -0.5180
 1033SOL    HW214736   1.083   3.969   5.227 -0.3282 -0.6243  0.5355
 1034SOL     OW14737   4.364   2.931   6.567  0.4847  0.4436 -0.3511
 1034SOL    HW114738   4.381   3.020   6.536 -1.6619  0.9602 -0.0697
 1034SOL    HW214739   4.370   2.892   6.481 -1.5737  1.5623 -1.0084
 1035SOL     OW14740   0.830   4.550   6.364  0.9217 -0.1008 -0.2199
 1035SOL    HW114741   0.860   4.511   6.446 -2.4968  1.9160  2.0257
 1035SOL    HW214742   0.823   4.469   6.314  2.0802 -0.5859  0.4128
 1036SOL     OW14743   2.317   2.200   5.385  0.4750 -0.6704 -0.0730
 1036SOL    HW114744   2.385   2.151   5.432  1.1030 -0.9237 -1.2510
 1036SOL    HW214745   2.376   2.236   5.318  1.5726 -0.4164  1.0197
 1037SOL     OW14746   1.240   0.521   5.698 -0.1656  0.5991 -0.1809
 1037SOL    HW114747   1.237   0.565   5.613  1.4400 -0.0973 -0.5964
 1037SOL    HW214748   1.280   0.437   5.676  1.6162  1.1358  1.0871
 1038SOL     OW14749   2.255   4.643  15.394 -0.0757  0.0465 -0.2749
 1038SOL    HW114750   2.289   4.575  15.452  1.0261 -0.2548 -1.2747
 1038SOL    HW214751   2.302   4.723  15.416 -0.3413 -0.0866  0.7901
 1039SOL     OW14752   3.526   2.662   5.602  0.4313 -0.3166  0.1403
 1039SOL    HW114753   3.575   2.599   5.655  1.5998 -1.1909 -1.9906
 1039SOL    HW214754   3.467   2.699   5.668  2.2536  2.5215  0.1310
 1040SOL     OW14755   4.160   4.452   8.469  0.2131 -0.3916 -0.1316
 1040SOL    HW114756   4.082   4.508   8.470  1.7832  1.7428  3.5436
 1040SOL    HW214757   4.131   4.376   8.521  2.0301 -0.6569  0.4954
 1041SOL     OW14758   0.717   4.303   9.685 -0.2415  0.4553  0.8818
 1041SOL    HW114759   0.813   4.306   9.689 -0.0112 -4.2226 -0.8837
 1041SOL    HW214760   0.691   4.224   9.733  2.5997 -0.3300  1.1163
 1042SOL     OW14761   4.158   2.097   3.647  0.3907  0.5707  0.0982
 1042SOL    HW114762   4.100   2.156   3.696  1.2078  1.3641  0.1070
 1042SOL    HW214763   4.145   2.135   3.560 -1.8727 -0.9281 -0.2302
 1043SOL     OW14764   2.640   1.707  11.650  0.1465  0.5966  0.1271
 1043SOL    HW114765   2.587   1.726  11.573 -0.6085 -1.6887  0.0666
 1043SOL    HW214766   2.616   1.785  11.700  0.4233 -0.1801  1.4814
 1044SOL     OW14767   1.891   0.111   3.313  0.0942  0.1030 -0.5377
 1044SOL    HW114768   1.850   0.086   3.230  1.4987 -3.1209 -0.2528
 1044SOL    HW214769   1.875   0.205   3.310 -0.8402 -0.0743 -1.2424
 1045SOL     OW14770   3.908   2.123   9.122 -0.1592  0.3348 -0.0659
 1045SOL    HW114771   3.924   2.203   9.073 -1.3507  1.7165  1.7733
 1045SOL    HW214772   3.993   2.084   9.103  1.1194  1.3886  3.4760
 1046SOL     OW14773   0.838   2.334  11.395 -0.3424 -0.2741 -0.0028
 1046SOL    HW114774   0.769   2.269  11.411 -0.9149  0.7447  1.7062
 1046SOL    HW214775   0.798   2.405  11.445 -1.8618 -1.1680  0.0515
 1047SOL     OW14776   1.176   4.125  10.988 -0.2088 -0.0506 -0.0536
 1047SOL    HW114777   1.244   4.117  10.921 -0.3161  1.5922 -0.3628
 1047SOL    HW214778   1.144   4.037  11.010  1.3909 -0.4679  0.6315
 1048SOL     OW14779   4.684   3.202  17.219  0.1650  0.6191 -0.0475
 1048SOL    HW114780   0.021   3.251  17.254  0.3172  0.6017 -0.3431
 1048SOL    HW214781   4.633   3.198  17.300 -0.0969 -0.7675 -0.2789
 1049SOL     OW14782   4.638   3.653  11.320  0.1536  0.1789 -0.2318
 1049SOL    HW114783   4.625   3.665  11.414  0.0472 -2.8222  0.1250
 1049SOL    HW214784   4.650   3.744  11.292  1.0309 -0.3534 -1.6068
 1050SOL     OW14785   4.569   2.191   4.027  0.3026 -0.1259  0.0122
 1050SOL    HW114786   4.480   2.192   4.063  1.0445 -1.1235  1.8250
 1050SOL    HW214787   4.606   2.277   4.046  1.8179 -0.7708 -0.0791
 1051SOL     OW14788   3.207   2.829   5.981  0.2999  0.0333 -0.0433
 1051SOL    HW114789   3.178   2.917   6.008 -0.8258 -0.4625  0.3817
 1051SOL    HW214790   3.168   2.824   5.893  0.5942 -1.9618 -0.0533
 1052SOL     OW14791   0.809   1.654   7.586  0.1734 -0.2572 -0.5780
 1052SOL    HW114792   0.862   1.719   7.540 -1.8105  1.1907 -0.8362
 1052SOL    HW214793   0.879   1.589   7.591  1.2660  1.0614  1.2965
 1053SOL     OW14794   0.083   1.909  14.630  0.6897  0.2678  0.6122
 1053SOL    HW114795   0.101   1.859  14.550 -2.5208  1.8155 -1.1043
 1053SOL    HW214796   4.725   1.920  14.616  0.6105  1.2659  1.9105
 1054SOL     OW14797   3.446   2.228   9.927  0.0410  0.5312 -0.1173
 1054SOL    HW114798   3.409   2.313   9.902  0.0850  0.7003  0.3983
 1054SOL    HW214799   3.527   2.224   9.876  0.7323 -2.8440  1.2406
 1055SOL     OW14800   1.334   1.869   5.962 -0.4421 -0.2604 -0.6268
 1055SOL    HW114801   1.350   1.962   5.944  0.2310 -0.4725 -1.1514
 1055SOL    HW214802   1.275   1.844   5.891  0.0893 -0.6996 -0.9170
 1056SOL     OW14803   0.323   3.428   2.987  0.0390  0.2506  0.1392
 1056SOL    HW114804   0.409   3.387   2.981 -0.1555  0.4309 -4.1564
 1056SOL    HW214805   0.261   3.357   2.974 -2.5049  2.8994 -2.3879
 1057SOL     OW14806   3.645   4.541   1.537 -0.5254 -0.0746  0.1448
 1057SOL    HW114807   3.678   4.631   1.542  0.8084 -0.5079 -0.7686
 1057SOL    HW214808   3.661   4.516   1.628  1.2226 -3.1890 -1.0376
 1058SOL     OW14809   0.717   0.592   3.716 -0.1311 -0.6145  0.3920
 1058SOL    HW114810   0.746   0.521   3.774  0.7251  0.4200  1.2351
 1058SOL    HW214811   0.672   0.649   3.779  0.0802 -1.5711  1.4003
 1059SOL     OW14812   2.152   4.595  10.729  0.1942  0.3346  0.0947
 1059SOL    HW114813   2.212   4.524  10.749 -1.0516 -1.1021 -1.2751
 1059SOL    HW214814   2.178   4.664  10.791 -1.6103  1.9899 -0.9630
 1060SOL     OW14815   2.725   1.210   5.548  0.3253 -0.0163  0.3653
 1060SOL    HW114816   2.672   1.268   5.604 -1.2038  0.0615 -1.1745
 1060SOL    HW214817   2.748   1.154   5.622  0.1420 -1.2260 -0.4926
 1061SOL     OW14818   3.360   4.606  14.293 -0.0854 -0.0659 -0.0267
 1061SOL    HW114819   3.420   4.561  14.352 -1.1509 -1.7603 -0.2406
 1061SOL    HW214820   3.397   4.691  14.269  0.1825  0.2130  1.3702
 1062SOL     OW14821   2.674   2.374   3.603  0.1755 -0.1319 -0.2675
 1062SOL    HW114822   2.744   2.434   3.631  1.3207 -0.7207 -1.8735
 1062SOL    HW214823   2.630   2.340   3.681  0.6644  0.9240  0.4713
 1063SOL     OW14824   0.556   2.464   0.604 -0.5802 -0.7583 -0.0131
 1063SOL    HW114825   0.506   2.445   0.684 -0.3890 -0.0585  0.2666
 1063SOL    HW214826   0.647   2.465   0.633 -0.6614  1.6983  0.0837
 1064SOL     OW14827   2.004   4.391   0.591  0.0351  0.1530  0.1699
 1064SOL    HW114828   2.036   4.479   0.570 -0.3117  0.4629  0.9428
 1064SOL    HW214829   2.077   4.353   0.542  0.1144  0.2639  0.2023
 1065SOL     OW14830   2.848   0.875   2.184 -0.0551  0.8183 -0.1105
 1065SOL    HW114831   2.754   0.874   2.164 -0.3949 -0.1003  1.5511
 1065SOL    HW214832   2.874   0.784   2.173  2.0641  1.5679 -1.1826
 1066SOL     OW14833   1.155   1.670   6.077 -0.3111 -0.3847 -0.2020
 1066SOL    HW114834   1.220   1.732   6.044  0.4157 -1.5451 -0.9835
 1066SOL    HW214835   1.215   1.608   6.118 -0.4996 -2.7373 -3.4175
 1067SOL     OW14836   3.532   2.064   6.017 -0.2212  0.1843 -0.3654
 1067SOL    HW114837   3.594   2.135   6.029 -1.8778  1.6008 -0.1932
 1067SOL    HW214838   3.554   2.025   5.932 -0.1198  0.8397 -0.6339
 1068SOL     OW14839   3.771   2.500  14.602 -0.5605 -0.7481 -0.6568
 1068SOL    HW114840   3.851   2.467  14.644 -1.1072  0.2053  1.1121
 1068SOL    HW214841   3.775   2.592  14.627  2.6851 -0.8974 -0.6034
 1069SOL     OW14842   3.597   1.709   8.249  0.6839  0.4596  0.0975
 1069SOL    HW114843   3.632   1.675   8.332  2.3577  3.3836  0.6010
 1069SOL    HW214844   3.556   1.785   8.291  1.0809 -0.2378  1.7587
 1070SOL     OW14845   2.680   1.698   2.823  0.1638  0.3100  0.4888
 1070SOL    HW114846   2.707   1.612   2.856  0.8900  0.0613 -0.7687
 1070SOL    HW214847   2.698   1.754   2.899 -0.3168  1.1793 -0.0375
 1071SOL     OW14848   3.068   1.149   9.632  0.4542  0.2283  0.2994
 1071SOL    HW114849   3.037   1.084   9.695  1.9223 -2.3195 -1.6103
 1071SOL    HW214850   3.148   1.101   9.613  1.0250  1.0326  0.7199
 1072SOL     OW14851   0.167   1.507   7.888  0.1603  0.1532 -0.0497
 1072SOL    HW114852   0.178   1.443   7.959  0.5883  0.5273  0.2267
 1072SOL    HW214853   0.234   1.482   7.825 -0.4429 -2.1529  0.2273
 1073SOL     OW14854   3.727   2.662  15.207 -0.5375  0.2180  0.4216
 1073SOL    HW114855   3.672   2.583  15.203 -0.0698 -0.0741 -0.2175
 1073SOL    HW214856   3.702   2.697  15.121  0.6067 -0.4042 -0.1560
 1074SOL     OW14857   0.396   4.049   2.189 -0.6890  0.1992  0.2781
 1074SOL    HW114858   0.304   4.073   2.177 -0.3474  1.4716  0.1997
 1074SOL    HW214859   0.417   3.990   2.117 -0.9858  0.3421  0.0743
 1075SOL     OW14860   1.347   1.958   3.215  0.1731 -0.2461 -0.0972
 1075SOL    HW114861   1.359   2.007   3.297 -0.4228 -0.1203 -0.0775
 1075SOL    HW214862   1.342   1.868   3.245  0.1032 -0.2982 -0.2662
 1076SOL     OW14863   1.635   1.295  17.025 -0.1920  0.2506  0.2752
 1076SOL    HW114864   1.560   1.295  17.085 -2.1816 -0.0920 -2.2470
 1076SOL    HW214865   1.653   1.389  17.036  2.3909 -0.2377  0.2554
 1077SOL     OW14866   0.066   3.544   5.999 -0.1297  0.2104 -0.5280
 1077SOL    HW114867   0.107   3.625   6.032  1.2236 -0.7870  0.2210
 1077SOL    HW214868   0.097   3.479   6.062  1.0456  0.8446 -0.4532
 1078SOL     OW14869   2.835   4.066   4.335 -0.0749 -0.4547 -0.3998
 1078SOL    HW114870   2.897   4.132   4.365 -0.7105 -0.9275  1.9729
 1078SOL    HW214871   2.855   4.062   4.241 -0.1783 -1.7054 -0.3638
 1079SOL     OW14872   3.524   4.201   4.505  0.0439 -0.4738 -0.2388
 1079SOL    HW114873   3.566   4.230   4.424  0.7841  1.4223  0.8145
 1079SOL    HW214874   3.562   4.114   4.516 -0.2717 -0.8147 -1.8915
 1080SOL     OW14875   0.940   2.838   4.279  0.9102  0.7278 -1.2267
 1080SOL    HW114876   0.860   2.787   4.265  0.6098  1.2236 -1.2806
 1080SOL    HW214877   0.904   2.926   4.289  0.5546  0.4150  0.2493
 1081SOL     OW14878   0.904   4.188   9.271  0.4388  0.1685  0.1232
 1081SOL    HW114879   0.911   4.184   9.175 -0.0225 -2.9651  0.2127
 1081SOL    HW214880   0.830   4.248   9.282 -0.5945 -1.2637  0.8902
 1082SOL     OW14881   2.541   4.715  15.688 -0.0464 -0.6639  0.2810
 1082SOL    HW114882   2.570   0.065  15.717 -1.2940 -0.5086  1.0515
 1082SOL    HW214883   2.627   4.675  15.678 -0.1017 -0.6373 -0.2957
 1083SOL     OW14884   4.513   3.885   6.667 -0.3544  0.1433  0.3893
 1083SOL    HW114885   4.472   3.968   6.690  0.3649  0.8752 -0.9541
 1083SOL    HW214886   4.580   3.917   6.607  0.1446  2.3041  2.0976
 1084SOL     OW14887   3.286   3.187   4.239  0.0659 -0.7447 -0.4206
 1084SOL    HW114888   3.339   3.220   4.312 -0.2857 -1.4282  0.1378
 1084SOL    HW214889   3.303   3.093   4.244  0.9140 -0.4189  2.7198
 1085SOL     OW14890   2.353   0.259   5.830 -0.0742 -0.8300  0.7962
 1085SOL    HW114891   2.382   0.347   5.852 -0.1940 -1.0659  1.9246
 1085SOL    HW214892   2.297   0.235   5.904 -1.0012 -4.2515 -1.0092
 1086SOL     OW14893   1.936   2.474  15.840  0.1494  0.2810  0.5110
 1086SOL    HW114894   1.986   2.393  15.854 -3.3749 -2.1459 -0.8374
 1086SOL    HW214895   1.927   2.484  15.746  0.0541 -0.4129  0.4459
 1087SOL     OW14896   0.632   2.280   7.708 -0.0400 -0.2561 -0.3952
 1087SOL    HW114897   0.565   2.272   7.775 -0.9112  1.3154 -1.0815
 1087SOL    HW214898   0.575   2.294   7.632 -2.3456 -1.4482  1.1330
 1088SOL     OW14899   2.183   2.212  14.308 -0.0102  0.6336  0.3687
 1088SOL    HW114900   2.267   2.190  14.347  0.1082  2.1667  0.9683
 1088SOL    HW214901   2.117   2.191  14.374  0.3385 -1.3846  0.0643
 1089SOL     OW14902   2.502   3.119  17.344 -0.0189  0.1090  0.0289
 1089SOL    HW114903   2.595   3.096  17.342 -0.1056 -0.2892  0.3370
 1089SOL    HW214904   2.499   3.156  17.256 -0.2107 -1.6160 -0.6978
 1090SOL     OW14905   4.220   1.965   2.457  0.5990  0.0236  0.2813
 1090SOL    HW114906   4.265   1.923   2.530  2.6174 -1.1851 -1.6563
 1090SOL    HW214907   4.138   1.917   2.464  0.6690 -0.3186 -1.1850
 1091SOL     OW14908   1.912   3.617   8.327 -0.2741  0.0531 -0.0585
 1091SOL    HW114909   1.902   3.707   8.296 -1.1010  0.4837  1.4599
 1091SOL    HW214910   1.921   3.567   8.246  0.0737 -0.0426  0.0401
 1092SOL     OW14911   3.517   3.370   2.879  0.0856 -0.4131 -0.0595
 1092SOL    HW114912   3.471   3.368   2.795  1.6645  0.3272 -0.9359
 1092SOL    HW214913   3.482   3.296   2.929 -0.8719  0.9916  1.3784
 1093SOL     OW14914   0.843   4.001  10.404 -0.2142 -0.3301  0.3103
 1093SOL    HW114915   0.872   4.074  10.350 -2.2628  1.9647  2.3521
 1093SOL    HW214916   0.921   3.986  10.458 -0.4092 -2.5970 -0.0247
 1094SOL     OW14917   3.725   1.918   2.987  0.0514 -0.3335 -0.5250
 1094SOL    HW114918   3.763   1.998   2.951  2.4811 -1.9562 -1.5654
 1094SOL    HW214919   3.651   1.907   2.928 -0.7311  1.7697  0.0937
 1095SOL     OW14920   0.008   4.415   4.353  0.3339  0.6379  0.1383
 1095SOL    HW114921   0.079   4.450   4.407  1.5513 -0.3102 -0.8392
 1095SOL    HW214922   0.055   4.356   4.293  1.7764 -0.3781  2.2567
 1096SOL     OW14923   1.918   3.400  10.366 -0.6146  0.7763 -0.2954
 1096SOL    HW114924   1.858   3.403  10.292 -0.0256  1.5078 -0.7390
 1096SOL    HW214925   1.970   3.324  10.338 -0.6580  0.0410  1.6110
 1097SOL     OW14926   2.463   0.984   8.926  0.1596 -0.4312 -0.0483
 1097SOL    HW114927   2.472   1.054   8.861 -2.2828 -0.9448 -0.9270
 1097SOL    HW214928   2.542   1.003   8.976  0.3530 -1.7985  0.1808
 1098SOL     OW14929   1.134   4.536   2.010  0.4303  0.7629  0.8528
 1098SOL    HW114930   1.141   4.497   2.097 -0.0721 -0.2261  0.4446
 1098SOL    HW214931   1.040   4.525   1.998  0.7622 -1.6247  0.3278
 1099SOL     OW14932   4.524   0.856   7.847 -0.1388  0.1329  0.5200
 1099SOL    HW114933   4.568   0.922   7.794  0.0430  0.6103  1.2769
 1099SOL    HW214934   4.562   0.770   7.828 -0.7749 -0.1269  0.4179
 1100SOL     OW14935   0.494   3.176   6.208 -0.6391 -0.0818  0.0199
 1100SOL    HW114936   0.565   3.113   6.205  1.2440  1.9588  1.4479
 1100SOL    HW214937   0.421   3.131   6.167 -1.7613 -0.3529  2.2905
 1101SOL     OW14938   0.913   2.042   1.857 -0.1986 -0.7491 -0.0780
 1101SOL    HW114939   0.872   1.957   1.840  0.1978 -0.8245 -0.6775
 1101SOL    HW214940   0.984   2.036   1.793  1.1333  0.6196  1.2646
 1102SOL     OW14941   1.714   3.197   0.651 -0.0598  0.1677 -0.0525
 1102SOL    HW114942   1.805   3.172   0.667 -0.0523 -1.6069 -2.9131
 1102SOL    HW214943   1.679   3.205   0.740 -0.5586  1.1728 -0.3476
 1103SOL     OW14944   1.138   3.485  11.407  0.9283 -0.6252 -0.1298
 1103SOL    HW114945   1.129   3.407  11.462  0.1371 -0.5615 -0.1697
 1103SOL    HW214946   1.064   3.536  11.439  0.4222 -1.1890 -0.3968
 1104SOL     OW14947   0.134   1.739   4.913 -0.1596 -0.2002 -0.0889
 1104SOL    HW114948   0.121   1.733   4.818 -0.4444  2.5567 -0.2285
 1104SOL    HW214949   0.141   1.834   4.923  0.7292 -0.6399  3.4638
 1105SOL     OW14950   0.478   0.546   7.655  0.5909 -0.3787 -0.2518
 1105SOL    HW114951   0.496   0.630   7.612  2.1117 -0.3420  0.4423
 1105SOL    HW214952   0.570   0.522   7.671  1.1843  1.3916 -1.0455
 1106SOL     OW14953   2.195   2.147   6.483  0.4693 -0.3215  0.0653
 1106SOL    HW114954   2.269   2.171   6.540  1.1586  1.3190 -1.5259
 1106SOL    HW214955   2.240   2.117   6.405 -0.4294 -1.2040 -0.1091
 1107SOL     OW14956   1.228   1.786   7.742 -0.0241 -0.0997  0.1751
 1107SOL    HW114957   1.228   1.868   7.792  1.6595 -0.0243  0.0383
 1107SOL    HW214958   1.152   1.736   7.770  0.0446 -0.1101  0.3404
 1108SOL     OW14959   0.234   2.210   0.103 -0.3477  0.7068  0.3840
 1108SOL    HW114960   0.300   2.141   0.108 -1.1606  0.0590  2.1268
 1108SOL    HW214961   0.289   2.277   0.064  2.3526 -0.5470  2.0621
 1109SOL     OW14962   4.535   2.312   0.650  0.4237 -0.4676 -0.1329
 1109SOL    HW114963   4.485   2.391   0.629  1.1596  0.0065 -0.1339
 1109SOL    HW214964   4.468   2.254   0.615  0.4681  0.3405 -1.5703
 1110SOL     OW14965   3.397   2.421   8.073 -0.2964  0.1693  0.0859
 1110SOL    HW114966   3.423   2.398   8.163  1.7032  0.9147 -0.2890
 1110SOL    HW214967   3.461   2.372   8.021 -1.2943 -2.7204  1.5853
 1111SOL     OW14968   1.609   0.685   9.907  0.0831 -0.2221  0.0033
 1111SOL    HW114969   1.582   0.723   9.823 -0.5693  2.8919  1.5936
 1111SOL    HW214970   1.703   0.695   9.896 -0.0677  0.7180 -0.4770
 1112SOL     OW14971   1.337   0.436  13.747 -0.3823  0.7854 -0.2393
 1112SOL    HW114972   1.277   0.490  13.797  0.7172  0.8447  1.0099
 1112SOL    HW214973   1.398   0.414  13.817 -0.5652 -0.6804 -0.5490
 1113SOL     OW14974   2.256   2.032   2.704 -0.8088 -0.0558  0.1022
 1113SOL    HW114975   2.253   2.124   2.730 -1.1862 -0.4936  1.5917
 1113SOL    HW214976   2.276   1.981   2.782 -1.6690 -0.9467 -0.2552
 1114SOL     OW14977   3.332   1.313  12.818 -0.2028  0.8026 -0.0139
 1114SOL    HW114978   3.256   1.311  12.761  0.7648 -2.1662 -1.1937
 1114SOL    HW214979   3.323   1.239  12.878  1.3755 -1.4109 -2.4931
 1115SOL     OW14980   3.076   2.639  17.571 -0.4286  0.2355 -0.6978
 1115SOL    HW114981   3.139   2.707  17.547 -0.8812  0.9004 -0.0007
 1115SOL    HW214982   3.079   2.634  17.666  0.4358  1.5547 -0.6509
 1116SOL     OW14983   0.425   0.146   8.917 -0.0246  0.3533  0.0899
 1116SOL    HW114984   0.359   0.081   8.897 -0.5498  0.6305  0.9190
 1116SOL    HW214985   0.466   0.109   8.996  1.9158  2.6270  0.1755
 1117SOL     OW14986   1.515   1.641   4.281 -0.4419  0.6368 -0.1745
 1117SOL    HW114987   1.509   1.572   4.216 -2.5513  0.3835  0.2891
 1117SOL    HW214988   1.502   1.589   4.360 -0.4287 -0.0421 -0.6244
 1118SOL     OW14989   1.515   0.839   3.235  0.1166  0.3642  0.4754
 1118SOL    HW114990   1.478   0.765   3.282  1.4111 -1.5618 -1.5648
 1118SOL    HW214991   1.608   0.824   3.250  0.5887 -0.0285 -2.9475
 1119SOL     OW14992   0.551   0.048   9.140  0.2346  0.7472 -0.5219
 1119SOL    HW114993   0.607   0.073   9.213 -0.9505 -1.3799  1.1194
 1119SOL    HW214994   0.589   4.703   9.107  2.0181  1.3036  0.2021
 1120SOL     OW14995   1.405   3.909   3.150 -0.4262  0.2100 -0.5872
 1120SOL    HW114996   1.423   3.816   3.145 -2.2235 -0.0555 -1.9630
 1120SOL    HW214997   1.328   3.922   3.205 -0.0194 -1.3545  0.3293
 1121SOL     OW14998   1.127   4.377   7.714 -0.3164 -0.2897 -0.2362
 1121SOL    HW114999   1.219   4.400   7.720 -0.9753  2.3196 -0.0487
 1121SOL    HW215000   1.110   4.338   7.800  2.2541 -0.1226  0.3313
 1122SOL     OW15001   0.494   3.078  17.677  1.4783 -0.4629 -0.1571
 1122SOL    HW115002   0.487   3.051   0.024 -0.2057  0.6611  0.0597
 1122SOL    HW215003   0.484   3.173  17.682 -1.5443 -0.7397 -0.6650
 1123SOL     OW15004   0.259   3.316   5.885  0.2009 -0.1573 -0.2772
 1123SOL    HW115005   0.187   3.370   5.918  1.8126  1.2438  0.9535
 1123SOL    HW215006   0.222   3.277   5.805 -0.8743 -0.3725  0.3179
 1124SOL     OW15007   1.596   0.154   1.349  0.1898  0.1667  0.3294
 1124SOL    HW115008   1.684   0.124   1.371  1.6867  3.0542 -1.7117
 1124SOL    HW215009   1.570   0.082   1.292  0.7752  0.7205 -0.6373
 1125SOL     OW15010   0.091   1.222  17.340  0.1853  0.0227 -0.2811
 1125SOL    HW115011   0.125   1.210  17.252  2.9801  0.3219  0.7439
 1125SOL    HW215012   0.057   1.312  17.336  0.1651 -0.1869 -5.0045
 1126SOL     OW15013   4.528   3.464  17.343 -0.4664 -0.1579  0.0366
 1126SOL    HW115014   4.559   3.550  17.315  1.3308 -1.1528 -1.0153
 1126SOL    HW215015   4.601   3.430  17.395 -1.2502 -0.1499  1.1462
 1127SOL     OW15016   1.976   3.040  12.283  0.2178  0.6493 -0.0006
 1127SOL    HW115017   2.031   2.983  12.336  1.5278  1.0651 -0.8982
 1127SOL    HW215018   2.040   3.104  12.252 -0.0992  0.1996 -1.5741
 1128SOL     OW15019   3.892   1.335   9.737  0.0821 -0.0490  0.7067
 1128SOL    HW115020   3.811   1.284   9.734  1.9605 -2.9833  0.6528
 1128SOL    HW215021   3.907   1.370   9.825 -1.1595  1.2875  0.3990
 1129SOL     OW15022   1.782   0.616  13.179 -0.5699  1.1071  0.0571
 1129SOL    HW115023   1.838   0.552  13.225  1.4010  1.9478 -1.1891
 1129SOL    HW215024   1.810   0.697  13.221 -1.4745  1.0076  0.8525
 1130SOL     OW15025   4.473   3.967  14.395  0.2158 -0.3070  0.4610
 1130SOL    HW115026   4.494   3.984  14.487 -0.5563 -1.4978  0.8615
 1130SOL    HW215027   4.560   3.966  14.356  1.1621 -2.6446  2.6354
 1131SOL     OW15028   1.820   1.743   7.868 -0.1150 -0.0415 -0.0104
 1131SOL    HW115029   1.818   1.839   7.864 -2.9817 -0.1787 -1.5551
 1131SOL    HW215030   1.773   1.746   7.951 -1.1347 -1.3191 -0.5433
 1132SOL     OW15031   1.855   3.717  11.976  0.7783  0.3902 -0.7904
 1132SOL    HW115032   1.832   3.743  12.065 -0.6328  2.0316 -1.6281
 1132SOL    HW215033   1.947   3.691  11.984  0.4849 -1.3102 -2.7957
 1133SOL     OW15034   4.181   0.262  16.330 -0.2620 -0.8115 -0.1414
 1133SOL    HW115035   4.131   0.326  16.382 -1.8951 -0.3039 -2.3538
 1133SOL    HW215036   4.133   0.232  16.254  1.7812 -0.7619 -1.4566
 1134SOL     OW15037   0.153   1.301   3.034 -0.1600  0.1826 -0.5556
 1134SOL    HW115038   0.079   1.358   3.015 -0.8375 -0.3417  0.5381
 1134SOL    HW215039   0.224   1.364   3.047  1.5360 -1.7102 -0.5920
 1135SOL     OW15040   0.857   3.311  11.481 -0.4472  0.0539 -0.1377
 1135SOL    HW115041   0.792   3.381  11.483 -0.0580  0.3445  2.2262
 1135SOL    HW215042   0.829   3.268  11.562  0.1105  1.4264  0.7688
 1136SOL     OW15043   4.293   3.724   8.268  0.1040  0.0526  0.1986
 1136SOL    HW115044   4.231   3.690   8.204 -0.4118  2.0465 -0.3607
 1136SOL    HW215045   4.250   3.804   8.298 -1.0434  0.2132 -1.8507
 1137SOL     OW15046   4.166   0.904  14.931  0.9012  0.2229  0.0504
 1137SOL    HW115047   4.094   0.866  14.981  0.1001 -0.1564 -1.4075
 1137SOL    HW215048   4.249   0.865  14.958  1.5468  0.5704 -1.4091
 1138SOL     OW15049   4.032   0.689   1.739 -0.3624  0.9922  0.2245
 1138SOL    HW115050   4.065   0.615   1.687 -2.1828 -0.8270  1.6480
 1138SOL    HW215051   3.973   0.726   1.673 -0.3342 -0.5992 -0.6859
 1139SOL     OW15052   0.411   1.251   0.346 -0.5231  0.0473 -0.4116
 1139SOL    HW115053   0.470   1.306   0.397 -2.3169  2.8512 -1.3640
 1139SOL    HW215054   0.480   1.205   0.299  0.4011  3.0162 -1.8755
 1140SOL     OW15055   4.048   0.275  10.726 -0.2115  0.2507  0.1271
 1140SOL    HW115056   4.083   0.239  10.645 -0.7384 -0.1479  0.0784
 1140SOL    HW215057   4.115   0.252  10.790 -0.1792  1.4525  0.5366
 1141SOL     OW15058   1.030   0.884   8.777  0.5783  0.0133 -0.2178
 1141SOL    HW115059   1.062   0.975   8.779  1.8582 -0.3833 -2.2109
 1141SOL    HW215060   0.952   0.888   8.720 -0.6041  0.1764  1.4155
 1142SOL     OW15061   1.096   4.544   9.231  0.2086  0.8044  0.2389
 1142SOL    HW115062   1.153   4.478   9.271  0.8315  0.8430 -0.5790
 1142SOL    HW215063   1.166   4.590   9.185 -0.6041  1.5593 -0.2390
 1143SOL     OW15064   1.458   2.049   9.180  0.1181  0.5929  0.5148
 1143SOL    HW115065   1.469   2.025   9.088  0.4666  0.4157  0.6028
 1143SOL    HW215066   1.452   2.144   9.175 -1.3660  0.5000  0.5023
 1144SOL     OW15067   1.433   1.414   6.043  0.2194  0.2290  1.0392
 1144SOL    HW115068   1.399   1.431   5.956  1.0493  1.6441  0.9942
 1144SOL    HW215069   1.371   1.348   6.076 -2.1146  1.3318 -1.1933
 1145SOL     OW15070   3.691   1.386   2.196 -0.1124  0.2168  0.2479
 1145SOL    HW115071   3.655   1.431   2.273  1.6773  2.4373 -0.1746
 1145SOL    HW215072   3.710   1.298   2.227 -1.6730  1.0162  3.4541
 1146SOL     OW15073   1.693   3.851   4.849  0.2951  0.3760 -0.2978
 1146SOL    HW115074   1.659   3.796   4.920  0.9655 -1.1570 -1.1723
 1146SOL    HW215075   1.772   3.805   4.822 -0.0537  0.7561 -1.9636
 1147SOL     OW15076   2.070   0.642   1.795  0.0518 -0.5173  0.6246
 1147SOL    HW115077   2.121   0.581   1.848  1.9827 -1.2241 -2.0291
 1147SOL    HW215078   2.081   0.605   1.708  0.1999  0.4946  0.2128
 1148SOL     OW15079   2.578   0.323   9.316 -0.0271  0.3963  0.0639
 1148SOL    HW115080   2.635   0.273   9.259 -1.7620 -0.5949 -0.8014
 1148SOL    HW215081   2.565   0.404   9.268 -0.3560 -0.7398 -1.7466
 1149SOL     OW15082   2.517   2.280   5.203  0.0531  0.3736 -0.5237
 1149SOL    HW115083   2.551   2.280   5.114 -1.1896  2.0048 -1.0073
 1149SOL    HW215084   2.598   2.314   5.241 -0.2184  0.7689 -0.2946
 1150SOL     OW15085   4.397   4.079  14.003  1.1896 -0.4045 -0.1109
 1150SOL    HW115086   4.397   3.987  13.976 -1.3278 -0.3522 -0.2973
 1150SOL    HW215087   4.404   4.076  14.098  0.3702 -0.4814 -0.0559
 1151SOL     OW15088   0.064   1.445   2.370 -0.1323 -0.1743  0.2794
 1151SOL    HW115089   0.106   1.361   2.353 -2.4384 -1.0240 -1.3627
 1151SOL    HW215090   0.118   1.474   2.443  2.5462 -0.5748 -1.5342
 1152SOL     OW15091   2.683   3.392   4.046 -0.3833 -0.0345  0.2212
 1152SOL    HW115092   2.725   3.343   3.975  0.6802  0.1287  0.7247
 1152SOL    HW215093   2.755   3.445   4.080 -0.3317  1.0344 -1.5532
 1153SOL     OW15094   3.498   2.924   1.626  0.1095  0.0712 -0.2115
 1153SOL    HW115095   3.514   3.019   1.624 -0.1686  0.0779 -2.1199
 1153SOL    HW215096   3.523   2.898   1.538  2.7471  2.4467 -0.1782
 1154SOL     OW15097   1.042   1.213   2.003 -0.3476  0.2224 -0.1185
 1154SOL    HW115098   1.134   1.203   1.979 -0.6285  1.2236 -1.5841
 1154SOL    HW215099   1.004   1.129   2.030  1.1056 -0.1313  0.8152
 1155SOL     OW15100   2.083   0.831   7.753 -0.0301 -0.5927 -0.0664
 1155SOL    HW115101   2.083   0.775   7.675 -0.9111  2.0811 -1.9875
 1155SOL    HW215102   2.128   0.912   7.730  1.1711 -0.6279  2.2240
 1156SOL     OW15103   3.632   0.710  12.865 -0.2734  0.0789  0.3249
 1156SOL    HW115104   3.563   0.776  12.863  0.3002  0.7271  2.0877
 1156SOL    HW215105   3.578   0.630  12.871 -0.1076 -0.1687 -1.4773
 1157SOL     OW15106   1.188   3.932   0.639  0.4771  0.2562  0.8387
 1157SOL    HW115107   1.274   3.906   0.608 -0.2498 -1.9770  0.6618
 1157SOL    HW215108   1.131   3.859   0.615 -0.8100  2.1701 -1.9128
 1158SOL     OW15109   2.554   1.692   6.387 -0.1807  0.4278  0.4792
 1158SOL    HW115110   2.543   1.708   6.293  2.1032  1.6476  0.4361
 1158SOL    HW215111   2.533   1.598   6.385  1.0744  0.1681 -0.9533
 1159SOL     OW15112   3.870   3.323   2.165  0.3206  0.3218 -0.1188
 1159SOL    HW115113   3.845   3.386   2.097  0.4298  0.5099  0.0165
 1159SOL    HW215114   3.916   3.265   2.105 -0.4961 -0.4290 -0.0252
 1160SOL     OW15115   2.427   0.350  15.302 -0.0828  0.1676 -0.5282
 1160SOL    HW115116   2.405   0.308  15.386 -2.6395  1.9821 -0.2770
 1160SOL    HW215117   2.440   0.439  15.336  1.7832 -0.4806  0.4428
 1161SOL     OW15118   3.338   4.487   5.243 -0.1958  0.1901 -1.2149
 1161SOL    HW115119   3.400   4.557   5.267  1.7312 -1.7627 -0.5348
 1161SOL    HW215120   3.303   4.521   5.161 -3.2819  0.1870  0.0903
 1162SOL     OW15121   0.201   3.087  10.901 -0.4230 -0.0765 -0.2382
 1162SOL    HW115122   0.167   3.174  10.922 -0.0116 -0.1635  0.7928
 1162SOL    HW215123   0.170   3.065  10.813  2.3217  0.3930 -1.3068
 1163SOL     OW15124   1.593   0.598   5.075 -0.5046 -0.4704  0.3887
 1163SOL    HW115125   1.644   0.663   5.025 -0.0269  0.3879  2.0054
 1163SOL    HW215126   1.574   0.552   4.993  0.4414 -1.6679  0.8344
 1164SOL     OW15127   1.064   0.406   3.480  0.5226  0.5752 -0.1959
 1164SOL    HW115128   1.022   0.323   3.503 -1.4586  1.5333 -0.3028
 1164SOL    HW215129   0.989   0.461   3.455 -1.1525 -2.4977 -2.0039
 1165SOL     OW15130   0.484   0.101   8.259 -0.1192 -0.6300  0.3591
 1165SOL    HW115131   0.433   0.174   8.295 -1.2887 -0.2728 -2.0611
 1165SOL    HW215132   0.426   0.061   8.195 -1.4684 -0.5515  1.5319
 1166SOL     OW15133   1.802   1.103   4.023 -0.1931 -0.0053  0.1511
 1166SOL    HW115134   1.861   1.086   3.949 -2.9941 -0.6386 -1.9422
 1166SOL    HW215135   1.723   1.148   3.993 -0.4895 -0.0296  0.8984
 1167SOL     OW15136   3.714   1.504   5.804  1.1061  0.2403  0.5085
 1167SOL    HW115137   3.676   1.459   5.728  0.1229 -1.6131  2.1021
 1167SOL    HW215138   3.779   1.443   5.838  2.0231  2.2664  2.3987
 1168SOL     OW15139   2.704   3.018   4.965 -0.0200  0.1164  0.5166
 1168SOL    HW115140   2.746   3.050   4.885 -1.4636  1.1598  0.1721
 1168SOL    HW215141   2.782   2.989   5.012  0.3422  0.3716  0.0797
 1169SOL     OW15142   3.952   2.202   6.852 -0.5466  0.0509  0.2548
 1169SOL    HW115143   3.952   2.297   6.855  0.7815  0.0713 -0.7807
 1169SOL    HW215144   4.000   2.173   6.930  1.9221  3.1165 -0.1777
 1170SOL     OW15145   2.225   0.976   7.556  0.4331 -0.1596 -0.0559
 1170SOL    HW115146   2.311   0.934   7.544  0.2293 -0.2002 -1.3106
 1170SOL    HW215147   2.244   1.054   7.609 -1.1092  0.7069 -0.7826
 1171SOL     OW15148   3.163   4.658   1.558 -0.1480  1.1006 -0.5210
 1171SOL    HW115149   3.251   4.682   1.531 -0.5682  2.0382 -1.0523
 1171SOL    HW215150   3.191   4.576   1.599  0.4145  1.6130  0.1313
 1172SOL     OW15151   2.505   2.685   5.535 -0.1613 -0.1770  0.2390
 1172SOL    HW115152   2.423   2.731   5.552  0.9763  1.6348  0.7776
 1172SOL    HW215153   2.527   2.644   5.619  0.3786  0.7721  0.5630
 1173SOL     OW15154   0.053   3.687   9.196 -0.2249 -0.1524  0.3764
 1173SOL    HW115155   0.002   3.747   9.250  0.0773  1.6701 -1.3578
 1173SOL    HW215156   0.050   3.725   9.108  2.3358  2.4206  1.4022
 1174SOL     OW15157   1.377   2.827   0.443  0.1889 -0.3206  0.0351
 1174SOL    HW115158   1.350   2.784   0.525  0.4484 -0.8254 -0.1443
 1174SOL    HW215159   1.468   2.841   0.469  0.1787  1.9555 -1.1835
 1175SOL     OW15160   0.346   2.280   6.027  0.4778 -0.3998 -0.3146
 1175SOL    HW115161   0.437   2.306   6.008  0.5725  0.5605  1.5166
 1175SOL    HW215162   0.301   2.364   6.035  0.5063 -0.4171  0.0048
 1176SOL     OW15163   0.192   0.147  15.370 -0.0954  0.2442 -0.2129
 1176SOL    HW115164   0.199   0.146  15.466  1.1109  0.9743 -0.2915
 1176SOL    HW215165   0.149   0.062  15.358  0.9626 -0.5211  1.3671
 1177SOL     OW15166   0.363   4.522   6.071  0.2023  0.2508  0.0702
 1177SOL    HW115167   0.418   4.488   6.142  0.5101  2.6790  0.9873
 1177SOL    HW215168   0.419   4.596   6.049 -0.3875  0.5483 -0.4376
 1178SOL     OW15169   1.789   1.062  13.982  0.3449 -0.2822 -0.1217
 1178SOL    HW115170   1.765   0.971  13.964  1.8469 -1.2832  2.9199
 1178SOL    HW215171   1.711   1.100  14.022 -0.1967 -2.1185  0.5970
 1179SOL     OW15172   4.261   4.078   4.511  0.1336 -0.3771 -0.0919
 1179SOL    HW115173   4.182   4.107   4.557  1.5902 -0.2598  2.3569
 1179SOL    HW215174   4.300   4.163   4.490  0.6137 -0.2621  1.2514
 1180SOL     OW15175   4.491   3.286  13.282 -0.3107 -0.1947  0.2010
 1180SOL    HW115176   4.510   3.207  13.233  0.4677  0.2477 -0.2028
 1180SOL    HW215177   4.396   3.271  13.279 -0.1956 -0.8477 -0.0523
 1181SOL     OW15178   4.289   3.649   7.398  0.3080 -0.1864 -0.3537
 1181SOL    HW115179   4.294   3.615   7.309  1.9377 -1.9832  0.4357
 1181SOL    HW215180   4.327   3.585   7.458  0.0227  2.1989  2.3578
 1182SOL     OW15181   0.401   0.577  13.356 -0.0766 -0.0454 -0.1466
 1182SOL    HW115182   0.415   0.528  13.275 -1.3705  0.6760 -0.8076
 1182SOL    HW215183   0.358   0.661  13.337 -1.1095 -0.9257 -1.7004
 1183SOL     OW15184   4.277   1.331   6.138  0.7034 -0.0681  0.1826
 1183SOL    HW115185   4.209   1.398   6.135 -0.5117 -1.3920 -1.8815
 1183SOL    HW215186   4.248   1.281   6.214  1.3636 -2.0211 -0.8378
 1184SOL     OW15187   0.952   2.231   6.077 -0.0450  0.6158 -0.1585
 1184SOL    HW115188   0.936   2.233   6.171 -0.0148 -0.7517 -0.1301
 1184SOL    HW215189   0.912   2.315   6.056 -2.7391 -0.4588  0.6833
 1185SOL     OW15190   0.208   2.143   6.796  0.3266 -0.1993  0.1764
 1185SOL    HW115191   0.288   2.090   6.803  1.3772  1.4269  0.3328
 1185SOL    HW215192   0.195   2.139   6.701  0.5732 -1.4190  0.1967
 1186SOL     OW15193   2.344   1.897   2.934  0.0221  0.3135 -0.1291
 1186SOL    HW115194   2.379   1.978   2.970 -0.9421  1.9142 -2.8399
 1186SOL    HW215195   2.310   1.862   3.016 -0.3579  1.3728  0.1610
 1187SOL     OW15196   4.436   2.216   6.540 -0.2199 -0.1656  0.2632
 1187SOL    HW115197   4.457   2.309   6.530 -0.5992  0.0508  1.4346
 1187SOL    HW215198   4.496   2.184   6.473  0.7518  0.4804  0.8227
 1188SOL     OW15199   3.993   0.854  11.722  0.0845  0.0828 -0.5802
 1188SOL    HW115200   4.082   0.824  11.736 -0.0500  0.4475  1.0500
 1188SOL    HW215201   4.005   0.924  11.658  0.8461 -0.5873 -1.1702
 1189SOL     OW15202   2.204   0.268   4.932 -0.6121  0.6553  0.1527
 1189SOL    HW115203   2.156   0.198   4.888  1.8381 -1.0871  0.3159
 1189SOL    HW215204   2.178   0.351   4.890 -2.0335  1.1657  2.0757
 1190SOL     OW15205   2.259   0.567   7.155  0.0653  0.0742 -0.4962
 1190SOL    HW115206   2.292   0.654   7.176  1.6579 -0.6439 -0.0422
 1190SOL    HW215207   2.278   0.518   7.235  0.9134 -1.4247 -1.6200
 1191SOL     OW15208   0.400   2.061   3.314  0.2404 -0.3432  0.3741
 1191SOL    HW115209   0.345   2.127   3.356  0.3606  0.5074 -0.8201
 1191SOL    HW215210   0.486   2.092   3.343 -0.5684  1.2785  1.0311
 1192SOL     OW15211   1.168   3.993   3.301 -0.3610  0.1358 -0.6147
 1192SOL    HW115212   1.206   3.993   3.389  1.3234  0.0901 -1.3310
 1192SOL    HW215213   1.201   4.075   3.263 -1.0233  0.2627 -0.9047
 1193SOL     OW15214   2.188   1.567   6.715 -0.1533 -0.1049  0.0489
 1193SOL    HW115215   2.202   1.480   6.676  0.7895 -0.2080  0.6142
 1193SOL    HW215216   2.096   1.578   6.689  0.0300  0.6296 -0.2599
 1194SOL     OW15217   4.304   3.396   3.520  0.6811 -0.3246  0.7958
 1194SOL    HW115218   4.218   3.387   3.479  0.6851  3.5476 -0.0301
 1194SOL    HW215219   4.360   3.353   3.455 -1.3778 -0.6770 -0.7460
 1195SOL     OW15220   1.438   3.074  15.902  0.0514  0.6020 -0.4213
 1195SOL    HW115221   1.518   3.044  15.858 -0.9585 -1.6982 -0.7058
 1195SOL    HW215222   1.466   3.093  15.991 -0.6766 -1.1690  0.1951
 1196SOL     OW15223   2.246   2.449   6.261 -0.0688  0.0561  0.5543
 1196SOL    HW115224   2.205   2.529   6.292  2.0788  1.1479  0.5652
 1196SOL    HW215225   2.302   2.430   6.336  1.1741  0.8152 -0.1871
 1197SOL     OW15226   3.643   0.643   2.584  0.4743  0.3104  0.0993
 1197SOL    HW115227   3.671   0.682   2.501 -3.7211 -1.3139 -2.0670
 1197SOL    HW215228   3.570   0.697   2.615 -1.6388 -2.3625 -0.2419
 1198SOL     OW15229   4.080   3.174   1.978  0.1680 -0.7998 -0.2101
 1198SOL    HW115230   4.163   3.136   1.947  1.0236  0.1171  0.9571
 1198SOL    HW215231   4.035   3.202   1.898  0.0758 -1.1878 -0.2946
 1199SOL     OW15232   0.290   3.898   5.375  0.2477 -0.1053  0.0479
 1199SOL    HW115233   0.322   3.910   5.464  1.0160  0.0576 -0.2552
 1199SOL    HW215234   0.240   3.817   5.386 -1.6629  0.7495 -2.2539
 1200SOL     OW15235   1.753   2.108   5.931 -0.4878 -0.4194  0.0513
 1200SOL    HW115236   1.743   2.196   5.894  1.6004  0.0609  0.6282
 1200SOL    HW215237   1.712   2.053   5.864 -0.5545  0.4863 -0.6485
 1201SOL     OW15238   4.089   1.122   9.806  0.7618 -0.7714  0.1561
 1201SOL    HW115239   4.019   1.184   9.785  2.3788  0.5720 -1.2763
 1201SOL    HW215240   4.168   1.172   9.786 -0.7196  1.1988 -0.7713
 1202SOL     OW15241   1.984   1.534   5.325  0.2644  0.4624 -0.1033
 1202SOL    HW115242   1.914   1.599   5.319  1.2816  1.4185 -1.6637
 1202SOL    HW215243   2.024   1.545   5.239  0.6671 -2.6162 -0.3070
 1203SOL     OW15244   0.354   4.028   3.358  0.2746 -0.5296 -0.4170
 1203SOL    HW115245   0.310   4.018   3.443  0.4578 -1.7852 -0.4776
 1203SOL    HW215246   0.440   4.063   3.380 -0.4170 -0.3521  1.9799
 1204SOL     OW15247   1.323   0.597  13.525  0.3191 -0.0179 -0.1118
 1204SOL    HW115248   1.414   0.628  13.531  0.1529  0.2106  1.1575
 1204SOL    HW215249   1.311   0.541  13.601 -0.5314  2.8602  1.8770
 1205SOL     OW15250   0.105   3.333   7.137 -0.4298 -0.1534 -0.2581
 1205SOL    HW115251   0.080   3.267   7.072 -2.4940  0.9119 -0.5633
 1205SOL    HW215252   0.107   3.273   7.212  1.0134  1.3134  0.8764
 1206SOL     OW15253   2.352   0.259   2.458 -0.0009 -0.2225 -0.1717
 1206SOL    HW115254   2.327   0.259   2.550 -0.5870 -0.5116 -0.3280
 1206SOL    HW215255   2.341   0.353   2.440  0.4429  0.1080  1.2949
 1207SOL     OW15256   1.125   3.540   1.150 -0.6459  0.5722 -0.2630
 1207SOL    HW115257   1.053   3.566   1.208 -1.7384 -1.0144 -0.8950
 1207SOL    HW215258   1.131   3.617   1.093 -1.3408  0.6462 -0.2459
 1208SOL     OW15259   0.237   1.204  13.134 -0.1468  0.2132 -0.1820
 1208SOL    HW115260   0.220   1.229  13.043 -0.5386 -1.7947 -0.6535
 1208SOL    HW215261   0.171   1.250  13.186 -1.2018 -1.9762  0.3846
 1209SOL     OW15262   1.054   4.680   6.244 -0.1959 -0.3658  0.4788
 1209SOL    HW115263   1.097   4.660   6.327 -0.5601  0.0406  0.7643
 1209SOL    HW215264   0.975   4.627   6.247 -1.7467  1.8571 -0.7053
 1210SOL     OW15265   3.018   0.545   3.013  0.0780 -0.0529  0.7231
 1210SOL    HW115266   3.040   0.637   2.995 -0.2637  0.1667  1.4360
 1210SOL    HW215267   2.975   0.547   3.099  1.1614 -0.4105  1.2727
 1211SOL     OW15268   2.231   0.066   0.929  0.7192 -0.2963 -0.1641
 1211SOL    HW115269   2.270   4.723   0.964  1.3157 -0.5122 -1.3078
 1211SOL    HW215270   2.139   0.041   0.944  0.7788  0.5134  1.4828
 1212SOL     OW15271   2.018   4.116   2.448  0.2616 -0.3116  0.4339
 1212SOL    HW115272   1.961   4.182   2.408  1.1729  0.2468  0.0748
 1212SOL    HW215273   1.969   4.100   2.529  1.5346 -2.7926  0.7087
 1213SOL     OW15274   3.434   0.736  16.744  0.7911  0.4171 -0.1625
 1213SOL    HW115275   3.476   0.804  16.691  0.5072  1.2127  0.6310
 1213SOL    HW215276   3.421   0.786  16.824 -1.3972 -1.0688  0.4026
 1214SOL     OW15277   3.532   1.740   2.470  0.4833 -0.2603 -0.3404
 1214SOL    HW115278   3.473   1.786   2.411 -1.3197 -0.5526  1.2445
 1214SOL    HW215279   3.614   1.789   2.460  1.1374 -1.6260 -1.6719
 1215SOL     OW15280   3.922   3.428   3.543  0.5658  0.3887  0.3503
 1215SOL    HW115281   3.870   3.347   3.539  0.0483  0.6722  1.5920
 1215SOL    HW215282   3.962   3.432   3.630  0.1468 -1.5557  0.6304
 1216SOL     OW15283   3.396   0.559  16.968 -0.0634 -0.6963 -0.5464
 1216SOL    HW115284   3.478   0.520  16.997 -1.0409  0.4308  3.7696
 1216SOL    HW215285   3.418   0.595  16.882 -0.5172 -0.2730 -0.4888
 1217SOL     OW15286   3.930   2.266   3.727  0.1356 -0.2277  0.0773
 1217SOL    HW115287   3.857   2.252   3.666 -0.8187 -0.4515  1.2534
 1217SOL    HW215288   3.905   2.355   3.750  2.9923 -0.2048  3.0827
 1218SOL     OW15289   1.213   3.755   8.158 -0.1531  0.0400 -0.3968
 1218SOL    HW115290   1.171   3.669   8.168 -3.2504  1.5707 -0.1703
 1218SOL    HW215291   1.273   3.739   8.086  1.5529 -1.1966  1.2963
 1219SOL     OW15292   1.445   1.719   8.725 -0.5198 -0.2750 -0.1925
 1219SOL    HW115293   1.525   1.674   8.698 -1.1146 -0.6848 -1.2579
 1219SOL    HW215294   1.395   1.645   8.759 -0.2353 -0.0002  0.8279
 1220SOL     OW15295   3.017   2.258   8.489  0.1402  0.3333 -0.2686
 1220SOL    HW115296   3.006   2.200   8.564 -0.7128  1.7982  0.7234
 1220SOL    HW215297   3.049   2.336   8.533 -1.1234  1.2763 -1.0387
 1221SOL     OW15298   1.761   2.908   4.682 -0.3318  0.1427 -0.7870
 1221SOL    HW115299   1.719   2.825   4.702  0.0083  0.2202  0.2256
 1221SOL    HW215300   1.820   2.873   4.615  3.1936  1.3840  1.6537
 1222SOL     OW15301   1.268   1.335   6.573 -0.1767  0.3109  0.3337
 1222SOL    HW115302   1.211   1.371   6.641  0.7042 -0.8033  1.6971
 1222SOL    HW215303   1.216   1.347   6.494 -1.3480 -1.6011  0.8290
 1223SOL     OW15304   4.084   3.592   8.030  0.3974 -0.2956  0.1733
 1223SOL    HW115305   4.058   3.682   8.011  3.6055  0.3005 -1.5021
 1223SOL    HW215306   4.035   3.532   7.975  0.6272 -3.1916  3.1085
 1224SOL     OW15307   3.732   2.342   7.954 -0.2342  0.5467  0.0622
 1224SOL    HW115308   3.767   2.383   8.033 -2.0922  0.0397  1.1482
 1224SOL    HW215309   3.759   2.253   7.978  2.8419  1.8299  1.3701
 1225SOL     OW15310   1.427   2.478  12.616 -0.2509 -0.0650  0.3265
 1225SOL    HW115311   1.434   2.394  12.662  0.5533  0.3709  0.9986
 1225SOL    HW215312   1.478   2.465  12.536  2.5713  0.7650  1.9868
 1226SOL     OW15313   4.312   0.478   7.795  0.0855 -0.2070 -0.5943
 1226SOL    HW115314   4.272   0.554   7.838 -0.8775 -1.1910  0.2461
 1226SOL    HW215315   4.258   0.407   7.831  2.5791 -0.4353  2.6414
 1227SOL     OW15316   4.039   4.662  10.514 -0.2987  0.1145  0.0689
 1227SOL    HW115317   4.125   4.658  10.557 -0.2590  0.6689  0.0461
 1227SOL    HW215318   4.036   0.012  10.473 -0.6785  0.2024  0.2841
 1228SOL     OW15319   4.567   2.651   3.591 -0.0394 -0.0641  0.3338
 1228SOL    HW115320   4.598   2.587   3.527 -0.0650 -1.3095  1.5902
 1228SOL    HW215321   4.614   2.622   3.669  3.1190 -0.8745 -1.8453
 1229SOL     OW15322   4.381   3.901   5.536 -0.2958 -0.3664 -0.0048
 1229SOL    HW115323   4.323   3.895   5.461  0.3774 -1.6705 -0.4128
 1229SOL    HW215324   4.458   3.941   5.495 -1.1427  1.0572 -0.2090
 1230SOL     OW15325   4.545   2.067   0.073  0.3176  0.7973 -0.7437
 1230SOL    HW115326   4.481   2.132   0.103 -0.3230 -0.6869  1.1114
 1230SOL    HW215327   4.609   2.124   0.031 -1.0079  2.4173 -0.5457
 1231SOL     OW15328   3.254   3.729  11.846  0.9121 -1.0673  0.3450
 1231SOL    HW115329   3.264   3.653  11.789  0.3538 -0.4709 -0.5397
 1231SOL    HW215330   3.237   3.682  11.927 -0.7959  0.9153  1.1425
 1232SOL     OW15331   4.201   3.895   6.537 -0.7224  0.0949 -0.0318
 1232SOL    HW115332   4.268   3.951   6.576 -0.1865 -1.0301  0.6838
 1232SOL    HW215333   4.258   3.834   6.489  1.1655 -0.1078  2.4806
 1233SOL     OW15334   0.013   2.225  17.688 -0.5709  0.4515  0.0059
 1233SOL    HW115335   0.086   2.218   0.005 -0.4704 -1.4554 -0.3337
 1233SOL    HW215336   0.051   2.285  17.624  0.3077 -0.2391 -0.1302
 1234SOL     OW15337   3.046   3.758  13.631  0.0837 -0.1334  0.2681
 1234SOL    HW115338   2.952   3.741  13.640  0.2413 -0.3964  1.3038
 1234SOL    HW215339   3.056   3.736  13.538  0.8724 -0.4073  0.4205
 1235SOL     OW15340   2.696   2.651   7.030  0.2240 -0.2216  0.1275
 1235SOL    HW115341   2.607   2.632   7.000  0.2101 -0.4173  0.2934
 1235SOL    HW215342   2.747   2.679   6.954 -1.2726  0.6658 -0.5525
 1236SOL     OW15343   1.826   2.586   5.358  0.2256  0.6026 -0.3097
 1236SOL    HW115344   1.875   2.531   5.296 -1.0105 -0.8409 -0.0080
 1236SOL    HW215345   1.834   2.518   5.425 -1.9324  0.8690  0.1947
 1237SOL     OW15346   4.489   0.702   1.978 -0.5415  0.3235 -0.1121
 1237SOL    HW115347   4.478   0.758   1.901 -1.9007  0.0291 -0.1403
 1237SOL    HW215348   4.424   0.736   2.040  1.1104 -0.4709  2.0626
 1238SOL     OW15349   4.620   3.298   5.959  0.0426  0.4286  0.0420
 1238SOL    HW115350   4.685   3.294   6.029 -0.8862 -1.6891  0.7879
 1238SOL    HW215351   4.650   3.242   5.887  0.5752 -1.7056  1.9128
 1239SOL     OW15352   1.335   3.668  10.895  0.0705 -0.2662 -0.1079
 1239SOL    HW115353   1.312   3.646  10.985  1.3680 -0.0763  0.2673
 1239SOL    HW215354   1.400   3.605  10.864 -2.3962 -2.5725 -0.5947
 1240SOL     OW15355   2.997   4.621   2.719 -0.0083 -0.2550  0.0669
 1240SOL    HW115356   3.081   4.577   2.706 -0.5952 -0.9520 -1.3929
 1240SOL    HW215357   3.015   4.711   2.695 -1.3456  0.1626  0.6343
 1241SOL     OW15358   3.424   3.663   4.866  0.0984  0.0434 -0.1496
 1241SOL    HW115359   3.429   3.731   4.933  0.1847 -0.0777 -0.0325
 1241SOL    HW215360   3.492   3.691   4.806  0.7986 -0.1611  0.5461
 1242SOL     OW15361   1.588   1.076   9.661  0.0478 -0.1884 -0.6320
 1242SOL    HW115362   1.545   1.077   9.746  0.1563  1.3069 -0.6007
 1242SOL    HW215363   1.629   1.162   9.650  1.5067 -0.7778  0.1110
 1243SOL     OW15364   4.314   2.460   6.898 -0.3134 -0.2733 -0.0906
 1243SOL    HW115365   4.384   2.430   6.956 -0.3399  0.9000  0.5449
 1243SOL    HW215366   4.289   2.381   6.849 -0.7002 -0.8616  1.0344
 1244SOL     OW15367   0.777   2.264  15.978  0.6801 -0.2552  0.2767
 1244SOL    HW115368   0.718   2.190  15.961  1.7403 -1.2324  0.8973
 1244SOL    HW215369   0.861   2.221  15.994 -0.0556 -2.2848 -1.3272
 1245SOL     OW15370   1.752   0.439   2.706 -0.3751 -0.0776 -0.1160
 1245SOL    HW115371   1.805   0.369   2.667 -1.8889 -1.9134  1.1300
 1245SOL    HW215372   1.710   0.482   2.632 -0.1770 -1.0162 -0.7834
 1246SOL     OW15373   2.285   0.756   8.124  0.1961  0.5083  0.3285
 1246SOL    HW115374   2.272   0.788   8.214  0.9999  1.5899  0.0584
 1246SOL    HW215375   2.376   0.725   8.128 -0.5947 -1.9814 -0.9274
 1247SOL     OW15376   3.103   2.537  12.756  0.1987 -0.0178 -0.3433
 1247SOL    HW115377   3.042   2.466  12.777  0.8221 -0.4476  0.0511
 1247SOL    HW215378   3.063   2.582  12.682 -3.1701 -0.0499  1.4478
 1248SOL     OW15379   0.424   0.010   3.670 -0.0154 -0.7789 -0.7245
 1248SOL    HW115380   0.474   0.038   3.747 -2.9717  1.0685  0.5099
 1248SOL    HW215381   0.409   0.093   3.625  1.0792 -0.6158 -0.7719
 1249SOL     OW15382   4.182   2.760   8.912 -0.1121  0.6182 -0.1016
 1249SOL    HW115383   4.093   2.794   8.911 -0.1452  0.5092 -0.5567
 1249SOL    HW215384   4.234   2.837   8.888  0.5831 -0.0251 -0.6689
 1250SOL     OW15385   3.527   3.047   2.243 -0.1114 -0.3259  0.0565
 1250SOL    HW115386   3.559   3.003   2.322  0.5303 -0.4353 -0.2575
 1250SOL    HW215387   3.543   3.138   2.267  0.4592 -0.9120  1.8617
 1251SOL     OW15388   2.568   1.238   1.437 -0.7419 -0.6479 -0.2810
 1251SOL    HW115389   2.639   1.174   1.445 -1.2913 -1.2837 -0.4996
 1251SOL    HW215390   2.570   1.248   1.342 -0.6700 -1.0897 -0.3241
 1252SOL     OW15391   1.348   0.194   8.606 -0.3890  0.1934 -0.4087
 1252SOL    HW115392   1.418   0.235   8.656 -0.7294 -0.4863  0.6245
 1252SOL    HW215393   1.405   0.130   8.562 -0.2252 -0.2846  0.5062
 1253SOL     OW15394   4.315   2.508   8.388  0.6917  0.1103  0.2647
 1253SOL    HW115395   4.276   2.564   8.321  0.8199 -0.2969 -0.1535
 1253SOL    HW215396   4.311   2.553   8.472  0.3016  2.2835 -0.9147
 1254SOL     OW15397   3.395   3.875   7.498 -0.2484 -0.0084 -0.3338
 1254SOL    HW115398   3.350   3.894   7.580  0.4637 -1.8616  0.4661
 1254SOL    HW215399   3.354   3.939   7.439  0.1444 -1.6319 -2.3765
 1255SOL     OW15400   1.462   3.398   3.404 -0.2188 -0.0394  0.1470
 1255SOL    HW115401   1.429   3.370   3.318 -0.0566 -3.0730  1.0518
 1255SOL    HW215402   1.398   3.467   3.421  1.1284  0.8675  1.5325
 1256SOL     OW15403   0.009   2.097   5.250  0.2959 -0.0237 -0.3687
 1256SOL    HW115404   4.684   2.135   5.188 -0.2645  0.7457  0.6410
 1256SOL    HW215405   0.089   2.077   5.201  1.2978 -0.8478  1.6026
 1257SOL     OW15406   2.330   4.575   0.474 -0.6816  0.3069 -0.6661
 1257SOL    HW115407   2.297   4.517   0.405  0.0781 -0.0261 -0.7594
 1257SOL    HW215408   2.425   4.563   0.471 -0.4171  1.5500  2.3466
 1258SOL     OW15409   4.382   3.703  12.935 -0.2517  0.3696 -0.2070
 1258SOL    HW115410   4.438   3.676  13.007  0.0691 -0.2961 -0.7147
 1258SOL    HW215411   4.370   3.797  12.947 -2.7576  0.2509 -1.7521
 1259SOL     OW15412   0.857   4.010   4.876  0.1040  0.0639 -0.1484
 1259SOL    HW115413   0.817   4.083   4.828  1.0656 -0.5197 -1.8321
 1259SOL    HW215414   0.914   3.977   4.806  1.0509  1.0790  0.1403
 1260SOL     OW15415   2.331   2.727   4.280 -0.1334  0.2015  0.6644
 1260SOL    HW115416   2.266   2.666   4.315 -0.4467 -1.0771 -2.1357
 1260SOL    HW215417   2.285   2.779   4.215 -1.7419 -0.6551  1.1231
 1261SOL     OW15418   2.128   1.301   7.267  0.7247  0.7790 -0.4831
 1261SOL    HW115419   2.080   1.372   7.224 -0.8880 -0.5129 -0.7623
 1261SOL    HW215420   2.153   1.344   7.350 -0.0474  2.1469 -0.9578
 1262SOL     OW15421   2.281   0.032   7.654  0.2591 -0.4427 -0.0223
 1262SOL    HW115422   2.201   0.074   7.623 -1.2730 -2.0626  1.7738
 1262SOL    HW215423   2.310   4.725   7.574 -0.9442  0.8605 -1.1767
 1263SOL     OW15424   0.741   3.362   5.140 -0.5916  0.5922 -0.2248
 1263SOL    HW115425   0.785   3.296   5.192  1.8053  2.8066  0.5807
 1263SOL    HW215426   0.795   3.370   5.061  0.6357 -0.6887  0.4886
 1264SOL     OW15427   1.365   0.335   5.914  0.5060 -0.2797 -0.1908
 1264SOL    HW115428   1.381   0.270   5.845 -0.0015 -0.7444  0.1297
 1264SOL    HW215429   1.275   0.318   5.943  0.0573  1.9872 -0.2373
 1265SOL     OW15430   3.485   1.808   9.241 -0.5455  0.1239 -0.1725
 1265SOL    HW115431   3.439   1.869   9.184 -0.3975 -0.4670 -0.9323
 1265SOL    HW215432   3.570   1.828   9.202 -0.6771 -1.4950 -1.3375
 1266SOL     OW15433   1.515   3.631   7.110 -0.1874  0.6218 -0.0181
 1266SOL    HW115434   1.511   3.718   7.071  0.1256  1.0970  1.0276
 1266SOL    HW215435   1.608   3.607   7.111 -0.4740 -0.5002  0.1311
 1267SOL     OW15436   4.424   2.222  12.900 -0.0273 -0.2623 -0.7378
 1267SOL    HW115437   4.515   2.196  12.890 -1.0560 -4.1706 -0.0104
 1267SOL    HW215438   4.448   2.298  12.953 -1.1019 -0.3199 -0.1779
 1268SOL     OW15439   2.034   2.316  11.150  0.0150  0.2213 -0.1236
 1268SOL    HW115440   2.001   2.227  11.151 -0.7424  0.4867 -1.1875
 1268SOL    HW215441   1.993   2.351  11.071 -1.3809 -0.5264  0.2727
 1269SOL     OW15442   4.249   3.676   6.034  0.1625 -0.1039  0.2111
 1269SOL    HW115443   4.161   3.666   5.998  0.1172 -0.6163  0.4710
 1269SOL    HW215444   4.299   3.615   5.979  0.2035  1.2658 -1.2840
 1270SOL     OW15445   2.421   2.302   8.006 -0.2557 -0.5352 -0.5372
 1270SOL    HW115446   2.504   2.322   8.049 -1.2131  0.0430  1.0156
 1270SOL    HW215447   2.414   2.381   7.952  0.2391  2.1565  3.3282
 1271SOL     OW15448   3.925   2.922  13.755  0.0590  0.1666  0.0444
 1271SOL    HW115449   3.894   2.842  13.797  0.7043  0.7003  1.5278
 1271SOL    HW215450   4.019   2.912  13.772  0.0740  2.9840  1.7435
 1272SOL     OW15451   3.942   0.768  10.867 -0.2835 -0.5990  0.3530
 1272SOL    HW115452   3.945   0.690  10.811 -0.2449  0.3601 -0.9822
 1272SOL    HW215453   3.943   0.839  10.803 -0.5198 -0.8029  0.1204
 1273SOL     OW15454   1.679   3.523   6.285 -0.2881  0.1956  0.1395
 1273SOL    HW115455   1.687   3.527   6.380 -1.7832  0.3007  0.2544
 1273SOL    HW215456   1.598   3.570   6.266 -0.7927 -0.2975  1.1237
 1274SOL     OW15457   0.083   1.497   0.718  0.1055 -0.0305 -0.0414
 1274SOL    HW115458   0.066   1.415   0.765  1.0523 -0.3847 -0.2969
 1274SOL    HW215459   0.055   1.483   0.627  3.6313  0.4027 -1.2156
 1275SOL     OW15460   2.294   3.693   4.132  0.4020 -0.0233  0.0695
 1275SOL    HW115461   2.200   3.682   4.126  0.3923 -1.0596  2.2479
 1275SOL    HW215462   2.332   3.645   4.058 -0.7802  0.2533 -0.7169
 1276SOL     OW15463   0.041   3.268   0.420  0.3247 -0.4719 -0.7654
 1276SOL    HW115464   4.708   3.304   0.475  0.5848 -2.7516  1.0797
 1276SOL    HW215465   0.024   3.174   0.416  1.1853 -0.7606  2.8737
 1277SOL     OW15466   4.505   4.327  13.958  0.2623 -0.1287  0.3670
 1277SOL    HW115467   4.473   4.238  13.944  0.4811 -0.1940  0.2816
 1277SOL    HW215468   4.584   4.311  14.010  0.5534 -1.2410 -0.4286
 1278SOL     OW15469   2.746   0.468   8.240  0.5046 -0.2241 -0.0958
 1278SOL    HW115470   2.723   0.376   8.225  0.2657  0.1048 -1.7629
 1278SOL    HW215471   2.841   0.480   8.230  0.3402  1.6914  0.7079
 1279SOL     OW15472   0.622   3.228   4.076 -0.5910  0.0494  0.3843
 1279SOL    HW115473   0.628   3.209   4.170  2.3585  0.3036  0.2571
 1279SOL    HW215474   0.535   3.197   4.053 -1.2862  0.7858  2.0224
 1280SOL     OW15475   2.165   0.827   8.403  0.6512  0.0729 -0.5676
 1280SOL    HW115476   2.102   0.894   8.374 -0.4576 -0.0171  1.6341
 1280SOL    HW215477   2.104   0.756   8.423  1.1712 -0.6216 -1.4712
 1281SOL     OW15478   1.771   0.514   3.864 -0.2556  0.2143 -0.2973
 1281SOL    HW115479   1.739   0.490   3.951  0.3295  0.1026 -0.1158
 1281SOL    HW215480   1.698   0.510   3.802  1.4790 -2.2927 -2.1797
 1282SOL     OW15481   2.715   1.693   0.193  0.1240  0.1493 -0.1393
 1282SOL    HW115482   2.639   1.640   0.168 -0.1741  0.2775  0.5231
 1282SOL    HW215483   2.669   1.759   0.244  0.1881  0.6683 -0.7488
 1283SOL     OW15484   4.225   1.961  11.162  0.1315  0.4113 -0.5897
 1283SOL    HW115485   4.195   2.052  11.166  1.5251  0.8012  0.8230
 1283SOL    HW215486   4.183   1.910  11.231  3.1786 -2.0082 -0.5150
 1284SOL     OW15487   1.851   2.562   4.400 -0.1458  0.7028  0.1550
 1284SOL    HW115488   1.849   2.647   4.445 -0.7106  1.2785 -0.9530
 1284SOL    HW215489   1.819   2.584   4.312  0.1619 -1.0625 -0.3899
 1285SOL     OW15490   1.381   4.146   4.263 -0.2184  0.0070  0.8077
 1285SOL    HW115491   1.392   4.052   4.280 -1.9224 -0.1221  1.1632
 1285SOL    HW215492   1.292   4.155   4.297 -0.3472  0.5584  0.3210
 1286SOL     OW15493   2.077   2.825   2.901 -0.1814 -0.0407 -0.2962
 1286SOL    HW115494   2.125   2.806   2.820  1.5404  0.8039  0.5090
 1286SOL    HW215495   2.111   2.912   2.922 -1.7468 -0.0342  2.1985
 1287SOL     OW15496   0.711   1.051   4.824 -0.1544 -0.3230 -0.7043
 1287SOL    HW115497   0.695   0.969   4.778  3.9333 -0.9378 -1.0298
 1287SOL    HW215498   0.628   1.065   4.870  0.8655 -1.8511  1.6437
 1288SOL     OW15499   2.516   0.825   8.509 -0.0137 -0.0818  0.1800
 1288SOL    HW115500   2.538   0.813   8.602  0.1148 -0.9150  0.0416
 1288SOL    HW215501   2.565   0.755   8.467 -0.3754  0.7506 -1.6102
 1289SOL     OW15502   1.777   2.948   6.742 -0.3288  0.1454  0.2161
 1289SOL    HW115503   1.769   2.864   6.696  1.2423  0.1406 -0.0590
 1289SOL    HW215504   1.685   2.956   6.767 -0.1774 -2.8566  1.6662
 1290SOL     OW15505   4.363   1.761   2.618 -0.3364  0.0191  0.2772
 1290SOL    HW115506   4.313   1.708   2.680 -0.5724 -0.6559 -0.4906
 1290SOL    HW215507   4.448   1.719   2.632 -0.2217  0.6035  1.3795
 1291SOL     OW15508   1.819   2.139  14.248 -0.5146 -0.0189  0.5636
 1291SOL    HW115509   1.815   2.232  14.226 -0.2394 -0.2781 -0.5599
 1291SOL    HW215510   1.809   2.127  14.343 -0.4658 -3.3749  0.1572
 1292SOL     OW15511   2.863   2.649  15.062  0.5526  0.0920  0.2744
 1292SOL    HW115512   2.948   2.610  15.042  0.1874 -1.9530  2.6980
 1292SOL    HW215513   2.850   2.621  15.153 -1.2600  0.0250 -0.0134
 1293SOL     OW15514   0.907   0.145   8.812 -0.3156 -0.8226 -0.1293
 1293SOL    HW115515   0.985   0.192   8.784  0.5271 -0.8018  2.2237
 1293SOL    HW215516   0.939   0.106   8.894 -2.0894  0.2470  1.0736
 1294SOL     OW15517   4.343   0.042   9.885 -0.3501  0.0003  0.0631
 1294SOL    HW115518   4.305   4.699   9.850  0.3037 -0.9063  1.3943
 1294SOL    HW215519   4.318   0.037   9.978  0.6370 -4.2086  0.1087
 1295SOL     OW15520   2.464   0.678  10.800  0.6031  0.0799  0.0124
 1295SOL    HW115521   2.532   0.745  10.810  0.3532  0.5197 -1.2223
 1295SOL    HW215522   2.493   0.650  10.713  0.9499 -0.7054  0.3769
 1296SOL     OW15523   3.847   0.986   6.329 -0.6366 -0.6916  0.3200
 1296SOL    HW115524   3.757   0.958   6.309 -0.4394 -0.9337 -0.2231
 1296SOL    HW215525   3.870   1.048   6.260 -0.6903 -2.0356 -0.9155
 1297SOL     OW15526   3.957   4.328  16.776 -0.3116  0.3902 -0.7989
 1297SOL    HW115527   3.974   4.243  16.816  0.5957  1.1111  0.3446
 1297SOL    HW215528   3.911   4.372  16.847 -1.8016 -1.5242 -0.5740
 1298SOL     OW15529   0.295   3.598   8.597  0.0056  0.0258  0.0613
 1298SOL    HW115530   0.370   3.540   8.609  0.7640  0.6016 -1.8211
 1298SOL    HW215531   0.236   3.543   8.545  1.5939 -1.3826 -0.2548
 1299SOL     OW15532   2.807   0.815   7.673 -0.1303  0.0794 -0.4940
 1299SOL    HW115533   2.829   0.821   7.580  1.4759 -0.5198 -0.1466
 1299SOL    HW215534   2.791   0.908   7.690 -0.1396 -0.2185  1.1644
 1300SOL     OW15535   3.772   3.520   4.493 -0.0540  0.1129  0.4059
 1300SOL    HW115536   3.714   3.444   4.494  0.7099 -0.4701 -0.1962
 1300SOL    HW215537   3.817   3.506   4.576 -0.5028  1.8702  0.9611
 1301SOL     OW15538   1.166   3.859   4.748  0.0212 -0.1932  0.0800
 1301SOL    HW115539   1.255   3.831   4.771  0.1776  1.2359  1.2039
 1301SOL    HW215540   1.170   3.830   4.657  0.8533  0.8531 -0.2206
 1302SOL     OW15541   2.212   4.650   6.387  0.3049 -0.0186  0.8079
 1302SOL    HW115542   2.218   4.652   6.483 -1.3554 -2.0346  0.9495
 1302SOL    HW215543   2.277   4.719   6.374 -0.1855  0.3111  0.1489
 1303SOL     OW15544   0.849   1.474   5.494 -0.1007  0.2767 -0.0862
 1303SOL    HW115545   0.842   1.560   5.536  0.6145 -0.0484  0.6930
 1303SOL    HW215546   0.789   1.436   5.558  1.2700 -0.0960  0.9584
 1304SOL     OW15547   4.625   3.677   2.922  0.4094  0.4868 -0.3163
 1304SOL    HW115548   4.627   3.765   2.959 -0.6669  0.0598  0.7702
 1304SOL    HW215549   4.530   3.666   2.922  0.5483 -0.7752 -0.7281
 1305SOL     OW15550   3.850   3.392  14.985  0.3866  0.0934  0.0477
 1305SOL    HW115551   3.873   3.449  15.058 -0.7670  0.8507 -0.1831
 1305SOL    HW215552   3.829   3.465  14.926 -0.2654 -0.9812 -1.0658
 1306SOL     OW15553   3.062   3.074   7.891 -0.2043 -0.4824 -0.0346
 1306SOL    HW115554   2.970   3.072   7.917  0.2028 -0.0614  1.4078
 1306SOL    HW215555   3.060   3.136   7.817 -1.0224 -1.7431 -1.0665
 1307SOL     OW15556   2.214   0.769   5.629  0.3800  0.4066  0.3494
 1307SOL    HW115557   2.202   0.674   5.625  0.3104  0.6185 -4.0070
 1307SOL    HW215558   2.183   0.797   5.543 -0.7447 -0.0976  0.5931
 1308SOL     OW15559   2.106   1.128   8.955 -0.1757  0.3278  0.0775
 1308SOL    HW115560   2.126   1.107   9.046 -1.0330 -0.5311  0.0595
 1308SOL    HW215561   2.073   1.216   8.973  0.7548  1.3279 -3.1388
 1309SOL     OW15562   2.525   3.302  17.115 -0.4015 -0.0763 -0.2369
 1309SOL    HW115563   2.497   3.371  17.056  1.7415  3.4940  2.9628
 1309SOL    HW215564   2.598   3.348  17.155 -0.5984 -0.6938  0.8401
 1310SOL     OW15565   3.924   0.276  17.455  0.0980  0.1395  0.4632
 1310SOL    HW115566   4.004   0.311  17.495 -0.6720  0.2829  1.8937
 1310SOL    HW215567   3.955   0.221  17.383 -1.2515 -2.9679  2.2481
 1311SOL     OW15568   1.383   2.075  16.200  0.2074  0.1894 -0.3315
 1311SOL    HW115569   1.424   2.065  16.114  0.5377 -0.4715 -0.0905
 1311SOL    HW215570   1.458   2.090  16.258  0.5723 -0.4866 -0.6240
 1312SOL     OW15571   0.052   0.341   3.097  0.0064 -0.2628  0.1042
 1312SOL    HW115572   0.038   0.314   3.188 -0.2548 -0.9426 -0.1353
 1312SOL    HW215573   0.111   0.276   3.060 -1.0892 -0.0169 -2.1142
 1313SOL     OW15574   2.450   2.616   6.905 -0.2310  0.4246 -0.2350
 1313SOL    HW115575   2.418   2.529   6.879 -0.1627 -0.2690  2.0502
 1313SOL    HW215576   2.465   2.661   6.821  0.0824  0.5968 -0.0845
 1314SOL     OW15577   0.940   1.811   5.472 -0.2467  0.6841  0.0769
 1314SOL    HW115578   0.899   1.770   5.548  0.4498  0.4758  0.3393
 1314SOL    HW215579   0.882   1.782   5.402 -0.1913  0.9603 -0.0844
 1315SOL     OW15580   1.161   3.621   7.469 -0.4563  0.2167 -0.2503
 1315SOL    HW115581   1.114   3.674   7.532 -1.0104 -1.0306  0.3798
 1315SOL    HW215582   1.165   3.679   7.393 -2.2814 -1.7164 -1.8023
 1316SOL     OW15583   3.418   3.073   8.021  0.5523  0.4261  0.4189
 1316SOL    HW115584   3.418   3.148   7.962  2.2881 -0.4197 -0.6529
 1316SOL    HW215585   3.440   3.001   7.962 -3.0815 -1.1795  1.0643
 1317SOL     OW15586   3.232   4.481   6.867  0.0561  0.7249  0.1903
 1317SOL    HW115587   3.179   4.402   6.877  0.2491  1.0286  3.7439
 1317SOL    HW215588   3.196   4.538   6.935 -0.5325  0.5372  0.0338
 1318SOL     OW15589   3.351   2.153   1.782 -0.1849  0.7486 -0.7616
 1318SOL    HW115590   3.393   2.157   1.868 -0.3976 -0.1042 -0.6147
 1318SOL    HW215591   3.384   2.237   1.752 -0.3939  1.2797  0.5143
 1319SOL     OW15592   0.882   1.420   0.353 -0.0861 -0.2269 -0.1126
 1319SOL    HW115593   0.893   1.514   0.369 -0.7384 -0.0448 -0.7385
 1319SOL    HW215594   0.826   1.406   0.430 -0.1948 -1.1283 -0.3583
 1320SOL     OW15595   3.478   3.780   4.368  0.2967  0.1022  0.2818
 1320SOL    HW115596   3.420   3.781   4.293  0.7800 -3.1353 -0.1289
 1320SOL    HW215597   3.554   3.724   4.351 -1.2476 -0.9202 -3.2234
 1321SOL     OW15598   0.327   3.685   9.701  0.5928 -0.0402 -0.0842
 1321SOL    HW115599   0.419   3.701   9.722  0.2960  0.5415  0.7862
 1321SOL    HW215600   0.281   3.764   9.733  2.2019  0.1791  1.6860
 1322SOL     OW15601   2.508   0.550   1.740 -0.0428 -0.0298 -0.1868
 1322SOL    HW115602   2.499   0.509   1.654 -2.1283 -1.8202  0.8927
 1322SOL    HW215603   2.520   0.642   1.714  2.0550  0.4048  2.3226
 1323SOL     OW15604   2.855   0.603  16.149 -0.5592 -0.2267  0.0057
 1323SOL    HW115605   2.845   0.698  16.138 -2.6122 -0.1021  2.8397
 1323SOL    HW215606   2.863   0.616  16.244 -1.4216  0.2283  0.0231
 1324SOL     OW15607   2.712   1.158   4.614 -0.1839  0.1348  0.5195
 1324SOL    HW115608   2.804   1.158   4.641  0.4189 -0.4444 -1.5263
 1324SOL    HW215609   2.691   1.069   4.644 -4.2686 -0.1640 -3.2617
 1325SOL     OW15610   0.417   0.259   3.558  0.2530 -0.4648 -0.2450
 1325SOL    HW115611   0.469   0.271   3.478 -2.2121  0.8316 -1.6496
 1325SOL    HW215612   0.445   0.329   3.618  0.2720 -0.0224 -0.7649
 1326SOL     OW15613   4.491   4.668   3.102  0.3372 -0.0160 -0.4785
 1326SOL    HW115614   4.488   0.007   3.161 -0.1186 -0.7485  0.4327
 1326SOL    HW215615   4.547   4.712   3.038  1.6625 -2.6193 -1.1282
 1327SOL     OW15616   0.207   0.438  15.633  0.7169 -0.6863 -0.1659
 1327SOL    HW115617   0.231   0.474  15.718 -2.0664  0.1885  0.2606
 1327SOL    HW215618   0.260   0.490  15.573 -1.2526  2.1314  0.5192
 1328SOL     OW15619   0.157   3.500  11.407 -0.1177  0.0447  0.2522
 1328SOL    HW115620   0.201   3.551  11.339 -0.8667  0.7255  0.2858
 1328SOL    HW215621   0.067   3.490  11.376 -0.4263  0.1826  1.1119
 1329SOL     OW15622   4.678   2.607   3.842 -0.2808 -0.2255  0.0909
 1329SOL    HW115623   4.660   2.701   3.844 -2.2105 -0.6428  2.5254
 1329SOL    HW215624   0.009   2.597   3.908 -0.0382  0.0398 -0.1173
 1330SOL     OW15625   2.375   0.715   9.018  0.5154  0.4326  0.3742
 1330SOL    HW115626   2.308   0.738   9.083  1.1720  0.3295  1.0822
 1330SOL    HW215627   2.387   0.797   8.972 -0.4345  1.8694  2.6564
 1331SOL     OW15628   1.445   2.999   5.637  0.0411 -0.1710  0.2206
 1331SOL    HW115629   1.359   3.033   5.662 -0.1445 -0.5624  0.0970
 1331SOL    HW215630   1.506   3.051   5.690 -0.7222  0.3646  0.5624
 1332SOL     OW15631   0.614   4.448   7.961 -0.3638 -0.2704  0.2319
 1332SOL    HW115632   0.669   4.384   7.916  0.7643  0.7317  0.1837
 1332SOL    HW215633   0.682   4.515   7.967  0.2796 -0.9138  0.1071
 1333SOL     OW15634   0.416   3.797   9.099 -0.0827 -0.1314  0.1601
 1333SOL    HW115635   0.387   3.751   9.178 -1.2507  0.9789  0.3937
 1333SOL    HW215636   0.456   3.882   9.119  1.5228 -0.9087  0.1816
 1334SOL     OW15637   2.750   1.335   8.403 -0.2974  0.3582  0.1470
 1334SOL    HW115638   2.765   1.304   8.492 -2.4255 -0.5511  0.1771
 1334SOL    HW215639   2.806   1.413   8.395  1.4450 -0.6620  2.3841
 1335SOL     OW15640   1.879   1.346  10.737 -0.0116  0.6759 -0.1978
 1335SOL    HW115641   1.927   1.410  10.684  0.6107  1.6473  1.5351
 1335SOL    HW215642   1.950   1.328  10.799 -1.0943 -3.9329 -0.3371
 1336SOL     OW15643   2.924   2.051   8.771  0.5827 -0.1066 -0.0055
 1336SOL    HW115644   2.903   2.016   8.858  2.3132 -0.8125  0.1251
 1336SOL    HW215645   2.837   2.049   8.730  0.8504 -0.7603 -0.5484
 1337SOL     OW15646   4.289   2.991  14.624  0.0100 -0.2644 -0.6572
 1337SOL    HW115647   4.265   3.021  14.536 -0.6956 -2.9172 -1.3669
 1337SOL    HW215648   4.347   2.926  14.582  1.9260  1.6704 -0.9994
 1338SOL     OW15649   0.064   3.741   4.229 -0.1620 -0.2401 -0.0800
 1338SOL    HW115650   0.076   3.715   4.321  0.3460 -0.6617 -0.2663
 1338SOL    HW215651   0.078   3.835   4.232  0.6859 -0.3909  0.5996
 1339SOL     OW15652   1.430   4.106  11.449 -0.1720  0.5364 -0.0644
 1339SOL    HW115653   1.471   4.029  11.409  1.1837 -0.2484  2.7925
 1339SOL    HW215654   1.429   4.168  11.376  1.8053  1.4540  0.6680
 1340SOL     OW15655   1.473   0.422  14.890  0.0551 -0.0197  0.4821
 1340SOL    HW115656   1.464   0.514  14.866  0.7190  0.2183  1.1319
 1340SOL    HW215657   1.466   0.384  14.803 -0.0942  2.7259 -0.7104
 1341SOL     OW15658   0.000   2.494   1.367 -0.3424 -0.9483 -0.1192
 1341SOL    HW115659   0.000   2.402   1.391  1.4447 -0.4889  1.6644
 1341SOL    HW215660   0.072   2.499   1.304 -2.1345  2.2407 -1.8968
 1342SOL     OW15661   0.899   3.665   9.666 -0.0143 -0.1161  0.7292
 1342SOL    HW115662   0.858   3.580   9.687 -2.2491  0.7286 -0.1868
 1342SOL    HW215663   0.970   3.654   9.729 -2.4395  1.0026  3.6267
 1343SOL     OW15664   2.612   2.509   5.743  0.2912  0.1375 -0.1383
 1343SOL    HW115665   2.669   2.437   5.716  0.6041 -0.2296  1.4891
 1343SOL    HW215666   2.668   2.565   5.797  0.8389  0.6028 -1.1958
 1344SOL     OW15667   3.222   3.982   0.472 -0.4827 -0.5545  0.0580
 1344SOL    HW115668   3.134   3.952   0.449 -0.0350 -1.0046 -1.0661
 1344SOL    HW215669   3.274   3.913   0.431  1.1262  1.5398 -1.4328
 1345SOL     OW15670   1.167   4.195   1.700 -0.0167 -0.5828 -0.0306
 1345SOL    HW115671   1.152   4.122   1.760 -1.6279 -0.0970  0.1732
 1345SOL    HW215672   1.238   4.236   1.748 -1.2328  0.6722  0.6718
 1346SOL     OW15673   3.079   4.173   8.085 -0.6829  0.0038 -0.2703
 1346SOL    HW115674   3.085   4.078   8.094  0.6873  0.1221  0.0696
 1346SOL    HW215675   3.163   4.192   8.128  0.3776 -1.7876 -1.5157
 1347SOL     OW15676   1.070   1.221   6.354 -0.0509  0.0956  0.0310
 1347SOL    HW115677   1.124   1.241   6.277 -0.3882 -0.5342 -0.3689
 1347SOL    HW215678   1.052   1.131   6.327  1.6844  0.4048 -2.1458
 1348SOL     OW15679   1.795   0.830   3.192 -0.0830 -0.1809 -0.1113
 1348SOL    HW115680   1.815   0.916   3.231  0.7528 -0.0867 -0.7540
 1348SOL    HW215681   1.846   0.833   3.112  1.4358 -0.5530  0.8509
 1349SOL     OW15682   2.478   3.265  11.703 -0.3480  0.4601 -0.2977
 1349SOL    HW115683   2.523   3.295  11.624  0.2002  1.0722  0.2525
 1349SOL    HW215684   2.445   3.345  11.743 -1.0609  0.7421 -1.4529
 1350SOL     OW15685   4.546   3.100   8.910 -0.4435  0.2352 -0.0900
 1350SOL    HW115686   4.569   3.165   8.976 -0.6950  1.1577 -0.9134
 1350SOL    HW215687   4.594   3.026   8.946  1.0458  0.2286 -2.0911
 1351SOL     OW15688   4.199   1.888   1.945  0.9081  0.1556 -0.4990
 1351SOL    HW115689   4.203   1.879   2.040 -3.0738 -1.4120 -0.4718
 1351SOL    HW215690   4.107   1.866   1.934  1.2929 -0.6769 -2.0755
 1352SOL     OW15691   3.330   0.963   5.051  0.0074 -0.1645  0.7511
 1352SOL    HW115692   3.366   1.036   5.102  1.4261 -1.5353  1.7261
 1352SOL    HW215693   3.354   0.998   4.965  0.1838 -1.4637  0.2686
 1353SOL     OW15694   1.277   4.189   7.406 -0.3907  0.1269 -0.1002
 1353SOL    HW115695   1.237   4.276   7.402 -0.6905 -0.0131 -0.1323
 1353SOL    HW215696   1.200   4.133   7.411 -0.8844  0.8093 -0.0547
 1354SOL     OW15697   2.354   2.952   4.510  0.4475  0.0902 -0.7140
 1354SOL    HW115698   2.389   3.021   4.454  0.7738  0.4884 -0.0254
 1354SOL    HW215699   2.390   2.882   4.457  0.3435  1.4629 -2.6014
 1355SOL     OW15700   2.606   1.915  13.415 -0.2176  0.1493  0.2296
 1355SOL    HW115701   2.564   1.961  13.488  0.9347  1.6144 -0.0290
 1355SOL    HW215702   2.593   1.981  13.346  0.6569  0.7699  0.6698
 1356SOL     OW15703   0.728   2.369   7.383 -0.5383  0.1852 -0.3303
 1356SOL    HW115704   0.809   2.321   7.403 -0.5599  1.2857  2.3712
 1356SOL    HW215705   0.657   2.327   7.432 -0.0772  0.8255  0.8736
 1357SOL     OW15706   1.029   1.743  17.591  0.4743 -0.2127  0.1093
 1357SOL    HW115707   1.061   1.654  17.579 -1.9791 -0.9784 -0.9078
 1357SOL    HW215708   0.978   1.738  17.672 -1.7413  2.4160 -1.1130
 1358SOL     OW15709   1.145   4.116   4.895 -0.2564  0.0895  0.4347
 1358SOL    HW115710   1.230   4.094   4.933 -1.1743 -0.6551  2.0430
 1358SOL    HW215711   1.131   4.038   4.842  0.7375  1.2959 -1.5986
 1359SOL     OW15712   4.195   2.653   8.214 -0.3948 -0.3107 -0.0394
 1359SOL    HW115713   4.279   2.665   8.169 -1.5862 -0.7531 -2.3877
 1359SOL    HW215714   4.148   2.585   8.165 -2.1810 -0.6493  2.1892
 1360SOL     OW15715   3.262   0.274   9.415  0.0077  0.7297 -0.3571
 1360SOL    HW115716   3.178   0.241   9.447  1.1908 -2.3529 -0.4224
 1360SOL    HW215717   3.270   0.248   9.323 -1.4821  0.1868 -0.3438
 1361SOL     OW15718   2.826   2.112  11.670 -0.5869  0.2982 -0.3134
 1361SOL    HW115719   2.877   2.084  11.745  1.4230 -0.5371 -1.9871
 1361SOL    HW215720   2.850   2.034  11.619 -0.2040  0.7319 -0.7972
 1362SOL     OW15721   2.357   3.963   0.782  0.3958 -0.0604 -0.8669
 1362SOL    HW115722   2.446   3.931   0.793  0.4771  0.6315  0.4726
 1362SOL    HW215723   2.335   3.974   0.874 -2.1842  1.8004 -1.7252
 1363SOL     OW15724   3.629   2.533   4.373  0.2475 -0.3108 -0.3642
 1363SOL    HW115725   3.554   2.478   4.396  0.1377  0.2360  0.5865
 1363SOL    HW215726   3.682   2.519   4.451  0.2747  1.1481 -0.1372
 1364SOL     OW15727   0.624   4.543   3.624 -0.1798  0.4668 -0.2622
 1364SOL    HW115728   0.702   4.592   3.597 -0.6332 -0.7110 -3.7225
 1364SOL    HW215729   0.566   4.620   3.626  0.1274  0.6704  1.1221
 1365SOL     OW15730   2.282   1.102   5.532 -0.4858  0.1929 -0.4562
 1365SOL    HW115731   2.196   1.140   5.549 -1.3409 -2.2680  0.7630
 1365SOL    HW215732   2.259   1.043   5.461 -1.5920 -0.8371  0.7544
 1366SOL     OW15733   2.919   2.321   5.560  0.4360 -0.1130  0.2869
 1366SOL    HW115734   2.897   2.242   5.611  0.3764 -0.7137 -0.6808
 1366SOL    HW215735   2.956   2.383   5.623  0.7349  0.8924 -0.9026
 1367SOL     OW15736   3.321   1.475   5.574 -0.2575 -0.2387 -0.3770
 1367SOL    HW115737   3.233   1.438   5.573 -0.1271 -0.5597  0.0757
 1367SOL    HW215738   3.303   1.569   5.579  2.8018  0.3618 -0.9796
 1368SOL     OW15739   4.304   0.078  10.979  0.4364  0.3845 -0.5087
 1368SOL    HW115740   4.327   0.100  11.069 -2.0962 -1.7115  0.6529
 1368SOL    HW215741   4.253   0.000  11.001  0.7925  0.2027 -0.3212
 1369SOL     OW15742   2.921   0.535   0.122  0.2195 -0.3190 -0.2141
 1369SOL    HW115743   2.865   0.462   0.095 -0.3880  0.3732 -0.8520
 1369SOL    HW215744   2.993   0.536   0.059  0.0058 -0.8132 -0.4716
 1370SOL     OW15745   2.971   3.849   6.489 -0.1038  0.2928 -0.0426
 1370SOL    HW115746   2.980   3.916   6.421 -1.3773 -0.5312 -1.0107
 1370SOL    HW215747   3.048   3.795   6.474  0.8727  2.0940 -1.4415
 1371SOL     OW15748   1.406   3.047  11.996  0.5053 -0.1177 -0.3083
 1371SOL    HW115749   1.311   3.054  12.010  0.3038 -0.6874 -1.4075
 1371SOL    HW215750   1.414   2.961  11.955 -0.8558 -1.1037  1.5133
 1372SOL     OW15751   0.396   3.339   4.481 -0.0775  0.2514  0.0801
 1372SOL    HW115752   0.344   3.331   4.401  0.7505 -0.8396 -0.3429
 1372SOL    HW215753   0.396   3.433   4.498  1.6708  0.2139  0.2611
 1373SOL     OW15754   0.262   2.236  12.611  0.3325 -0.1301  0.2112
 1373SOL    HW115755   0.342   2.275  12.577 -0.2054  0.8471  0.0549
 1373SOL    HW215756   0.245   2.175  12.539  1.9443  0.0703 -0.3380
 1374SOL     OW15757   4.735   1.715   0.412  0.0596  0.0265 -0.0242
 1374SOL    HW115758   0.077   1.762   0.441 -0.5544  1.0235  0.0017
 1374SOL    HW215759   4.698   1.779   0.352  0.0872 -0.2902 -0.3851
 1375SOL     OW15760   1.005   3.380   6.801 -0.5319 -0.5541 -0.3400
 1375SOL    HW115761   1.009   3.353   6.709  0.9771 -2.7640  0.3591
 1375SOL    HW215762   1.095   3.414   6.810 -0.9421  0.3915  0.1859
 1376SOL     OW15763   4.194   4.051   7.860 -0.0075 -0.0363  0.4712
 1376SOL    HW115764   4.242   4.133   7.853  1.0865 -0.6630  0.7306
 1376SOL    HW215765   4.211   4.010   7.775 -0.5271 -2.1658  1.3977
 1377SOL     OW15766   0.281   2.340  11.680 -0.2369  0.2447  0.1570
 1377SOL    HW115767   0.198   2.383  11.698 -1.4365 -1.8412 -0.3671
 1377SOL    HW215768   0.335   2.411  11.645  1.7535 -1.6281 -0.5807
 1378SOL     OW15769   0.229   2.438   3.773  0.3913 -0.2284  0.5223
 1378SOL    HW115770   0.228   2.491   3.694  0.5035  4.5104  3.6661
 1378SOL    HW215771   0.192   2.357   3.738 -0.2146  1.0913 -1.8798
 1379SOL     OW15772   0.711   3.835   9.602 -0.2509 -0.2834  0.1645
 1379SOL    HW115773   0.667   3.773   9.543 -1.9616  1.4978 -0.4302
 1379SOL    HW215774   0.797   3.793   9.609  1.1667  2.3383 -1.2823
 1380SOL     OW15775   2.619   2.358   4.746 -0.8921 -0.1477 -0.1494
 1380SOL    HW115776   2.525   2.372   4.749 -0.7975  0.4852  0.0039
 1380SOL    HW215777   2.627   2.313   4.661 -0.3437 -0.5308  0.1037
 1381SOL     OW15778   0.646   0.453  16.804  0.1700 -0.2643 -0.0850
 1381SOL    HW115779   0.729   0.436  16.760  0.7431  1.4733  0.3129
 1381SOL    HW215780   0.667   0.506  16.882 -0.1900  0.0403 -0.1938
 1382SOL     OW15781   3.485   2.840   2.657 -0.1779  0.3308  0.7187
 1382SOL    HW115782   3.394   2.854   2.631  0.5233  0.1165 -1.8222
 1382SOL    HW215783   3.498   2.904   2.727  0.9530  0.2526  0.5793
 1383SOL     OW15784   2.532   3.487   6.828  0.0283  0.0691 -0.0129
 1383SOL    HW115785   2.565   3.397   6.825  1.6662  0.6802 -0.2616
 1383SOL    HW215786   2.556   3.514   6.917  1.1309  1.9116 -0.8566
 1384SOL     OW15787   3.491   3.311   1.228 -0.0846  0.2321  0.2116
 1384SOL    HW115788   3.512   3.226   1.188 -3.1254  0.1066 -1.1230
 1384SOL    HW215789   3.572   3.361   1.238 -1.0741  1.7938  0.3690
 1385SOL     OW15790   0.803   2.028   2.959 -0.8227 -0.3486 -0.4812
 1385SOL    HW115791   0.888   2.007   2.920  1.2770  2.3314  2.6069
 1385SOL    HW215792   0.778   1.945   2.998 -0.4758 -0.7768 -1.1830
 1386SOL     OW15793   0.086   3.578   7.194 -0.1594 -0.6451 -0.2243
 1386SOL    HW115794   0.083   3.489   7.159 -1.3736 -1.3959  1.7517
 1386SOL    HW215795   0.009   3.615   7.150  1.3661  2.5560 -0.1712
 1387SOL     OW15796   2.039   0.514   8.509 -0.1925  0.0483  0.3231
 1387SOL    HW115797   2.078   0.551   8.588  0.6340 -0.6384  0.2451
 1387SOL    HW215798   1.967   0.576   8.507 -0.3160 -0.0507  1.7401
 1388SOL     OW15799   1.500   4.074  14.876 -0.0414 -0.0080  0.2939
 1388SOL    HW115800   1.437   4.076  14.804 -1.6568 -0.1076  1.6998
 1388SOL    HW215801   1.480   3.993  14.924  2.2672 -0.0106  1.2451
 1389SOL     OW15802   2.289   2.819   7.030  0.0925 -0.1596 -0.2089
 1389SOL    HW115803   2.369   2.870   7.017  0.0521 -0.0067  0.1388
 1389SOL    HW215804   2.313   2.737   6.988 -0.0170  1.3046 -3.1580
 1390SOL     OW15805   2.089   4.153   7.107  0.3757  0.2534 -0.1728
 1390SOL    HW115806   2.047   4.222   7.055  1.3194  1.7246  1.0365
 1390SOL    HW215807   2.176   4.155   7.067 -0.5152 -1.0612 -2.1620
 1391SOL     OW15808   0.229   4.494   4.481 -0.4461  0.3375  0.8573
 1391SOL    HW115809   0.324   4.498   4.495  0.0142  0.8629 -2.3904
 1391SOL    HW215810   0.201   4.532   4.564 -3.3939  0.4408 -0.2032
 1392SOL     OW15811   1.718   4.046   2.927 -0.1943  0.3092  0.5316
 1392SOL    HW115812   1.712   4.067   3.021  1.0411  0.0483  0.6654
 1392SOL    HW215813   1.639   3.994   2.916 -0.3060  0.2964  1.3975
 1393SOL     OW15814   1.308   1.436   1.156  0.2984  0.1634  0.0528
 1393SOL    HW115815   1.370   1.365   1.147 -0.2491 -0.0999 -1.6991
 1393SOL    HW215816   1.277   1.444   1.065  0.1228 -0.4790  0.0560
 1394SOL     OW15817   0.015   4.648   6.821 -0.2228  0.9092  0.0129
 1394SOL    HW115818   0.043   4.699   6.897 -1.7434  0.9577  0.5315
 1394SOL    HW215819   4.664   4.628   6.852  0.7066 -1.2346  1.2397
 1395SOL     OW15820   3.257   0.408   6.973 -0.1582  0.1428 -0.0744
 1395SOL    HW115821   3.307   0.334   6.941 -1.2647  0.6932 -3.0416
 1395SOL    HW215822   3.186   0.400   6.909 -0.5221  2.0180  0.0947
 1396SOL     OW15823   2.296   3.748  11.554  0.0905 -0.6478 -0.7835
 1396SOL    HW115824   2.380   3.778  11.519  0.1626  0.4041  0.2793
 1396SOL    HW215825   2.241   3.741  11.476 -1.4155 -1.3002  0.3287
 1397SOL     OW15826   0.106   4.613   0.038 -0.3192 -0.4767 -0.2535
 1397SOL    HW115827   0.025   4.639  17.739  1.6463  3.0350 -1.7086
 1397SOL    HW215828   0.070   4.588   0.123 -0.9566 -0.7784 -0.6098
 1398SOL     OW15829   3.618   1.534   8.444  0.3480  0.2156  0.0160
 1398SOL    HW115830   3.579   1.515   8.529  1.0651  0.1441  0.3295
 1398SOL    HW215831   3.548   1.506   8.385  0.1488  0.2675  0.2279
 1399SOL     OW15832   4.070   0.458   9.625 -0.2001  0.6952  0.2611
 1399SOL    HW115833   4.086   0.377   9.674 -0.5400  0.2488 -0.3804
 1399SOL    HW215834   4.010   0.427   9.558  0.3760  0.8918 -0.3418
 1400SOL     OW15835   2.125   3.487  10.849 -0.0501  0.1103 -0.2940
 1400SOL    HW115836   2.079   3.495  10.765 -2.1718 -0.8220  0.7784
 1400SOL    HW215837   2.203   3.542  10.845  1.0155 -1.1735  3.1690
 1401SOL     OW15838   2.198   2.435   2.422  0.0809  0.2151 -0.4316
 1401SOL    HW115839   2.143   2.358   2.410  1.2387 -0.5105 -1.0562
 1401SOL    HW215840   2.277   2.399   2.462 -1.2391  1.1618  3.0410
 1402SOL     OW15841   2.955   4.433   8.981  0.1254 -0.0333 -0.4996
 1402SOL    HW115842   2.924   4.371   9.047 -0.7880  0.1826 -0.7228
 1402SOL    HW215843   3.003   4.371   8.927  0.0391  0.2552 -0.9049
 1403SOL     OW15844   3.737   1.072  14.097 -0.7104 -0.2909  0.2739
 1403SOL    HW115845   3.688   1.035  14.024  0.1218  3.3679 -2.1245
 1403SOL    HW215846   3.682   1.063  14.175 -0.2101  2.1649  0.9059
 1404SOL     OW15847   2.352   3.039   3.337  0.3845  0.3640  0.3689
 1404SOL    HW115848   2.342   3.134   3.345  0.1787  0.2844  1.0695
 1404SOL    HW215849   2.338   3.007   3.426  1.3327 -0.5299  0.1972
 1405SOL     OW15850   2.828   0.289   5.300  0.0132 -0.4828 -0.4216
 1405SOL    HW115851   2.739   0.300   5.331  0.7667 -0.0057  1.5639
 1405SOL    HW215852   2.819   0.298   5.205  1.9765 -1.6144 -0.7258
 1406SOL     OW15853   0.323   2.578  16.461 -0.1925  0.0895  0.1640
 1406SOL    HW115854   0.257   2.512  16.439  1.0675 -0.0821 -3.0231
 1406SOL    HW215855   0.331   2.570  16.556 -1.0900 -3.0257 -0.0305
 1407SOL     OW15856   4.103   3.045   4.856  0.3946 -0.3284  0.1681
 1407SOL    HW115857   4.023   3.058   4.805  0.7756 -0.6231 -0.5086
 1407SOL    HW215858   4.112   2.950   4.849  0.4158 -0.5204  3.0704
 1408SOL     OW15859   0.240   1.793   2.925  0.0107  0.4651 -0.5297
 1408SOL    HW115860   0.271   1.824   2.840 -1.5760  0.2890 -1.1667
 1408SOL    HW215861   0.276   1.862   2.980 -1.3832 -0.0726  1.0354
 1409SOL     OW15862   4.659   2.985   9.136 -0.7602 -0.3121  0.3539
 1409SOL    HW115863   4.580   2.995   9.188  0.7628 -1.1546  2.8467
 1409SOL    HW215864   4.688   2.895   9.153 -1.5407 -0.8286 -1.0479
 1410SOL     OW15865   2.106   3.526  11.972 -0.0614  0.9134 -0.1039
 1410SOL    HW115866   2.196   3.530  12.002 -0.4077  0.8833  0.9326
 1410SOL    HW215867   2.095   3.594  11.905  2.9861  0.3538 -1.1516
 1411SOL     OW15868   4.344   0.039  12.784  0.5923 -0.1520 -0.5147
 1411SOL    HW115869   4.283   0.106  12.813 -0.9892 -3.0258  2.7695
 1411SOL    HW215870   4.417   0.091  12.751  1.8647 -0.4703  1.7826
 1412SOL     OW15871   2.541   2.395   3.099  0.0027  0.4925 -0.6763
 1412SOL    HW115872   2.571   2.382   3.189  1.5946 -0.4838 -1.3590
 1412SOL    HW215873   2.624   2.420   3.058 -0.3851  2.2833 -0.3789
 1413SOL     OW15874   0.621   4.265   6.753 -0.4486  0.0998  0.7613
 1413SOL    HW115875   0.545   4.212   6.777  0.7217 -1.4205  1.1037
 1413SOL    HW215876   0.678   4.283   6.828 -1.4757  2.1136  1.0445
 1414SOL     OW15877   0.942   3.355   8.452 -0.3812 -0.5276 -0.1090
 1414SOL    HW115878   1.019   3.352   8.394 -0.0695 -0.5676  0.3076
 1414SOL    HW215879   0.976   3.332   8.538 -1.5998  1.8886  1.0010
 1415SOL     OW15880   3.635   0.753   9.353  0.4933 -0.1863  0.3230
 1415SOL    HW115881   3.676   0.678   9.396  1.9580  0.5964  0.2810
 1415SOL    HW215882   3.687   0.822   9.394 -3.9552  2.0533  2.3064
 1416SOL     OW15883   3.602   4.624   0.586 -0.5657 -0.1076  0.5539
 1416SOL    HW115884   3.517   4.582   0.587 -0.5777 -0.0942 -0.9931
 1416SOL    HW215885   3.612   4.662   0.674 -0.0043  1.7749 -0.3253
 1417SOL     OW15886   1.286   2.174   5.488  0.7980 -0.2778  0.2685
 1417SOL    HW115887   1.318   2.084   5.485  3.8391  0.8062 -0.1727
 1417SOL    HW215888   1.255   2.179   5.398 -0.1874 -4.5945  0.3736
 1418SOL     OW15889   2.932   1.321   4.232  0.1573  0.5507  0.1242
 1418SOL    HW115890   3.027   1.306   4.227  0.3740  1.5039  1.3098
 1418SOL    HW215891   2.924   1.343   4.139  1.1161 -0.1613 -0.1313
 1419SOL     OW15892   4.084   0.841   6.271  0.0175  0.6471 -0.2239
 1419SOL    HW115893   3.994   0.866   6.292 -1.0204 -0.7375 -2.8608
 1419SOL    HW215894   4.080   0.745   6.270 -0.8264  0.6734  0.4572
 1420SOL     OW15895   0.901   3.873   3.277  0.2092  0.2605 -0.6137
 1420SOL    HW115896   0.989   3.910   3.286  0.9050 -1.0656 -2.1668
 1420SOL    HW215897   0.928   3.788   3.244 -1.6027 -0.0105 -1.3947
 1421SOL     OW15898   0.459   3.289  11.125  0.4433  0.2820  0.3463
 1421SOL    HW115899   0.366   3.275  11.105  0.5657  2.0304 -1.4986
 1421SOL    HW215900   0.455   3.385  11.122  1.2679  0.2620 -1.6912
 1422SOL     OW15901   3.412   1.872  15.353 -0.1017 -0.0883 -0.0665
 1422SOL    HW115902   3.326   1.874  15.309 -0.4257 -3.4729  0.4410
 1422SOL    HW215903   3.474   1.885  15.281 -0.3995  2.8585  0.2046
 1423SOL     OW15904   3.106   3.374   6.163 -0.3632 -0.4041  0.0519
 1423SOL    HW115905   3.038   3.309   6.181 -1.7717  1.0810  0.0552
 1423SOL    HW215906   3.050   3.441   6.124 -0.6969 -1.3782 -1.1594
 1424SOL     OW15907   2.303   1.486   5.049  0.0845 -0.3076  0.1198
 1424SOL    HW115908   2.378   1.499   4.992 -0.0677 -0.3450 -0.0863
 1424SOL    HW215909   2.296   1.562   5.106 -0.9715  0.1650 -0.6514
 1425SOL     OW15910   0.296   2.031   5.092 -0.3389  0.0934  0.1765
 1425SOL    HW115911   0.261   2.028   5.003  1.8491 -2.3819 -0.6073
 1425SOL    HW215912   0.313   1.938   5.105 -2.2334 -0.1368  0.9255
 1426SOL     OW15913   0.429   1.878   2.291  0.2876  0.5617 -0.0472
 1426SOL    HW115914   0.504   1.927   2.325  0.6790  0.4770 -0.7849
 1426SOL    HW215915   0.459   1.843   2.207  0.6932  0.2114  0.2464
 1427SOL     OW15916   0.137   3.850   2.849 -0.0003  0.2127 -0.6692
 1427SOL    HW115917   0.165   3.893   2.929  1.0223  1.5143 -1.7099
 1427SOL    HW215918   0.104   3.769   2.886  2.3976 -1.1346 -1.4660
 1428SOL     OW15919   1.556   2.681  13.775  0.0964  0.3534 -0.3073
 1428SOL    HW115920   1.484   2.743  13.768  0.6255  0.8646 -1.1006
 1428SOL    HW215921   1.615   2.740  13.822 -0.1195  0.2711  0.0739
 1429SOL     OW15922   0.434   2.764  11.420  0.4695 -0.0223 -0.1318
 1429SOL    HW115923   0.379   2.792  11.347  0.3431  0.7289  0.2496
 1429SOL    HW215924   0.507   2.825  11.427  1.5350 -1.2413 -0.5153
 1430SOL     OW15925   2.261   3.651   3.381  0.3853 -0.1421 -0.3609
 1430SOL    HW115926   2.277   3.656   3.476 -0.8383 -3.0084  0.0015
 1430SOL    HW215927   2.186   3.712   3.377 -2.0927 -3.1866 -0.3301
 1431SOL     OW15928   2.681   1.457   3.036  0.6024 -0.1308  0.2510
 1431SOL    HW115929   2.752   1.472   3.098  0.4867  2.4541 -0.2170
 1431SOL    HW215930   2.601   1.475   3.086 -0.7989  2.0877 -2.7041
 1432SOL     OW15931   0.562   2.176   5.800 -0.1869 -0.7807  0.3565
 1432SOL    HW115932   0.477   2.161   5.759 -0.4973  1.9317  0.0159
 1432SOL    HW215933   0.596   2.086   5.800  0.5342 -0.5178  1.1095
 1433SOL     OW15934   0.683   4.730   4.734 -0.6244 -0.1413  0.2676
 1433SOL    HW115935   0.731   4.705   4.813  0.6973  1.4909 -0.0480
 1433SOL    HW215936   0.592   4.717   4.763 -0.1696  0.3238  1.8959
 1434SOL     OW15937   3.977   2.395   2.458 -0.0757 -0.0624 -0.3230
 1434SOL    HW115938   3.909   2.353   2.511  2.0296 -0.7052  1.9042
 1434SOL    HW215939   4.019   2.456   2.519  0.5941 -1.5628  0.7337
 1435SOL     OW15940   3.964   3.891   0.703 -0.2924  0.4652  0.0580
 1435SOL    HW115941   3.926   3.979   0.695 -0.0805  0.3294 -2.3253
 1435SOL    HW215942   3.988   3.899   0.796 -1.4024  0.9930  0.3040
 1436SOL     OW15943   3.646   2.886   5.475  0.4507 -0.2123  0.9768
 1436SOL    HW115944   3.551   2.900   5.482  0.8666  2.8544  0.4664
 1436SOL    HW215945   3.664   2.799   5.511 -1.2796 -0.9633  0.0184
 1437SOL     OW15946   2.969   3.584  15.576 -0.5554  0.0718 -0.6975
 1437SOL    HW115947   3.058   3.607  15.549 -0.4368  0.4609  0.0315
 1437SOL    HW215948   2.919   3.599  15.495 -2.3803 -0.2840  0.3670
 1438SOL     OW15949   0.988   1.187   9.101  0.0785 -0.0392 -0.2123
 1438SOL    HW115950   0.980   1.179   9.196 -0.4768  0.2391 -0.2361
 1438SOL    HW215951   0.899   1.212   9.077  0.6155  0.8403 -1.3059
 1439SOL     OW15952   0.044   4.680   7.442 -0.3809  0.7078 -0.5160
 1439SOL    HW115953   0.107   4.614   7.473 -1.5860 -1.1485 -2.0271
 1439SOL    HW215954   0.087   0.029   7.450  1.1274  0.1488 -2.4449
 1440SOL     OW15955   2.962   4.595   8.554  0.3693  0.9371 -0.3893
 1440SOL    HW115956   3.036   4.548   8.591 -2.7741 -2.4816  1.5714
 1440SOL    HW215957   2.948   4.678   8.601 -1.3711 -0.7069  1.9896
 1441SOL     OW15958   1.950   4.569   3.076  0.0717 -0.6070 -0.4965
 1441SOL    HW115959   2.012   4.506   3.111 -1.1324 -1.1156  0.7197
 1441SOL    HW215960   1.910   4.513   3.010 -2.1483  2.2510 -1.5650
 1442SOL     OW15961   3.800   4.628  12.178  0.6375 -0.1992  0.5577
 1442SOL    HW115962   3.882   4.661  12.212 -0.3048  0.3811  2.2418
 1442SOL    HW215963   3.797   4.651  12.085 -1.2051 -1.0178  0.4041
 1443SOL     OW15964   3.188   4.173   3.750 -0.3945  0.3819  0.1496
 1443SOL    HW115965   3.186   4.083   3.783 -1.7524  1.4689  3.0252
 1443SOL    HW215966   3.127   4.167   3.676  0.8248  0.9577 -0.8986
 1444SOL     OW15967   4.503   1.379   3.233 -0.3356  0.4087  0.2764
 1444SOL    HW115968   4.477   1.438   3.304  1.9588 -1.0910  2.3879
 1444SOL    HW215969   4.550   1.307   3.276 -0.3264 -0.0854 -0.5666
 1445SOL     OW15970   0.140   0.936  14.325  0.0526 -0.2328 -0.0306
 1445SOL    HW115971   0.100   0.997  14.263  1.9551  0.9301 -0.1045
 1445SOL    HW215972   0.232   0.962  14.326 -0.2632  0.8385  0.9603
 1446SOL     OW15973   0.556   3.175   3.630  0.0690  0.5172 -0.2674
 1446SOL    HW115974   0.514   3.119   3.696  1.8635 -0.2924  0.1905
 1446SOL    HW215975   0.598   3.109   3.575  2.1168  1.4022  0.2388
 1447SOL     OW15976   1.220   3.424   1.863  0.1810  0.6425 -0.7775
 1447SOL    HW115977   1.193   3.465   1.946  1.6609  0.4027 -0.1790
 1447SOL    HW215978   1.144   3.414   1.806 -1.5861  0.5256  1.6060
 1448SOL     OW15979   2.425   3.745   0.088  0.4969  0.2267  0.0601
 1448SOL    HW115980   2.422   3.742  17.738  0.5897  0.3065  0.0545
 1448SOL    HW215981   2.517   3.758   0.114  0.5226 -3.0289  1.5620
 1449SOL     OW15982   1.801   4.512   1.758 -0.3669  0.5298  0.8622
 1449SOL    HW115983   1.891   4.491   1.733 -0.6123  0.5846 -0.0579
 1449SOL    HW215984   1.748   4.492   1.681  0.5161 -1.8365  0.8879
 1450SOL     OW15985   3.239   1.701   7.073  0.1036  0.8194  0.1071
 1450SOL    HW115986   3.205   1.789   7.090  0.4878  0.8597  0.6631
 1450SOL    HW215987   3.180   1.645   7.124  0.4287 -1.6344 -2.2251
 1451SOL     OW15988   2.164   0.012   7.282 -0.1895  0.9501 -0.1145
 1451SOL    HW115989   2.229   4.701   7.334 -0.7743 -0.2173 -0.4567
 1451SOL    HW215990   2.194   0.003   7.192 -1.0827  3.2071 -0.6429
 1452SOL     OW15991   2.720   0.495   4.289  0.4007 -0.0177  0.5890
 1452SOL    HW115992   2.755   0.553   4.357  0.6839  0.6239 -0.1104
 1452SOL    HW215993   2.717   0.417   4.344  3.5441 -0.3461  0.3006
 1453SOL     OW15994   2.779   4.162   7.260 -0.4820  0.0442 -0.4057
 1453SOL    HW115995   2.778   4.080   7.212 -0.8298 -1.5679  2.3265
 1453SOL    HW215996   2.689   4.195   7.266 -0.9696 -1.4450  0.6511
 1454SOL     OW15997   0.874   1.389  14.470 -0.4323  0.0906 -0.2086
 1454SOL    HW115998   0.946   1.387  14.533  0.7542 -0.9908 -1.6041
 1454SOL    HW215999   0.798   1.398  14.528 -0.6248 -0.6275 -0.3436
 1455SOL     OW16000   2.252   0.780  10.460  0.0726 -0.3087 -0.1955
 1455SOL    HW116001   2.224   0.752  10.547 -0.2602 -0.4785 -0.3551
 1455SOL    HW216002   2.168   0.793  10.416 -0.8561  0.3407  1.7559
 1456SOL     OW16003   2.699   2.690  12.770 -0.6713  0.0839  0.1145
 1456SOL    HW116004   2.741   2.626  12.713 -0.0866 -1.6900  2.5536
 1456SOL    HW216005   2.761   2.707  12.841  2.6595  0.7497 -2.9229
 1457SOL     OW16006   0.191   0.135  15.658 -0.0367 -0.3790  0.0368
 1457SOL    HW116007   0.251   0.137  15.732  0.2159 -1.4799 -0.1386
 1457SOL    HW216008   0.181   0.230  15.655  0.2887 -0.2926  1.8059
 1458SOL     OW16009   0.018   3.632  10.175  0.3826  0.0304  1.0158
 1458SOL    HW116010   0.101   3.673  10.149  0.2483  0.8359  1.8377
 1458SOL    HW216011   0.038   3.608  10.266  0.4690 -3.2084  0.1068
 1459SOL     OW16012   1.692   2.283   8.872  0.4791 -0.1603  0.2530
 1459SOL    HW116013   1.709   2.357   8.813 -0.7693  0.6143  0.8555
 1459SOL    HW216014   1.667   2.223   8.802  0.7864  0.9535 -0.8123
 1460SOL     OW16015   1.945   4.596   6.574 -0.1818 -0.5659  0.1060
 1460SOL    HW116016   1.954   4.691   6.578 -1.4551 -0.5013  1.5875
 1460SOL    HW216017   1.912   4.587   6.484  2.8048 -0.8767 -0.9544
 1461SOL     OW16018   3.416   1.784   8.733 -0.0187 -0.8182  0.7692
 1461SOL    HW116019   3.410   1.705   8.786 -1.9409 -0.7402  0.6954
 1461SOL    HW216020   3.492   1.829   8.768  1.3842 -1.4248 -1.5037
 1462SOL     OW16021   2.407   1.503   5.706 -0.3609  0.2869  0.2023
 1462SOL    HW116022   2.392   1.482   5.799  0.3420 -0.8859  0.0459
 1462SOL    HW216023   2.357   1.433   5.664  0.9407 -0.0471 -0.7696
 1463SOL     OW16024   1.191   1.253   1.584 -0.3185  0.5100  0.5938
 1463SOL    HW116025   1.231   1.169   1.609 -0.7099  0.4227  0.9348
 1463SOL    HW216026   1.099   1.239   1.606 -0.1802  0.0748  0.8980
 1464SOL     OW16027   1.107   1.408   3.803  0.4416  0.0149  0.0410
 1464SOL    HW116028   1.051   1.427   3.878  0.0754 -2.3596  0.3606
 1464SOL    HW216029   1.185   1.461   3.816  1.1301 -1.2018  0.8633
 1465SOL     OW16030   0.781   1.428   4.212  0.6074  0.1189  0.3820
 1465SOL    HW116031   0.748   1.483   4.282  0.0526  0.4557 -0.1452
 1465SOL    HW216032   0.786   1.345   4.258 -0.5874  1.7700  3.4495
 1466SOL     OW16033   3.085   2.736   0.111 -0.2413  0.0823 -0.0146
 1466SOL    HW116034   3.002   2.751   0.157  1.4339  1.1099  2.6927
 1466SOL    HW216035   3.145   2.758   0.183 -1.0395 -0.1325  0.7164
 1467SOL     OW16036   0.666   4.158   6.181 -0.1328 -0.0914 -0.3391
 1467SOL    HW116037   0.614   4.079   6.196  0.3625 -0.2231  0.6851
 1467SOL    HW216038   0.690   4.181   6.270  0.3362  1.7359 -0.9351
 1468SOL     OW16039   1.224   3.395  10.786 -0.6783  0.0699  0.0336
 1468SOL    HW116040   1.140   3.357  10.813  1.2489 -4.5061 -0.3783
 1468SOL    HW216041   1.275   3.375  10.864 -0.7218 -0.2707 -0.0226
 1469SOL     OW16042   1.210   2.552  12.474  0.3228  0.0187  0.2406
 1469SOL    HW116043   1.259   2.598  12.406 -2.5030  1.9585 -0.4712
 1469SOL    HW216044   1.273   2.518  12.537 -0.5692 -3.9875 -1.0283
 1470SOL     OW16045   2.557   3.341  10.265 -0.2524 -0.2620  0.1950
 1470SOL    HW116046   2.573   3.264  10.320 -0.1835  1.6602  2.8340
 1470SOL    HW216047   2.623   3.327  10.197 -2.4770  2.8516 -2.6001
 1471SOL     OW16048   2.056   0.251   7.609 -0.2779 -0.7249 -0.4464
 1471SOL    HW116049   2.053   0.313   7.682  1.4641 -1.0090 -0.1406
 1471SOL    HW216050   1.961   0.243   7.597 -0.3630  1.0619 -0.9666
 1472SOL     OW16051   0.547   0.710  12.473  0.2367 -0.0954  0.0853
 1472SOL    HW116052   0.599   0.638  12.508 -1.0054  0.3913  2.9423
 1472SOL    HW216053   0.593   0.719  12.389 -0.4127  1.6958 -0.0935
 1473SOL     OW16054   0.526   2.837   4.029 -0.3132  0.5692  0.1153
 1473SOL    HW116055   0.491   2.896   3.963  0.0157  2.1635  1.3525
 1473SOL    HW216056   0.449   2.828   4.085 -0.4742  0.3000 -0.1511
 1474SOL     OW16057   1.368   1.402   2.360  0.6011  0.7114 -0.0275
 1474SOL    HW116058   1.324   1.475   2.317 -0.5392  1.3596  2.2167
 1474SOL    HW216059   1.408   1.435   2.441  0.8948  0.5310 -0.0979
 1475SOL     OW16060   1.418   2.910   5.930  0.5798 -0.2461 -0.0438
 1475SOL    HW116061   1.422   2.929   6.024 -0.7695  0.6549 -0.1659
 1475SOL    HW216062   1.451   2.990   5.890  0.4032 -1.7164 -3.0929
 1476SOL     OW16063   4.131   2.887   9.706  0.2742 -0.3520 -0.4800
 1476SOL    HW116064   4.069   2.920   9.772 -0.8493  2.0676 -2.7278
 1476SOL    HW216065   4.213   2.904   9.752 -0.0514  0.3722 -0.1655
 1477SOL     OW16066   1.916   1.861   2.892  0.2716  0.0613  0.3413
 1477SOL    HW116067   1.981   1.923   2.858  1.0553 -1.1638 -0.3863
 1477SOL    HW216068   1.851   1.874   2.822  1.2431 -1.2986 -0.8255
 1478SOL     OW16069   3.856   4.181   6.176  0.6194  0.2515 -0.1341
 1478SOL    HW116070   3.798   4.111   6.146  1.7103 -1.1278  1.0120
 1478SOL    HW216071   3.807   4.233   6.240  1.1743 -0.0329  0.5228
 1479SOL     OW16072   1.918   4.579   5.751 -0.0639 -0.0841 -0.4720
 1479SOL    HW116073   1.958   4.644   5.694 -0.1054 -0.8884 -1.4060
 1479SOL    HW216074   1.993   4.568   5.810 -1.4837 -3.4360  0.7717
 1480SOL     OW16075   2.756   4.220   9.667 -0.2668 -0.4626  0.1008
 1480SOL    HW116076   2.785   4.130   9.683  0.8861 -0.3994 -1.6136
 1480SOL    HW216077   2.662   4.204   9.664 -0.2519 -0.1967 -1.7374
 1481SOL     OW16078   2.864   2.382   7.096  0.2313  0.2457  0.1861
 1481SOL    HW116079   2.815   2.462   7.118  0.7131  1.2977 -2.5770
 1481SOL    HW216080   2.887   2.399   7.004  0.1189  0.1052  0.1332
 1482SOL     OW16081   0.575   0.926   3.225  0.3296  0.1757 -0.6772
 1482SOL    HW116082   0.616   0.941   3.310 -0.8203  1.8864 -0.4307
 1482SOL    HW216083   0.515   1.000   3.222  1.9991  1.5924  0.8401
 1483SOL     OW16084   4.114   3.862   9.564  0.6052 -0.6597 -0.1782
 1483SOL    HW116085   4.118   3.786   9.623  1.3090 -0.0332  0.5812
 1483SOL    HW216086   4.095   3.933   9.626 -0.2012 -1.7566  0.8376
 1484SOL     OW16087   3.561   0.992   6.487  0.2116  0.4735 -0.0394
 1484SOL    HW116088   3.550   0.924   6.552 -1.8559  2.6163  1.8623
 1484SOL    HW216089   3.574   0.936   6.410  1.9599 -0.5224  0.9949
 1485SOL     OW16090   3.458   3.806  12.133 -0.2064 -0.0433 -0.1237
 1485SOL    HW116091   3.548   3.783  12.155 -0.2611  2.1518  2.3258
 1485SOL    HW216092   3.438   3.734  12.073  0.6739 -0.2545 -0.1664
 1486SOL     OW16093   0.252   0.636   5.977  0.0825  0.1572  0.2151
 1486SOL    HW116094   0.315   0.602   5.913 -0.5408 -0.0020 -0.3178
 1486SOL    HW216095   0.201   0.560   6.004  0.9550 -1.1255 -1.7636
 1487SOL     OW16096   2.426   3.525   3.684 -0.3059 -0.3481 -0.4078
 1487SOL    HW116097   2.364   3.594   3.707  0.0262 -0.3760  0.5613
 1487SOL    HW216098   2.485   3.537   3.758 -1.6851 -0.6482  0.7355
 1488SOL     OW16099   4.634   4.454   9.677 -0.4845  0.3399 -0.0195
 1488SOL    HW116100   4.712   4.511   9.678  0.0182 -0.3549  0.6582
 1488SOL    HW216101   4.595   4.479   9.761 -2.7083 -1.8412 -0.4139
 1489SOL     OW16102   4.696   3.176   2.046 -0.3024 -0.0328 -0.1528
 1489SOL    HW116103   4.693   3.259   1.999 -0.9104 -0.5774 -1.0871
 1489SOL    HW216104   0.002   3.107   1.995 -0.7368  0.2540 -0.8962
 1490SOL     OW16105   4.070   1.267   2.430  0.3121 -0.2108  0.3375
 1490SOL    HW116106   4.029   1.183   2.411  0.6188 -0.5142  0.9980
 1490SOL    HW216107   4.161   1.239   2.441  0.7288  1.1087  0.2800
 1491SOL     OW16108   2.020   2.823   6.811  0.2385  0.0791  0.1725
 1491SOL    HW116109   2.002   2.808   6.904 -0.2753  0.8949  0.2067
 1491SOL    HW216110   1.941   2.875   6.791  1.2331  1.9427  1.0750
 1492SOL     OW16111   3.386   0.312   8.090 -0.5718  0.3536 -0.1154
 1492SOL    HW116112   3.457   0.258   8.126 -0.7055 -0.2931 -0.8268
 1492SOL    HW216113   3.411   0.400   8.118  3.9252 -0.0120 -2.9660
 1493SOL     OW16114   2.933   2.411  11.783  0.6389  0.2436 -0.1174
 1493SOL    HW116115   2.977   2.419  11.868 -0.2733  3.8789  0.0284
 1493SOL    HW216116   3.014   2.397  11.734  0.9172 -0.2494  0.4800
 1494SOL     OW16117   0.305   1.860  15.296 -0.1553 -0.4483 -0.7337
 1494SOL    HW116118   0.302   1.878  15.202  0.4563  0.1196 -0.6438
 1494SOL    HW216119   0.228   1.803  15.296 -1.7642  1.7095 -1.2369
 1495SOL     OW16120   0.544   2.793   3.326 -0.3556  0.3370  0.1895
 1495SOL    HW116121   0.538   2.823   3.235 -1.3180  0.7309  0.3908
 1495SOL    HW216122   0.614   2.854   3.351 -1.1233  0.8356  1.1113
 1496SOL     OW16123   2.333   2.998   5.839  0.2369 -0.6179 -0.4912
 1496SOL    HW116124   2.303   2.922   5.888 -0.0484  0.1360  0.4998
 1496SOL    HW216125   2.349   2.963   5.751 -2.5171  0.9764 -1.6018
 1497SOL     OW16126   3.243   3.118  17.213  0.1182  0.5231  0.1812
 1497SOL    HW116127   3.310   3.072  17.163  0.3305  1.3861 -0.3237
 1497SOL    HW216128   3.172   3.059  17.189  1.6990 -1.2967 -0.0231
 1498SOL     OW16129   3.874   3.154   4.998  0.0115 -0.1834 -0.0126
 1498SOL    HW116130   3.877   3.201   5.081  0.8464 -0.8711  0.3429
 1498SOL    HW216131   3.961   3.163   4.960 -0.3060  2.0514 -0.2292
 1499SOL     OW16132   2.168   0.310   8.421 -0.0456 -0.8329  0.3926
 1499SOL    HW116133   2.253   0.349   8.439 -1.2495  1.6538  0.7584
 1499SOL    HW216134   2.114   0.386   8.443  0.0578 -0.9006  0.8650
 1500SOL     OW16135   3.343   4.523   3.931 -0.6871 -0.4680 -0.3486
 1500SOL    HW116136   3.339   4.529   3.836  1.4761  0.5592 -0.3784
 1500SOL    HW216137   3.308   4.608   3.954  1.8237  0.5881 -0.3864
 1501SOL     OW16138   1.653   2.131   6.168 -0.4523  0.1501  0.1365
 1501SOL    HW116139   1.643   2.038   6.188 -2.6846  0.0858 -1.2893
 1501SOL    HW216140   1.625   2.130   6.077 -0.1778  0.0646  0.0524
 1502SOL     OW16141   1.947   1.198   3.129  0.6727 -0.0552  0.6036
 1502SOL    HW116142   1.934   1.165   3.040  1.4501 -1.7744  1.1379
 1502SOL    HW216143   1.897   1.279   3.118  4.1771  2.2236  1.0937
 1503SOL     OW16144   2.058   1.867   8.411 -0.4159  0.3630 -0.0451
 1503SOL    HW116145   2.114   1.794   8.385 -1.3944 -0.2925 -0.3309
 1503SOL    HW216146   1.974   1.848   8.368 -1.1465 -0.8704  1.9295
 1504SOL     OW16147   3.382   0.778   9.667  0.0780 -0.2230  0.3503
 1504SOL    HW116148   3.476   0.772   9.686  0.5594  1.4859 -1.4967
 1504SOL    HW216149   3.370   0.698   9.615  0.3678  0.7679 -1.2361
 1505SOL     OW16150   1.220   1.708   4.336 -0.2668 -0.0607 -0.5212
 1505SOL    HW116151   1.188   1.621   4.360  2.6097 -0.5244  1.7085
 1505SOL    HW216152   1.309   1.699   4.302  0.4858 -1.3485  1.7877
 1506SOL     OW16153   2.178   2.904   8.610 -0.8429  0.1732  0.2407
 1506SOL    HW116154   2.218   2.979   8.567  0.5485 -1.4451 -1.2814
 1506SOL    HW216155   2.249   2.842   8.625 -0.2550  1.0789  1.2261
 1507SOL     OW16156   0.256   4.428   5.605 -0.9160 -0.4349 -0.5600
 1507SOL    HW116157   0.219   4.340   5.615  2.3028 -1.6594  0.2814
 1507SOL    HW216158   0.344   4.420   5.569 -1.1132  1.0677 -1.3659
 1508SOL     OW16159   1.695   3.998   5.706  0.8066 -0.1133 -0.0801
 1508SOL    HW116160   1.766   4.055   5.733 -0.4681  0.5387  1.8479
 1508SOL    HW216161   1.623   4.038   5.754 -0.4445 -2.6060  0.1224
 1509SOL     OW16162   3.245   4.267   7.144 -0.0200 -0.1623 -0.0919
 1509SOL    HW116163   3.165   4.290   7.098  1.1219 -1.2054 -2.6016
 1509SOL    HW216164   3.279   4.212   7.073  0.3989 -2.3805  1.8205
 1510SOL     OW16165   1.310   0.015  14.927 -0.5388 -0.4259  0.3591
 1510SOL    HW116166   1.386   4.696  14.910 -0.8211 -0.7613  0.2148
 1510SOL    HW216167   1.349   0.065  14.999 -1.9658 -0.1538  0.9448
 1511SOL     OW16168   0.356   1.814   5.946 -0.3174 -0.4854  0.0267
 1511SOL    HW116169   0.291   1.879   5.974 -0.4648  0.1304 -1.7402
 1511SOL    HW216170   0.350   1.745   6.012 -0.5872 -1.3446 -0.8928
 1512SOL     OW16171   0.327   2.946   5.780  0.3174  0.2630 -0.1882
 1512SOL    HW116172   0.373   2.960   5.698  3.4053 -1.2284  1.2863
 1512SOL    HW216173   0.308   2.852   5.782 -2.1239  0.7508 -0.7616
 1513SOL     OW16174   4.201   3.288   5.526 -0.4867  0.0034 -0.4765
 1513SOL    HW116175   4.239   3.321   5.444  0.2701  0.5486  0.0955
 1513SOL    HW216176   4.273   3.303   5.587 -0.3613 -0.6612 -0.4662
 1514SOL     OW16177   2.286   0.586  14.346 -0.3867  0.2501  0.7114
 1514SOL    HW116178   2.225   0.659  14.345 -0.4157  0.2013 -0.5796
 1514SOL    HW216179   2.344   0.616  14.416 -0.1023 -0.8349  0.9418
 1515SOL     OW16180   2.762   3.726   4.230 -0.3718 -0.1247  0.1640
 1515SOL    HW116181   2.699   3.797   4.228 -0.2230 -0.0317 -1.8006
 1515SOL    HW216182   2.811   3.745   4.150 -0.5054  3.3360  0.9220
 1516SOL     OW16183   0.457   1.719  14.760 -0.6387 -0.2910 -0.3373
 1516SOL    HW116184   0.533   1.730  14.704  0.0051  2.8572  1.1619
 1516SOL    HW216185   0.456   1.626  14.785  0.7029 -0.1370  0.2978
 1517SOL     OW16186   4.295   1.535   2.092  0.2010 -0.7541  0.1047
 1517SOL    HW116187   4.210   1.493   2.075 -0.2295  0.2700 -0.2907
 1517SOL    HW216188   4.352   1.494   2.027  2.1998  2.0833  0.0571
 1518SOL     OW16189   4.678   1.429   2.131  0.0646  0.1508  0.7281
 1518SOL    HW116190   4.709   1.492   2.066  1.7762 -1.0185  0.3980
 1518SOL    HW216191   0.015   1.440   2.191  0.1480 -0.6168  0.7649
 1519SOL     OW16192   1.619   3.380   5.928  0.1540 -0.3149 -0.0179
 1519SOL    HW116193   1.697   3.434   5.940  0.3300 -0.4234 -0.6762
 1519SOL    HW216194   1.657   3.297   5.957 -0.0661 -0.3207  0.2610
 1520SOL     OW16195   0.845   1.629   3.307 -0.4446 -0.3678 -0.4086
 1520SOL    HW116196   0.810   1.549   3.268  0.8012 -1.6954  1.1803
 1520SOL    HW216197   0.849   1.608   3.401 -1.2571 -0.1789 -0.3278
 1521SOL     OW16198   3.571   3.988  13.814 -0.9966 -0.1043  0.3802
 1521SOL    HW116199   3.655   3.951  13.842  0.5763  3.5807  0.4695
 1521SOL    HW216200   3.531   4.027  13.892 -0.1426 -1.7665  1.6693
 1522SOL     OW16201   4.278   1.585   9.529  0.0758 -0.2158  0.5006
 1522SOL    HW116202   4.194   1.539   9.523 -0.7469  1.2873  0.3224
 1522SOL    HW216203   4.334   1.565   9.454  0.6894 -0.7854  1.1154
 1523SOL     OW16204   2.246   1.757   3.662 -0.3925 -0.2857 -0.3843
 1523SOL    HW116205   2.260   1.781   3.753  1.4665  0.4929 -0.8728
 1523SOL    HW216206   2.324   1.718   3.620  1.6144  3.4692 -0.1022
 1524SOL     OW16207   3.395   3.368   8.512  0.1690 -0.1680  0.0072
 1524SOL    HW116208   3.353   3.336   8.432 -1.0050  0.6960  0.2689
 1524SOL    HW216209   3.484   3.343   8.486  0.0218 -1.2441  0.5499
 1525SOL     OW16210   4.287   0.048   7.697  0.2729  0.7555  0.1900
 1525SOL    HW116211   4.367   0.097   7.678 -0.9625  3.0019  0.8209
 1525SOL    HW216212   4.235   0.086   7.626  1.0171  1.1706 -0.1408
 1526SOL     OW16213   0.944   0.032  10.022 -0.5757  0.7232  0.1516
 1526SOL    HW116214   1.035   0.003  10.034 -0.5273 -0.2775 -2.6807
 1526SOL    HW216215   0.909   4.697  10.074 -0.5902  1.8951  1.7675
 1527SOL     OW16216   1.240   3.821   7.243 -0.3197 -0.1708  0.5557
 1527SOL    HW116217   1.259   3.786   7.156  1.2060 -0.8940  1.1698
 1527SOL    HW216218   1.174   3.886   7.219  0.8243 -0.5831 -3.7749
 1528SOL     OW16219   3.878   1.793   1.682 -0.9524  0.2853 -0.1677
 1528SOL    HW116220   3.825   1.846   1.742 -0.8089  2.3267 -1.8337
 1528SOL    HW216221   3.810   1.752   1.627 -1.0512  1.9694 -1.3188
 1529SOL     OW16222   1.205   0.953   6.153  0.3087  0.9364 -0.0738
 1529SOL    HW116223   1.159   0.923   6.075 -1.2479 -1.7472  1.8394
 1529SOL    HW216224   1.142   0.925   6.220 -0.5520 -0.8514 -1.6204
 1530SOL     OW16225   1.152   2.849  11.478 -0.3153  0.2888 -0.2929
 1530SOL    HW116226   1.114   2.935  11.460  1.4012  0.9162 -0.9124
 1530SOL    HW216227   1.240   2.862  11.444 -1.6400  1.4723 -3.2209
 1531SOL     OW16228   0.138   2.431   6.729  0.4214  0.1538  0.0212
 1531SOL    HW116229   0.137   2.335   6.735 -0.0988  0.0721 -1.3502
 1531SOL    HW216230   0.190   2.445   6.650 -0.0631  2.5031  0.1181
 1532SOL     OW16231   4.183   3.139  14.401  0.2159 -0.4440  0.2783
 1532SOL    HW116232   4.199   3.154  14.308 -0.0524  0.2177  0.3419
 1532SOL    HW216233   4.193   3.230  14.427  0.7297 -0.2361 -0.6386
 1533SOL     OW16234   4.391   4.402   1.817 -1.0988 -0.4453  0.5271
 1533SOL    HW116235   4.464   4.464   1.810  0.1113 -2.0436 -1.0856
 1533SOL    HW216236   4.320   4.460   1.845 -0.4672  0.7864 -0.4035
 1534SOL     OW16237   0.625   2.534  17.743 -0.0179  0.2564  0.1173
 1534SOL    HW116238   0.648   2.501   0.084 -1.7447 -0.7194  0.2080
 1534SOL    HW216239   0.582   2.615   0.023  1.8490  0.8690  1.3429
 1535SOL     OW16240   2.054   2.234  15.763 -0.2306 -0.1271  0.3489
 1535SOL    HW116241   1.987   2.165  15.773 -0.8026  0.4053  0.1656
 1535SOL    HW216242   2.083   2.242  15.672  1.0615  0.3391  0.8083
 1536SOL     OW16243   0.268   0.093   4.679 -0.1116  0.3159  0.4903
 1536SOL    HW116244   0.340   0.128   4.732  0.8135  1.7081 -1.6705
 1536SOL    HW216245   0.200   0.147   4.719 -0.4238 -0.3325  0.8258
 1537SOL     OW16246   1.250   1.577  12.036 -0.0538 -0.5189  0.2516
 1537SOL    HW116247   1.312   1.604  12.105 -2.3259  2.3733  1.1718
 1537SOL    HW216248   1.194   1.655  12.034  0.3442 -0.2424 -0.3344
 1538SOL     OW16249   0.712   1.782   8.634  0.1392  0.0786 -0.1234
 1538SOL    HW116250   0.653   1.707   8.642 -0.9176  0.9298  0.2672
 1538SOL    HW216251   0.680   1.815   8.550 -2.3383  0.5826  0.9913
 1539SOL     OW16252   0.842   4.320   5.245  0.2194  0.2844 -0.3865
 1539SOL    HW116253   0.888   4.375   5.308 -2.3888  0.4184  1.3999
 1539SOL    HW216254   0.807   4.249   5.299  1.2072  0.6922  0.7867
 1540SOL     OW16255   0.244   0.296  13.347 -0.3195 -0.1059  0.6559
 1540SOL    HW116256   0.240   0.220  13.405  2.1981  0.5796  1.7537
 1540SOL    HW216257   0.175   0.348  13.389  1.1085  2.7930 -0.6080
 1541SOL     OW16258   0.651   2.738   2.410  0.1212 -0.0585  0.4263
 1541SOL    HW116259   0.678   2.723   2.501 -0.2706  0.8261  0.6881
 1541SOL    HW216260   0.556   2.733   2.423 -0.0110  0.0471 -0.5296
 1542SOL     OW16261   1.914   0.552  12.353  0.4819  0.2617  0.5166
 1542SOL    HW116262   2.006   0.530  12.337  0.0998 -0.4968 -0.6126
 1542SOL    HW216263   1.914   0.638  12.312 -0.5273 -0.2208 -0.4940
 1543SOL     OW16264   3.089   4.062  15.505  0.1263 -0.1950 -0.1286
 1543SOL    HW116265   3.044   4.142  15.480  3.4070  1.5967 -0.2395
 1543SOL    HW216266   3.126   4.102  15.584 -1.0790 -1.8408  1.2672
 1544SOL     OW16267   4.460   2.885  14.105  0.6350 -0.2625  0.5083
 1544SOL    HW116268   4.483   2.877  14.013  2.3395 -0.8141  0.9718
 1544SOL    HW216269   4.491   2.973  14.127  0.0808 -0.3465  1.6583
 1545SOL     OW16270   3.013   0.977  14.408 -0.1151 -0.6248  0.0078
 1545SOL    HW116271   3.107   0.958  14.406 -0.1119 -0.6933  0.7246
 1545SOL    HW216272   3.011   1.053  14.350  1.9732  0.8981  1.9079
 1546SOL     OW16273   4.429   4.184  10.669 -0.5763 -0.4367  0.6313
 1546SOL    HW116274   4.470   4.103  10.639  0.7800  0.2725  0.5672
 1546SOL    HW216275   4.417   4.241  10.594 -0.1066  1.3196  1.8836
 1547SOL     OW16276   4.469   2.085  14.789 -0.1942 -0.1824  0.4634
 1547SOL    HW116277   4.488   2.029  14.713 -1.4589  1.6723 -1.2256
 1547SOL    HW216278   4.397   2.141  14.760  0.7333  0.1999 -1.1028
 1548SOL     OW16279   0.246   1.262   1.122  0.1435  0.0124 -0.2436
 1548SOL    HW116280   0.312   1.313   1.074  1.2613 -2.0277 -0.8634
 1548SOL    HW216281   0.295   1.181   1.133  0.0273 -0.0356 -0.0788
 1549SOL     OW16282   2.056   1.918   5.145  0.5666  0.0946 -0.4405
 1549SOL    HW116283   2.010   1.844   5.106  0.8556 -0.0693 -0.4641
 1549SOL    HW216284   1.987   1.977   5.115  1.3968  0.0281 -2.4129
 1550SOL     OW16285   4.263   2.443   8.715 -0.3474 -0.0515  0.2859
 1550SOL    HW116286   4.309   2.510   8.664 -0.5951  1.4273  2.0049
 1550SOL    HW216287   4.330   2.428   8.781 -1.5571  0.0820  1.5368
 1551SOL     OW16288   2.940   3.617   6.188 -0.5393 -0.2959 -0.2912
 1551SOL    HW116289   2.983   3.608   6.273  2.6179  0.0729 -1.8556
 1551SOL    HW216290   2.856   3.571   6.199  0.0370 -1.4943 -0.9114
 1552SOL     OW16291   2.669   4.277   3.743  0.0821 -0.1116 -0.3438
 1552SOL    HW116292   2.683   4.185   3.718  3.0715 -0.0154  0.9191
 1552SOL    HW216293   2.731   4.318   3.683 -0.0383 -0.8355 -0.9560
 1553SOL     OW16294   1.786   2.900   5.983 -0.1131 -0.2109 -0.3779
 1553SOL    HW116295   1.734   2.820   5.974  0.6644 -0.5844 -1.5466
 1553SOL    HW216296   1.843   2.883   5.908  1.2149 -0.4310  0.6879
 1554SOL     OW16297   1.711   0.124  14.011 -0.3541  0.0945  0.0475
 1554SOL    HW116298   1.748   0.209  13.984 -1.0747  1.1124  2.2729
 1554SOL    HW216299   1.787   0.073  14.038  0.2338  1.8364  1.7184
 1555SOL     OW16300   0.224   4.069   3.954  0.0670 -0.3266  0.3447
 1555SOL    HW116301   0.310   4.028   3.948  0.7816  1.1585  0.2610
 1555SOL    HW216302   0.168   3.997   3.928  0.6541 -0.2399 -1.1756
 1556SOL     OW16303   2.673   4.407   6.304  0.2661  0.1940 -0.0564
 1556SOL    HW116304   2.721   4.369   6.378 -2.3340 -1.4617  0.8014
 1556SOL    HW216305   2.739   4.422   6.238  0.1551  0.0352 -0.2040
 1557SOL     OW16306   4.282   3.285   1.643 -0.6047 -0.1148  0.5362
 1557SOL    HW116307   4.199   3.243   1.623 -0.5110 -0.1478  0.2193
 1557SOL    HW216308   4.304   3.247   1.728  1.2338 -0.2562 -0.0133
 1558SOL     OW16309   1.222   1.014  10.238 -0.9741 -0.2779 -0.1845
 1558SOL    HW116310   1.193   1.101  10.210  0.7115  1.1438  2.4150
 1558SOL    HW216311   1.232   0.977  10.151  0.3077 -0.6600  0.1288
 1559SOL     OW16312   0.969   1.697  16.224  0.8708 -0.2427 -0.3322
 1559SOL    HW116313   0.877   1.723  16.216  0.0047 -3.5145 -1.0911
 1559SOL    HW216314   1.015   1.778  16.201  2.1480 -1.4290 -1.9978
 1560SOL     OW16315   0.331   1.554   2.402  0.2984  0.4273 -0.4550
 1560SOL    HW116316   0.416   1.579   2.439  0.2053  0.1208 -0.0305
 1560SOL    HW216317   0.367   1.487   2.344 -1.0621 -0.9588  0.3039
 1561SOL     OW16318   2.773   4.340   9.423  0.2512  0.5591  0.3224
 1561SOL    HW116319   2.783   4.286   9.501 -1.2888  0.8211  0.7011
 1561SOL    HW216320   2.801   4.426   9.453 -0.8978  1.3063 -0.7397
 1562SOL     OW16321   1.587   3.614  12.448 -0.1699 -0.3276 -0.2240
 1562SOL    HW116322   1.636   3.536  12.423 -0.3433  0.3626 -2.6674
 1562SOL    HW216323   1.658   3.658  12.494 -1.4787  2.6092 -1.0223
 1563SOL     OW16324   1.583   2.109   9.498 -0.3012 -0.4154 -0.1717
 1563SOL    HW116325   1.536   2.187   9.467  0.7276  0.1511 -0.3396
 1563SOL    HW216326   1.574   2.126   9.592 -0.0196  0.7552 -0.3556
 1564SOL     OW16327   0.554   4.440  13.258  0.0964 -0.0111  0.0764
 1564SOL    HW116328   0.589   4.529  13.268  1.0074 -0.4440  0.7160
 1564SOL    HW216329   0.586   4.399  13.338 -1.7619 -1.5145  0.0565
 1565SOL     OW16330   1.830   0.670   8.639  0.4164  0.0213 -0.2891
 1565SOL    HW116331   1.750   0.655   8.688  0.9387 -0.0675  0.5384
 1565SOL    HW216332   1.886   0.695   8.713 -3.1275  1.0409  1.9995
 1566SOL     OW16333   2.883   0.345   7.033 -0.1544  0.0374  0.2269
 1566SOL    HW116334   2.881   0.440   7.038  1.3425  0.0994 -0.4606
 1566SOL    HW216335   2.801   0.312   7.071 -1.6025  0.8865 -2.1818
 1567SOL     OW16336   1.375   0.680   3.018 -0.4396 -0.1053 -0.2653
 1567SOL    HW116337   1.439   0.620   2.980 -0.2984 -0.4922  0.6016
 1567SOL    HW216338   1.422   0.742   3.074  0.5625  1.2170 -2.5364
 1568SOL     OW16339   0.410   0.025   5.400  0.9010  0.1739  0.5460
 1568SOL    HW116340   0.493   0.072   5.398  0.6110  0.4856 -3.3227
 1568SOL    HW216341   0.422   4.716   5.484 -1.8483 -0.1425  0.7522
 1569SOL     OW16342   4.250   0.864   9.527  0.2830  0.1991  0.0999
 1569SOL    HW116343   4.307   0.891   9.455  1.1873 -0.7491  0.4716
 1569SOL    HW216344   4.301   0.895   9.601 -1.1472 -0.6196  1.4372
 1570SOL     OW16345   4.340   3.577   8.493  0.4176  0.1101  0.4021
 1570SOL    HW116346   4.254   3.567   8.535 -0.7788  0.4199 -1.9924
 1570SOL    HW216347   4.315   3.617   8.410 -1.1134 -1.3646  0.1475
 1571SOL     OW16348   0.355   4.213   4.967 -0.9392 -0.6077 -0.8272
 1571SOL    HW116349   0.285   4.240   4.908 -1.9095 -0.5994  0.3469
 1571SOL    HW216350   0.312   4.146   5.021 -2.4550  0.6819 -0.4546
 1572SOL     OW16351   0.101   4.269   6.917  0.4856 -0.2113  0.9165
 1572SOL    HW116352   0.063   4.201   6.972  1.8717 -1.5836  0.1720
 1572SOL    HW216353   0.144   4.325   6.981 -0.5629  2.5161 -0.7477
 1573SOL     OW16354   4.711   0.870   5.623 -0.2266  0.8976  0.0792
 1573SOL    HW116355   4.723   0.958   5.657  0.2800  1.0519 -0.4923
 1573SOL    HW216356   4.649   0.887   5.552 -1.1402 -0.8424  0.4771
 1574SOL     OW16357   1.896   0.510   1.014 -0.2535 -0.2586  0.1027
 1574SOL    HW116358   1.882   0.415   1.017 -0.8880 -0.2068 -1.2743
 1574SOL    HW216359   1.815   0.544   0.975 -0.5879 -2.9001 -1.5319
 1575SOL     OW16360   1.369   2.441   8.851  0.2356 -0.2120  0.1284
 1575SOL    HW116361   1.314   2.514   8.880 -1.6394 -1.2548 -0.8400
 1575SOL    HW216362   1.442   2.496   8.821  1.8280 -1.6997  1.3156
 1576SOL     OW16363   3.969   0.379  16.009 -0.6725  0.0020  0.0220
 1576SOL    HW116364   3.879   0.392  16.038 -0.5167  0.2593  0.3758
 1576SOL    HW216365   3.993   0.292  16.042 -1.1685 -0.8981 -1.9329
 1577SOL     OW16366   1.158   2.665   6.519  0.1838 -0.2656  0.1897
 1577SOL    HW116367   1.228   2.605   6.496  1.5146  0.7859  1.5386
 1577SOL    HW216368   1.078   2.622   6.488  0.1682 -0.9378  1.1567
 1578SOL     OW16369   0.619   1.407   5.688  0.1858  0.0601  0.1470
 1578SOL    HW116370   0.586   1.497   5.689 -0.5068 -0.1903  0.1851
 1578SOL    HW216371   0.535   1.362   5.700  0.8462 -1.3669 -0.7421
 1579SOL     OW16372   2.948   0.387   7.530 -0.0086  0.2692 -0.1320
 1579SOL    HW116373   2.924   0.419   7.616 -1.2836  0.4448 -0.5538
 1579SOL    HW216374   3.035   0.427   7.529  0.7744 -1.3835  1.6578
 1580SOL     OW16375   3.116   0.351  15.820 -0.8100  0.2329 -0.2779
 1580SOL    HW116376   3.204   0.380  15.843 -0.5948  0.1663 -1.0364
 1580SOL    HW216377   3.135   0.260  15.796 -0.8682  0.4711 -1.2218
 1581SOL     OW16378   2.922   3.181   8.926 -0.1974  0.6729 -0.0898
 1581SOL    HW116379   2.903   3.268   8.892  0.9230  1.9183  2.4506
 1581SOL    HW216380   2.884   3.190   9.013  0.9524  0.5333  0.4316
 1582SOL     OW16381   0.900   1.629   2.785 -0.2300  0.6662  0.0312
 1582SOL    HW116382   0.894   1.690   2.859  0.6644 -0.6666  1.1995
 1582SOL    HW216383   0.951   1.690   2.732 -0.3633 -0.9065 -1.9026
 1583SOL     OW16384   1.655   3.471   3.160 -0.2816  0.2354  0.6436
 1583SOL    HW116385   1.707   3.405   3.205 -1.3687 -2.1005 -1.5793
 1583SOL    HW216386   1.662   3.449   3.067  0.8968  0.4306  0.6903
 1584SOL     OW16387   4.090   1.265  11.228 -0.9454  0.1185  0.0856
 1584SOL    HW116388   4.170   1.318  11.237 -1.1065  0.3639  0.0545
 1584SOL    HW216389   4.119   1.181  11.263 -2.6864 -0.2641  0.5704
 1585SOL     OW16390   3.860   1.939   5.666  0.6320 -0.2303 -0.9810
 1585SOL    HW116391   3.803   2.011   5.641 -0.3398 -0.3000  1.0400
 1585SOL    HW216392   3.806   1.868   5.631 -1.2215 -0.1486  1.7745
 1586SOL     OW16393   2.782   1.998   4.564  0.3324  0.3269  0.1101
 1586SOL    HW116394   2.716   1.931   4.543 -1.8806  1.6571  2.7642
 1586SOL    HW216395   2.861   1.945   4.556 -0.7333 -1.0697 -1.1430
 1587SOL     OW16396   2.441   3.220   2.623  0.1453 -0.6492  0.0305
 1587SOL    HW116397   2.420   3.285   2.557  0.1976  1.9689  2.5782
 1587SOL    HW216398   2.513   3.170   2.584 -1.0758 -1.9064 -0.6265
 1588SOL     OW16399   2.821   2.156   3.510 -0.1345 -0.5940 -0.0092
 1588SOL    HW116400   2.762   2.080   3.505 -0.1137 -0.5793 -0.4367
 1588SOL    HW216401   2.764   2.228   3.536  1.8944  0.6232  1.0384
 1589SOL     OW16402   0.748   1.493   3.793  0.7016 -0.2229 -0.1646
 1589SOL    HW116403   0.822   1.552   3.806  1.4366 -0.9401 -1.0132
 1589SOL    HW216404   0.734   1.461   3.882  2.2113 -2.2257 -0.6397
 1590SOL     OW16405   1.687   0.426   4.159 -0.2644  0.1039  0.3945
 1590SOL    HW116406   1.594   0.418   4.179 -0.5462  0.6421 -0.6856
 1590SOL    HW216407   1.710   0.471   4.240 -0.2910  1.3026 -0.2670
 1591SOL     OW16408   4.606   3.546   3.188  0.7202  0.1247  0.3775
 1591SOL    HW116409   4.635   3.546   3.097 -0.9216 -3.1480 -0.1514
 1591SOL    HW216410   4.682   3.507   3.231  1.1087 -1.9173 -2.1443
 1592SOL     OW16411   0.415   4.613  14.569  0.7903 -0.1433  0.5060
 1592SOL    HW116412   0.463   4.641  14.646  0.3492 -0.4846  0.9013
 1592SOL    HW216413   0.372   4.694  14.541 -0.0912 -1.2029 -1.2475
 1593SOL     OW16414   0.548   1.152   3.791  0.1742  0.0377  0.1800
 1593SOL    HW116415   0.565   1.174   3.883  1.0712 -0.0208  0.0253
 1593SOL    HW216416   0.623   1.098   3.767 -0.8388 -0.9420 -0.8088
 1594SOL     OW16417   4.306   2.650  14.131 -0.1535 -0.0940  0.2515
 1594SOL    HW116418   4.330   2.626  14.220  2.3456 -2.3721 -1.0486
 1594SOL    HW216419   4.357   2.730  14.117 -2.0117  1.1921  0.7733
 1595SOL     OW16420   3.346   1.707   8.485 -0.5407 -0.2829 -0.0423
 1595SOL    HW116421   3.375   1.785   8.437  1.1515 -0.1436  1.2039
 1595SOL    HW216422   3.393   1.722   8.567 -0.9594  0.9282 -0.0173
 1596SOL     OW16423   0.414   1.651   8.560  0.0364 -0.1636 -0.2601
 1596SOL    HW116424   0.468   1.590   8.610  0.8463 -0.7513 -1.8384
 1596SOL    HW216425   0.432   1.620   8.471  0.7967 -1.8835  0.4987
 1597SOL     OW16426   1.827   0.904   7.832  0.1094 -0.0396 -0.1231
 1597SOL    HW116427   1.807   0.917   7.739  1.4923 -2.0453 -0.6973
 1597SOL    HW216428   1.912   0.861   7.837 -0.2783 -0.6126  1.4476
 1598SOL     OW16429   0.856   2.335  15.559  0.4627 -0.2274  0.3409
 1598SOL    HW116430   0.870   2.402  15.627  2.0132  1.1250 -1.2803
 1598SOL    HW216431   0.948   2.318  15.536  0.9535  1.6743  0.8426
 1599SOL     OW16432   1.535   1.783   0.773  0.1562 -0.1526 -0.2442
 1599SOL    HW116433   1.619   1.761   0.735  0.2132  1.1413 -0.8746
 1599SOL    HW216434   1.495   1.697   0.762 -1.1951  0.5169 -0.6519
 1600SOL     OW16435   0.097   2.686   7.715 -0.3649  0.5017  0.0014
 1600SOL    HW116436   0.080   2.593   7.703 -2.4105  0.6990  1.2415
 1600SOL    HW216437   0.151   2.674   7.794 -0.9055 -0.3675  0.2313
 1601SOL     OW16438   3.310   2.690   5.262 -0.4235 -0.2847 -0.1232
 1601SOL    HW116439   3.237   2.740   5.224 -0.2223  0.0050 -0.1325
 1601SOL    HW216440   3.313   2.740   5.344  0.3932 -2.2095  1.0188
 1602SOL     OW16441   3.457   3.485   4.175  0.3109 -0.1225  0.7062
 1602SOL    HW116442   3.363   3.501   4.182 -0.0334 -0.9250 -2.1318
 1602SOL    HW216443   3.469   3.427   4.250 -0.7300  1.2731  1.9302
 1603SOL     OW16444   4.361   1.218   5.612  0.0868  1.1829 -0.1893
 1603SOL    HW116445   4.441   1.261   5.582  0.7951  0.9758  1.4001
 1603SOL    HW216446   4.309   1.222   5.532 -0.9382 -1.1386  0.3608
 1604SOL     OW16447   3.306   0.439   8.618  0.0361 -0.4134 -0.1293
 1604SOL    HW116448   3.274   0.482   8.539  0.2713  0.5908  0.3268
 1604SOL    HW216449   3.389   0.399   8.591  0.4763  1.6360 -1.7970
 1605SOL     OW16450   0.100   3.550  14.217  0.3079 -0.1880 -0.0657
 1605SOL    HW116451   0.166   3.497  14.172  1.4125 -1.5465  3.1933
 1605SOL    HW216452   0.052   3.584  14.141 -0.6244 -0.9737  0.1796
 1606SOL     OW16453   3.524   1.537   4.594 -0.1694  0.2047  0.1292
 1606SOL    HW116454   3.469   1.614   4.610 -0.7055 -0.0698 -0.4126
 1606SOL    HW216455   3.513   1.515   4.502  0.3242  1.7701 -0.3073
 1607SOL     OW16456   3.481   1.034   7.279 -0.3298 -0.1076  0.7444
 1607SOL    HW116457   3.537   1.111   7.275 -1.3884  0.6629  0.8111
 1607SOL    HW216458   3.399   1.065   7.241  0.0558  1.1760  0.9732
 1608SOL     OW16459   1.002   3.973   6.004  0.7039  0.1655  0.2793
 1608SOL    HW116460   1.036   4.059   5.979 -3.4478  1.4957 -0.7688
 1608SOL    HW216461   0.914   3.988   6.039  0.4695  0.1037 -0.2709
 1609SOL     OW16462   1.069   4.031   7.191  0.0310 -0.2261  0.2760
 1609SOL    HW116463   0.992   4.041   7.246 -0.5654  2.4586 -1.0534
 1609SOL    HW216464   1.043   4.081   7.113  1.2015 -2.3836 -1.5132
 1610SOL     OW16465   0.501   2.297   1.687  0.2441 -0.2107 -0.2094
 1610SOL    HW116466   0.515   2.291   1.593  0.7448  1.8049 -0.2659
 1610SOL    HW216467   0.405   2.298   1.685  0.3340  0.8998 -3.2414
 1611SOL     OW16468   2.523   3.458   4.272  0.6107 -0.0437 -0.2832
 1611SOL    HW116469   2.516   3.437   4.179 -1.2062 -0.6139 -0.0132
 1611SOL    HW216470   2.600   3.409   4.304 -0.1381 -0.3766  0.9984
 1612SOL     OW16471   2.496   3.577   6.095  0.5617 -0.0945  0.0378
 1612SOL    HW116472   2.440   3.617   6.028  0.8999 -0.3747 -0.4093
 1612SOL    HW216473   2.516   3.651   6.152 -1.9112  0.1979  0.5367
 1613SOL     OW16474   1.781   4.165   5.405 -0.1114 -0.7226 -0.0395
 1613SOL    HW116475   1.874   4.185   5.394 -0.2086  0.1625  0.7422
 1613SOL    HW216476   1.748   4.143   5.318 -0.7106 -0.2979  0.0825
 1614SOL     OW16477   2.813   1.273   7.610  0.3101  0.0807  0.1427
 1614SOL    HW116478   2.869   1.344   7.581 -1.6503  1.5178 -0.1534
 1614SOL    HW216479   2.777   1.312   7.690  0.1087 -0.9724  0.5689
 1615SOL     OW16480   3.084   3.289   8.593 -0.2108  0.0915 -0.3724
 1615SOL    HW116481   3.146   3.240   8.539 -0.0875 -1.2094  0.9416
 1615SOL    HW216482   3.003   3.241   8.573 -0.7274  1.7491 -2.3644
 1616SOL     OW16483   2.581   1.473  15.262 -0.1297  0.1176  0.1737
 1616SOL    HW116484   2.614   1.563  15.263 -1.3439  0.5706 -3.2049
 1616SOL    HW216485   2.601   1.452  15.354 -0.9730 -0.0052  0.3254
 1617SOL     OW16486   3.800   2.095  13.558  0.3995 -0.2641  0.0807
 1617SOL    HW116487   3.712   2.113  13.592  1.5841 -2.0656  4.0846
 1617SOL    HW216488   3.848   2.106  13.640 -1.6290  0.2146  1.2021
 1618SOL     OW16489   0.375   2.358   6.943  0.2574 -0.2557  0.2801
 1618SOL    HW116490   0.283   2.349   6.968 -0.1395  1.4204 -0.6210
 1618SOL    HW216491   0.371   2.341   6.849 -1.0800  2.4933 -0.1463
 1619SOL     OW16492   4.241   0.193   2.499 -0.1230 -0.1719 -0.1135
 1619SOL    HW116493   4.191   0.253   2.556  1.5628 -0.2103  1.3922
 1619SOL    HW216494   4.218   0.209   2.408  2.4743  2.1447 -0.3564
 1620SOL     OW16495   4.512   3.103   7.144  0.1008 -0.3524  0.1124
 1620SOL    HW116496   4.525   3.170   7.211 -1.0041 -1.6837  1.6543
 1620SOL    HW216497   4.431   3.136   7.105 -0.4256 -0.2801  1.2707
 1621SOL     OW16498   4.355   1.201  10.601 -0.3473 -0.4511 -0.2608
 1621SOL    HW116499   4.450   1.196  10.586 -0.1309  2.7695  0.0588
 1621SOL    HW216500   4.323   1.113  10.581  0.1085 -0.3391 -1.4965
 1622SOL     OW16501   1.625   2.043   1.215 -0.1351  0.2335  0.0900
 1622SOL    HW116502   1.552   2.073   1.270 -0.7306 -0.7121 -0.1907
 1622SOL    HW216503   1.589   1.962   1.180 -1.6145 -0.1223  2.4118
 1623SOL     OW16504   3.114   1.996   5.119 -0.2245 -0.1025  0.0017
 1623SOL    HW116505   3.103   1.936   5.045  1.1463  1.6343 -1.6181
 1623SOL    HW216506   3.068   2.073   5.085 -1.3222 -1.0194 -0.6196
 1624SOL     OW16507   0.060   2.838  13.749  0.5250 -0.4449  0.0661
 1624SOL    HW116508   0.128   2.832  13.816 -0.3459  0.2410  1.0026
 1624SOL    HW216509   0.091   2.915  13.702 -0.9165 -0.0657 -0.2705
 1625SOL     OW16510   0.130   1.251   8.006 -0.1000 -0.6595  0.2056
 1625SOL    HW116511   0.180   1.211   7.935  1.2706  0.9007  0.2949
 1625SOL    HW216512   0.060   1.187   8.017 -0.3251  0.0467  2.8264
 1626SOL     OW16513   0.839   0.891   3.108  0.4050 -0.1015 -0.3467
 1626SOL    HW116514   0.757   0.891   3.157  1.2447 -0.6540  1.0579
 1626SOL    HW216515   0.822   0.950   3.034  1.0282 -0.2841 -0.6359
 1627SOL     OW16516   1.561   2.439   8.329  0.0774 -0.0066 -0.0738
 1627SOL    HW116517   1.649   2.451   8.365  0.3750  0.5459 -0.9901
 1627SOL    HW216518   1.557   2.356   8.377 -1.7291 -0.6231 -1.3062
 1628SOL     OW16519   1.256   0.745   8.843  0.2523 -0.2420 -0.2123
 1628SOL    HW116520   1.308   0.730   8.764  0.3097 -0.5348 -0.1199
 1628SOL    HW216521   1.173   0.781   8.812  0.1208  0.2403  0.7004
 1629SOL     OW16522   2.438   2.080  13.262  0.2387  0.0300  0.1189
 1629SOL    HW116523   2.371   2.074  13.330  2.2881 -0.8021  2.0417
 1629SOL    HW216524   2.486   2.156  13.294 -0.0715 -1.3127  3.7329
 1630SOL     OW16525   2.758   0.161   6.137 -0.1028  0.0859  0.0714
 1630SOL    HW116526   2.765   0.112   6.055  0.7249 -0.9743  0.7712
 1630SOL    HW216527   2.833   0.119   6.180  0.1498  0.2516 -0.2072
 1631SOL     OW16528   2.183   3.803   2.690 -0.0221  1.0470  0.1265
 1631SOL    HW116529   2.229   3.756   2.759  1.0054  0.9602 -0.6248
 1631SOL    HW216530   2.094   3.823   2.720 -0.2308  2.5790 -1.4579
 1632SOL     OW16531   0.910   0.142   7.499 -0.2589 -0.1447  0.2000
 1632SOL    HW116532   0.913   0.235   7.478 -0.9179 -0.3442 -0.7577
 1632SOL    HW216533   0.976   0.140   7.569  0.8674 -0.9030 -0.8835
 1633SOL     OW16534   2.319   2.035   4.156  0.1718 -0.0322 -0.3182
 1633SOL    HW116535   2.233   2.005   4.186  1.0907 -3.6538 -1.2776
 1633SOL    HW216536   2.306   2.085   4.075 -3.1083 -0.9119 -0.3569
 1634SOL     OW16537   4.425   2.667   2.029 -0.1057 -0.2567 -0.1338
 1634SOL    HW116538   4.411   2.632   1.941 -1.9085  0.9742 -0.3254
 1634SOL    HW216539   4.434   2.581   2.070 -1.6834  0.0341  0.7938
 1635SOL     OW16540   3.566   1.257  12.093 -0.4617  0.4928 -0.2919
 1635SOL    HW116541   3.538   1.166  12.097 -0.6909  0.5836  0.1930
 1635SOL    HW216542   3.551   1.275  12.000 -1.6692 -1.4849 -0.4780
 1636SOL     OW16543   1.414   2.670  13.090 -0.4433 -0.4586  0.4885
 1636SOL    HW116544   1.393   2.646  13.000 -1.4361 -1.3437  0.9668
 1636SOL    HW216545   1.423   2.583  13.130  2.9085 -0.9779 -1.3845
 1637SOL     OW16546   1.253   3.758   6.951 -0.5197  0.4165  0.0994
 1637SOL    HW116547   1.261   3.664   6.934  1.0721  0.5926 -0.1360
 1637SOL    HW216548   1.317   3.780   6.883 -1.3015 -0.7434 -1.0199
 1638SOL     OW16549   2.678   0.231   7.847  0.0450  0.0865 -0.1211
 1638SOL    HW116550   2.637   0.315   7.824 -0.3245 -0.2307 -0.6160
 1638SOL    HW216551   2.620   0.212   7.922  1.3575 -2.0793  0.3277
 1639SOL     OW16552   2.613   3.113   7.666 -0.0336 -0.3179 -0.3157
 1639SOL    HW116553   2.530   3.152   7.637 -0.2124 -1.8248 -1.8350
 1639SOL    HW216554   2.580   3.029   7.698  0.1970  0.6470  2.4399
 1640SOL     OW16555   4.721   0.382   7.607  0.2684  0.4262  0.3453
 1640SOL    HW116556   4.656   0.434   7.654  0.2482 -1.4938  2.4695
 1640SOL    HW216557   0.069   0.417   7.634  0.2289  1.7505 -1.2266
 1641SOL     OW16558   3.513   0.194   7.168 -0.5631 -0.4357  0.0066
 1641SOL    HW116559   3.531   0.129   7.236  0.2331 -1.3348 -1.0594
 1641SOL    HW216560   3.423   0.178   7.140 -0.3373  0.9148 -1.5006
 1642SOL     OW16561   3.680   3.948  14.429  0.1837  0.7815  0.0159
 1642SOL    HW116562   3.653   3.949  14.337  0.4074  2.8303 -0.0431
 1642SOL    HW216563   3.694   4.041  14.448  0.5763  0.6865  0.2009
 1643SOL     OW16564   2.152   0.903   5.371 -0.5606  0.1517 -0.4311
 1643SOL    HW116565   2.080   0.955   5.335  0.0580  1.1121 -0.2757
 1643SOL    HW216566   2.182   0.846   5.300  3.4938  0.9370  0.6468
 1644SOL     OW16567   4.512   2.181   8.557 -0.2853 -0.4966 -0.2645
 1644SOL    HW116568   4.581   2.207   8.618 -2.1155 -0.1214  1.6648
 1644SOL    HW216569   4.532   2.245   8.489 -1.6099 -1.9917 -2.0731
 1645SOL     OW16570   1.381   1.133   8.604 -0.1347  0.5259  0.1105
 1645SOL    HW116571   1.452   1.072   8.583 -1.2444 -0.1541 -1.6628
 1645SOL    HW216572   1.437   1.198   8.646 -1.6560  0.0284  2.9550
 1646SOL     OW16573   1.784   3.090  10.345  0.1173  0.0794  0.7916
 1646SOL    HW116574   1.711   3.149  10.327 -0.5851 -1.2441 -0.7079
 1646SOL    HW216575   1.748   3.036  10.416 -0.2169  1.9061  2.0224
 1647SOL     OW16576   3.744   3.994   1.224 -0.0024 -0.2292 -0.5127
 1647SOL    HW116577   3.789   4.061   1.172  0.4520 -0.3105 -0.2182
 1647SOL    HW216578   3.782   4.015   1.309  0.7070  1.8115 -1.3397
 1648SOL     OW16579   2.946   1.928   0.488  0.3463 -0.6303 -0.8050
 1648SOL    HW116580   2.973   1.859   0.427 -0.9664  1.9143 -4.2832
 1648SOL    HW216581   2.862   1.886   0.504 -0.0573  1.2519  2.0974
 1649SOL     OW16582   3.823   2.593   5.305  0.6232 -0.5683 -0.4217
 1649SOL    HW116583   3.802   2.616   5.395 -3.4491 -0.0379 -1.4974
 1649SOL    HW216584   3.756   2.650   5.269 -0.4702 -1.8732 -0.4487
 1650SOL     OW16585   3.444   0.535   3.430  0.5470  0.2989  0.3316
 1650SOL    HW116586   3.403   0.520   3.345 -0.4269  0.8615  0.6979
 1650SOL    HW216587   3.448   0.631   3.432  0.6447  0.3040 -0.2278
 1651SOL     OW16588   3.828   4.633  12.504 -0.1005 -0.2984  0.4436
 1651SOL    HW116589   3.898   4.586  12.547 -0.3569 -2.4705 -1.4891
 1651SOL    HW216590   3.824   4.719  12.546  0.2983  0.7776 -1.6989
 1652SOL     OW16591   4.735   3.977   1.396  0.3280 -0.2081 -0.2448
 1652SOL    HW116592   4.708   3.925   1.320  2.9643  0.1820 -1.4581
 1652SOL    HW216593   0.092   3.956   1.396  0.5621  0.8360  0.8623
 1653SOL     OW16594   0.852   0.396  17.534 -0.2426  0.1420 -0.3077
 1653SOL    HW116595   0.886   0.444  17.458 -0.2795  0.9501  0.1925
 1653SOL    HW216596   0.878   0.310  17.500 -2.0497 -1.2446  1.8769
 1654SOL     OW16597   1.314   2.292   3.809  0.2948 -0.2424  0.7060
 1654SOL    HW116598   1.266   2.209   3.821 -0.2728  0.0249  0.2688
 1654SOL    HW216599   1.336   2.316   3.899 -0.1394 -0.4847  0.8803
 1655SOL     OW16600   4.330   1.452   4.586  0.0643  0.5901  0.1135
 1655SOL    HW116601   4.313   1.389   4.517  0.3114  1.5265 -0.7983
 1655SOL    HW216602   4.353   1.394   4.659  1.1670 -1.6224 -2.0169
 1656SOL     OW16603   0.574   2.864  13.252 -0.3721  0.4906 -0.2336
 1656SOL    HW116604   0.647   2.847  13.311  0.1203  0.8280 -0.7348
 1656SOL    HW216605   0.533   2.940  13.292 -0.6335  0.3687 -0.2715
 1657SOL     OW16606   0.299   0.353   5.944 -0.0820  0.2907 -0.9144
 1657SOL    HW116607   0.285   0.268   5.902 -0.7552 -0.4200  0.7273
 1657SOL    HW216608   0.276   0.329   6.034 -0.7858 -0.4533 -1.2821
 1658SOL     OW16609   3.346   0.413   2.738  0.4518  0.1814  0.2089
 1658SOL    HW116610   3.389   0.457   2.811  0.9635 -0.7484  0.4682
 1658SOL    HW216611   3.298   0.355   2.796  0.1003 -0.9022 -1.1639
 1659SOL     OW16612   2.003   2.468   5.175  0.3588 -0.3256  0.0709
 1659SOL    HW116613   2.083   2.507   5.209  1.0072 -2.6946  1.2451
 1659SOL    HW216614   2.019   2.471   5.081 -0.7330  1.3624 -0.0630
 1660SOL     OW16615   1.233   2.820   2.416  0.2268 -0.2992 -0.4220
 1660SOL    HW116616   1.161   2.756   2.420  0.7991 -0.8995  0.3584
 1660SOL    HW216617   1.237   2.834   2.321  0.2089 -0.3116 -0.4247
 1661SOL     OW16618   3.880   2.775  10.424 -0.0281  0.1385 -0.3899
 1661SOL    HW116619   3.972   2.770  10.449 -0.2796 -0.9752  0.3083
 1661SOL    HW216620   3.878   2.871  10.424  1.0787  0.1551 -1.5609
 1662SOL     OW16621   0.451   4.295  13.057 -0.0421 -0.4451  0.2473
 1662SOL    HW116622   0.480   4.350  13.130 -0.5795  0.9225 -0.5702
 1662SOL    HW216623   0.358   4.311  13.046 -0.0735  0.1073  1.2559
 1663SOL     OW16624   4.727   0.130   4.110  0.5054 -0.0911  0.3815
 1663SOL    HW116625   0.040   0.123   4.029 -0.0885 -0.3049  0.0373
 1663SOL    HW216626   4.690   0.043   4.129 -0.6155 -0.1805 -2.3172
 1664SOL     OW16627   1.272   3.576   8.454 -0.2279 -0.1172 -0.2810
 1664SOL    HW116628   1.226   3.588   8.537  0.9631  1.0173  0.2132
 1664SOL    HW216629   1.327   3.654   8.444 -1.9997  0.7404 -3.4121
 1665SOL     OW16630   0.638   2.838   0.915 -0.6887  0.4124  1.3068
 1665SOL    HW116631   0.562   2.789   0.946  0.2156 -2.1612 -0.4998
 1665SOL    HW216632   0.704   2.801   0.974  1.6238  0.3589 -1.2907
 1666SOL     OW16633   2.397   3.183   2.180 -0.9366 -0.3570  0.3776
 1666SOL    HW116634   2.483   3.171   2.139 -0.5111  0.1999  1.0872
 1666SOL    HW216635   2.381   3.100   2.225  1.8623  0.5433  3.0930
 1667SOL     OW16636   1.073   0.555   5.925  0.0021  0.2719 -0.0375
 1667SOL    HW116637   0.993   0.548   5.872  0.2746 -0.8472 -0.3142
 1667SOL    HW216638   1.138   0.540   5.856  0.7255 -1.1478  0.9518
 1668SOL     OW16639   1.043   0.656  13.447  0.4259 -0.2148  0.1095
 1668SOL    HW116640   1.090   0.718  13.391 -0.9667  0.1996 -0.6237
 1668SOL    HW216641   1.123   0.624  13.488  0.3445 -0.7926 -0.1838
 1669SOL     OW16642   0.651   3.062   3.215 -0.5600 -0.8980 -0.4825
 1669SOL    HW116643   0.612   3.003   3.151  0.0916 -2.4757  0.5704
 1669SOL    HW216644   0.722   3.101   3.164 -0.8207  0.7742  0.4454
 1670SOL     OW16645   0.021   1.119   5.701  0.0117  0.2562 -0.1985
 1670SOL    HW116646   4.691   1.138   5.768 -3.2068 -2.6185 -2.6070
 1670SOL    HW216647   0.108   1.140   5.733 -0.3610 -0.2180  1.1357
 1671SOL     OW16648   3.054   2.310   4.656  0.2718  0.4481  0.4937
 1671SOL    HW116649   3.016   2.310   4.569  2.1160  1.0462 -0.3145
 1671SOL    HW216650   2.979   2.285   4.710 -0.3783  1.2069 -0.0674
 1672SOL     OW16651   2.791   2.115   8.179 -0.0851  0.0840 -0.6198
 1672SOL    HW116652   2.761   2.175   8.247 -0.3073 -0.2018 -0.4620
 1672SOL    HW216653   2.883   2.139   8.166 -0.2556 -0.0941 -2.1261
 1673SOL     OW16654   1.407   2.634  14.856 -0.2757  0.5326  0.5001
 1673SOL    HW116655   1.401   2.594  14.942 -0.8023 -1.8409 -0.6509
 1673SOL    HW216656   1.471   2.576  14.814  1.6043  1.0516  2.6505
 1674SOL     OW16657   1.770   1.237   7.377  0.7900  0.1325 -0.1895
 1674SOL    HW116658   1.764   1.325   7.341  1.4697  0.4789  0.5481
 1674SOL    HW216659   1.842   1.250   7.438 -0.3074 -0.4549  1.2320
 1675SOL     OW16660   3.550   0.193   6.687  0.0306  0.2972 -0.4649
 1675SOL    HW116661   3.597   0.268   6.653  0.5917  0.3173  0.3617
 1675SOL    HW216662   3.618   0.125   6.685  2.4680  2.6671  1.9174
 1676SOL     OW16663   0.605   2.079  10.085 -0.5461 -0.1759 -0.4954
 1676SOL    HW116664   0.509   2.075  10.086 -0.6073  0.4094 -2.6531
 1676SOL    HW216665   0.639   2.006  10.136  1.9692 -0.8537 -3.1306
 1677SOL     OW16666   1.055   4.069   7.542 -0.0741 -0.1567  0.1288
 1677SOL    HW116667   0.998   4.022   7.482 -0.3347  0.8447 -0.4181
 1677SOL    HW216668   1.004   4.055   7.621 -0.2336 -2.3477 -0.3791
 1678SOL     OW16669   3.560   2.267   5.776 -0.3530 -0.1815  0.3691
 1678SOL    HW116670   3.544   2.173   5.782  2.4171 -0.6061  1.0049
 1678SOL    HW216671   3.523   2.285   5.690 -1.2045  1.0140  0.9810
 1679SOL     OW16672   2.934   1.134  12.186  0.0282  0.0717 -0.1394
 1679SOL    HW116673   2.990   1.095  12.252 -0.8791 -2.1128 -0.6493
 1679SOL    HW216674   2.855   1.080  12.173  1.8312 -3.0264  1.7815
 1680SOL     OW16675   0.548   3.946  13.621  0.2675 -0.0567 -0.4442
 1680SOL    HW116676   0.499   3.966  13.541  1.2631  2.3786 -0.4230
 1680SOL    HW216677   0.498   3.876  13.664  1.1813  0.0409  0.7904
 1681SOL     OW16678   4.720   2.683   7.355 -0.4617 -0.9339  0.0771
 1681SOL    HW116679   4.700   2.606   7.408 -0.7626 -0.9190 -0.0160
 1681SOL    HW216680   4.642   2.736   7.340  1.0324  1.1426 -0.3514
 1682SOL     OW16681   0.814   0.586   5.801  0.6252  0.2832  0.3171
 1682SOL    HW116682   0.745   0.528   5.833 -0.7336  1.7373 -0.0072
 1682SOL    HW216683   0.769   0.617   5.723 -0.6657  1.1712  1.4259
 1683SOL     OW16684   4.219   1.660  14.051 -0.3525  0.1039  0.3544
 1683SOL    HW116685   4.183   1.662  13.962 -0.0901  0.5751  0.2571
 1683SOL    HW216686   4.175   1.582  14.084  1.6989 -1.5023 -0.6927
 1684SOL     OW16687   0.135   0.982   4.063  0.0460 -0.5256  0.0850
 1684SOL    HW116688   0.082   1.025   3.996 -0.6915  1.0542  1.6644
 1684SOL    HW216689   0.075   0.944   4.127  0.5348  0.7741  1.3185
 1685SOL     OW16690   0.185   1.148  12.816  0.2144  0.2553  0.1107
 1685SOL    HW116691   0.265   1.094  12.818 -0.4959 -0.8067  0.0373
 1685SOL    HW216692   0.215   1.238  12.822  0.7993  0.0783 -0.1648
 1686SOL     OW16693   1.365   3.829   5.893  0.1295 -0.1924  0.1668
 1686SOL    HW116694   1.301   3.812   5.962  0.2029 -4.2556 -0.7421
 1686SOL    HW216695   1.399   3.740   5.886  1.2452  0.4600 -2.6092
 1687SOL     OW16696   0.776   1.278  14.258 -0.1061 -0.6562  0.1990
 1687SOL    HW116697   0.821   1.309  14.337  0.8135  2.2160 -1.4715
 1687SOL    HW216698   0.757   1.187  14.283  1.2091 -0.7011  1.0356
 1688SOL     OW16699   1.428   4.615   6.488  0.2249  0.1698 -0.5914
 1688SOL    HW116700   1.440   4.520   6.483  1.7071  0.3826 -1.1442
 1688SOL    HW216701   1.460   4.634   6.399  1.4265 -1.0778 -0.4384
 1689SOL     OW16702   2.226   1.220  13.313  0.2560 -0.2557  0.2555
 1689SOL    HW116703   2.289   1.166  13.359  0.2595  0.3550  0.9699
 1689SOL    HW216704   2.240   1.180  13.227 -0.6944  2.5537 -1.2446
 1690SOL     OW16705   0.420   1.010   5.532  0.1644 -0.1806 -0.6582
 1690SOL    HW116706   0.334   1.051   5.526  0.1516 -0.0961  0.0967
 1690SOL    HW216707   0.404   0.928   5.485  2.9712 -1.0377 -0.1494
 1691SOL     OW16708   1.493   4.296   7.225  0.1908  0.3649 -0.3496
 1691SOL    HW116709   1.461   4.215   7.264 -2.8824  0.7813 -2.0144
 1691SOL    HW216710   1.476   4.273   7.133 -1.4259 -0.1788  0.0965
 1692SOL     OW16711   4.705   2.545   6.194  0.0946  0.7266  0.2492
 1692SOL    HW116712   4.708   2.552   6.290  4.4580  0.9629  0.1179
 1692SOL    HW216713   4.676   2.633   6.169  1.6046  0.7631 -1.3551
 1693SOL     OW16714   0.790   1.990   1.040  0.0041  0.4306 -0.3593
 1693SOL    HW116715   0.881   1.981   1.071 -0.1628  0.4204  0.1292
 1693SOL    HW216716   0.741   1.926   1.092  0.1561  1.1132  0.6194
 1694SOL     OW16717   3.157   0.813   7.908 -0.2278 -0.2360 -0.0555
 1694SOL    HW116718   3.180   0.721   7.894  2.9840  0.5553 -0.0327
 1694SOL    HW216719   3.090   0.800   7.975 -1.7682 -1.5230 -1.8360
 1695SOL     OW16720   1.799   1.787  12.024 -0.1979  0.0162  0.2883
 1695SOL    HW116721   1.831   1.805  11.936 -1.1712  1.2171  0.1890
 1695SOL    HW216722   1.718   1.839  12.027  0.4675  1.0251  0.8089
 1696SOL     OW16723   0.611   2.184  10.774  0.6898  0.2684  0.3413
 1696SOL    HW116724   0.659   2.128  10.714 -0.4600  1.3438 -1.5836
 1696SOL    HW216725   0.675   2.255  10.770  0.7607  0.1577 -0.3946
 1697SOL     OW16726   3.790   4.519   3.070 -0.2465  0.3551  0.2975
 1697SOL    HW116727   3.839   4.596   3.042  1.4182 -1.1974 -1.0478
 1697SOL    HW216728   3.740   4.565   3.138 -0.9797 -0.6306  0.4260
 1698SOL     OW16729   4.486   3.031   6.328 -0.4463  0.0196  0.1234
 1698SOL    HW116730   4.455   3.105   6.275 -1.6773 -0.1896  0.5473
 1698SOL    HW216731   4.484   2.957   6.267  0.9143  0.2336 -0.1730
 1699SOL     OW16732   1.424   4.147   6.110  0.1766  0.0303  0.3197
 1699SOL    HW116733   1.438   4.056   6.137  4.5853 -0.5071 -3.7430
 1699SOL    HW216734   1.514   4.179   6.113  0.9647 -2.0727 -0.4655
 1700SOL     OW16735   2.421   4.338  17.071 -0.3156 -0.2806 -0.0033
 1700SOL    HW116736   2.430   4.433  17.060  2.0063 -0.2954  1.7285
 1700SOL    HW216737   2.510   4.308  17.090 -1.3306 -2.5251  1.1647
 1701SOL     OW16738   0.304   2.426  14.415  0.4904  0.3110 -0.1970
 1701SOL    HW116739   0.307   2.416  14.319 -2.0311 -0.3459 -0.2049
 1701SOL    HW216740   0.245   2.358  14.448 -1.5891  2.9276  1.4753
 1702SOL     OW16741   2.723   3.657  15.695 -0.1327  0.2474  0.0271
 1702SOL    HW116742   2.813   3.686  15.676  0.2839  0.0022  1.6148
 1702SOL    HW216743   2.730   3.563  15.676 -1.5704  0.2641 -0.5496
 1703SOL     OW16744   4.364   2.422   6.366 -0.1423 -0.3612  0.3028
 1703SOL    HW116745   4.424   2.372   6.312 -1.1645 -0.1266 -1.0588
 1703SOL    HW216746   4.421   2.497   6.381  2.1847 -1.4063 -3.2752
 1704SOL     OW16747   2.937   4.433   5.729 -0.5529 -0.2122  0.0826
 1704SOL    HW116748   2.853   4.464   5.696 -1.1977 -1.2689  0.7661
 1704SOL    HW216749   2.921   4.343   5.702 -1.4014 -0.4990  1.5568
 1705SOL     OW16750   1.384   3.664   1.630  0.1351 -0.6388  0.2722
 1705SOL    HW116751   1.455   3.623   1.679 -0.1269 -0.1352  1.0771
 1705SOL    HW216752   1.349   3.588   1.584  1.5081 -1.4310  0.5206
 1706SOL     OW16753   4.636   0.567   8.889  0.3371  0.5015 -0.5047
 1706SOL    HW116754   4.547   0.539   8.867  0.7241 -0.6331 -0.6421
 1706SOL    HW216755   4.651   0.507   8.962  0.0208 -0.3578 -1.1284
 1707SOL     OW16756   4.586   3.083   8.630 -0.3132  0.2777  0.4053
 1707SOL    HW116757   4.529   3.152   8.595  1.1148  0.9576 -0.5892
 1707SOL    HW216758   4.586   3.103   8.724  3.6017  3.2831 -0.2474
 1708SOL     OW16759   1.015   2.905  16.912  0.1956  0.0553 -0.0440
 1708SOL    HW116760   1.029   2.896  16.818 -0.8773  1.8114 -0.3798
 1708SOL    HW216761   1.021   3.001  16.917 -1.9589  0.1802 -0.1816
 1709SOL     OW16762   2.272   0.737  12.645  0.5263 -0.2556  0.4179
 1709SOL    HW116763   2.292   0.742  12.552 -1.0108 -2.4100 -0.0069
 1709SOL    HW216764   2.361   0.731  12.681  0.1222 -1.6095  1.1880
 1710SOL     OW16765   3.577   0.122  12.053  0.4400 -0.7491 -0.0766
 1710SOL    HW116766   3.555   0.183  12.123 -0.2184 -1.2472  0.1600
 1710SOL    HW216767   3.501   0.142  11.998  0.2242 -1.0958  0.0978
 1711SOL     OW16768   3.325   4.556   5.662  0.2790  0.2254  0.0406
 1711SOL    HW116769   3.281   4.606   5.593  0.3982 -0.0120 -0.2102
 1711SOL    HW216770   3.404   4.528   5.616  1.1262 -1.1443  2.3328
 1712SOL     OW16771   0.931   0.006   1.039 -0.2306  0.4078  0.2940
 1712SOL    HW116772   0.912   4.736   0.945 -0.3964 -0.6854  0.4058
 1712SOL    HW216773   0.861   0.065   1.066 -0.5647 -0.5978  1.6203
 1713SOL     OW16774   4.460   0.954   6.755  0.4082 -0.4912  0.1709
 1713SOL    HW116775   4.437   0.897   6.682 -0.3651  0.6371 -0.4746
 1713SOL    HW216776   4.372   0.984   6.776  0.4860 -0.1683  0.0514
 1714SOL     OW16777   2.515   2.875   2.609 -0.1157  0.5883 -0.2878
 1714SOL    HW116778   2.519   2.893   2.703  2.0513  0.0408 -0.2835
 1714SOL    HW216779   2.579   2.942   2.587  1.2235 -0.8921 -0.8801
 1715SOL     OW16780   1.396   3.392   6.071  0.4198  0.3070  0.5199
 1715SOL    HW116781   1.391   3.324   6.138  1.1820 -1.7151 -1.4747
 1715SOL    HW216782   1.485   3.386   6.035  0.7872  0.1108  1.4845
 1716SOL     OW16783   1.932   4.344   0.856  0.0170  0.1407  0.7039
 1716SOL    HW116784   1.932   4.405   0.782 -1.3144 -0.2681  0.3749
 1716SOL    HW216785   1.942   4.266   0.801  0.1960  0.5320  0.1793
 1717SOL     OW16786   1.782   1.731   3.176 -0.3877 -0.1499  0.2003
 1717SOL    HW116787   1.852   1.685   3.221  1.3811  2.0432 -0.2960
 1717SOL    HW216788   1.821   1.819   3.173 -0.7102 -0.0099  0.0452
 1718SOL     OW16789   0.069   0.465   8.705 -0.4264 -0.4895 -0.7133
 1718SOL    HW116790   0.081   0.548   8.658 -1.6480  0.5283  0.7471
 1718SOL    HW216791   0.034   0.508   8.783 -2.3435  1.0329 -2.4023
 1719SOL     OW16792   1.686   4.241   1.596  0.6986 -0.1016  0.2230
 1719SOL    HW116793   1.774   4.221   1.627  0.8849  0.1813 -0.1357
 1719SOL    HW216794   1.689   4.329   1.558  0.9735 -0.5041 -0.6584
 1720SOL     OW16795   2.282   2.631  17.319  0.4370 -0.1999  0.1528
 1720SOL    HW116796   2.325   2.555  17.280 -1.6865 -1.1199 -0.4155
 1720SOL    HW216797   2.347   2.684  17.365  0.8357 -0.2853 -0.3140
 1721SOL     OW16798   4.545   2.493   7.485  0.2008  0.4790  0.1322
 1721SOL    HW116799   4.503   2.431   7.425 -0.0974 -0.2473  1.1014
 1721SOL    HW216800   4.474   2.556   7.483  0.3059  0.6079  0.6104
 1722SOL     OW16801   2.802   4.330   3.500  0.5647 -0.5738  0.7237
 1722SOL    HW116802   2.747   4.266   3.454  0.7050 -2.1466  2.7424
 1722SOL    HW216803   2.766   4.419   3.507 -0.4088 -0.9049 -0.1098
 1723SOL     OW16804   3.022   3.513   7.217 -0.6224  0.1347 -0.0923
 1723SOL    HW116805   3.117   3.510   7.205 -0.6208 -1.1629  0.2069
 1723SOL    HW216806   3.001   3.441   7.277  0.5518  1.0618  1.4308
 1724SOL     OW16807   1.140   3.055   5.533 -0.2510  0.2183  0.4057
 1724SOL    HW116808   1.215   3.028   5.481  1.5466  2.2705  1.9439
 1724SOL    HW216809   1.079   2.983   5.517  0.4650 -0.2863 -0.0274
 1725SOL     OW16810   0.477   2.649   1.332  0.3743 -0.0438  1.2248
 1725SOL    HW116811   0.530   2.719   1.369 -1.2931  1.5073  0.6421
 1725SOL    HW216812   0.494   2.672   1.241  2.0915  0.2104  1.6054
 1726SOL     OW16813   2.782   1.253   2.885 -0.0055 -0.2993  0.1795
 1726SOL    HW116814   2.844   1.297   2.827  1.5943 -1.1521  1.2247
 1726SOL    HW216815   2.751   1.327   2.938 -2.4764  0.1070 -1.8421
 1727SOL     OW16816   0.467   1.650  14.265 -0.3487 -0.1128 -0.3114
 1727SOL    HW116817   0.528   1.709  14.307 -1.0579  0.1962  0.2908
 1727SOL    HW216818   0.433   1.701  14.191 -1.2410 -0.1301  0.0889
 1728SOL     OW16819   1.476   3.916   2.881 -0.3338  0.2738  0.3307
 1728SOL    HW116820   1.442   3.925   2.970  0.2093  1.2297  0.4338
 1728SOL    HW216821   1.402   3.942   2.826 -0.1308 -0.6225 -0.3766
 1729SOL     OW16822   3.372   2.646   4.180 -0.4436  0.1066 -0.0185
 1729SOL    HW116823   3.340   2.556   4.172  0.5120 -0.1922 -0.5387
 1729SOL    HW216824   3.378   2.657   4.275 -0.1000 -2.6922  0.2920
 1730SOL     OW16825   1.977   0.943   4.885  0.5388 -0.2373  0.4459
 1730SOL    HW116826   2.021   0.863   4.859  1.7552  0.6970 -0.3507
 1730SOL    HW216827   1.984   1.002   4.810  0.1357  0.6841  1.1256
 1731SOL     OW16828   2.110   3.168   5.162 -0.2818  0.2406  0.4101
 1731SOL    HW116829   2.036   3.179   5.102 -2.6956 -0.8954  3.1826
 1731SOL    HW216830   2.144   3.257   5.155 -1.7243  0.7229 -0.4496
 1732SOL     OW16831   1.746   1.380   1.642 -0.2530  0.5235 -0.5439
 1732SOL    HW116832   1.773   1.458   1.689 -0.5269  1.3138 -1.7090
 1732SOL    HW216833   1.659   1.363   1.677  0.9126 -1.7774  1.2147
 1733SOL     OW16834   0.517   3.655   3.275  0.0268  0.0468 -0.5288
 1733SOL    HW116835   0.561   3.710   3.210 -0.1997 -0.2174 -0.9045
 1733SOL    HW216836   0.441   3.620   3.230 -0.3519 -0.2658  0.3416
 1734SOL     OW16837   0.865   3.992  15.310 -0.2284 -0.2487 -0.0361
 1734SOL    HW116838   0.872   3.932  15.385 -1.0052 -0.6210 -0.2613
 1734SOL    HW216839   0.770   4.001  15.306 -0.1813  0.5399  0.7210
 1735SOL     OW16840   0.452   0.444   4.787 -0.2130 -0.1450 -0.2789
 1735SOL    HW116841   0.390   0.514   4.809  0.2326  0.0843  0.2393
 1735SOL    HW216842   0.532   0.493   4.806 -0.1807  0.4718 -1.9977
 1736SOL     OW16843   4.417   4.415   6.722  0.0827  0.1374 -0.4217
 1736SOL    HW116844   4.464   4.475   6.665  0.8550  0.1516  0.2337
 1736SOL    HW216845   4.328   4.407   6.687  0.0908 -0.3908 -0.3229
 1737SOL     OW16846   4.539   2.334   6.129  0.1031  0.4693 -0.0266
 1737SOL    HW116847   4.527   2.352   6.036  0.9675 -0.9487 -0.4178
 1737SOL    HW216848   4.590   2.412   6.153 -1.2568  1.3654 -0.0520
 1738SOL     OW16849   0.782   1.324  15.178  0.5034  0.0113 -0.2894
 1738SOL    HW116850   0.803   1.365  15.094  1.5066  0.9957  0.4419
 1738SOL    HW216851   0.757   1.240  15.138 -4.3587  1.4782 -0.3997
 1739SOL     OW16852   3.290   1.847   2.388 -0.4279  0.6064 -0.3306
 1739SOL    HW116853   3.245   1.930   2.369 -1.2211  0.7051  2.0219
 1739SOL    HW216854   3.230   1.779   2.358  0.5319  0.1287 -1.1732
 1740SOL     OW16855   4.315   0.806   2.240 -0.3938  0.4273 -0.4755
 1740SOL    HW116856   4.389   0.755   2.273 -0.5584  1.0320  0.8249
 1740SOL    HW216857   4.258   0.814   2.316 -1.1154 -0.5827 -0.9101
 1741SOL     OW16858   0.449   2.382  12.495 -0.5968  0.0549 -0.1175
 1741SOL    HW116859   0.522   2.436  12.465 -0.5539 -1.1278 -2.1086
 1741SOL    HW216860   0.378   2.422  12.444 -1.3198 -0.4723  0.4802
 1742SOL     OW16861   0.700   3.638   9.392  0.0058  0.4756 -0.9300
 1742SOL    HW116862   0.663   3.550   9.393  0.2668  0.3595 -1.2386
 1742SOL    HW216863   0.626   3.682   9.351 -1.9773 -0.5614  1.5616
 1743SOL     OW16864   0.615   2.968  11.493  0.4763  0.5118  0.3307
 1743SOL    HW116865   0.681   3.035  11.511  1.6118 -0.5166 -0.0373
 1743SOL    HW216866   0.552   3.024  11.448  1.1804  1.7252  0.8600
 1744SOL     OW16867   2.009   1.608   8.600 -0.2233  0.5863 -0.6676
 1744SOL    HW116868   1.935   1.667   8.613 -1.4916 -1.6171  2.2668
 1744SOL    HW216869   1.963   1.530   8.569  2.7991 -1.1129 -0.8352
 1745SOL     OW16870   0.376   3.089   2.946 -0.1244 -0.3508  0.1599
 1745SOL    HW116871   0.302   3.149   2.958 -1.3194 -1.7409 -0.2581
 1745SOL    HW216872   0.437   3.160   2.925 -0.3486 -0.4979 -1.0189
 1746SOL     OW16873   2.129   4.435   1.723  0.2514  0.4306 -0.2709
 1746SOL    HW116874   2.142   4.528   1.704  0.2029  0.8251  1.5726
 1746SOL    HW216875   2.220   4.409   1.707  0.2578 -0.4843  1.2139
 1747SOL     OW16876   3.433   1.816   6.526  0.1408  0.5732 -0.4575
 1747SOL    HW116877   3.511   1.779   6.566  0.0274  1.1481  0.2847
 1747SOL    HW216878   3.466   1.824   6.436  0.9667 -1.4850 -0.3393
 1748SOL     OW16879   4.012   0.351   6.782 -0.0484 -0.2502  0.1623
 1748SOL    HW116880   4.067   0.423   6.750 -1.2372  0.5602 -0.0853
 1748SOL    HW216881   3.930   0.399   6.765 -0.9912 -1.5443  1.0598
 1749SOL     OW16882   4.532   3.497   7.397 -0.1924 -0.4963 -0.3699
 1749SOL    HW116883   4.582   3.497   7.315  0.5409  1.3186  0.0961
 1749SOL    HW216884   4.574   3.568   7.445  0.2057 -0.0690 -1.3560
 1750SOL     OW16885   2.938   2.313   2.767 -0.1682 -0.2883 -0.6774
 1750SOL    HW116886   3.027   2.346   2.753  0.1320 -2.3002 -3.3645
 1750SOL    HW216887   2.927   2.284   2.676 -1.6868 -0.4737 -0.4393
 1751SOL     OW16888   1.889   3.249   6.287 -0.6678 -0.1616 -0.2282
 1751SOL    HW116889   1.850   3.219   6.369  1.0872 -1.0994  0.2642
 1751SOL    HW216890   1.979   3.228   6.312 -0.4988 -1.0388 -1.5344
 1752SOL     OW16891   2.427   1.310   5.940 -0.1705 -0.1678 -0.3848
 1752SOL    HW116892   2.449   1.256   5.864  0.9674 -2.7707  1.7801
 1752SOL    HW216893   2.380   1.251   5.998 -1.6536  0.9878 -0.4035
 1753SOL     OW16894   1.009   1.987  16.489 -0.0435  0.0341  0.6764
 1753SOL    HW116895   0.989   2.040  16.566  0.2287 -1.7143  1.9444
 1753SOL    HW216896   1.029   2.055  16.425 -2.1567 -1.3084 -1.3842
 1754SOL     OW16897   0.632   0.162   5.464  0.1333  0.6195 -0.0945
 1754SOL    HW116898   0.685   0.188   5.388 -2.2627 -1.2294 -2.4189
 1754SOL    HW216899   0.689   0.181   5.538 -0.2450 -0.5075  0.4883
 1755SOL     OW16900   1.675   2.268   4.865 -0.1820 -0.1055  0.5900
 1755SOL    HW116901   1.642   2.305   4.784 -0.4006 -3.5080 -0.8877
 1755SOL    HW216902   1.749   2.327   4.879 -0.4630  0.8290 -1.8779
 1756SOL     OW16903   1.855   1.100   8.241  0.2162  0.0295  0.2865
 1756SOL    HW116904   1.821   1.140   8.161 -0.4372  0.0986  0.5991
 1756SOL    HW216905   1.793   1.028   8.254 -0.0688  0.5969  1.9823
 1757SOL     OW16906   0.967   0.560   8.453 -0.4051 -0.2085  0.2203
 1757SOL    HW116907   1.030   0.616   8.499  1.1256 -2.7974  1.2915
 1757SOL    HW216908   0.896   0.571   8.516  1.6023 -0.7722  2.5715
 1758SOL     OW16909   0.858   1.782   4.185 -0.0235 -0.1050 -0.1484
 1758SOL    HW116910   0.846   1.694   4.149  0.9633 -0.1102 -0.4641
 1758SOL    HW216911   0.812   1.825   4.112 -0.5895  0.2328  0.4069
 1759SOL     OW16912   0.543   1.498   6.940 -0.2858 -0.1449 -0.4724
 1759SOL    HW116913   0.598   1.566   6.977 -1.4206  0.7489 -0.4200
 1759SOL    HW216914   0.564   1.502   6.846  4.5569  1.2758  0.6991
 1760SOL     OW16915   1.094   0.750   3.412 -0.4843  0.1032 -1.1007
 1760SOL    HW116916   1.042   0.694   3.469  2.6087 -1.2915  0.3628
 1760SOL    HW216917   1.125   0.677   3.358 -2.0303 -1.6770  0.4394
 1761SOL     OW16918   3.893   4.051  16.856  0.4200 -0.2445 -0.2518
 1761SOL    HW116919   3.905   4.025  16.948 -3.1724 -1.7465 -0.2136
 1761SOL    HW216920   3.879   3.966  16.815  1.9290 -0.7128  0.2326
 1762SOL     OW16921   2.552   3.473  13.431  0.4285  0.6938 -0.4077
 1762SOL    HW116922   2.635   3.426  13.438  0.1058 -0.0107 -1.2915
 1762SOL    HW216923   2.498   3.424  13.494 -0.5194  2.7159  0.3392
 1763SOL     OW16924   2.720   0.768  12.290 -0.0559 -0.1499 -0.1945
 1763SOL    HW116925   2.815   0.772  12.282 -0.1173  0.3555 -0.6879
 1763SOL    HW216926   2.709   0.775  12.384  0.3002  1.8067 -0.3065
 1764SOL     OW16927   1.532   2.509   2.962  0.6506 -0.7225  0.3076
 1764SOL    HW116928   1.545   2.414   2.968  0.7126 -0.6922  0.6408
 1764SOL    HW216929   1.608   2.537   2.910 -1.3726  2.1817 -1.0862
 1765SOL     OW16930   3.973   2.716   3.918  0.1188  0.6181  0.0812
 1765SOL    HW116931   3.952   2.766   3.839 -0.7494 -2.2142 -1.4737
 1765SOL    HW216932   3.941   2.772   3.990 -3.5934 -0.6345 -0.5703
 1766SOL     OW16933   0.966   4.684   1.344 -0.0442 -0.6006  0.1816
 1766SOL    HW116934   0.902   4.612   1.342 -0.0165 -0.6142 -0.3972
 1766SOL    HW216935   1.017   4.672   1.263  0.9733  0.4967  0.6738
 1767SOL     OW16936   3.933   2.131  13.320  0.0215 -0.3364  0.0588
 1767SOL    HW116937   3.870   2.190  13.278  0.4721  1.4040  1.8110
 1767SOL    HW216938   3.891   2.129  13.406  1.1662  0.4628  0.6404
 1768SOL     OW16939   4.045   1.830   8.609  0.1259  0.1463  0.0476
 1768SOL    HW116940   3.956   1.858   8.587  0.2860  0.3399 -0.3605
 1768SOL    HW216941   4.090   1.852   8.527 -0.1993 -1.0319 -0.4499
 1769SOL     OW16942   2.644   1.666   5.681 -0.5104 -1.2062  0.6008
 1769SOL    HW116943   2.661   1.612   5.758 -0.5708 -3.9662 -1.3150
 1769SOL    HW216944   2.556   1.628   5.673 -1.2252  0.6239 -0.3586
 1770SOL     OW16945   2.836   0.772   8.850  0.2759  0.0498  0.4605
 1770SOL    HW116946   2.762   0.718   8.821  0.7411  0.4914 -1.5700
 1770SOL    HW216947   2.827   0.745   8.941 -0.0009  1.5274  0.8725
 1771SOL     OW16948   4.538   0.635  15.407 -0.4935  0.4554 -0.1275
 1771SOL    HW116949   4.607   0.657  15.345  0.3359  3.5096  1.8472
 1771SOL    HW216950   4.588   0.561  15.442 -1.0328  0.7174  1.2198
 1772SOL     OW16951   2.057   2.426   6.800 -0.2575  0.1980 -0.1556
 1772SOL    HW116952   2.048   2.458   6.890  0.4386  0.8333 -0.3038
 1772SOL    HW216953   2.152   2.417   6.790  0.1614  3.1028  1.0872
 1773SOL     OW16954   1.984   3.197   0.655 -0.5420  0.0120 -0.1630
 1773SOL    HW116955   1.970   3.291   0.662 -0.6213 -0.0473  0.5187
 1773SOL    HW216956   2.073   3.195   0.619 -0.5963  1.3790 -0.3639
 1774SOL     OW16957   1.369   1.742   8.133  0.6343  0.5702 -0.4570
 1774SOL    HW116958   1.275   1.726   8.124  0.6751 -1.1210  2.3233
 1774SOL    HW216959   1.402   1.654   8.152 -0.4140  0.6147  1.5047
 1775SOL     OW16960   0.166   2.197   7.060 -0.8103 -0.1302  0.2102
 1775SOL    HW116961   0.183   2.182   6.967  0.3500  2.3047  0.0203
 1775SOL    HW216962   0.188   2.115   7.104  0.2044 -0.3713 -0.7301
 1776SOL     OW16963   0.421   1.813   8.775  0.8264  0.0792 -0.5940
 1776SOL    HW116964   0.485   1.881   8.754  0.0461  1.0970  0.3550
 1776SOL    HW216965   0.400   1.773   8.691 -0.0053  3.4330 -1.9857
 1777SOL     OW16966   1.708   3.394  12.326  0.3942 -0.5807 -0.3649
 1777SOL    HW116967   1.707   3.298  12.318  0.0544 -0.6865  0.9476
 1777SOL    HW216968   1.784   3.419  12.274 -0.6460  0.1685 -1.5151
 1778SOL     OW16969   1.800   2.432   8.456  0.3981  0.4400  0.4797
 1778SOL    HW116970   1.888   2.429   8.419  0.4078  2.5918  0.3357
 1778SOL    HW216971   1.805   2.363   8.522  1.2420  0.6481  0.6322
 1779SOL     OW16972   2.958   0.815   2.722 -0.2459 -0.4447 -0.7206
 1779SOL    HW116973   3.009   0.823   2.802 -0.8497 -0.8464 -0.2910
 1779SOL    HW216974   2.977   0.725   2.695  0.8191  0.0218 -1.4968
 1780SOL     OW16975   2.278   0.862   6.394  0.5417  0.2703 -0.6066
 1780SOL    HW116976   2.307   0.774   6.369  0.3742  0.5147 -1.6597
 1780SOL    HW216977   2.362   0.903   6.372  1.3426 -0.6037  0.8640
 1781SOL     OW16978   0.420   1.628  17.328 -0.3916  0.2286 -0.2358
 1781SOL    HW116979   0.339   1.612  17.279 -1.3684  0.3520  1.3710
 1781SOL    HW216980   0.391   1.633  17.419 -0.3276  1.7077 -0.2873
 1782SOL     OW16981   3.540   3.098   0.084 -0.2835 -0.1088  0.1352
 1782SOL    HW116982   3.578   3.010   0.080 -0.2805 -0.1745  1.6189
 1782SOL    HW216983   3.457   3.066   0.050  0.7370 -2.0625 -0.5286
 1783SOL     OW16984   3.770   0.540   9.458  0.0350  0.4048  0.3765
 1783SOL    HW116985   3.786   0.516   9.550 -1.4767 -1.0696  0.2534
 1783SOL    HW216986   3.791   0.457   9.415 -0.2723 -0.2680  1.5320
 1784SOL     OW16987   3.791   1.557   4.225  0.1370 -0.0269 -0.5846
 1784SOL    HW116988   3.796   1.470   4.265  0.5296 -0.5445 -1.7498
 1784SOL    HW216989   3.785   1.601   4.310  1.4226 -1.9276  0.4984
 1785SOL     OW16990   1.087   1.608  12.338 -0.1871 -1.0185 -0.0685
 1785SOL    HW116991   1.005   1.603  12.386 -0.6467  1.0854 -0.6055
 1785SOL    HW216992   1.053   1.607  12.248 -1.7538  1.0202  0.4981
 1786SOL     OW16993   3.201   0.545   3.727 -0.3703  1.0844 -0.0961
 1786SOL    HW116994   3.145   0.622   3.724 -0.7534  0.8667  1.2207
 1786SOL    HW216995   3.278   0.574   3.678  1.7018 -1.6532  1.5521
 1787SOL     OW16996   2.519   1.803   5.097  0.7161 -0.3256  0.3233
 1787SOL    HW116997   2.597   1.844   5.058 -0.5741  1.5737 -0.2689
 1787SOL    HW216998   2.482   1.872   5.152  2.3949  0.7414  0.1334
 1788SOL     OW16999   4.689   2.540   1.877 -0.5411  0.2532 -0.0118
 1788SOL    HW117000   0.018   2.528   1.808  1.3136 -0.2660  1.8221
 1788SOL    HW217001   4.611   2.555   1.823 -1.8091  0.7351  1.9374
 1789SOL     OW17002   2.195   0.310   1.037  0.7020 -0.3367 -0.2159
 1789SOL    HW117003   2.263   0.330   1.100  1.4276 -0.7680 -0.8645
 1789SOL    HW217004   2.226   0.242   0.976  1.5476 -0.3819  0.2731
 1790SOL     OW17005   1.464   1.542  12.545 -0.1912 -0.0754 -0.1181
 1790SOL    HW117006   1.510   1.567  12.625 -3.1080 -1.8997  2.1203
 1790SOL    HW217007   1.544   1.500  12.514 -0.6240 -0.6230 -0.4949
 1791SOL     OW17008   4.131   4.010   8.727  0.1324 -0.2547 -0.2831
 1791SOL    HW117009   4.105   3.925   8.692  1.1834 -0.2857 -0.9578
 1791SOL    HW217010   4.212   4.014   8.677  1.4704  1.7992  2.0343
 1792SOL     OW17011   0.516   0.820  10.714 -0.1882 -0.0782 -0.5699
 1792SOL    HW117012   0.476   0.819  10.801 -0.5876  1.8761 -0.7282
 1792SOL    HW217013   0.548   0.910  10.712  0.6769 -0.4010 -1.5220
 1793SOL     OW17014   1.242   1.572   2.790  0.1859 -0.6205 -0.5908
 1793SOL    HW117015   1.245   1.603   2.880 -0.7550 -0.7196 -0.5295
 1793SOL    HW217016   1.318   1.608   2.744 -2.2945  1.9540 -2.6528
 1794SOL     OW17017   1.438   4.494   3.618 -0.1455 -0.4738  0.2008
 1794SOL    HW117018   1.397   4.506   3.532  2.2485 -1.1158 -1.0574
 1794SOL    HW217019   1.504   4.564   3.623 -0.4175 -0.0483 -1.9567
 1795SOL     OW17020   4.040   0.905   1.962 -0.1525  0.2284 -0.3092
 1795SOL    HW117021   3.974   0.968   1.933  0.3780  0.0764 -1.8612
 1795SOL    HW217022   4.044   0.844   1.889  0.6976 -1.7898  1.4172
 1796SOL     OW17023   3.072   1.861  16.865 -0.1947 -0.4211 -0.2092
 1796SOL    HW117024   3.085   1.874  16.771  1.3912  1.2496  0.2504
 1796SOL    HW217025   2.977   1.858  16.855  0.0059  1.1035 -2.5298
 1797SOL     OW17026   4.104   3.533   5.071 -0.0003 -0.3877  0.7627
 1797SOL    HW117027   4.054   3.598   5.121 -1.6215 -1.0423 -0.0253
 1797SOL    HW217028   4.151   3.581   5.003 -1.7177  0.6786  0.3138
 1798SOL     OW17029   1.765   3.596  10.714 -0.0795 -0.3666  0.2407
 1798SOL    HW117030   1.829   3.527  10.730 -2.3520 -2.5072  0.0375
 1798SOL    HW217031   1.814   3.673  10.684 -3.7246  1.2737 -1.4890
 1799SOL     OW17032   0.866   4.539   2.090  0.3405  0.1940  0.2253
 1799SOL    HW117033   0.781   4.495   2.092  0.8100 -0.7514 -0.5115
 1799SOL    HW217034   0.834   4.619   2.048 -0.1740  0.0295  0.3005
 1800SOL     OW17035   3.158   3.716   0.355  1.0404  0.0543 -0.1847
 1800SOL    HW117036   3.188   3.637   0.399  1.3959  1.1284  1.5225
 1800SOL    HW217037   3.222   3.722   0.284  1.7493  1.0170  0.5300
 1801SOL     OW17038   0.552   2.896   6.406  0.1814  0.1213 -0.3761
 1801SOL    HW117039   0.608   2.906   6.329  0.2794  0.3027 -0.2810
 1801SOL    HW217040   0.614   2.852   6.464  0.7782  1.5238  0.0520
 1802SOL     OW17041   1.833   3.257  17.275 -0.4396  0.1208  0.6654
 1802SOL    HW117042   1.849   3.315  17.349 -0.1215  0.6702  0.1701
 1802SOL    HW217043   1.907   3.196  17.286  0.8165  1.3998 -0.6459
 1803SOL     OW17044   4.622   1.027  11.855 -0.6700  0.5908  0.6958
 1803SOL    HW117045   4.616   0.968  11.931 -0.2235 -1.2095 -0.6752
 1803SOL    HW217046   4.643   1.112  11.894 -2.8153  1.4477 -0.0567
 1804SOL     OW17047   1.009   0.195   6.536  0.4943 -0.2565 -0.2055
 1804SOL    HW117048   0.975   0.119   6.489 -0.6201 -0.8367  1.5381
 1804SOL    HW217049   1.060   0.153   6.605 -1.4037  1.0007  1.9607
 1805SOL     OW17050   0.231   0.046  17.118  0.1518 -0.1307  0.5022
 1805SOL    HW117051   0.171   0.099  17.066  0.8120 -0.5094 -0.6291
 1805SOL    HW217052   0.233   4.700  17.069  1.0266  0.2732 -0.1291
 1806SOL     OW17053   2.746   4.631   2.837  0.2368 -0.0977  0.3227
 1806SOL    HW117054   2.748   4.555   2.895  0.8767 -1.5806 -1.6216
 1806SOL    HW217055   2.839   4.638   2.816  0.0336  3.4842  0.6110
 1807SOL     OW17056   3.688   4.207  16.511  0.3680 -0.4555  0.3559
 1807SOL    HW117057   3.597   4.207  16.482  0.6395  2.2452 -0.4813
 1807SOL    HW217058   3.683   4.204  16.607  0.9489  3.6778  0.5156
 1808SOL     OW17059   3.121   0.100   7.964  0.0579  0.1717  0.0886
 1808SOL    HW117060   3.160   0.017   7.992  0.9799  0.4954 -0.2620
 1808SOL    HW217061   3.076   0.071   7.885 -1.6471  1.3757  0.6264
 1809SOL     OW17062   1.635   3.130   8.580 -0.3455 -0.5579  0.4071
 1809SOL    HW117063   1.658   3.106   8.490 -2.0390  1.2897 -0.5415
 1809SOL    HW217064   1.723   3.150   8.610 -0.2320 -1.5343  0.7193
 1810SOL     OW17065   2.552   1.773   7.618 -0.8355  0.2219  0.5876
 1810SOL    HW117066   2.568   1.781   7.524 -1.4899 -2.0213  0.2967
 1810SOL    HW217067   2.635   1.760   7.664  0.8722  1.6978 -2.0845
 1811SOL     OW17068   3.507   3.034  15.957  0.4449  0.1079 -0.1863
 1811SOL    HW117069   3.591   3.073  15.982  0.9538 -1.2362  0.1839
 1811SOL    HW217070   3.460   3.072  16.031 -0.0534  0.8148 -0.8605
 1812SOL     OW17071   3.661   4.007  15.005  0.1675  0.1836  0.0182
 1812SOL    HW117072   3.604   4.078  14.975 -0.8707 -0.4186  0.5556
 1812SOL    HW217073   3.678   4.038  15.094 -1.4289 -1.5225  0.9439
 1813SOL     OW17074   1.703   4.054  12.114 -0.6265  0.0062  0.1633
 1813SOL    HW117075   1.669   4.001  12.042  0.0855  0.2674 -0.3607
 1813SOL    HW217076   1.717   3.990  12.184 -1.1761 -0.1341  0.1489
 1814SOL     OW17077   2.941   0.941  10.621 -0.5474 -0.1682  0.4074
 1814SOL    HW117078   2.945   0.848  10.601  1.2565 -0.3715  1.6584
 1814SOL    HW217079   3.035   0.961  10.627 -0.0235 -2.0362 -1.7098
 1815SOL     OW17080   1.321   1.295   7.380 -0.2085  0.7012  0.0273
 1815SOL    HW117081   1.378   1.276   7.306 -0.2675  0.5573  0.0175
 1815SOL    HW217082   1.240   1.256   7.348 -0.0613  0.3460  0.0869
 1816SOL     OW17083   1.143   4.568  16.172  0.0389 -0.5277 -0.0015
 1816SOL    HW117084   1.183   4.594  16.255 -0.1925 -0.3956  0.0678
 1816SOL    HW217085   1.139   4.650  16.123  1.3070 -2.4264 -3.2640
 1817SOL     OW17086   2.312   1.013   1.667  0.7239 -0.4130  0.2420
 1817SOL    HW117087   2.294   0.971   1.583 -0.3661  3.8233 -1.6344
 1817SOL    HW217088   2.225   1.004   1.705  0.7959  2.4872  1.0786
 1818SOL     OW17089   2.544   1.778   7.324 -0.1192  0.2188 -0.8911
 1818SOL    HW117090   2.524   1.776   7.230 -0.2762 -1.6202 -0.8249
 1818SOL    HW217091   2.507   1.865   7.335 -1.9477 -0.8756  1.4283
 1819SOL     OW17092   4.038   0.720   7.634  0.2902 -0.1940 -0.5575
 1819SOL    HW117093   3.947   0.708   7.660  0.3662 -0.8403 -0.5833
 1819SOL    HW217094   4.058   0.802   7.680 -1.2534 -0.1619  0.0267
 1820SOL     OW17095   4.709   1.180  13.048 -0.0653 -0.3364  0.3319
 1820SOL    HW117096   0.035   1.115  13.016 -0.9323 -1.0420  0.0657
 1820SOL    HW217097   0.019   1.259  13.019  0.5275 -0.5718  0.6570
 1821SOL     OW17098   4.656   1.150   3.299 -0.1739  0.1686 -0.2552
 1821SOL    HW117099   4.696   1.070   3.332  0.4697 -0.4621 -2.6220
 1821SOL    HW217100   4.599   1.113   3.232 -1.5223  1.3686  0.2138
 1822SOL     OW17101   2.451   0.495   5.922  0.0473 -0.2349 -0.2505
 1822SOL    HW117102   2.383   0.556   5.950  0.9421  0.3705  0.5738
 1822SOL    HW217103   2.463   0.449   6.005  0.3211  1.8354  0.8472
 1823SOL     OW17104   1.416   4.175  12.237 -0.2533  0.1235  0.2977
 1823SOL    HW117105   1.478   4.229  12.187  0.4321 -0.2319  0.7552
 1823SOL    HW217106   1.463   4.092  12.237 -0.2623  0.1162 -0.2891
 1824SOL     OW17107   2.278   3.308  14.873  0.3908 -0.0141  0.1866
 1824SOL    HW117108   2.348   3.306  14.809 -0.8755  0.7281 -1.2373
 1824SOL    HW217109   2.287   3.224  14.917  1.2392  0.4976  0.9845
 1825SOL     OW17110   2.103   1.150   8.320  0.1820  0.1168  0.4248
 1825SOL    HW117111   2.020   1.126   8.279  0.8678  0.4001 -1.1031
 1825SOL    HW217112   2.064   1.215   8.379  2.1044  1.8552 -0.2290
 1826SOL     OW17113   0.941   3.891   0.096  0.0004  0.2880 -0.2081
 1826SOL    HW117114   0.849   3.886   0.071 -0.7844 -0.2399  2.8144
 1826SOL    HW217115   0.967   3.980   0.073  2.1770  0.0842  1.5509
 1827SOL     OW17116   2.186   0.466   6.879 -0.3235 -0.0088  0.4883
 1827SOL    HW117117   2.233   0.484   6.960  0.2340 -0.6273  0.3013
 1827SOL    HW217118   2.099   0.493   6.908 -1.1038 -0.6944 -1.2199
 1828SOL     OW17119   3.033   0.930   7.143  0.1644  0.0395  0.2678
 1828SOL    HW117120   3.061   0.845   7.175 -0.1280  1.1545  3.4879
 1828SOL    HW217121   2.940   0.907   7.138 -0.2971  1.5948  1.5900
 1829SOL     OW17122   0.923   2.722   1.554  0.1549  0.2088 -0.5072
 1829SOL    HW117123   0.964   2.735   1.469 -0.1455  0.0920 -0.6696
 1829SOL    HW217124   0.896   2.810   1.578  0.1302  0.1635 -0.3684
 1830SOL     OW17125   1.175   2.248   6.511 -0.3328 -0.3630  0.1819
 1830SOL    HW117126   1.177   2.162   6.468  0.0932 -0.2565 -0.0102
 1830SOL    HW217127   1.143   2.217   6.595  0.5096 -1.9686 -0.0896
 1831SOL     OW17128   0.568   4.477   4.291 -0.2085 -0.3425 -0.5997
 1831SOL    HW117129   0.563   4.478   4.386  0.4632  0.7571 -0.5751
 1831SOL    HW217130   0.494   4.422   4.267  0.9057 -1.7535 -0.8299
 1832SOL     OW17131   2.079   0.399  14.459  0.1075  0.3110 -0.4944
 1832SOL    HW117132   2.155   0.448  14.426  0.4798 -0.5839 -0.9458
 1832SOL    HW217133   2.091   0.312  14.422 -2.3594 -1.1882  2.2846
 1833SOL     OW17134   3.467   2.032   3.965  0.3348  0.9625  0.4075
 1833SOL    HW117135   3.476   2.011   3.872 -0.2879 -1.2394  0.8521
 1833SOL    HW217136   3.545   2.079   3.994  0.3053  1.4071 -0.2269
 1834SOL     OW17137   4.544   0.277  10.315  0.3720 -0.1107 -0.0308
 1834SOL    HW117138   4.639   0.290  10.312  0.3004 -0.0636 -2.3343
 1834SOL    HW217139   4.524   0.246  10.403 -1.8959  1.4323  0.0070
 1835SOL     OW17140   0.470   1.457   3.685 -0.1837  0.2074  0.2431
 1835SOL    HW117141   0.560   1.480   3.711 -0.2193  0.9375 -0.2663
 1835SOL    HW217142   0.444   1.516   3.614  0.7012 -1.9473 -1.8460
 1836SOL     OW17143   0.076   2.762   9.249 -0.2913  0.1877 -0.2133
 1836SOL    HW117144   0.134   2.689   9.230  1.2776  1.2280  0.5749
 1836SOL    HW217145   0.064   2.750   9.344  0.9888 -0.5957 -0.1627
 1837SOL     OW17146   3.463   1.068   5.292 -0.0554  0.4224 -0.4244
 1837SOL    HW117147   3.480   1.065   5.386 -0.2123 -1.8584 -0.4625
 1837SOL    HW217148   3.481   0.976   5.274  0.3531 -0.0433  2.4361
 1838SOL     OW17149   2.657   0.296   3.842 -0.1409 -0.2058 -0.2371
 1838SOL    HW117150   2.604   0.243   3.901  1.4800  0.4150  1.7774
 1838SOL    HW217151   2.719   0.345   3.897 -1.5120  0.1379  0.9845
 1839SOL     OW17152   4.501   4.248  13.583 -0.7517 -0.3218  0.1115
 1839SOL    HW117153   4.436   4.198  13.633  0.0190 -1.4889 -0.0457
 1839SOL    HW217154   4.442   4.315  13.551  1.8471  2.5342  1.3107
 1840SOL     OW17155   4.131   4.527   1.923  0.5598 -0.1683 -0.2810
 1840SOL    HW117156   4.169   4.559   2.005  1.6511  1.5164 -1.4459
 1840SOL    HW217157   4.091   4.606   1.885 -2.4729 -0.9626  1.2638
 1841SOL     OW17158   4.246   1.628   2.838  0.3464  0.5187 -0.4505
 1841SOL    HW117159   4.266   1.536   2.826  0.2445  0.7595 -2.4680
 1841SOL    HW217160   4.265   1.644   2.930  0.2796 -2.0614 -0.0028
 1842SOL     OW17161   0.144   4.329   6.028 -0.0402  0.4027 -0.7705
 1842SOL    HW117162   0.167   4.251   6.079  1.0195  1.3755  0.2507
 1842SOL    HW217163   0.231   4.369   6.023  0.1490 -0.0390 -0.9113
 1843SOL     OW17164   4.674   1.981  14.976 -0.0178  0.0284 -0.2494
 1843SOL    HW117165   4.616   1.977  15.052  0.3922 -3.2687 -0.1078
 1843SOL    HW217166   4.629   1.996  14.892  0.7849 -0.9661 -0.8462
 1844SOL     OW17167   4.094   2.367   4.624  0.0066 -0.1452  0.6344
 1844SOL    HW117168   4.130   2.301   4.564 -3.0303 -0.3601 -0.9453
 1844SOL    HW217169   4.033   2.313   4.674 -0.6053  0.3534  0.4206
 1845SOL     OW17170   4.065   1.986   5.235  0.5404 -0.0208  0.4777
 1845SOL    HW117171   4.096   1.995   5.326  1.6098  0.7415  0.0427
 1845SOL    HW217172   3.987   2.040   5.241  0.5024  0.0179 -0.4643
 1846SOL     OW17173   3.911   0.694   8.312 -0.1094  0.6555  0.0213
 1846SOL    HW117174   3.915   0.602   8.337 -1.4711  1.3331  2.8472
 1846SOL    HW217175   3.958   0.688   8.229 -1.8535 -1.0120 -0.8304
 1847SOL     OW17176   0.871   1.102   8.060 -0.0842 -0.5255  0.7036
 1847SOL    HW117177   0.900   1.193   8.058 -0.9138 -0.2705 -0.2582
 1847SOL    HW217178   0.933   1.065   7.997  0.1535 -1.2940  1.3977
 1848SOL     OW17179   2.564   3.811   7.724 -0.5250 -0.2421 -0.5826
 1848SOL    HW117180   2.528   3.894   7.693 -0.5666  0.0905  0.3516
 1848SOL    HW217181   2.487   3.756   7.736 -0.3508 -0.5669 -0.9559
 1849SOL     OW17182   0.900   3.616  17.627 -0.1457 -0.7245  0.4513
 1849SOL    HW117183   0.984   3.650  17.657 -0.2155 -0.1863  0.0442
 1849SOL    HW217184   0.832   3.681  17.646 -0.5244 -1.1177  0.4289
 1850SOL     OW17185   3.783   1.125   5.239 -0.5274 -0.4999 -0.8202
 1850SOL    HW117186   3.766   1.042   5.283 -0.2902  0.3712  0.8786
 1850SOL    HW217187   3.707   1.127   5.181  0.2933 -1.7134 -1.9656
 1851SOL     OW17188   1.040   1.521   7.524  0.7080 -0.5055  0.4105
 1851SOL    HW117189   1.084   1.518   7.439 -0.4653 -0.4941 -0.1906
 1851SOL    HW217190   1.120   1.516   7.578  0.2242  1.6585  1.3209
 1852SOL     OW17191   4.689   2.874   2.153  0.1996 -0.4455 -0.5668
 1852SOL    HW117192   4.682   2.900   2.061  3.3070  0.8129 -0.4503
 1852SOL    HW217193   4.662   2.783   2.141 -0.8935 -0.3662  1.3625
 1853SOL     OW17194   2.925   2.256   4.167 -0.0531  0.0038  0.0077
 1853SOL    HW117195   2.910   2.319   4.237 -0.2603 -1.7399  1.5212
 1853SOL    HW217196   2.977   2.314   4.112 -0.0862 -0.1683 -0.2056
 1854SOL     OW17197   2.087   3.701  15.723 -0.1510  0.0167 -0.3395
 1854SOL    HW117198   2.130   3.629  15.679 -0.0587  0.3362 -0.7736
 1854SOL    HW217199   2.163   3.754  15.749  0.1177 -1.3441  1.6456
 1855SOL     OW17200   3.997   2.179   3.996  0.4609  0.4296  0.3846
 1855SOL    HW117201   3.964   2.205   3.910 -0.6971  0.0910  0.7332
 1855SOL    HW217202   4.020   2.262   4.039 -0.6808  0.8446  0.1981
 1856SOL     OW17203   0.896   3.664   3.625  0.1982 -0.3948  0.4944
 1856SOL    HW117204   0.900   3.570   3.644  0.6838 -0.4938 -0.1263
 1856SOL    HW217205   0.821   3.668   3.565  2.2668 -1.9777 -2.1874
 1857SOL     OW17206   3.642   3.767   6.358  0.4873 -0.2684  0.3778
 1857SOL    HW117207   3.723   3.813   6.337  2.8286 -3.9500  1.4383
 1857SOL    HW217208   3.596   3.823   6.421  1.6810 -0.6654  1.6114
 1858SOL     OW17209   4.734   4.259   3.423 -0.2105 -0.5135  0.4531
 1858SOL    HW117210   4.688   4.316   3.362 -0.5101  0.2850  1.4360
 1858SOL    HW217211   0.089   4.284   3.415 -0.3691  0.4883  1.9691
 1859SOL     OW17212   1.335   3.918   9.182  0.3253 -0.5396  0.4229
 1859SOL    HW117213   1.287   3.960   9.111 -1.9469 -0.7224  1.8356
 1859SOL    HW217214   1.270   3.923   9.252  1.6687 -0.8331  1.6872
 1860SOL     OW17215   1.107   0.320   2.508  0.5183 -0.3529  0.1693
 1860SOL    HW117216   1.090   0.256   2.577 -1.8025 -1.4269 -1.4125
 1860SOL    HW217217   1.076   0.400   2.550 -0.5699 -0.1653 -1.0133
 1861SOL     OW17218   1.294   0.463   3.594  0.2275 -0.2999  0.0369
 1861SOL    HW117219   1.347   0.399   3.546  0.8344  0.5717 -0.4631
 1861SOL    HW217220   1.208   0.451   3.554  0.5141 -0.0828 -0.6458
 1862SOL     OW17221   0.764   0.024   9.844  0.4948 -0.4155 -0.0800
 1862SOL    HW117222   0.839   0.033   9.903 -0.3138 -1.4724  1.0688
 1862SOL    HW217223   0.782   0.091   9.778  0.8814 -2.1435 -1.7342
 1863SOL     OW17224   1.771   3.654   8.558 -0.3790  0.4774  0.3310
 1863SOL    HW117225   1.845   3.707   8.587 -2.4264  2.6639  1.5530
 1863SOL    HW217226   1.811   3.611   8.482  0.4442  0.8385  0.5636
 1864SOL     OW17227   1.036   2.949  15.551  0.1429  0.0622  0.5582
 1864SOL    HW117228   0.958   2.933  15.498 -1.1034  1.1226  2.0204
 1864SOL    HW217229   1.056   3.039  15.525  1.5440  0.0276  1.5410
 1865SOL     OW17230   0.142   0.066   7.780 -0.6324  0.6435  0.3493
 1865SOL    HW117231   0.101   0.134   7.833  1.0150  2.0838 -0.1924
 1865SOL    HW217232   0.073   0.005   7.755 -0.8107  0.2377  1.8141
 1866SOL     OW17233   3.508   0.035  17.717  0.0642 -0.0698  0.2883
 1866SOL    HW117234   3.504   0.125  17.687 -1.2328 -0.1417  0.2508
 1866SOL    HW217235   3.599   0.016  17.742 -0.9895 -3.3389  1.6997
 1867SOL     OW17236   4.336   4.729   1.425  0.1511 -0.9152 -0.4132
 1867SOL    HW117237   4.275   4.656   1.439 -1.9724  0.8034 -0.6222
 1867SOL    HW217238   4.280   0.067   1.402 -0.5135 -0.7276  1.7946
 1868SOL     OW17239   3.079   4.452  12.631 -0.3955 -0.3099 -0.3045
 1868SOL    HW117240   3.032   4.429  12.551 -0.5646 -0.5717 -0.1294
 1868SOL    HW217241   3.010   4.440  12.696  0.8685  0.5279  1.1870
 1869SOL     OW17242   3.024   0.667   0.348 -0.4268  0.5922 -0.2906
 1869SOL    HW117243   2.978   0.606   0.291  0.1082 -0.2929  0.2203
 1869SOL    HW217244   3.068   0.719   0.281 -2.4914 -1.0370 -2.8962
 1870SOL     OW17245   3.814   1.884   8.003  0.2341  0.5521  0.2258
 1870SOL    HW117246   3.840   1.919   7.918 -0.6550  1.6637  0.4101
 1870SOL    HW217247   3.763   1.806   7.980  1.3388  1.1292 -4.2193
 1871SOL     OW17248   3.997   0.367   2.924  0.6230  0.2923  0.0964
 1871SOL    HW117249   4.062   0.330   2.984  0.6555 -1.0651 -0.7898
 1871SOL    HW217250   3.963   0.439   2.978  0.1387  1.3498 -1.6173
 1872SOL     OW17251   3.784   4.189   4.375  0.0982  0.6886 -0.8683
 1872SOL    HW117252   3.768   4.114   4.432  0.6591  1.4013  0.2212
 1872SOL    HW217253   3.877   4.178   4.354  0.4342  0.9538  0.5041
 1873SOL     OW17254   2.682   0.221   8.172 -0.4576  0.2514 -0.0258
 1873SOL    HW117255   2.729   0.141   8.147  1.8643  2.3720 -2.4460
 1873SOL    HW217256   2.602   0.227   8.120 -0.9408  1.3711  0.8518
 1874SOL     OW17257   0.476   0.441   1.814 -0.2557  0.0452 -0.5174
 1874SOL    HW117258   0.534   0.442   1.737  1.1401 -1.1619  0.5257
 1874SOL    HW217259   0.395   0.456   1.765 -0.0511  0.6999 -0.6642
 1875SOL     OW17260   2.436   0.680   6.956  0.3251  0.0854  0.5537
 1875SOL    HW117261   2.355   0.707   6.912  0.7176 -1.1263 -0.8995
 1875SOL    HW217262   2.434   0.733   7.035 -0.8371 -0.6766  1.0263
 1876SOL     OW17263   3.422   1.301   6.793  0.1985  0.3238 -0.5538
 1876SOL    HW117264   3.329   1.313   6.812 -0.4528 -1.1794 -2.7637
 1876SOL    HW217265   3.422   1.207   6.775  0.8765  0.2389 -0.1061
 1877SOL     OW17266   3.134   0.661  13.593 -0.1190 -0.5356  0.2242
 1877SOL    HW117267   3.149   0.656  13.687 -1.0699  0.3383  0.4212
 1877SOL    HW217268   3.046   0.623  13.601 -1.4116  2.2688 -0.7155
 1878SOL     OW17269   2.953   2.195  11.390 -0.0223  0.4193  0.3923
 1878SOL    HW117270   2.882   2.196  11.326 -0.0876 -4.1300  0.4026
 1878SOL    HW217271   2.972   2.101  11.390 -1.4743  0.1183 -1.4097
 1879SOL     OW17272   2.324   4.576   7.441 -0.6166  0.2525  0.0943
 1879SOL    HW117273   2.300   4.501   7.496  1.6002 -1.1974 -0.8911
 1879SOL    HW217274   2.406   4.548   7.401 -1.5142  0.7726 -2.0959
 1880SOL     OW17275   2.229   0.050   4.473  0.4438 -0.4076  0.4803
 1880SOL    HW117276   2.230   0.137   4.434 -1.7011 -0.2840  0.7107
 1880SOL    HW217277   2.135   0.034   4.481 -0.0546  1.6028 -1.5338
 1881SOL     OW17278   0.644   1.616   2.210  0.7471 -0.3559  0.4731
 1881SOL    HW117279   0.720   1.631   2.154  1.2122 -2.0387  0.6472
 1881SOL    HW217280   0.675   1.535   2.250 -0.2825 -0.7139  0.5593
 1882SOL     OW17281   2.287   0.391  16.481  0.3290 -0.2902  0.0453
 1882SOL    HW117282   2.325   0.411  16.566  0.6611 -0.1440 -0.1382
 1882SOL    HW217283   2.214   0.452  16.471  1.2948  0.7841 -0.4382
 1883SOL     OW17284   0.325   1.385   5.494 -0.2670  0.3274  0.3048
 1883SOL    HW117285   0.262   1.426   5.552 -0.7545 -0.4512  0.3232
 1883SOL    HW217286   0.274   1.320   5.446  1.3625 -0.7591  0.0248
 1884SOL     OW17287   1.205   1.823   5.732  0.0309 -0.1617 -0.5643
 1884SOL    HW117288   1.213   1.810   5.637 -0.5752 -0.8113 -0.5342
 1884SOL    HW217289   1.115   1.857   5.733  0.0679 -0.0160 -1.5041
 1885SOL     OW17290   4.195   2.313   2.835 -0.2268 -0.5701 -0.1266
 1885SOL    HW117291   4.183   2.271   2.749 -0.8127 -0.7117  0.0225
 1885SOL    HW217292   4.104   2.344   2.838 -0.1468 -0.1492 -1.7379
 1886SOL     OW17293   3.905   2.477   0.200  0.0317 -1.0283  0.3163
 1886SOL    HW117294   3.987   2.521   0.223 -0.2042 -1.6463  2.2916
 1886SOL    HW217295   3.896   2.491   0.106 -1.8183  1.0544  0.8180
 1887SOL     OW17296   3.332   0.105   2.819 -0.7500  0.5962  0.5687
 1887SOL    HW117297   3.243   0.115   2.854 -2.0012 -0.4031 -2.2996
 1887SOL    HW217298   3.341   0.017   2.856 -1.1499 -0.0506 -0.8382
 1888SOL     OW17299   0.614   3.317   6.000 -0.3262 -0.0512 -0.1413
 1888SOL    HW117300   0.622   3.267   5.919 -1.9306 -0.8736  0.2094
 1888SOL    HW217301   0.550   3.269   6.053  0.5867 -1.1861 -0.0579
 1889SOL     OW17302   1.354   0.378   6.468 -0.3484  0.0355  0.4987
 1889SOL    HW117303   1.373   0.446   6.533 -1.8304  1.5839 -0.7199
 1889SOL    HW217304   1.444   0.351   6.448 -1.0789  0.9845 -4.1509
 1890SOL     OW17305   3.634   1.572  14.336 -0.4691 -0.1065 -0.1446
 1890SOL    HW117306   3.600   1.483  14.344  0.0344 -0.3322 -0.4765
 1890SOL    HW217307   3.696   1.575  14.408 -0.3234 -0.1790 -0.2665
 1891SOL     OW17308   1.420   0.091   6.055 -0.0467 -0.3775 -0.0778
 1891SOL    HW117309   1.406   0.183   6.034 -0.4962 -0.0701  1.5183
 1891SOL    HW217310   1.332   0.059   6.036  0.3776  0.6654 -3.7042
 1892SOL     OW17311   4.022   0.543   2.540  0.2438 -0.4471 -0.0526
 1892SOL    HW117312   4.081   0.474   2.570  0.9847  0.6432  1.0202
 1892SOL    HW217313   3.946   0.495   2.508 -0.3904 -0.0866  0.9271
 1893SOL     OW17314   1.369   1.598   3.571 -0.1454 -0.5393  0.3079
 1893SOL    HW117315   1.313   1.547   3.512 -4.3946  1.9669  2.1887
 1893SOL    HW217316   1.310   1.647   3.627 -1.2084 -2.9010  1.2646
 1894SOL     OW17317   3.816   4.386   2.702  0.2234 -0.6310  0.5360
 1894SOL    HW117318   3.782   4.473   2.722  0.4909 -0.5414  0.6140
 1894SOL    HW217319   3.785   4.336   2.778 -0.4805  2.9318  2.5917
 1895SOL     OW17320   4.315   1.288   9.436 -0.0258 -0.3265 -0.6023
 1895SOL    HW117321   4.334   1.237   9.358  1.4682 -0.1977 -0.3231
 1895SOL    HW217322   4.287   1.374   9.405 -0.0088  0.5767  1.8814
 1896SOL     OW17323   0.044   1.236   5.139 -0.1456  0.5193 -0.0814
 1896SOL    HW117324   4.709   1.289   5.103 -0.5067  0.0539 -0.0386
 1896SOL    HW217325   0.088   1.220   5.055 -0.5413 -0.3747 -0.1188
 1897SOL     OW17326   2.512   0.624   8.123  0.3398 -0.0019  0.6549
 1897SOL    HW117327   2.578   0.596   8.186 -0.0673  0.7091  1.3969
 1897SOL    HW217328   2.575   0.627   8.051 -0.3708 -0.3905  0.0280
 1898SOL     OW17329   3.613   3.322   7.446  0.0380 -0.6645 -0.2139
 1898SOL    HW117330   3.664   3.289   7.373  0.3161 -1.4376  0.3326
 1898SOL    HW217331   3.534   3.268   7.445 -0.7774  0.4809  1.9607
 1899SOL     OW17332   2.695   2.085  12.969  0.1470 -0.1315  0.5388
 1899SOL    HW117333   2.652   2.144  12.908 -1.1849 -0.9483  0.6898
 1899SOL    HW217334   2.620   2.033  12.996 -0.1984  0.2306  0.2783
 1900SOL     OW17335   2.237   4.181   0.655 -0.6001 -0.1958  0.1333
 1900SOL    HW117336   2.152   4.153   0.690 -0.5735 -1.7349 -1.0228
 1900SOL    HW217337   2.284   4.102   0.681 -1.0436 -0.7164 -0.6436
 1901SOL     OW17338   0.043   2.168   0.726 -0.1504  0.2402 -0.2407
 1901SOL    HW117339   4.732   2.231   0.671  1.5234  1.0504 -0.7520
 1901SOL    HW217340   0.011   2.082   0.699  0.2569  0.4713 -1.4508
 1902SOL     OW17341   0.950   1.942   8.997  0.1964  0.8555 -0.4322
 1902SOL    HW117342   1.042   1.961   9.012  0.1670 -0.3086  1.1543
 1902SOL    HW217343   0.942   1.945   8.902  0.3259 -2.2710 -0.5465
 1903SOL     OW17344   2.474   2.843  17.450  0.0327 -0.3319  0.4008
 1903SOL    HW117345   2.451   2.892  17.529 -0.9429 -0.6248  0.3007
 1903SOL    HW217346   2.518   2.904  17.391  0.5374 -1.3714 -0.2737
 1904SOL     OW17347   3.515   0.086   7.535 -0.1847 -0.1119 -0.3410
 1904SOL    HW117348   3.529   0.033   7.456 -0.2303 -0.6254 -0.0052
 1904SOL    HW217349   3.466   0.019   7.582  0.2789 -0.4352 -0.3165
 1905SOL     OW17350   2.628   1.844   1.917  1.0195 -0.0470 -0.5514
 1905SOL    HW117351   2.638   1.819   2.009 -0.8561 -0.2995 -0.4085
 1905SOL    HW217352   2.673   1.928   1.916  0.3440  0.2589 -3.4808
 1906SOL     OW17353   0.412   1.605  13.050  0.0932 -0.2619 -0.7524
 1906SOL    HW117354   0.378   1.652  13.127  0.5793 -0.7675 -0.2231
 1906SOL    HW217355   0.467   1.672  13.010 -1.0767  1.4650  0.5311
 1907SOL     OW17356   3.038   1.426   3.955 -0.4044 -0.2862  0.0201
 1907SOL    HW117357   2.995   1.500   3.913 -3.0087 -1.2284  0.9944
 1907SOL    HW217358   3.113   1.410   3.898 -0.1765 -0.0563  0.2568
 1908SOL     OW17359   0.178   3.025  15.015  0.2560 -0.3408  0.0868
 1908SOL    HW117360   0.196   3.085  15.087 -0.9107  0.6628 -0.4540
 1908SOL    HW217361   0.270   3.008  14.999 -0.0578 -0.8583 -1.1788
 1909SOL     OW17362   2.460   1.568   3.172  0.2187 -1.1553  0.1666
 1909SOL    HW117363   2.405   1.547   3.097 -2.3953  1.9115  1.2338
 1909SOL    HW217364   2.408   1.509   3.227 -0.5850 -1.3866 -0.8409
 1910SOL     OW17365   3.149   1.203   5.477 -0.0810  0.4059  0.2765
 1910SOL    HW117366   3.172   1.157   5.558  1.1407 -2.1689 -1.5338
 1910SOL    HW217367   3.090   1.272   5.508 -1.9373 -0.4625 -1.3546
 1911SOL     OW17368   3.786   2.002   0.204  0.2615 -0.3435  0.1260
 1911SOL    HW117369   3.787   1.907   0.215 -0.8001 -0.5972 -1.9372
 1911SOL    HW217370   3.851   2.016   0.272  1.4696  0.6728 -1.2548
 1912SOL     OW17371   1.298   1.886   2.462 -0.8483 -0.2286 -0.2586
 1912SOL    HW117372   1.249   1.924   2.390  0.8317 -1.1576 -1.9203
 1912SOL    HW217373   1.351   1.962   2.487 -1.5377 -0.0800  0.7225
 1913SOL     OW17374   1.787   4.221   1.102  0.2017  0.0963 -0.6059
 1913SOL    HW117375   1.863   4.196   1.049  0.7982 -3.3801  1.8709
 1913SOL    HW217376   1.723   4.238   1.033 -0.3102 -0.1925 -0.2032
 1914SOL     OW17377   3.405   4.734   1.543  0.0727 -0.7335  0.0036
 1914SOL    HW117378   3.459   0.035   1.612  1.0242 -0.3952 -0.9180
 1914SOL    HW217379   3.467   4.665   1.521 -1.1925 -1.6256 -0.8006
 1915SOL     OW17380   1.431   0.645   3.411  0.3356  0.0585 -0.2528
 1915SOL    HW117381   1.451   0.552   3.402  1.6016  0.3937 -0.9461
 1915SOL    HW217382   1.398   0.633   3.500  0.6138  0.9596 -0.0238
 1916SOL     OW17383   3.635   2.398   7.297 -0.1926 -0.0876  0.1379
 1916SOL    HW117384   3.690   2.391   7.219  0.9001 -0.1522  0.9101
 1916SOL    HW217385   3.553   2.415   7.250  1.0133  2.1387 -1.1574
 1917SOL     OW17386   2.142   3.420  15.336 -0.3396  0.0177 -0.1987
 1917SOL    HW117387   2.076   3.483  15.366 -2.0981 -2.4478  1.1526
 1917SOL    HW217388   2.210   3.446  15.399  1.2191 -0.2272 -1.7932
 1918SOL     OW17389   1.524   1.498   6.477  0.5135 -0.2627 -0.1766
 1918SOL    HW117390   1.585   1.425   6.474  0.2387 -0.4092 -2.7332
 1918SOL    HW217391   1.446   1.460   6.517 -0.2628  0.6927 -0.7822
 1919SOL     OW17392   2.295   4.160  10.637  0.3720 -0.1335  0.2166
 1919SOL    HW117393   2.271   4.221  10.707  0.6042  0.1563  0.0421
 1919SOL    HW217394   2.364   4.110  10.681  0.2479 -0.8184 -0.3693
 1920SOL     OW17395   1.979   3.539   8.065 -0.0022  0.3211 -0.2813
 1920SOL    HW117396   2.056   3.501   8.022  0.9701  1.3667  0.5429
 1920SOL    HW217397   1.999   3.632   8.067  1.6118  0.0013 -1.0297
 1921SOL     OW17398   0.852   2.148  13.861 -0.4116  0.6802  0.1776
 1921SOL    HW117399   0.820   2.058  13.869 -1.9829  1.1308 -1.0004
 1921SOL    HW217400   0.803   2.184  13.787 -0.2877  1.4916  0.4908
 1922SOL     OW17401   2.221   1.573   5.488 -0.1524 -0.8837  0.5538
 1922SOL    HW117402   2.208   1.524   5.569 -0.7038 -0.7003  0.5722
 1922SOL    HW217403   2.142   1.556   5.437  0.3498 -1.0962 -0.1510
 1923SOL     OW17404   1.913   4.591   8.413 -0.4823 -0.5715 -0.1827
 1923SOL    HW117405   1.856   4.587   8.489 -3.0486 -1.1246 -2.1479
 1923SOL    HW217406   1.860   4.649   8.359 -0.8206 -0.6496  0.0641
 1924SOL     OW17407   3.391   1.050   2.159 -0.0061 -0.3480 -0.3458
 1924SOL    HW117408   3.386   1.081   2.249  0.3942  0.0679 -0.4709
 1924SOL    HW217409   3.334   0.973   2.161  0.0497 -0.3957 -0.5808
 1925SOL     OW17410   4.462   1.647   6.285 -0.0916 -0.2481 -0.3131
 1925SOL    HW117411   4.385   1.636   6.230 -0.2270  2.6083 -0.7074
 1925SOL    HW217412   4.434   1.701   6.359  1.5388 -1.4293  1.1829
 1926SOL     OW17413   1.024   0.714  15.081 -0.0971  0.3430 -0.0934
 1926SOL    HW117414   0.945   0.662  15.067  0.6540 -0.0255 -2.9890
 1926SOL    HW217415   1.066   0.720  14.995  1.1398 -2.0507  0.3240
 1927SOL     OW17416   0.601   4.529   8.528 -0.0353  0.3891 -0.0781
 1927SOL    HW117417   0.633   4.520   8.438  3.5803  3.9440  0.8491
 1927SOL    HW217418   0.521   4.577   8.507  0.4478  1.4302  0.4544
 1928SOL     OW17419   1.214   2.018   2.772  0.0045  0.1423 -0.1199
 1928SOL    HW117420   1.283   1.952   2.775 -0.7370 -0.6086  0.3418
 1928SOL    HW217421   1.165   2.009   2.854  1.2738 -0.0362  0.6197
 1929SOL     OW17422   2.405   2.259  12.583 -0.7743 -0.1015 -0.0494
 1929SOL    HW117423   2.330   2.237  12.528 -0.1077 -1.1058 -0.5692
 1929SOL    HW217424   2.463   2.308  12.524  2.2360 -1.3736  1.8370
 1930SOL     OW17425   4.728   3.932   0.668  0.1894 -0.1271  0.9993
 1930SOL    HW117426   0.030   3.940   0.755  0.7036  3.1776  0.4710
 1930SOL    HW217427   4.647   3.983   0.670  0.6482  0.6494  0.0426
 1931SOL     OW17428   3.517   1.265   7.644 -0.0256  0.1543  0.2208
 1931SOL    HW117429   3.573   1.218   7.582 -1.5952 -0.2337 -0.9019
 1931SOL    HW217430   3.568   1.337   7.679  0.5531  0.5427 -1.3985
 1932SOL     OW17431   0.656   3.501  12.708 -0.1705  0.8152 -0.1652
 1932SOL    HW117432   0.607   3.564  12.655  2.1457 -0.8502 -4.3398
 1932SOL    HW217433   0.646   3.544  12.793 -0.7033  0.3782 -0.0114
 1933SOL     OW17434   1.896   4.353   7.844 -0.4509 -0.0699 -0.0541
 1933SOL    HW117435   1.906   4.371   7.937 -1.4066  0.2647 -0.0248
 1933SOL    HW217436   1.964   4.413   7.811 -0.7245  0.3582  0.1611
 1934SOL     OW17437   3.602   2.575   6.314 -0.2825  0.2172  0.1797
 1934SOL    HW117438   3.556   2.537   6.388 -1.9363  1.4485 -0.2069
 1934SOL    HW217439   3.586   2.667   6.336  0.6925  0.2304  0.8602
 1935SOL     OW17440   2.821   3.295   1.934  0.3034  0.4687 -0.0821
 1935SOL    HW117441   2.858   3.313   1.847 -2.4479 -1.3626 -1.6546
 1935SOL    HW217442   2.888   3.242   1.977 -0.7417 -0.7957 -0.0067
 1936SOL     OW17443   1.834   1.140  10.530 -0.4331  0.3603 -0.3555
 1936SOL    HW117444   1.922   1.163  10.499  0.7986 -3.2418  0.3798
 1936SOL    HW217445   1.826   1.201  10.603  0.4967 -0.4604  0.4497
 1937SOL     OW17446   4.572   0.764   4.683  0.9346 -0.1777  0.5852
 1937SOL    HW117447   4.569   0.762   4.587  1.1709 -0.0077  0.5732
 1937SOL    HW217448   4.526   0.686   4.713 -1.6361  0.3573 -1.8864
 1938SOL     OW17449   2.489   0.368   1.504 -0.0848  0.0923  0.0804
 1938SOL    HW117450   2.517   0.282   1.472 -3.4633 -2.3790  3.6896
 1938SOL    HW217451   2.571   0.418   1.500 -0.7162  0.9860 -1.5869
 1939SOL     OW17452   3.075   3.032  15.871 -0.1741 -0.3147  0.4738
 1939SOL    HW117453   3.156   2.985  15.888 -0.5105 -0.8757  0.5199
 1939SOL    HW217454   3.027   2.977  15.809  0.7909  0.8232 -1.2560
 1940SOL     OW17455   1.992   0.817  12.333 -0.1173  0.3209  0.1040
 1940SOL    HW117456   2.014   0.874  12.406 -0.8499 -0.4225  0.9021
 1940SOL    HW217457   1.983   0.882  12.263 -0.2687  0.3811  0.1782
 1941SOL     OW17458   4.575   4.023   3.471  0.7247  0.7924  0.1126
 1941SOL    HW117459   4.614   3.966   3.538 -1.3075 -0.0924  0.5418
 1941SOL    HW217460   4.642   4.090   3.461 -0.2529  1.6747 -0.4873
 1942SOL     OW17461   4.103   2.512  12.832  0.2149 -0.2278 -0.1133
 1942SOL    HW117462   4.054   2.554  12.902  1.0412 -0.5240  0.6489
 1942SOL    HW217463   4.159   2.589  12.817 -0.7397  0.6601  0.9263
 1943SOL     OW17464   0.654   3.888   3.154  0.3888 -0.3193 -0.4267
 1943SOL    HW117465   0.737   3.895   3.201 -1.8442 -0.0003  3.4736
 1943SOL    HW217466   0.654   3.982   3.133  2.3129 -0.3952 -0.7693
 1944SOL     OW17467   1.084   1.570   6.512  0.1820 -0.2214  0.2844
 1944SOL    HW117468   1.081   1.665   6.516  1.9700 -0.1698  0.4982
 1944SOL    HW217469   0.995   1.537   6.501 -0.9782  2.8490  0.4724
 1945SOL     OW17470   1.405   4.241  10.754  0.1083 -0.0211 -0.5871
 1945SOL    HW117471   1.390   4.225  10.661  1.5003  0.8940 -0.9651
 1945SOL    HW217472   1.447   4.327  10.757  2.3286 -1.1098 -0.8585
 1946SOL     OW17473   4.248   0.960  10.539  0.1578  0.2469 -0.0257
 1946SOL    HW117474   4.261   0.938  10.447 -0.7637 -1.2794  0.2114
 1946SOL    HW217475   4.163   0.922  10.560  0.4780 -0.3253  0.2088
 1947SOL     OW17476   3.443   2.301   0.393  0.8754  0.0561  0.3341
 1947SOL    HW117477   3.526   2.331   0.356  0.2960  0.1043 -0.9671
 1947SOL    HW217478   3.461   2.207   0.402  0.0430  0.0549  1.8514
 1948SOL     OW17479   3.680   1.743   6.588  0.2615  0.1235 -0.0921
 1948SOL    HW117480   3.698   1.652   6.564 -0.4969  0.3222 -1.3837
 1948SOL    HW217481   3.735   1.739   6.667  0.6927 -0.1065 -0.3994
 1949SOL     OW17482   4.020   2.464   4.080  0.8978 -0.2322  0.0096
 1949SOL    HW117483   3.991   2.526   4.014 -1.2053 -0.8318  0.3783
 1949SOL    HW217484   3.943   2.477   4.135  0.9316  0.5280 -0.1262
 1950SOL     OW17485   2.186   0.316   2.671 -0.1147 -0.3067  0.0171
 1950SOL    HW117486   2.097   0.293   2.647  0.3531 -0.9077 -1.1309
 1950SOL    HW217487   2.198   0.252   2.741  0.1929  1.2552  1.3899
 1951SOL     OW17488   1.319   1.492   8.839 -0.4260 -0.3300  0.4482
 1951SOL    HW117489   1.309   1.414   8.893 -3.9782  0.5864  1.1366
 1951SOL    HW217490   1.255   1.467   8.772 -0.9154  1.8526  0.0790
 1952SOL     OW17491   3.302   0.714   6.390 -0.0528  0.4242 -0.3702
 1952SOL    HW117492   3.294   0.701   6.295 -0.3907  2.0285 -0.5703
 1952SOL    HW217493   3.312   0.623   6.418  0.6076  0.8032  0.5901
 1953SOL     OW17494   1.055   4.023  10.613 -0.5878 -0.4772  0.5140
 1953SOL    HW117495   0.985   4.064  10.664 -1.7615 -0.3557 -1.1828
 1953SOL    HW217496   1.112   3.984  10.680 -0.6574 -1.1470  0.1858
 1954SOL     OW17497   3.743   1.061  15.608 -0.3633 -0.6535  0.3865
 1954SOL    HW117498   3.665   1.084  15.559 -0.5177 -0.3840  0.7616
 1954SOL    HW217499   3.720   1.066  15.701  2.5452  0.6725  1.0556
 1955SOL     OW17500   2.043   4.432   3.777 -0.0407 -0.6961  0.2507
 1955SOL    HW117501   2.045   4.409   3.870  0.2326 -1.1956  0.1184
 1955SOL    HW217502   1.988   4.363   3.740  0.8302 -0.8303 -0.7798
 1956SOL     OW17503   4.421   1.101   0.149  0.1971  0.1205  0.1660
 1956SOL    HW117504   4.422   1.183   0.197  2.5858  0.3410 -0.2420
 1956SOL    HW217505   4.440   1.150   0.069 -1.4041  1.6343  0.7089
 1957SOL     OW17506   2.752   1.077   7.988 -0.0052  0.7821  0.8604
 1957SOL    HW117507   2.686   1.058   7.921 -0.6565 -0.9599  1.9988
 1957SOL    HW217508   2.838   1.061   7.948 -0.4000  0.1361  0.2542
 1958SOL     OW17509   3.632   4.647   3.262 -0.0989  0.2004  0.2891
 1958SOL    HW117510   3.634   4.668   3.356  0.4342  0.8344  0.1339
 1958SOL    HW217511   3.544   4.678   3.243 -0.8415 -1.7311  0.6147
 1959SOL     OW17512   4.647   0.628   7.459 -0.0675 -0.4633  0.3528
 1959SOL    HW117513   4.705   0.656   7.388 -0.7369 -0.6683 -0.2627
 1959SOL    HW217514   4.674   0.540   7.486 -1.2703 -1.6866 -2.4642
 1960SOL     OW17515   3.063   3.409   9.070  0.6204  0.4485  0.9786
 1960SOL    HW117516   3.154   3.391   9.093  0.6379  0.5767  1.0078
 1960SOL    HW217517   3.066   3.396   8.975  1.3306 -1.8217  1.3162
 1961SOL     OW17518   2.467   4.304   8.326 -0.4895  0.7046  0.1590
 1961SOL    HW117519   2.562   4.295   8.316 -0.7087 -1.8642  0.4466
 1961SOL    HW217520   2.448   4.398   8.322  0.5971  0.9731  1.0761
 1962SOL     OW17521   4.318   4.468  17.514  0.2264  0.6640  0.0515
 1962SOL    HW117522   4.376   4.454  17.440 -1.9520 -0.7965 -1.3751
 1962SOL    HW217523   4.238   4.483  17.464  0.7560 -0.2306 -1.0696
 1963SOL     OW17524   3.811   0.219  11.960  0.3640  0.0958  0.0705
 1963SOL    HW117525   3.725   0.192  11.992  0.2713 -2.0554 -2.0204
 1963SOL    HW217526   3.840   0.135  11.925 -1.5863 -1.0236  1.1379
 1964SOL     OW17527   0.400   4.632   2.625 -0.2862 -0.0675 -0.1901
 1964SOL    HW117528   0.348   4.552   2.626  0.7639 -0.7482 -1.2534
 1964SOL    HW217529   0.435   4.634   2.536 -0.7513 -3.6689 -0.4561
 1965SOL     OW17530   2.325   1.713   1.385 -0.2436  0.2795  0.0240
 1965SOL    HW117531   2.295   1.640   1.441 -0.2513  0.3835  0.1556
 1965SOL    HW217532   2.299   1.784   1.444 -2.1071 -1.9781  1.9737
 1966SOL     OW17533   0.266   3.070  10.137  0.0531  0.1317 -0.6009
 1966SOL    HW117534   0.264   2.982  10.099  0.9882 -0.1400 -0.0331
 1966SOL    HW217535   0.351   3.075  10.181 -0.9578  0.9014  1.2753
 1967SOL     OW17536   1.859   0.878   2.564  0.6033 -0.5061  0.3204
 1967SOL    HW117537   1.799   0.820   2.517  1.7137 -1.7226  0.3800
 1967SOL    HW217538   1.803   0.914   2.632  1.5767 -0.7307  1.2391
 1968SOL     OW17539   3.833   3.250   1.139  0.4442  0.2083  0.1145
 1968SOL    HW117540   3.786   3.222   1.061  0.7042  0.3600 -0.0986
 1968SOL    HW217541   3.849   3.341   1.113  2.8148  0.5163  2.5325
 1969SOL     OW17542   4.349   0.569   8.799 -0.1504 -0.4410 -0.3593
 1969SOL    HW117543   4.264   0.577   8.841 -0.5948 -0.6151 -1.2350
 1969SOL    HW217544   4.359   0.655   8.758  2.7297 -0.6758 -0.1550
 1970SOL     OW17545   3.524   0.096   4.430  0.7337 -0.9783 -1.0499
 1970SOL    HW117546   3.469   0.029   4.470 -0.4074  1.1101  0.8430
 1970SOL    HW217547   3.591   0.044   4.386  2.5252 -1.7780  2.6261
 1971SOL     OW17548   2.690   4.481  15.876 -0.7143 -0.2777 -0.4340
 1971SOL    HW117549   2.711   4.540  15.948 -0.5796 -1.7013  0.6925
 1971SOL    HW217550   2.766   4.423  15.870 -1.0625 -0.6011 -1.7821
 1972SOL     OW17551   4.526   1.691   0.602  0.1488 -0.0268  0.3065
 1972SOL    HW117552   4.532   1.783   0.625 -1.1437  0.0161  0.4490
 1972SOL    HW217553   4.597   1.682   0.538  0.0206  2.6414 -0.2031
 1973SOL     OW17554   3.246   1.109   7.166 -0.9549 -0.4296 -0.2640
 1973SOL    HW117555   3.180   1.040   7.171 -0.7071 -0.7174 -1.0585
 1973SOL    HW217556   3.211   1.164   7.096 -0.5028 -0.0616 -0.1992
 1974SOL     OW17557   3.758   4.563   7.265  0.6486  0.0377 -0.0221
 1974SOL    HW117558   3.851   4.577   7.250  0.3427  2.2129  0.1113
 1974SOL    HW217559   3.750   4.487   7.323 -0.4022 -0.2983 -0.6156
 1975SOL     OW17560   1.044   3.450   7.993  0.1462  0.0697  0.0549
 1975SOL    HW117561   1.039   3.543   7.972 -0.7045  0.3414  1.4245
 1975SOL    HW217562   1.064   3.449   8.086 -0.3322 -1.2527  0.1485
 1976SOL     OW17563   4.082   4.456   7.693 -0.2928 -1.1986  0.0536
 1976SOL    HW117564   4.117   4.396   7.627  0.4882 -1.6838  0.9255
 1976SOL    HW217565   4.000   4.408   7.702  0.5424 -3.2099 -2.9859
 1977SOL     OW17566   2.306   0.660  15.383 -0.1624  0.1684  0.5363
 1977SOL    HW117567   2.222   0.615  15.381 -0.4501  0.6508  1.6220
 1977SOL    HW217568   2.362   0.614  15.446 -1.4541 -2.4981 -0.2800
 1978SOL     OW17569   4.471   2.812   2.534  0.3463 -0.0663  0.3733
 1978SOL    HW117570   4.504   2.744   2.475  1.6022 -0.6237  1.7225
 1978SOL    HW217571   4.377   2.798   2.525  0.6635 -2.6060  0.9271
 1979SOL     OW17572   2.278   2.872   3.133  0.3155 -0.0956 -0.4278
 1979SOL    HW117573   2.183   2.877   3.135  0.2310 -2.7421  2.6868
 1979SOL    HW217574   2.305   2.917   3.214 -0.1455 -1.1356  0.3030
 1980SOL     OW17575   3.725   1.319   4.357  0.6335  0.4685 -0.0833
 1980SOL    HW117576   3.754   1.245   4.303 -0.7520  1.0434 -1.6097
 1980SOL    HW217577   3.784   1.312   4.433  0.5514  0.5959 -0.0082
 1981SOL     OW17578   1.763   0.962  10.037  0.0995  0.1606 -0.1811
 1981SOL    HW117579   1.686   0.987   9.986 -0.5201  0.1517  0.7555
 1981SOL    HW217580   1.775   1.043  10.086  0.8670 -0.1729  0.1696
 1982SOL     OW17581   2.188   0.126  15.063 -0.4096 -0.1693  0.8141
 1982SOL    HW117582   2.153   0.204  15.105 -0.4834  0.2848 -0.0865
 1982SOL    HW217583   2.221   0.156  14.978 -1.3001 -2.3566 -0.3212
 1983SOL     OW17584   1.417   3.608   6.227  0.5169  0.3554 -0.3778
 1983SOL    HW117585   1.397   3.550   6.153 -1.3049  1.7009 -0.9583
 1983SOL    HW217586   1.377   3.559   6.298  0.3789  1.9628  0.6537
 1984SOL     OW17587   1.671   3.116   4.052  0.3372  0.2482 -0.4345
 1984SOL    HW117588   1.683   3.146   4.142 -2.4178  1.6269 -0.5229
 1984SOL    HW217589   1.759   3.122   4.015  1.4180 -1.2687  1.8315
 1985SOL     OW17590   3.740   4.325   7.389 -0.1012  0.2767  0.2250
 1985SOL    HW117591   3.811   4.271   7.425 -1.1547 -1.0480  0.3207
 1985SOL    HW217592   3.676   4.254   7.388  0.5016 -0.2611 -0.2159
 1986SOL     OW17593   4.642   2.311  15.849  0.3583  0.4191  0.1803
 1986SOL    HW117594   4.637   2.388  15.793 -1.1772 -1.0960 -1.7862
 1986SOL    HW217595   4.730   2.279  15.827 -0.0739 -0.8832  0.3434
 1987SOL     OW17596   1.143   3.464   4.130  0.0323 -0.0482 -0.2569
 1987SOL    HW117597   1.222   3.444   4.080  0.2722  1.9516 -0.6795
 1987SOL    HW217598   1.074   3.476   4.064 -0.6993  2.5343  0.9859
 1988SOL     OW17599   1.317   2.556  15.109 -0.1263 -0.0766  0.5806
 1988SOL    HW117600   1.231   2.513  15.114 -0.0811 -0.3685 -1.4271
 1988SOL    HW217601   1.290   2.646  15.129 -2.2879 -0.4102 -0.9447
 1989SOL     OW17602   1.114   0.466   4.335  0.2368 -0.1110  0.2582
 1989SOL    HW117603   1.019   0.462   4.327  0.1361 -1.6429  2.1881
 1989SOL    HW217604   1.131   0.550   4.292  2.3409  0.3430  1.9851
 1990SOL     OW17605   3.341   3.423   6.435  0.1830  0.2104  0.1803
 1990SOL    HW117606   3.412   3.359   6.443 -1.9074 -1.8015  2.8805
 1990SOL    HW217607   3.263   3.380   6.400  0.8734 -1.0086  0.1393
 1991SOL     OW17608   2.745   0.461   7.349  0.0857  0.4683  0.1656
 1991SOL    HW117609   2.831   0.458   7.389  0.7761 -1.1118 -1.4225
 1991SOL    HW217610   2.688   0.430   7.419 -0.1572 -0.0736 -0.2684
 1992SOL     OW17611   2.281   1.187   6.683  0.0614 -0.5310  0.1327
 1992SOL    HW117612   2.334   1.172   6.605 -0.1001 -1.4634  0.1964
 1992SOL    HW217613   2.195   1.160   6.649  0.4487 -0.8915 -0.5655
 1993SOL     OW17614   2.722   1.215   5.864  0.8290  0.1874  0.4104
 1993SOL    HW117615   2.639   1.180   5.830  0.1168 -0.8653  3.2199
 1993SOL    HW217616   2.773   1.142   5.899  0.3800  0.3985  1.5169
 1994SOL     OW17617   4.630   0.306   3.512  0.0938  0.6091  0.0345
 1994SOL    HW117618   4.536   0.315   3.530  0.2435  0.3800  0.9733
 1994SOL    HW217619   4.645   0.217   3.545 -2.4882  0.2479  0.2743
 1995SOL     OW17620   0.212   4.102  11.245 -0.3272 -0.7274 -0.0238
 1995SOL    HW117621   0.147   4.172  11.235 -0.7205 -0.9739  0.8624
 1995SOL    HW217622   0.213   4.081  11.338  2.1491  1.2058  0.3845
 1996SOL     OW17623   0.392   3.769   6.398 -0.4878 -0.4466  0.3093
 1996SOL    HW117624   0.447   3.721   6.460 -0.9880 -1.0567  0.2752
 1996SOL    HW217625   0.358   3.844   6.448 -0.1191 -0.1892  0.1755
 1997SOL     OW17626   3.528   4.404  16.255 -0.5996 -0.2441  0.3742
 1997SOL    HW117627   3.613   4.427  16.294  0.5574 -2.4405 -0.8882
 1997SOL    HW217628   3.476   4.389  16.333  0.1974  1.1923  1.1896
 1998SOL     OW17629   0.551   1.198   4.322  0.0469 -0.4086  0.6951
 1998SOL    HW117630   0.508   1.274   4.361  0.0177 -0.4745  0.7903
 1998SOL    HW217631   0.568   1.142   4.397  3.6090 -2.3298 -1.5335
 1999SOL     OW17632   1.075   4.673  16.597 -0.3468 -0.4424  0.0566
 1999SOL    HW117633   1.083   0.028  16.571  3.4017 -0.5427  0.7696
 1999SOL    HW217634   1.085   4.693  16.691 -1.6770 -0.0559  0.1228
 2000SOL     OW17635   3.424   0.871   1.204  0.1195 -0.0216 -0.1627
 2000SOL    HW117636   3.503   0.835   1.245 -0.4050 -2.9409 -1.7147
 2000SOL    HW217637   3.374   0.888   1.284 -0.5596  0.3110 -0.6632
 2001SOL     OW17638   0.495   0.722   1.881 -0.5502 -0.2012  0.5024
 2001SOL    HW117639   0.467   0.736   1.791 -1.5323  0.3371  0.8960
 2001SOL    HW217640   0.461   0.634   1.901 -2.4759  0.8410  1.7871
 2002SOL     OW17641   3.256   0.413   3.219 -0.4117 -0.1561 -0.2351
 2002SOL    HW117642   3.250   0.320   3.240 -1.0356  0.0031  0.2563
 2002SOL    HW217643   3.165   0.436   3.235 -0.0049  0.8689  0.5907
 2003SOL     OW17644   3.797   4.579  14.613  0.6629  0.4987  0.1595
 2003SOL    HW117645   3.776   4.491  14.644  1.5426  0.4676  0.6930
 2003SOL    HW217646   3.861   4.612  14.676  2.0259 -1.1001 -0.3758
 2004SOL     OW17647   2.811   3.595   7.719  0.6116  0.4111 -0.2926
 2004SOL    HW117648   2.837   3.503   7.723  1.3459  0.5471 -1.9565
 2004SOL    HW217649   2.728   3.594   7.767  0.6018  1.8355 -0.2515
 2005SOL     OW17650   2.928   1.232   3.345  0.1155  0.4863  0.0342
 2005SOL    HW117651   3.017   1.268   3.350  0.6736 -0.7888 -0.5723
 2005SOL    HW217652   2.919   1.212   3.438 -0.5061 -1.8572 -0.5245
 2006SOL     OW17653   0.373   3.098   6.498  0.5312  0.0800  0.3194
 2006SOL    HW117654   0.320   3.106   6.419  0.5376 -0.3642  0.2666
 2006SOL    HW217655   0.440   3.039   6.463  0.5245  0.0306  0.3882
 2007SOL     OW17656   1.579   0.730  13.466  0.1401 -0.7635 -0.1107
 2007SOL    HW117657   1.670   0.759  13.461  0.0916 -0.4873  0.6011
 2007SOL    HW217658   1.556   0.737  13.373 -1.5970  2.0703  0.5181
 2008SOL     OW17659   2.158   0.885   4.252 -0.5758  0.0592  0.2914
 2008SOL    HW117660   2.093   0.823   4.217 -1.3835  0.2966  1.3830
 2008SOL    HW217661   2.215   0.835   4.310  0.0829  1.5656  0.9258
 2009SOL     OW17662   2.255   1.093   6.019 -0.7274  0.0792 -0.0578
 2009SOL    HW117663   2.178   1.059   6.065 -0.8809  1.1198  0.4474
 2009SOL    HW217664   2.249   1.047   5.934 -1.4907  0.8640 -0.4215
 2010SOL     OW17665   0.680   2.740   0.623 -0.0705  0.1053  0.6355
 2010SOL    HW117666   0.665   2.780   0.708 -0.5893  3.1013 -0.8734
 2010SOL    HW217667   0.737   2.668   0.650 -0.0762 -0.7594 -1.6414
 2011SOL     OW17668   0.620   2.435  16.992  0.5547 -0.3222 -0.3985
 2011SOL    HW117669   0.710   2.455  17.016  0.2713  0.9472 -0.3899
 2011SOL    HW217670   0.604   2.505  16.929 -0.7815  0.7752  1.1433
 2012SOL     OW17671   3.999   2.456   8.773  0.1812 -0.1632  0.2474
 2012SOL    HW117672   4.091   2.455   8.746  0.2872  0.4767  0.5712
 2012SOL    HW217673   3.984   2.544   8.738 -0.0926 -1.1505 -2.0752
 2013SOL     OW17674   4.647   3.463   5.409 -0.4922  0.0324  0.1730
 2013SOL    HW117675   4.597   3.483   5.330  0.1290  1.6261  0.1741
 2013SOL    HW217676   4.595   3.520   5.467 -0.7274 -0.1432  0.1337
 2014SOL     OW17677   3.139   2.701   3.674 -0.1916 -0.3099  0.0709
 2014SOL    HW117678   3.193   2.659   3.742 -1.1004 -1.1517  0.2799
 2014SOL    HW217679   3.091   2.765   3.726 -0.3131 -0.8501  0.6272
 2015SOL     OW17680   2.743   2.991  17.303 -0.4403 -0.2292 -0.5236
 2015SOL    HW117681   2.833   2.966  17.321 -0.5687 -1.9193 -2.2054
 2015SOL    HW217682   2.724   2.907  17.260  0.1926 -0.3996 -0.4667
 2016SOL     OW17683   2.857   1.522   3.717 -0.0950  0.3785 -0.3018
 2016SOL    HW117684   2.791   1.570   3.767 -1.4701  0.4813 -2.1910
 2016SOL    HW217685   2.809   1.439   3.711 -0.8918  0.9064 -1.3447
 2017SOL     OW17686   0.990   4.264   9.706  0.0123  0.2852 -0.4937
 2017SOL    HW117687   1.039   4.282   9.626  0.6783  0.6323 -0.0047
 2017SOL    HW217688   1.051   4.290   9.775  1.5207  0.7304 -2.0052
 2018SOL     OW17689   4.657   4.470   1.912  0.1048 -0.8373 -0.5669
 2018SOL    HW117690   4.651   4.520   1.830 -0.0366 -2.0948 -1.3323
 2018SOL    HW217691   4.734   4.419   1.889  0.7613 -0.6536  1.2941
 2019SOL     OW17692   0.172   0.387  12.716 -0.3369  0.2881 -0.7644
 2019SOL    HW117693   0.263   0.414  12.703  0.4255 -1.3030  1.1785
 2019SOL    HW217694   0.131   0.463  12.675 -0.7433  0.0412 -0.8145
 2020SOL     OW17695   3.850   2.888   1.881  0.3057 -0.2126  0.0606
 2020SOL    HW117696   3.756   2.894   1.898  0.5452 -2.0418  2.0210
 2020SOL    HW217697   3.856   2.943   1.803  1.3489  1.4705  1.3182
 2021SOL     OW17698   3.688   1.865   3.313  0.3560  0.7537  0.3379
 2021SOL    HW117699   3.723   1.835   3.397 -0.9230  1.9189  1.2931
 2021SOL    HW217700   3.715   1.957   3.315 -1.6672  1.3922 -1.8666
 2022SOL     OW17701   0.414   1.060  15.225  0.6390 -0.0348  0.5395
 2022SOL    HW117702   0.380   0.972  15.239  2.4241 -0.4690  2.0504
 2022SOL    HW217703   0.506   1.038  15.212  0.5907  0.9847 -1.6203
 2023SOL     OW17704   0.055   4.076   7.839  0.6335  0.1554  0.2148
 2023SOL    HW117705   0.073   4.151   7.894 -0.7556  0.1981  0.6154
 2023SOL    HW217706   0.097   4.089   7.754 -2.3418  1.5476 -1.0655
 2024SOL     OW17707   1.579   3.145   3.605  0.7645  0.6075  0.2610
 2024SOL    HW117708   1.522   3.080   3.563 -1.0307  3.4653 -1.7147
 2024SOL    HW217709   1.519   3.219   3.600 -1.1995 -1.0717 -1.0376
 2025SOL     OW17710   4.296   2.151   0.574 -0.5311  0.4524  0.6165
 2025SOL    HW117711   4.216   2.177   0.621 -1.6903  1.3026 -1.8244
 2025SOL    HW217712   4.280   2.067   0.531 -0.2042 -0.2800  1.9166
 2026SOL     OW17713   1.478   0.012  14.063  0.0456  0.5426  0.2747
 2026SOL    HW117714   1.466   4.689  13.989  1.2972  1.1729 -0.4440
 2026SOL    HW217715   1.561   0.048  14.031  0.3607  0.8180  1.4167
 2027SOL     OW17716   3.723   3.282   0.698 -0.4978  0.4043 -0.2317
 2027SOL    HW117717   3.803   3.253   0.654  0.1492  0.4067  0.9533
 2027SOL    HW217718   3.675   3.306   0.619 -0.9949  2.3981  0.6809
 2028SOL     OW17719   1.370   2.921   3.113 -0.4466  0.5494  0.2605
 2028SOL    HW117720   1.286   2.965   3.130  0.6539  2.0474  1.7940
 2028SOL    HW217721   1.349   2.832   3.142  3.1336 -0.5931 -0.7315
 2029SOL     OW17722   3.391   0.475   6.522  0.3643 -0.1157  0.0980
 2029SOL    HW117723   3.452   0.452   6.592 -0.1729  0.2270  0.6837
 2029SOL    HW217724   3.355   0.389   6.503  1.6167 -0.6451  0.1677
 2030SOL     OW17725   2.124   1.279   4.934  0.5110  0.4378 -0.1218
 2030SOL    HW117726   2.185   1.217   4.894 -0.4213 -1.5546  1.5557
 2030SOL    HW217727   2.183   1.346   4.968 -1.7257  2.6213 -0.5281
 2031SOL     OW17728   1.528   1.324   9.308  0.0135 -0.5828  0.1695
 2031SOL    HW117729   1.560   1.373   9.383  1.8401  0.6075 -1.4050
 2031SOL    HW217730   1.467   1.261   9.346 -2.1048  2.6791  2.1490
 2032SOL     OW17731   3.453   4.230   5.200 -0.1307  0.4205  0.1425
 2032SOL    HW117732   3.404   4.312   5.200 -2.4209 -0.9466 -0.0384
 2032SOL    HW217733   3.383   4.169   5.223 -0.1335 -0.2213 -1.5123
 2033SOL     OW17734   1.614   0.765  10.304 -0.0001 -0.4034  0.7908
 2033SOL    HW117735   1.672   0.728  10.237 -0.3846  0.7391 -0.1728
 2033SOL    HW217736   1.679   0.806  10.361  1.5289 -2.3897  0.4600
 2034SOL     OW17737   1.726   2.943   6.424 -0.0829  0.1405 -0.7469
 2034SOL    HW117738   1.768   3.009   6.480  2.6639 -0.8114 -1.6764
 2034SOL    HW217739   1.802   2.922   6.370  0.5364 -0.5731  0.3935
 2035SOL     OW17740   4.399   4.480  15.108 -0.3509  0.0566  0.7973
 2035SOL    HW117741   4.367   4.483  15.018 -0.8307  2.7190  1.0630
 2035SOL    HW217742   4.485   4.438  15.097 -0.4484  0.6879 -2.3703
 2036SOL     OW17743   0.636   3.086   5.376 -0.0322 -0.6983  0.3996
 2036SOL    HW117744   0.730   3.099   5.367 -0.5303  1.8308 -1.2743
 2036SOL    HW217745   0.609   3.034   5.301 -3.2777 -0.0327  1.0875
 2037SOL     OW17746   1.578   2.192   7.662 -0.3439  0.6377  0.1051
 2037SOL    HW117747   1.610   2.193   7.572 -0.4042 -0.2404  0.0761
 2037SOL    HW217748   1.493   2.150   7.653 -0.4022  1.2839 -2.1636
 2038SOL     OW17749   1.168   1.651  15.459  0.5357  0.3699  0.2334
 2038SOL    HW117750   1.080   1.687  15.471 -0.1265 -1.0734 -0.2688
 2038SOL    HW217751   1.172   1.581  15.524 -1.7325 -1.2978 -1.4137
 2039SOL     OW17752   3.746   2.812   6.831  0.2787  0.2668  0.0816
 2039SOL    HW117753   3.756   2.888   6.888 -1.3139  0.6654 -0.1732
 2039SOL    HW217754   3.790   2.848   6.754 -0.8134  2.3651  0.4115
 2040SOL     OW17755   2.213   1.319   4.626  0.1104 -0.5310  0.3799
 2040SOL    HW117756   2.198   1.321   4.532 -0.9265  3.7196  0.6299
 2040SOL    HW217757   2.300   1.281   4.636  0.1164 -0.8309 -0.8753
 2041SOL     OW17758   3.928   1.842  13.519 -0.5413 -0.2816 -0.1620
 2041SOL    HW117759   3.905   1.934  13.503  2.3609  0.0728 -2.3735
 2041SOL    HW217760   3.882   1.828  13.602 -1.8421  0.7664 -0.7070
 2042SOL     OW17761   4.163   1.540   5.690 -0.3478 -0.1250 -0.0745
 2042SOL    HW117762   4.136   1.584   5.771 -0.2303 -3.8949  2.0312
 2042SOL    HW217763   4.150   1.449   5.716 -0.6240  0.6488  2.5361
 2043SOL     OW17764   2.089   0.003   9.112  0.1780  0.3827 -0.7078
 2043SOL    HW117765   2.033   0.069   9.071 -1.5428  0.0948  1.1505
 2043SOL    HW217766   2.100   4.670   9.048 -0.5052  0.9820 -1.4867
 2044SOL     OW17767   1.009   1.734  16.572 -0.3976  0.2639  0.9462
 2044SOL    HW117768   1.005   1.819  16.528  0.4892 -0.1638  0.0311
 2044SOL    HW217769   0.999   1.757  16.664  0.6995  1.0592  0.8585
 2045SOL     OW17770   2.533   0.331   6.145 -0.4350 -0.0787 -0.3961
 2045SOL    HW117771   2.476   0.302   6.216  0.1389  1.4976  0.7060
 2045SOL    HW217772   2.602   0.265   6.147  1.7070  2.1670 -0.9344
 2046SOL     OW17773   3.223   0.551  11.638 -0.8922 -0.0583  0.4375
 2046SOL    HW117774   3.243   0.466  11.675  0.1602 -1.0494 -2.3959
 2046SOL    HW217775   3.283   0.602  11.693 -1.9513 -0.1723  1.6939
 2047SOL     OW17776   0.515   0.951   6.436 -0.3794 -0.2114  0.4750
 2047SOL    HW117777   0.421   0.939   6.424 -0.0041  0.1582 -2.6934
 2047SOL    HW217778   0.532   0.877   6.494  0.8064  0.0874  0.5094
 2048SOL     OW17779   1.328   1.647   2.221 -0.2601 -0.0701  0.2173
 2048SOL    HW117780   1.363   1.708   2.286  0.1181 -0.7525  0.6498
 2048SOL    HW217781   1.254   1.702   2.196 -0.8899 -0.8434  0.3821
 2049SOL     OW17782   3.419   4.571  16.674 -0.6513  0.0477 -0.1887
 2049SOL    HW117783   3.493   4.578  16.613  2.0336 -0.1641  3.0292
 2049SOL    HW217784   3.472   4.568  16.753 -1.9904  0.2525  0.7092
 2050SOL     OW17785   0.791   4.084   9.024  0.8042 -0.0394 -0.1832
 2050SOL    HW117786   0.856   4.080   8.954 -0.9467  0.5210 -1.8523
 2050SOL    HW217787   0.740   4.004   9.016  0.8343 -0.0332 -0.4276
 2051SOL     OW17788   0.403   3.024   5.528 -0.3989 -0.0990  0.1535
 2051SOL    HW117789   0.464   3.075   5.475  0.2229  1.1473  2.0635
 2051SOL    HW217790   0.327   3.009   5.472  0.1189  1.4595 -0.9598
 2052SOL     OW17791   0.826   2.452   5.413 -0.3236  0.5156 -0.1270
 2052SOL    HW117792   0.837   2.357   5.404 -1.8274  0.4850 -1.6478
 2052SOL    HW217793   0.880   2.475   5.337 -1.1050  0.4762 -0.6887
 2053SOL     OW17794   3.052   0.197  10.585  0.2220  0.7438  0.3730
 2053SOL    HW117795   3.119   0.250  10.540 -1.3913  1.7089 -0.9146
 2053SOL    HW217796   3.066   0.107  10.558  0.6000  1.2959 -1.2782
 2054SOL     OW17797   4.114   1.347   7.847  0.1616  0.1077  0.0864
 2054SOL    HW117798   4.032   1.333   7.895 -0.0614  0.8530 -0.0704
 2054SOL    HW217799   4.146   1.410   7.912  0.8230  2.1173 -2.1925
 2055SOL     OW17800   4.626   3.782   5.121  0.3005 -0.2452 -0.0104
 2055SOL    HW117801   4.700   3.823   5.076 -0.2565 -2.0245 -2.5439
 2055SOL    HW217802   4.572   3.861   5.129 -1.1121 -1.0588 -1.4151
 2056SOL     OW17803   2.641   3.938   2.429 -0.0279  0.0209  0.3059
 2056SOL    HW117804   2.562   3.992   2.433  0.5770  0.8494  1.1923
 2056SOL    HW217805   2.607   3.866   2.377  2.5595 -2.5084  2.1433
 2057SOL     OW17806   0.298   0.008   6.374 -0.3409  0.1183  0.2785
 2057SOL    HW117807   0.336   4.731   6.287  2.6423  1.4739  1.3290
 2057SOL    HW217808   0.376   0.020   6.429  0.1861  1.3726 -0.7219
 2058SOL     OW17809   0.740   1.300   1.814 -0.2089 -0.0318 -0.8064
 2058SOL    HW117810   0.739   1.305   1.910  0.0711  1.1628 -0.8629
 2058SOL    HW217811   0.663   1.247   1.798  0.2044 -0.5442 -1.0915
 2059SOL     OW17812   1.791   1.022  15.850 -0.4168  0.5422  0.3781
 2059SOL    HW117813   1.705   1.042  15.813  0.0996 -1.7307 -2.0729
 2059SOL    HW217814   1.841   1.022  15.768  0.3950  2.4550  0.8755
 2060SOL     OW17815   4.126   2.147   1.832  0.3908 -0.8299  0.1469
 2060SOL    HW117816   4.084   2.124   1.749 -0.3445  0.8197  0.0626
 2060SOL    HW217817   4.139   2.063   1.874 -2.9203 -1.1213  0.6020
 2061SOL     OW17818   0.086   2.478   4.617  0.1216  0.1382 -0.0087
 2061SOL    HW117819   0.057   2.450   4.530  0.5746  0.8752 -0.3983
 2061SOL    HW217820   4.735   2.487   4.656 -0.6422  1.0389 -1.9066
 2062SOL     OW17821   4.388   0.379   8.385  0.9672  0.3207 -0.2109
 2062SOL    HW117822   4.479   0.355   8.369  0.9085 -0.0244 -0.0505
 2062SOL    HW217823   4.381   0.344   8.474  0.5876  0.6936 -0.0920
 2063SOL     OW17824   4.581   2.693   9.800 -0.1187  0.4791  0.0635
 2063SOL    HW117825   4.617   2.605   9.787  1.2571  1.0852 -0.1599
 2063SOL    HW217826   4.531   2.696   9.718  0.4898  1.3173 -0.2742
 2064SOL     OW17827   3.196   4.089   2.970  0.2986 -0.8387 -0.2226
 2064SOL    HW117828   3.157   4.013   3.013 -1.3681 -0.3566 -0.8687
 2064SOL    HW217829   3.271   4.105   3.026  1.3991  1.6719 -2.4247
 2065SOL     OW17830   4.002   4.648   4.700  0.1237 -0.1593  0.1690
 2065SOL    HW117831   3.951   4.595   4.639  0.4522  0.1645 -0.3785
 2065SOL    HW217832   4.002   4.594   4.779  1.3268 -1.1208 -0.4782
 2066SOL     OW17833   0.633   3.229   4.401  0.3755  0.0190 -0.1705
 2066SOL    HW117834   0.611   3.138   4.423 -3.2853  0.9321  0.0106
 2066SOL    HW217835   0.553   3.276   4.423  0.5319 -0.4937  1.4451
 2067SOL     OW17836   1.527   3.823  10.734  0.1226  0.4352  0.0290
 2067SOL    HW117837   1.494   3.735  10.750  0.6873 -0.0022 -1.2153
 2067SOL    HW217838   1.614   3.813  10.771  0.6213 -0.2371 -1.3222
 2068SOL     OW17839   2.389   2.286   0.095  0.2631 -0.0960  0.7606
 2068SOL    HW117840   2.446   2.245   0.030  1.9740  0.9632  1.6053
 2068SOL    HW217841   2.434   2.369   0.104 -1.6129  1.1994 -1.8131
 2069SOL     OW17842   3.087   4.451  15.688 -0.4959  0.0543 -0.3456
 2069SOL    HW117843   3.152   4.505  15.733 -2.3169  2.4216 -0.5759
 2069SOL    HW217844   3.130   4.367  15.706 -0.0194  0.2907 -0.3645
 2070SOL     OW17845   2.640   3.022   3.884  0.6525 -0.0334 -0.2146
 2070SOL    HW117846   2.578   3.093   3.868  0.1259 -0.0426  1.7311
 2070SOL    HW217847   2.724   3.067   3.876  0.8689 -0.8360 -2.3781
 2071SOL     OW17848   4.070   4.641  15.023 -0.0867 -0.1823 -0.2794
 2071SOL    HW117849   4.017   4.671  14.949  1.0363  1.7277 -0.3133
 2071SOL    HW217850   4.158   4.657  14.990  1.6755 -2.4221  3.3350
 2072SOL     OW17851   4.373   4.257   2.744 -0.2198  0.0639  0.2119
 2072SOL    HW117852   4.415   4.323   2.688  1.6387 -1.3440 -0.0143
 2072SOL    HW217853   4.285   4.293   2.761  0.0281  0.0782  1.4431
 2073SOL     OW17854   1.568   2.226  13.572  0.6506  0.2480 -0.1299
 2073SOL    HW117855   1.640   2.285  13.594  1.7994 -1.0423 -0.4588
 2073SOL    HW217856   1.605   2.174  13.501  1.7860  0.5802  0.2195
 2074SOL     OW17857   0.591   2.425  12.212  0.3396  0.3412 -0.7797
 2074SOL    HW117858   0.509   2.469  12.188  0.6089  0.9083 -0.6556
 2074SOL    HW217859   0.616   2.490  12.277 -1.0850  0.0150  0.1004
 2075SOL     OW17860   2.966   2.399  17.213  0.2012 -0.2053 -0.2255
 2075SOL    HW117861   2.913   2.412  17.134  1.2056  0.7688 -0.7296
 2075SOL    HW217862   2.939   2.477  17.262  3.8078  1.0238 -0.1630
 2076SOL     OW17863   4.016   1.129  13.081 -0.3472  0.1981  0.2732
 2076SOL    HW117864   4.057   1.192  13.140 -1.5152 -0.0033  1.3184
 2076SOL    HW217865   4.026   1.041  13.118  0.7707  0.7267  1.2156
 2077SOL     OW17866   1.832   0.696   2.074  0.3202 -0.1854 -0.1466
 2077SOL    HW117867   1.780   0.635   2.022 -1.5553  0.9262  0.4081
 2077SOL    HW217868   1.826   0.780   2.029  1.1150 -0.0710 -0.0382
 2078SOL     OW17869   4.550   3.996   8.227  0.0116 -0.2878 -0.1433
 2078SOL    HW117870   4.469   4.009   8.177 -0.3726 -1.9994  0.0324
 2078SOL    HW217871   4.524   3.962   8.313  0.1315  0.8696  0.3457
 2079SOL     OW17872   3.011   3.103   9.388  0.8197  0.0163 -0.1279
 2079SOL    HW117873   2.951   3.112   9.314  2.2015 -0.8372 -1.3616
 2079SOL    HW217874   2.999   3.013   9.420  0.9357 -0.0719 -0.3280
 2080SOL     OW17875   3.091   4.123   8.580  0.7222 -0.1715  0.0675
 2080SOL    HW117876   3.155   4.052   8.581 -2.1629 -2.7386  2.7590
 2080SOL    HW217877   3.128   4.189   8.522  0.7563  1.7090  2.2021
 2081SOL     OW17878   1.979   4.341   4.251 -0.0626  0.0626 -0.0966
 2081SOL    HW117879   1.895   4.387   4.251  0.3096  0.7581 -1.6373
 2081SOL    HW217880   1.958   4.288   4.328  2.3145 -0.6602  0.0323
 2082SOL     OW17881   2.871   2.726   3.152  0.2172 -0.1525 -0.0676
 2082SOL    HW117882   2.825   2.782   3.215  0.6093 -0.1264  0.1954
 2082SOL    HW217883   2.798   2.689   3.103 -0.5593  0.9299  0.2652
 2083SOL     OW17884   2.042   3.380  15.069  0.0538  0.0996  0.1970
 2083SOL    HW117885   2.110   3.353  15.007  0.8027 -1.6851  1.7762
 2083SOL    HW217886   2.091   3.376  15.151 -0.9085 -2.0502  0.6748
 2084SOL     OW17887   4.454   0.739   5.279  0.2866 -0.1229 -0.0697
 2084SOL    HW117888   4.369   0.755   5.321  0.5457  1.0637  0.0133
 2084SOL    HW217889   4.500   0.821   5.297  0.2846 -0.3023  0.7131
 2085SOL     OW17890   3.203   2.362  10.324  0.0441  0.8486  1.2097
 2085SOL    HW117891   3.276   2.421  10.345  0.6833  0.0843  1.1225
 2085SOL    HW217892   3.133   2.409  10.369  0.4968  0.9266  1.8323
 2086SOL     OW17893   4.688   2.321  15.310 -0.3146  0.3206 -0.0437
 2086SOL    HW117894   4.677   2.400  15.257 -0.2019  0.6060  0.3555
 2086SOL    HW217895   4.604   2.308  15.353 -1.3604 -1.3194 -2.6083
 2087SOL     OW17896   3.634   3.347   2.300  0.8283  0.0953 -0.1551
 2087SOL    HW117897   3.723   3.326   2.271  1.1378  0.5444  0.4639
 2087SOL    HW217898   3.625   3.439   2.275 -2.7670 -0.1435  0.2482
 2088SOL     OW17899   1.689   0.576   3.148 -0.0341  0.4830 -0.2742
 2088SOL    HW117900   1.765   0.626   3.177 -0.2107  0.2849  0.5232
 2088SOL    HW217901   1.639   0.561   3.228  0.6845 -1.5422 -0.1971
 2089SOL     OW17902   2.097   2.250  13.804 -0.1597 -1.1251  0.1375
 2089SOL    HW117903   2.106   2.241  13.899 -1.5041 -3.0462  0.0810
 2089SOL    HW217904   2.036   2.177  13.794 -0.9012 -0.4472 -0.2874
 2090SOL     OW17905   3.675   0.845   5.575 -0.0269  0.0920  0.5362
 2090SOL    HW117906   3.622   0.924   5.575  1.1365  0.8740 -2.4809
 2090SOL    HW217907   3.662   0.839   5.670  1.1593 -0.6081  0.6599
 2091SOL     OW17908   1.577   4.504   1.227  0.0854  0.1442  0.4030
 2091SOL    HW117909   1.537   4.589   1.245  0.0192 -0.2062  1.9163
 2091SOL    HW217910   1.651   4.523   1.169 -0.8351 -0.1907 -0.8919
 2092SOL     OW17911   3.256   2.962   3.499  0.8945 -0.0432  0.1648
 2092SOL    HW117912   3.228   2.898   3.565 -1.4567  1.3893  0.5661
 2092SOL    HW217913   3.176   3.013   3.490  2.1448  1.7892 -0.5077
 2093SOL     OW17914   3.814   2.206   2.930 -0.1255 -0.0261  0.3396
 2093SOL    HW117915   3.885   2.242   2.983  1.0668 -1.1398 -0.5024
 2093SOL    HW217916   3.739   2.233   2.983  0.3939  1.3712  0.3664
 2094SOL     OW17917   1.345   4.247   5.601  0.2375  0.1007 -0.0907
 2094SOL    HW117918   1.357   4.165   5.649  2.5651  1.0879  1.0374
 2094SOL    HW217919   1.284   4.223   5.531 -1.0109  1.3675  0.5532
 2095SOL     OW17920   1.974   0.273  11.903  0.5311 -0.1406  0.3013
 2095SOL    HW117921   1.992   0.184  11.934  2.8760 -0.0322 -0.7421
 2095SOL    HW217922   1.966   0.267  11.807 -0.2827 -0.9311  0.4286
 2096SOL     OW17923   1.762   1.577   4.308 -0.2892  0.3216  0.1051
 2096SOL    HW117924   1.671   1.608   4.300  0.6403  3.0982  0.5033
 2096SOL    HW217925   1.775   1.580   4.402  1.4153  2.7182 -0.2041
 2097SOL     OW17926   0.484   4.113  15.802 -0.4149  0.5037  0.2717
 2097SOL    HW117927   0.545   4.146  15.868 -1.9130  2.0880  0.8770
 2097SOL    HW217928   0.452   4.198  15.772 -0.9266  0.0171 -0.5728
 2098SOL     OW17929   0.185   1.925   7.902 -0.0840  0.5162 -0.4130
 2098SOL    HW117930   0.267   1.895   7.864 -0.4244  0.6201 -1.2384
 2098SOL    HW217931   0.124   1.928   7.828  2.2917 -0.0425 -2.4056
 2099SOL     OW17932   1.622   4.274   0.888 -0.3457  0.5413  0.3901
 2099SOL    HW117933   1.608   4.360   0.848 -2.1602  1.0606  2.1535
 2099SOL    HW217934   1.599   4.206   0.824  1.1987 -0.5144  0.9653
 2100SOL     OW17935   3.640   0.972  12.001  0.6561 -0.3355  0.6625
 2100SOL    HW117936   3.609   1.015  11.921  1.4355  2.7982  2.0203
 2100SOL    HW217937   3.559   0.956  12.049 -0.0008  0.3034 -0.2339
 2101SOL     OW17938   3.542   0.192   4.053  0.0780 -0.0162  0.5418
 2101SOL    HW117939   3.581   0.255   3.993 -0.2209 -1.8334 -1.5599
 2101SOL    HW217940   3.615   0.130   4.050  0.2492  0.1716  0.7465
 2102SOL     OW17941   0.852   0.402   4.373 -0.0463  0.0720  0.4750
 2102SOL    HW117942   0.874   0.323   4.423  0.2120  1.3775  2.3932
 2102SOL    HW217943   0.761   0.376   4.361 -0.2607  1.1132 -0.1746
 2103SOL     OW17944   1.360   1.462   1.854  0.7022  0.0591 -0.0312
 2103SOL    HW117945   1.403   1.507   1.926 -1.5088 -0.6872  1.7485
 2103SOL    HW217946   1.340   1.534   1.794  0.6581  0.4605  0.4653
 2104SOL     OW17947   1.942   4.179   5.732 -0.4520  0.5657 -0.0292
 2104SOL    HW117948   1.981   4.100   5.769 -2.5609  0.4328  1.9139
 2104SOL    HW217949   2.016   4.239   5.730  0.4283 -0.5199 -0.2154
 2105SOL     OW17950   2.753   2.637   5.394  0.0504  0.6946 -0.3798
 2105SOL    HW117951   2.707   2.680   5.466  2.2978 -0.4633  1.7653
 2105SOL    HW217952   2.700   2.641   5.315  1.6794  1.9832 -1.4085
 2106SOL     OW17953   0.064   4.158   6.349  0.1301 -0.3274  0.5016
 2106SOL    HW117954   0.093   4.241   6.386  1.0438 -0.5355  0.2406
 2106SOL    HW217955   0.142   4.119   6.310  1.9503  1.9649  1.8462
 2107SOL     OW17956   0.336   2.733   3.564 -0.1580 -0.3205 -0.0320
 2107SOL    HW117957   0.379   2.755   3.481 -0.9884  0.9248 -0.1271
 2107SOL    HW217958   0.299   2.651   3.531  3.0337 -0.8088 -2.3904
 2108SOL     OW17959   0.376   3.873   7.905 -0.5964  0.0512  0.4652
 2108SOL    HW117960   0.294   3.846   7.864 -1.1891 -0.4886  2.0047
 2108SOL    HW217961   0.383   3.966   7.882 -0.3633 -0.0756  0.0271
 2109SOL     OW17962   2.968   1.989  12.955 -0.1631  0.5389  0.0931
 2109SOL    HW117963   2.886   2.016  12.913 -0.6693  1.3953  1.6087
 2109SOL    HW217964   2.941   1.964  13.043  2.5090 -2.9557 -0.0931
 2110SOL     OW17965   3.444   3.297  17.657  0.1299 -0.3717  0.0159
 2110SOL    HW117966   3.491   3.244  17.723  1.4017 -0.0194 -0.5990
 2110SOL    HW217967   3.442   3.252  17.573 -2.0145  1.6099 -0.9806
 2111SOL     OW17968   3.802   1.907   8.477 -0.1902 -0.0786  0.2832
 2111SOL    HW117969   3.710   1.919   8.503  0.4635  3.1481  1.0584
 2111SOL    HW217970   3.823   1.980   8.418  1.0817 -1.8567 -1.4650
 2112SOL     OW17971   0.872   1.155   3.944  0.2246  0.2044  0.4369
 2112SOL    HW117972   0.794   1.146   4.000  0.3253 -1.7118  0.2646
 2112SOL    HW217973   0.916   1.235   3.974 -2.0700  1.9925 -0.9087
 2113SOL     OW17974   1.936   4.035   7.296  0.2587  0.2628  0.1696
 2113SOL    HW117975   1.984   4.078   7.225 -0.0112  0.1806 -0.0635
 2113SOL    HW217976   1.934   3.944   7.267 -0.3656 -0.5628  2.7743
 2114SOL     OW17977   3.220   4.564  14.061 -0.1452 -0.2664 -0.2098
 2114SOL    HW117978   3.239   4.574  14.154 -0.6699 -0.5066 -0.0763
 2114SOL    HW217979   3.125   4.549  14.059  0.0251 -1.4355  0.4648
 2115SOL     OW17980   1.979   1.456   7.080 -0.3211  0.1531 -0.3590
 2115SOL    HW117981   2.033   1.534   7.068 -2.2354  1.4759 -0.1892
 2115SOL    HW217982   1.969   1.423   6.991  0.7622 -1.3782  0.0669
 2116SOL     OW17983   4.046   3.195   2.619 -0.2316  0.3769 -0.7453
 2116SOL    HW117984   4.113   3.167   2.556  0.6562 -0.1864  0.4656
 2116SOL    HW217985   3.968   3.150   2.585  0.3420 -0.1390 -1.3980
 2117SOL     OW17986   2.175   2.336   3.544  0.2437  0.2477  0.4701
 2117SOL    HW117987   2.243   2.269   3.533 -0.6426 -0.0717 -3.1254
 2117SOL    HW217988   2.211   2.392   3.612 -2.1930  0.0122  1.9726
 2118SOL     OW17989   3.729   1.929   9.173 -0.6585  0.5471  0.3936
 2118SOL    HW117990   3.782   1.999   9.134  0.7417 -0.1510  1.0726
 2118SOL    HW217991   3.775   1.853   9.137  1.0508 -0.1045  4.0116
 2119SOL     OW17992   2.542   4.109   2.035  0.7128 -0.1852  0.3300
 2119SOL    HW117993   2.506   4.158   2.109 -0.8694  1.4168 -1.4881
 2119SOL    HW217994   2.462   4.062   2.011  1.4725 -0.4483 -1.7334
 2120SOL     OW17995   0.451   2.381   0.343  0.1559 -0.4834 -0.1098
 2120SOL    HW117996   0.523   2.408   0.286 -1.1507  1.0788 -0.9881
 2120SOL    HW217997   0.495   2.386   0.428 -0.3461  2.9589 -0.0578
 2121SOL     OW17998   3.721   2.362   5.124  0.1788 -0.1513  0.2457
 2121SOL    HW117999   3.654   2.347   5.057 -1.4203  1.1480  1.5559
 2121SOL    HW218000   3.673   2.426   5.178 -1.6279 -0.8724 -0.5019
 2122SOL     OW18001   3.220   0.038   0.285 -0.5011 -0.3577  0.4370
 2122SOL    HW118002   3.135   0.017   0.324 -2.0398  1.2961 -2.0177
 2122SOL    HW218003   3.268   0.062   0.364  0.5097 -0.4308 -0.1614
 2123SOL     OW18004   2.722   1.975  12.560  0.3357  0.1018  0.0553
 2123SOL    HW118005   2.808   2.016  12.564 -0.0771  0.7006  2.3238
 2123SOL    HW218006   2.670   2.033  12.615  1.2993  1.5214 -0.5180
 2124SOL     OW18007   0.391   4.526   9.924  0.3420  0.0403 -0.0105
 2124SOL    HW118008   0.421   4.492   9.839  0.0679 -2.0774  0.7392
 2124SOL    HW218009   0.425   4.460   9.985  1.3784 -0.1954 -0.8267
 2125SOL     OW18010   3.946   2.646   3.576 -0.2829 -0.0097 -0.2848
 2125SOL    HW118011   3.937   2.688   3.490  1.7988 -1.0083 -0.9733
 2125SOL    HW218012   4.027   2.689   3.601 -1.3590  1.2096  1.1121
 2126SOL     OW18013   1.695   4.493   6.713  0.3788  0.5999  0.6148
 2126SOL    HW118014   1.642   4.440   6.654  0.5743  0.3147  0.6996
 2126SOL    HW218015   1.774   4.512   6.664 -0.5563  2.7421 -0.0789
 2127SOL     OW18016   4.718   1.600   9.288 -0.0883  0.4358 -0.2479
 2127SOL    HW118017   0.027   1.517   9.271 -1.4008 -0.0780 -1.2785
 2127SOL    HW218018   4.693   1.621   9.198  0.7638 -0.3842 -0.6842
 2128SOL     OW18019   3.685   3.149   0.911 -0.9183  0.1084  0.0213
 2128SOL    HW118020   3.684   3.203   0.832  0.0216  0.7998  0.4887
 2128SOL    HW218021   3.744   3.078   0.886  0.7933  1.2646  0.7905
 2129SOL     OW18022   0.230   2.504   3.482 -0.3961  0.1383 -0.0615
 2129SOL    HW118023   0.227   2.419   3.437  0.7923 -1.2252  2.4090
 2129SOL    HW218024   0.155   2.552   3.448 -0.9631 -0.3789  0.4498
 2130SOL     OW18025   4.488   0.344   7.302 -0.6304 -0.4969  0.7617
 2130SOL    HW118026   4.414   0.329   7.243  0.6238 -0.2221 -0.9041
 2130SOL    HW218027   4.557   0.371   7.240  0.0652  1.5584  2.4521
 2131SOL     OW18028   1.239   0.883   9.712 -0.3492 -0.1781 -0.8853
 2131SOL    HW118029   1.196   0.905   9.629 -1.2494  3.2332  0.4829
 2131SOL    HW218030   1.188   0.806   9.738 -1.5899  0.9085 -0.0989
 2132SOL     OW18031   2.027   2.901   3.562  0.4734  0.0967 -0.4278
 2132SOL    HW118032   1.967   2.972   3.585 -0.7836 -0.1097 -3.0366
 2132SOL    HW218033   1.983   2.821   3.592  1.2296 -0.4007 -0.6347
 2133SOL     OW18034   3.702   0.451   1.211  0.2238  0.0356 -0.2174
 2133SOL    HW118035   3.625   0.500   1.238  0.1965 -0.9877  1.5563
 2133SOL    HW218036   3.673   0.364   1.239 -1.9385  0.9661  0.3816
 2134SOL     OW18037   1.882   0.378   3.246  0.3207  0.2990  0.6221
 2134SOL    HW118038   1.804   0.404   3.198  1.1825 -0.7742 -1.3502
 2134SOL    HW218039   1.872   0.441   3.317 -2.2724  0.6869 -0.0996
 2135SOL     OW18040   2.981   0.538  11.518 -0.1653 -0.0135 -0.1025
 2135SOL    HW118041   3.067   0.508  11.548 -0.4818 -2.2335 -1.4074
 2135SOL    HW218042   2.971   0.632  11.532 -1.0760 -0.2394  0.7480
 2136SOL     OW18043   4.075   3.569   8.485 -0.3645 -0.4886  0.4960
 2136SOL    HW118044   4.028   3.526   8.557 -1.4652  0.7952  0.5360
 2136SOL    HW218045   4.013   3.622   8.436 -0.5272 -0.4090  0.7903
 2137SOL     OW18046   1.658   3.169   9.339  0.0189 -0.0815  0.0850
 2137SOL    HW118047   1.633   3.166   9.246 -0.8890  0.8993  0.3075
 2137SOL    HW218048   1.675   3.260   9.362 -3.7773  1.1672 -1.9154
 2138SOL     OW18049   3.307   2.757   3.055  0.1996 -0.0446 -0.2720
 2138SOL    HW118050   3.279   2.708   3.132 -1.5642  0.3616 -0.6506
 2138SOL    HW218051   3.231   2.811   3.032  0.2057  1.2407  2.7329
 2139SOL     OW18052   1.604   0.283   7.286  0.0734  0.0894  0.1405
 2139SOL    HW118053   1.532   0.250   7.234  0.0030 -0.4503  0.5788
 2139SOL    HW218054   1.604   0.234   7.368 -1.9487  0.5173  0.3952
 2140SOL     OW18055   1.919   0.516   9.178  0.3870 -0.9184  0.6428
 2140SOL    HW118056   2.000   0.535   9.224  1.0245 -0.4670 -0.6692
 2140SOL    HW218057   1.948   0.498   9.088  0.0808 -1.5935  0.6745
 2141SOL     OW18058   3.646   2.174  12.339  0.5456 -0.3102 -0.6234
 2141SOL    HW118059   3.727   2.183  12.390 -1.5879  0.8974  2.5574
 2141SOL    HW218060   3.631   2.267  12.319 -1.2291 -0.9016 -2.0388
 2142SOL     OW18061   2.317   4.229   6.738 -0.0498 -0.5326 -0.2234
 2142SOL    HW118062   2.290   4.155   6.682 -0.5298 -0.6113  0.1124
 2142SOL    HW218063   2.249   4.290   6.709 -0.0799 -0.1540  0.6488
 2143SOL     OW18064   0.816   2.289  12.362  0.2750  0.6617 -0.7607
 2143SOL    HW118065   0.807   2.381  12.337  2.2175  0.8042 -0.9617
 2143SOL    HW218066   0.731   2.250  12.340 -0.1997  2.0767 -1.4645
 2144SOL     OW18067   1.583   0.110   3.354  0.0392  0.7672 -0.2251
 2144SOL    HW118068   1.588   0.026   3.400  0.3479  0.1186 -1.4379
 2144SOL    HW218069   1.638   0.166   3.409 -1.5289  2.4881 -0.4162
 2145SOL     OW18070   4.391   0.640   3.597 -0.0632 -0.5360 -1.0524
 2145SOL    HW118071   4.463   0.597   3.551  0.0112 -0.9975 -0.5083
 2145SOL    HW218072   4.373   0.721   3.548  0.4770 -0.8714 -1.8017
 2146SOL     OW18073   1.980   2.567   8.038 -0.6611 -0.8643 -0.2524
 2146SOL    HW118074   2.027   2.600   7.961 -2.8075 -0.8343 -1.5304
 2146SOL    HW218075   1.920   2.517   7.984 -3.3186  0.4972  1.4501
 2147SOL     OW18076   2.021   3.488   8.677  0.2607 -0.0363  0.0705
 2147SOL    HW118077   2.096   3.450   8.722 -1.2381 -2.2774  0.6378
 2147SOL    HW218078   2.053   3.578   8.686  2.4312 -0.8093  0.0928
 2148SOL     OW18079   3.498   4.410   6.365  0.3541  0.0155 -0.1886
 2148SOL    HW118080   3.562   4.404   6.437 -2.0728 -1.6167  1.8163
 2148SOL    HW218081   3.550   4.381   6.290  0.0292  0.4985 -0.6009
 2149SOL     OW18082   1.071   2.833   1.322 -0.2314 -0.1522 -0.7863
 2149SOL    HW118083   1.145   2.888   1.298 -0.7978  0.4447 -1.1635
 2149SOL    HW218084   0.999   2.892   1.299  0.2774  0.4189 -0.9188
 2150SOL     OW18085   0.543   1.839  12.988  0.3681  0.5170  0.4260
 2150SOL    HW118086   0.507   1.900  12.924 -1.6708 -1.4758 -0.3159
 2150SOL    HW218087   0.607   1.899  13.027  0.4652  1.2301 -0.8397
 2151SOL     OW18088   0.826   3.427   4.258 -0.1360 -0.7437  0.0609
 2151SOL    HW118089   0.749   3.370   4.252  1.3084 -2.6223 -0.5156
 2151SOL    HW218090   0.792   3.471   4.337  1.4194  0.1205  0.2399
 2152SOL     OW18091   1.118   0.656   4.120  0.1156  0.1404 -0.3912
 2152SOL    HW118092   1.086   0.606   4.045 -1.0552 -0.5818  0.5890
 2152SOL    HW218093   1.050   0.719   4.143  1.4518  1.0193  1.1339
 2153SOL     OW18094   2.803   4.607   7.598  0.2727  0.2323  0.2749
 2153SOL    HW118095   2.744   4.668   7.552  0.1483 -0.8391 -0.9879
 2153SOL    HW218096   2.783   4.525   7.553  1.9153 -0.5229  0.9555
 2154SOL     OW18097   1.723   0.792   4.937 -0.2887  0.2601 -0.6477
 2154SOL    HW118098   1.711   0.802   4.842  3.0641  3.1893 -0.7396
 2154SOL    HW218099   1.812   0.821   4.954  0.2793 -0.7093 -1.8774
 2155SOL     OW18100   4.468   2.266   7.089 -0.5448 -0.6024 -0.1444
 2155SOL    HW118101   4.488   2.185   7.042 -0.6889 -0.8860  0.2893
 2155SOL    HW218102   4.552   2.291   7.127 -0.4853  0.5436 -1.0108
 2156SOL     OW18103   1.162   4.717   2.952 -1.2022  0.1684  0.3565
 2156SOL    HW118104   1.158   0.075   2.941  3.0171  0.5228  1.7921
 2156SOL    HW218105   1.232   4.701   2.888 -1.0077  2.2919  0.0625
 2157SOL     OW18106   2.874   0.644   9.350  0.0794 -0.5396  0.0168
 2157SOL    HW118107   2.931   0.714   9.380 -0.4224 -0.4691  0.8224
 2157SOL    HW218108   2.788   0.683   9.366 -0.0929  0.0171 -2.2142
 2158SOL     OW18109   4.626   4.105  11.079  0.7501  0.2914  0.0233
 2158SOL    HW118110   4.550   4.077  11.028 -1.5324  2.0369  2.4422
 2158SOL    HW218111   4.634   4.031  11.139 -1.0448  0.1017  0.0524
 2159SOL     OW18112   0.004   2.558   3.332  0.1208 -0.7376 -0.4106
 2159SOL    HW118113   4.671   2.493   3.343 -0.1811 -0.2293  0.6268
 2159SOL    HW218114   0.041   2.526   3.249 -1.5069 -1.9150 -0.6799
 2160SOL     OW18115   4.546   0.121   1.553 -0.6014  0.0255  0.2607
 2160SOL    HW118116   4.464   0.074   1.539  0.6416 -2.4195  1.1913
 2160SOL    HW218117   4.602   0.091   1.481 -0.3752  0.6882  0.1610
 2161SOL     OW18118   3.043   3.560   2.164 -0.1627 -0.2658 -0.1277
 2161SOL    HW118119   3.080   3.599   2.243 -1.0541  0.1602  0.0740
 2161SOL    HW218120   3.069   3.628   2.103 -3.8405  2.3234  1.2105
 2162SOL     OW18121   3.880   3.576   7.263  0.4819 -0.2117 -0.7033
 2162SOL    HW118122   3.922   3.654   7.300 -1.1805  0.9865 -1.3563
 2162SOL    HW218123   3.855   3.539   7.348  1.6549  0.0572 -0.2331
 2163SOL     OW18124   4.152   3.931  15.944  0.2800  0.6293  0.1839
 2163SOL    HW118125   4.092   3.974  16.006 -0.8831  0.3200 -0.7431
 2163SOL    HW218126   4.094   3.922  15.869 -0.0660  1.4485  0.3462
 2164SOL     OW18127   1.100   4.585  14.868 -0.1802 -0.2555 -0.3638
 2164SOL    HW118128   1.053   4.570  14.951  0.5874 -2.6865 -0.3533
 2164SOL    HW218129   1.153   4.658  14.900  1.0626 -1.2733 -0.0560
 2165SOL     OW18130   3.684   1.355  14.928  1.0274 -0.3651  0.3134
 2165SOL    HW118131   3.775   1.327  14.925  1.8854  2.6792 -1.9467
 2165SOL    HW218132   3.702   1.448  14.913  0.7590 -0.0265  2.0599
 2166SOL     OW18133   0.559   1.725   5.061  0.4814  0.4505  0.4317
 2166SOL    HW118134   0.578   1.655   5.124  0.8732  1.3059  1.2598
 2166SOL    HW218135   0.472   1.752   5.090  1.2416  1.5090  1.7334
 2167SOL     OW18136   3.800   4.401   5.420  0.7212 -0.2065 -0.3863
 2167SOL    HW118137   3.859   4.465   5.379  0.9000  1.6335  2.7536
 2167SOL    HW218138   3.764   4.360   5.341  2.9017 -0.1803 -1.3924
 2168SOL     OW18139   1.927   3.723   6.897  0.3697 -0.1125 -0.5640
 2168SOL    HW118140   2.022   3.712   6.899  0.6529  2.3800 -0.6866
 2168SOL    HW218141   1.903   3.671   6.820 -1.7139 -1.7336  1.2055
 2169SOL     OW18142   4.078   1.073   3.044  0.1653 -0.0828  0.7703
 2169SOL    HW118143   4.088   1.051   2.952 -1.5883 -0.1749  0.6179
 2169SOL    HW218144   4.166   1.111   3.056 -0.2297  1.4830 -1.1829
 2170SOL     OW18145   4.730   3.199   2.712 -0.0207 -0.2202 -0.5210
 2170SOL    HW118146   4.735   3.123   2.655  0.5275 -1.6098  1.3637
 2170SOL    HW218147   4.688   3.255   2.647  0.5513  1.2915  0.4129
 2171SOL     OW18148   1.856   2.840   9.247  0.0538 -0.7571 -0.3131
 2171SOL    HW118149   1.886   2.926   9.219 -1.6003  0.0669  0.4670
 2171SOL    HW218150   1.836   2.796   9.164 -0.1624  0.7131 -1.0243
 2172SOL     OW18151   2.250   0.872   3.270  0.4845  0.6398 -0.4541
 2172SOL    HW118152   2.236   0.843   3.360 -2.2458  2.5536 -0.2455
 2172SOL    HW218153   2.345   0.870   3.279  0.3814 -1.1361  0.2829
 2173SOL     OW18154   3.246   4.589  17.054 -0.6240 -0.0289  0.1528
 2173SOL    HW118155   3.296   4.513  17.025  0.9647 -0.0106  2.8423
 2173SOL    HW218156   3.241   4.571  17.148  0.7503  4.2526  1.0577
 2174SOL     OW18157   3.730   3.221   3.581 -0.4304  0.1176  0.4178
 2174SOL    HW118158   3.805   3.172   3.547  1.5640  1.1138  3.3909
 2174SOL    HW218159   3.654   3.162   3.576 -1.1562  0.9970  1.1682
 2175SOL     OW18160   2.788   1.240  10.030 -0.0751  0.1493 -0.3388
 2175SOL    HW118161   2.882   1.262  10.033 -0.0738 -0.0153  0.5596
 2175SOL    HW218162   2.754   1.294   9.958  1.2011  1.3794 -0.0142
 2176SOL     OW18163   0.478   4.356   5.445  1.0736  0.5484  0.0649
 2176SOL    HW118164   0.535   4.393   5.378  0.9286  0.5465 -0.0611
 2176SOL    HW218165   0.455   4.273   5.402 -1.6578  1.0843  0.4704
 2177SOL     OW18166   2.522   1.379   4.639  0.6631 -0.4408 -0.5630
 2177SOL    HW118167   2.564   1.294   4.625  1.5815 -0.0296 -0.2914
 2177SOL    HW218168   2.511   1.375   4.734  0.0412  1.6611 -0.5398
 2178SOL     OW18169   2.681   4.451   4.697  0.2696  0.2032  0.1318
 2178SOL    HW118170   2.692   4.430   4.605  0.9245  2.3821 -0.2961
 2178SOL    HW218171   2.773   4.440   4.722 -0.0101 -2.2729  0.0007
 2179SOL     OW18172   0.343   0.163   7.246 -0.8037 -0.0831  0.1285
 2179SOL    HW118173   0.297   0.247   7.258 -0.9067 -0.3257  1.3880
 2179SOL    HW218174   0.322   0.123   7.330  1.2770 -0.2811  0.5577
 2180SOL     OW18175   3.977   2.182   5.930 -0.1642 -0.0990 -0.2036
 2180SOL    HW118176   4.037   2.230   5.988  0.7132 -0.2343 -0.9854
 2180SOL    HW218177   3.907   2.247   5.925 -1.7138 -1.7548  0.0777
 2181SOL     OW18178   2.225   3.172   0.512 -0.1695 -0.2994  0.5528
 2181SOL    HW118179   2.222   3.262   0.477  2.0726 -0.8503 -1.0947
 2181SOL    HW218180   2.193   3.121   0.438 -0.5332 -1.8140  1.7690
 2182SOL     OW18181   2.226   2.275   2.850 -0.3020 -0.3011 -0.5957
 2182SOL    HW118182   2.146   2.234   2.884 -1.1407  0.8368 -1.2157
 2182SOL    HW218183   2.252   2.340   2.915 -0.5922  0.8662 -1.6459
 2183SOL     OW18184   0.905   3.895   7.412 -0.2354 -0.1518 -0.5007
 2183SOL    HW118185   0.881   3.859   7.327 -4.0384 -0.0489  0.5295
 2183SOL    HW218186   0.879   3.824   7.471  3.1467 -0.1890  0.9395
 2184SOL     OW18187   2.832   0.472   5.535  0.2921 -0.1890 -0.1460
 2184SOL    HW118188   2.849   0.380   5.514  1.9633  0.3391 -1.1012
 2184SOL    HW218189   2.873   0.522   5.465  0.1941  0.4740  0.2726
 2185SOL     OW18190   3.555   2.586  17.059 -0.1089  0.1792 -0.4167
 2185SOL    HW118191   3.467   2.561  17.088  0.5895  0.9142  2.2962
 2185SOL    HW218192   3.606   2.517  17.102  0.2678 -0.2547 -1.5697
 2186SOL     OW18193   1.250   4.274   9.518 -0.1320  0.0049  0.2943
 2186SOL    HW118194   1.255   4.289   9.423  3.3816  1.5563  0.7250
 2186SOL    HW218195   1.249   4.366   9.546 -1.1676  0.2550 -0.5554
 2187SOL     OW18196   0.071   2.648  13.554  0.3745  0.1503  0.0410
 2187SOL    HW118197   0.073   2.718  13.619  0.0301  0.2797 -0.0898
 2187SOL    HW218198   4.717   2.617  13.560  0.1461  0.8515  0.1315
 2188SOL     OW18199   3.636   2.769   1.062 -0.2428  0.2295 -1.0186
 2188SOL    HW118200   3.704   2.720   1.108 -0.6301 -1.8732 -2.7064
 2188SOL    HW218201   3.586   2.704   1.013 -1.6896  0.4491  0.1718
 2189SOL     OW18202   4.035   2.061  14.210  0.0269  0.4158 -0.5184
 2189SOL    HW118203   4.058   2.154  14.199  1.9400 -0.0131 -0.1198
 2189SOL    HW218204   3.971   2.044  14.142 -0.4911  0.8802 -0.1472
 2190SOL     OW18205   3.614   2.964  11.339 -0.1356 -0.0791  0.9436
 2190SOL    HW118206   3.640   2.952  11.248  0.5815  2.1568  0.8379
 2190SOL    HW218207   3.557   2.891  11.362 -0.6113  0.2527  0.8253
 2191SOL     OW18208   3.929   3.553   6.225 -0.1690 -0.0431  0.5171
 2191SOL    HW118209   4.005   3.511   6.266  1.5765  1.7564 -0.9043
 2191SOL    HW218210   3.931   3.639   6.266 -0.4317  2.3795 -4.5549
 2192SOL     OW18211   2.986   3.655   8.650  0.2076 -0.0213 -0.1768
 2192SOL    HW118212   2.923   3.717   8.685 -0.0884 -0.7171  0.5465
 2192SOL    HW218213   3.018   3.702   8.573 -1.0871  0.2066 -0.5762
 2193SOL     OW18214   0.093   1.016   6.647 -0.3261 -0.1250  0.2159
 2193SOL    HW118215   0.097   0.952   6.577  0.6960 -1.5763  1.6029
 2193SOL    HW218216   0.182   1.049   6.654 -0.5154  0.3637  0.4049
 2194SOL     OW18217   0.049   4.092   2.740  0.1821  0.3197 -0.3384
 2194SOL    HW118218   0.014   4.143   2.813  0.8125  1.8838 -1.1298
 2194SOL    HW218219   0.019   4.003   2.755  0.5887  0.3572  0.7157
 2195SOL     OW18220   1.376   1.263   8.341  0.0897  0.2469  0.6309
 2195SOL    HW118221   1.387   1.229   8.430 -0.0398 -1.5309 -0.0373
 2195SOL    HW218222   1.343   1.183   8.300  3.5863 -0.4746 -0.7206
 2196SOL     OW18223   4.533   2.622  11.718 -0.6213  0.1032  0.0581
 2196SOL    HW118224   4.470   2.617  11.790  1.1676 -0.5158  1.5496
 2196SOL    HW218225   4.480   2.634  11.639  2.0963 -0.5124 -1.8484
 2197SOL     OW18226   2.720   3.758   6.490  0.4788 -0.3414 -0.0337
 2197SOL    HW118227   2.760   3.674   6.513  0.7967 -0.0334  0.5469
 2197SOL    HW218228   2.793   3.813   6.461 -0.9992  1.3935 -0.4571
 2198SOL     OW18229   0.261   3.743   2.624  0.5507 -0.5069  0.8421
 2198SOL    HW118230   0.274   3.799   2.548  0.2647 -0.9298  0.4862
 2198SOL    HW218231   0.211   3.801   2.681 -0.1591  1.7533 -2.1053
 2199SOL     OW18232   4.033   2.740  14.028 -0.1981  0.0179 -0.5279
 2199SOL    HW118233   3.989   2.685  13.963 -0.9662  0.0357 -0.0276
 2199SOL    HW218234   4.117   2.695  14.024  1.5180  3.1356  0.3311
 2200SOL     OW18235   3.784   2.163  11.940  0.0782 -0.7307  0.6320
 2200SOL    HW118236   3.820   2.077  11.916 -2.0954 -1.3979 -0.2402
 2200SOL    HW218237   3.698   2.132  11.969 -0.6445 -0.1061 -0.8263
 2201SOL     OW18238   0.549   2.057   7.348 -0.0351  0.2503  0.3112
 2201SOL    HW118239   0.644   2.044   7.336  0.2525  0.6380  2.2911
 2201SOL    HW218240   0.515   1.975   7.384  2.4601 -1.3001 -0.8007
 2202SOL     OW18241   2.956   2.898   7.252  0.5507  0.0548  0.3925
 2202SOL    HW118242   2.903   2.908   7.331 -0.4369  1.1411 -0.4062
 2202SOL    HW218243   3.039   2.921   7.293  1.4887  0.6737 -1.8672
 2203SOL     OW18244   1.342   2.146  17.226  0.1372 -0.2165 -0.3392
 2203SOL    HW118245   1.278   2.217  17.232  0.4689 -0.0254  0.8539
 2203SOL    HW218246   1.334   2.102  17.311 -2.4834  2.2969  0.7212
 2204SOL     OW18247   0.908   0.731   4.987  0.1853  0.1507  0.4677
 2204SOL    HW118248   0.985   0.739   4.932 -0.8806  1.2978 -0.8606
 2204SOL    HW218249   0.869   0.649   4.956  0.2351 -0.1380  1.1646
 2205SOL     OW18250   4.095   1.356   2.172 -0.5594 -0.1261 -0.0235
 2205SOL    HW118251   4.069   1.341   2.264  0.1585 -1.1993 -0.0011
 2205SOL    HW218252   4.116   1.268   2.143 -1.0708  0.1773 -1.3061
 2206SOL     OW18253   3.179   2.623   2.522  0.6736 -0.5267  0.6852
 2206SOL    HW118254   3.257   2.612   2.576  1.3591  2.0246  0.2211
 2206SOL    HW218255   3.189   2.717   2.507 -0.8283 -0.6812 -1.2450
 2207SOL     OW18256   3.128   3.638   2.429  0.0025  0.1267 -0.2330
 2207SOL    HW118257   3.154   3.728   2.448 -0.3711  0.4156 -1.0615
 2207SOL    HW218258   3.091   3.610   2.513  0.4423  2.0883  0.6201
 2208SOL     OW18259   3.772   0.343  16.215 -0.8531 -0.2120 -0.4464
 2208SOL    HW118260   3.819   0.353  16.298  1.7623  0.1134 -1.9779
 2208SOL    HW218261   3.759   0.249  16.205 -1.4527 -0.1888  0.0918
 2209SOL     OW18262   3.182   3.531   1.755  0.1285  0.0837 -0.5366
 2209SOL    HW118263   3.167   3.625   1.747  0.1536  0.0460 -1.0503
 2209SOL    HW218264   3.257   3.532   1.813 -1.4205  0.4197  1.4682
 2210SOL     OW18265   3.938   0.398  16.452  0.2249 -0.0925  0.4422
 2210SOL    HW118266   3.935   0.484  16.494 -0.9716 -1.0532  2.3364
 2210SOL    HW218267   3.968   0.342  16.523  1.6719  1.6277  1.1706
 2211SOL     OW18268   2.535   0.594   4.105 -0.0078  0.1221 -0.3352
 2211SOL    HW118269   2.590   0.554   4.172  0.3158  0.2177 -0.5433
 2211SOL    HW218270   2.490   0.515   4.076  1.1998 -0.3334 -0.9566
 2212SOL     OW18271   0.167   0.935  16.926 -0.2069  0.4817 -0.2378
 2212SOL    HW118272   0.248   0.902  16.889  0.8174  2.1557  0.5192
 2212SOL    HW218273   0.122   0.850  16.921  0.5822 -0.1329  2.8312
 2213SOL     OW18274   0.805   2.931   2.860 -0.1205 -0.1199 -0.1536
 2213SOL    HW118275   0.769   2.862   2.804 -0.1228  0.0879 -0.4106
 2213SOL    HW218276   0.761   2.999   2.809 -3.6052 -1.3674  1.1789
 2214SOL     OW18277   0.236   1.049   3.064  0.0002  0.3205 -0.0104
 2214SOL    HW118278   0.279   1.063   3.149 -0.3264 -1.6184  0.4813
 2214SOL    HW218279   0.212   1.137   3.035 -2.5217 -1.9170 -4.6698
 2215SOL     OW18280   1.928   0.236   2.618  0.4431  0.3275 -0.3058
 2215SOL    HW118281   1.906   0.153   2.662  0.1111  0.1062 -0.8909
 2215SOL    HW218282   1.959   0.204   2.533  1.3963 -0.2911  0.2759
 2216SOL     OW18283   0.149   1.919   1.710 -0.2556  0.1830 -0.1027
 2216SOL    HW118284   0.240   1.945   1.720 -0.0332  0.5167 -3.2108
 2216SOL    HW218285   0.116   1.918   1.800 -0.3582  1.6781 -0.1166
 2217SOL     OW18286   1.420   2.297   5.137  0.2804 -0.5096 -0.1711
 2217SOL    HW118287   1.483   2.256   5.197  0.7283  0.8804  0.3092
 2217SOL    HW218288   1.456   2.263   5.055 -0.4270  0.6527 -0.9577
 2218SOL     OW18289   0.198   2.120   3.879  0.3117  0.0534 -0.4151
 2218SOL    HW118290   0.166   2.048   3.933 -2.1904  2.5098  1.3335
 2218SOL    HW218291   0.261   2.159   3.939 -0.9245  2.1664 -0.4761
 2219SOL     OW18292   2.928   1.295   7.282 -0.7753  0.1538  0.5295
 2219SOL    HW118293   2.904   1.370   7.336 -1.6728  0.8996 -0.9095
 2219SOL    HW218294   2.845   1.296   7.234 -2.0597  0.0927  2.7526
 2220SOL     OW18295   1.616   3.294   5.500  0.0976  0.1779  0.7209
 2220SOL    HW118296   1.688   3.294   5.563 -0.0932 -2.3591  0.9303
 2220SOL    HW218297   1.637   3.214   5.453  0.6937  1.7884 -1.7508
 2221SOL     OW18298   0.178   4.430  16.588 -0.7267 -0.9096  0.3881
 2221SOL    HW118299   0.123   4.355  16.565  0.6987 -2.9689  3.7879
 2221SOL    HW218300   0.178   4.410  16.681 -0.9677 -1.1179  0.3432
 2222SOL     OW18301   4.510   4.603   1.209  0.3700  0.0334  0.8229
 2222SOL    HW118302   4.444   4.666   1.239  1.5210  1.8902 -0.5057
 2222SOL    HW218303   4.578   4.620   1.275 -0.2830  1.8240  1.0284
 2223SOL     OW18304   1.188   2.116   0.835 -0.1805 -0.3665  0.8414
 2223SOL    HW118305   1.206   2.129   0.928 -0.3116 -2.9855  1.2202
 2223SOL    HW218306   1.280   2.114   0.808 -0.3725  2.5801 -0.1015
 2224SOL     OW18307   2.197   3.666   5.074 -0.1163 -0.4754 -0.1788
 2224SOL    HW118308   2.273   3.616   5.045  0.0151 -1.5816  2.0782
 2224SOL    HW218309   2.203   3.669   5.170  0.7053 -1.8634 -0.1883
 2225SOL     OW18310   4.369   1.132   9.221  0.2360 -0.3562  0.0272
 2225SOL    HW118311   4.359   1.055   9.278  1.4682 -0.7256 -0.2490
 2225SOL    HW218312   4.370   1.094   9.133 -2.2067 -2.3966  0.8479
 2226SOL     OW18313   0.691   0.795   8.371  0.3043  0.0605  0.4069
 2226SOL    HW118314   0.677   0.718   8.426 -1.7356 -1.6783 -2.5750
 2226SOL    HW218315   0.780   0.781   8.338 -0.8443 -3.2612 -1.2446
 2227SOL     OW18316   3.999   1.428   8.722  0.1630 -0.4928  0.1635
 2227SOL    HW118317   3.938   1.372   8.771 -1.6392 -1.0194 -2.6543
 2227SOL    HW218318   4.033   1.357   8.666 -0.7391 -0.9149  0.1448
 2228SOL     OW18319   3.741   4.734   6.718 -0.1674 -0.1222 -0.6571
 2228SOL    HW118320   3.793   4.729   6.638 -0.7426 -1.6141 -0.9313
 2228SOL    HW218321   3.740   4.639   6.722  0.6710 -0.0903  0.2312
 2229SOL     OW18322   1.818   3.575   7.323  0.5853  0.6077 -1.0891
 2229SOL    HW118323   1.824   3.560   7.228  0.1598 -0.9830 -0.8717
 2229SOL    HW218324   1.755   3.647   7.332 -0.2229 -0.2593  0.3140
 2230SOL     OW18325   2.053   2.027  14.864 -0.2687  0.4650  0.1035
 2230SOL    HW118326   2.130   2.049  14.916  0.4232 -2.6787  0.4347
 2230SOL    HW218327   2.003   2.108  14.863 -0.2856  0.4203 -2.1136
 2231SOL     OW18328   0.176   2.076   1.460 -0.0520  0.1758 -0.0273
 2231SOL    HW118329   0.107   2.142   1.470 -0.3268 -0.3867  1.7983
 2231SOL    HW218330   0.161   2.007   1.525  0.0427  0.9276  0.7920
 2232SOL     OW18331   0.313   4.072   8.618  0.0240  0.5997  0.0244
 2232SOL    HW118332   0.313   4.005   8.549 -1.6535  0.8604 -0.2522
 2232SOL    HW218333   0.226   4.060   8.657 -0.5353  0.8930 -1.1041
 2233SOL     OW18334   3.984   3.310   5.197  0.1737  0.0602 -0.3034
 2233SOL    HW118335   4.023   3.383   5.148  1.0771 -0.6740 -0.6892
 2233SOL    HW218336   3.966   3.339   5.286 -0.6507  3.0558 -1.4333
 2234SOL     OW18337   2.752   2.836   4.649 -0.2220 -0.1818  0.3683
 2234SOL    HW118338   2.670   2.838   4.698 -1.6929 -0.1165 -2.1232
 2234SOL    HW218339   2.777   2.926   4.630  2.0929 -0.9020  0.0420
 2235SOL     OW18340   2.587   4.188   2.731  0.3012 -0.2340  0.0972
 2235SOL    HW118341   2.510   4.141   2.697  0.4771 -0.0578 -0.5338
 2235SOL    HW218342   2.534   4.259   2.766  0.5298  0.2441 -0.5329
 2236SOL     OW18343   1.762   1.712  16.802 -0.4665  0.3731 -0.3654
 2236SOL    HW118344   1.706   1.655  16.854 -1.2344 -1.4503 -3.2178
 2236SOL    HW218345   1.696   1.774  16.772  0.4461  1.9908  0.9460
 2237SOL     OW18346   2.111   1.023  14.510 -0.3957  0.2054 -0.0708
 2237SOL    HW118347   2.170   1.038  14.584 -0.0442 -2.4648  0.1913
 2237SOL    HW218348   2.163   1.046  14.433 -1.6013  1.5464 -0.5019
 2238SOL     OW18349   2.539   3.804   7.420  0.3950 -0.1333  0.2669
 2238SOL    HW118350   2.516   3.874   7.481 -1.2624 -2.4701  2.3278
 2238SOL    HW218351   2.466   3.794   7.358  0.3091  2.2278 -0.0185
 2239SOL     OW18352   2.666   0.538   3.111  0.2083  0.3700  0.3509
 2239SOL    HW118353   2.681   0.627   3.081 -0.5298  0.8092  1.2902
 2239SOL    HW218354   2.725   0.486   3.057 -1.0483  3.0141 -3.5738
 2240SOL     OW18355   2.107   0.757   2.288  0.7681 -0.1504  0.2799
 2240SOL    HW118356   2.091   0.702   2.365  1.5276 -0.2078  0.3953
 2240SOL    HW218357   2.035   0.728   2.232  1.4937  2.2036 -1.8742
 2241SOL     OW18358   3.695   2.203   9.780  0.2060 -0.1223 -0.0087
 2241SOL    HW118359   3.770   2.232   9.728  1.0888  0.1366  1.4234
 2241SOL    HW218360   3.739   2.161   9.853 -1.2245 -1.7502 -0.0745
 2242SOL     OW18361   1.434   1.357   4.731  0.1644  0.5727  0.7066
 2242SOL    HW118362   1.490   1.283   4.754 -2.6251 -2.6564 -2.9625
 2242SOL    HW218363   1.354   1.308   4.714  2.5153 -2.7987 -0.6803
 2243SOL     OW18364   0.833   0.296   0.522 -0.3742  0.0630  0.2858
 2243SOL    HW118365   0.739   0.275   0.523 -1.0579  3.2212  4.7678
 2243SOL    HW218366   0.875   0.234   0.463  3.3382  1.6100  1.3004
 2244SOL     OW18367   4.206   2.208  16.296 -0.2856  0.1176  0.1438
 2244SOL    HW118368   4.153   2.288  16.300 -1.1746 -0.3870 -1.1995
 2244SOL    HW218369   4.295   2.241  16.292  0.6458 -2.3177  0.9110
 2245SOL     OW18370   1.288   3.430   8.832 -0.9015 -0.7319  0.0278
 2245SOL    HW118371   1.287   3.513   8.785 -2.0892 -0.0101  1.3235
 2245SOL    HW218372   1.383   3.424   8.842 -0.7098 -0.2212 -1.4844
 2246SOL     OW18373   2.583   0.476   7.802 -0.6239  0.3188  0.1774
 2246SOL    HW118374   2.644   0.523   7.859  0.6102  0.4840 -1.3074
 2246SOL    HW218375   2.573   0.548   7.740 -0.8999  2.0467  2.1941
 2247SOL     OW18376   2.326   1.867  11.662  0.4667  0.4710 -0.1573
 2247SOL    HW118377   2.404   1.908  11.700  2.0630 -1.8413 -0.9477
 2247SOL    HW218378   2.362   1.830  11.581 -1.3243 -0.5233 -0.5134
 2248SOL     OW18379   4.255   0.180   1.684  0.3696  0.0578 -0.3474
 2248SOL    HW118380   4.241   0.227   1.602  0.0920  1.0587  0.2816
 2248SOL    HW218381   4.211   0.229   1.753  0.3854  0.5067 -0.6626
 2249SOL     OW18382   2.464   3.604   6.588  0.0254  0.7962 -0.2433
 2249SOL    HW118383   2.501   3.553   6.660 -2.1336 -0.6749 -0.1856
 2249SOL    HW218384   2.468   3.696   6.614  1.6034  0.7811 -0.3834
 2250SOL     OW18385   0.617   3.022   2.243  0.5339 -0.2467 -0.4437
 2250SOL    HW118386   0.660   2.939   2.265  3.2715  1.3228  0.0817
 2250SOL    HW218387   0.581   3.046   2.328  1.5294 -0.3334  0.0091
 2251SOL     OW18388   4.509   2.087   1.470 -0.2512  0.2583 -0.2601
 2251SOL    HW118389   4.559   2.013   1.504  1.2166  2.2853  1.9977
 2251SOL    HW218390   4.502   2.055   1.380 -0.6374 -0.8029  0.1393
 2252SOL     OW18391   1.865   3.555   6.098 -0.3814  0.7284  0.1412
 2252SOL    HW118392   1.918   3.481   6.127  0.7874  1.4650 -0.0939
 2252SOL    HW218393   1.804   3.540   6.170 -0.8044  0.1935 -0.3307
 2253SOL     OW18394   0.171   2.279   2.949 -0.0801  0.1852 -0.1797
 2253SOL    HW118395   0.128   2.210   2.898  0.3785  0.2342 -0.6304
 2253SOL    HW218396   0.098   2.332   2.981  1.3639  0.8465  1.9967
 2254SOL     OW18397   0.477   3.775   8.685 -0.4001  0.0187  0.5236
 2254SOL    HW118398   0.409   3.727   8.639 -1.1061  0.5548  1.0065
 2254SOL    HW218399   0.480   3.723   8.765 -1.2803  2.1701  1.9370
 2255SOL     OW18400   4.692   4.224  16.674  0.3184  0.5313 -0.1188
 2255SOL    HW118401   0.018   4.158  16.702 -0.3971 -0.2429 -0.3519
 2255SOL    HW218402   4.679   4.285  16.747  0.2545 -1.2731  1.3842
 2256SOL     OW18403   0.986   2.049   0.537  0.2347 -0.5380  0.4635
 2256SOL    HW118404   0.933   2.029   0.614 -0.7317 -1.4427 -0.4447
 2256SOL    HW218405   1.053   1.981   0.544  2.2837  1.5319  0.9335
 2257SOL     OW18406   4.391   2.988   2.249 -0.2472  0.2054 -0.2074
 2257SOL    HW118407   4.382   3.078   2.216  2.1184  0.2744 -0.6620
 2257SOL    HW218408   4.485   2.981   2.265 -0.6189  0.0738  1.9374
 2258SOL     OW18409   1.039   3.581   2.132  0.1370 -0.0033  0.3348
 2258SOL    HW118410   1.108   3.622   2.184  0.4577  0.4941 -0.4681
 2258SOL    HW218411   1.041   3.496   2.175  1.4311 -0.9727 -1.6387
 2259SOL     OW18412   4.336   0.163  17.325 -0.0115 -0.5093 -1.0302
 2259SOL    HW118413   4.329   0.098  17.256  2.5670 -0.4764 -1.3257
 2259SOL    HW218414   4.403   0.124  17.381 -0.5122 -0.2891 -0.2858
 2260SOL     OW18415   4.283   3.446   4.431 -0.3132 -0.5510  0.3828
 2260SOL    HW118416   4.264   3.438   4.524 -1.1170 -0.1487  0.2547
 2260SOL    HW218417   4.201   3.476   4.391  1.0606  1.7959 -0.6316
 2261SOL     OW18418   1.852   0.438   0.700 -0.5589 -0.1797  0.5956
 2261SOL    HW118419   1.816   0.352   0.724  2.0206 -1.7297 -1.0764
 2261SOL    HW218420   1.829   0.495   0.773  0.6844  1.1118 -0.0264
 2262SOL     OW18421   4.031   2.016   1.616 -0.6194  0.1875 -0.0840
 2262SOL    HW118422   3.945   2.049   1.593 -1.0164 -0.5633  0.3453
 2262SOL    HW218423   4.017   1.924   1.637  0.8772  0.1488  0.7940
 2263SOL     OW18424   4.167   4.700   4.969  0.8486 -0.6455  0.4980
 2263SOL    HW118425   4.083   0.009   4.969  1.2226  0.0430 -0.2913
 2263SOL    HW218426   4.224   0.035   4.996  0.9764 -0.5547 -0.0183
 2264SOL     OW18427   4.208   3.209   7.373  0.0308  0.4930  0.1489
 2264SOL    HW118428   4.148   3.223   7.445 -1.9763 -1.2349 -1.1875
 2264SOL    HW218429   4.173   3.277   7.316  0.9297  1.4887  0.7641
 2265SOL     OW18430   0.913   3.817   9.106  0.2647  0.4538  0.3612
 2265SOL    HW118431   0.856   3.740   9.104 -1.3177  1.6027  1.0257
 2265SOL    HW218432   0.859   3.872   9.163 -0.6823  1.2367 -1.2922
 2266SOL     OW18433   1.432   1.949   2.064  0.2205 -0.3628  0.1782
 2266SOL    HW118434   1.407   1.880   2.003 -2.0460 -0.1828  0.9307
 2266SOL    HW218435   1.526   1.930   2.054  0.0526 -1.8621  1.5051
 2267SOL     OW18436   4.298   1.379   4.235 -0.2412 -0.5192 -0.5991
 2267SOL    HW118437   4.369   1.372   4.171  0.6252 -0.6792  0.3694
 2267SOL    HW218438   4.288   1.473   4.250 -1.3316 -0.5557 -1.0890
 2268SOL     OW18439   3.355   3.719   6.511 -0.1121 -0.0915 -0.0478
 2268SOL    HW118440   3.317   3.783   6.451  1.1975  0.6460 -0.0839
 2268SOL    HW218441   3.387   3.651   6.453 -1.4508 -0.7763  0.0255
 2269SOL     OW18442   4.270   3.193   7.051 -0.0883 -0.0770  0.1382
 2269SOL    HW118443   4.185   3.152   7.038 -0.3498  0.5759 -0.1790
 2269SOL    HW218444   4.245   3.281   7.079  1.1798  0.5810 -0.7768
 2270SOL     OW18445   1.864   2.669   3.626 -0.3735  0.2664  0.5737
 2270SOL    HW118446   1.874   2.592   3.570 -1.8996  1.0480 -0.7562
 2270SOL    HW218447   1.775   2.667   3.660  0.5893  0.6040  3.0825
 2271SOL     OW18448   3.006   4.363   7.905 -0.4767 -0.4059  0.0801
 2271SOL    HW118449   3.092   4.404   7.910 -1.3848  1.2225  2.1102
 2271SOL    HW218450   3.018   4.273   7.936 -0.0463  0.2984  1.9065
 2272SOL     OW18451   1.539   3.437   3.797  0.5514 -0.1754 -0.7246
 2272SOL    HW118452   1.607   3.428   3.730  0.1168  1.0329 -1.3335
 2272SOL    HW218453   1.463   3.457   3.742 -0.9883  0.7512  1.7292
 2273SOL     OW18454   1.738   2.018   2.616  0.0716  0.0574 -0.6739
 2273SOL    HW118455   1.802   2.085   2.635  0.4840 -0.2244 -1.0775
 2273SOL    HW218456   1.663   2.037   2.673  0.2266 -1.4818  0.0399
 2274SOL     OW18457   1.365   1.689   1.305  0.3489  0.4809 -0.4395
 2274SOL    HW118458   1.348   1.611   1.252  0.8470  0.8946 -1.2199
 2274SOL    HW218459   1.455   1.676   1.334 -0.5113 -0.8798  1.5441
 2275SOL     OW18460   0.497   0.783  17.612 -0.2460 -0.0708  0.2744
 2275SOL    HW118461   0.467   0.865  17.652 -0.6225 -0.5483  0.9664
 2275SOL    HW218462   0.465   0.719  17.675 -1.8326  0.2496 -0.2251
 2276SOL     OW18463   0.042   3.319  12.251 -0.2862 -0.1964  0.4511
 2276SOL    HW118464   0.014   3.397  12.299 -0.2379  0.8262 -1.1540
 2276SOL    HW218465   4.725   3.253  12.293  1.7406 -0.6726  2.2941
 2277SOL     OW18466   2.562   3.736  13.485  0.0685 -0.2854 -0.5573
 2277SOL    HW118467   2.546   3.643  13.472 -0.2788 -0.2254 -0.5691
 2277SOL    HW218468   2.574   3.770  13.396  0.2081  1.8507  0.2757
 2278SOL     OW18469   4.213   3.642   4.060 -0.5524  0.0387  0.3926
 2278SOL    HW118470   4.213   3.558   4.013 -2.5611  0.3805 -0.2409
 2278SOL    HW218471   4.184   3.609   4.145 -0.6931 -1.7691 -0.3503
 2279SOL     OW18472   3.122   3.975  13.259  0.2869 -0.0415 -0.8905
 2279SOL    HW118473   3.162   4.022  13.186 -0.4449  0.7464 -0.7767
 2279SOL    HW218474   3.091   4.050  13.309 -1.1262 -0.0152 -1.8173
 2280SOL     OW18475   0.996   0.210   7.139  0.1980  0.3966 -0.3679
 2280SOL    HW118476   1.020   0.270   7.210  0.8675  2.8121 -2.6342
 2280SOL    HW218477   0.979   0.273   7.069 -3.8632  1.7637  1.8735
 2281SOL     OW18478   2.312   3.961   7.846  0.7256  0.1798  0.0045
 2281SOL    HW118479   2.216   3.963   7.848  0.7314  1.4876 -0.8946
 2281SOL    HW218480   2.315   4.055   7.862  1.6603  0.3147 -0.9465
 2282SOL     OW18481   1.812   4.635   8.685  0.0517 -0.6483  0.0169
 2282SOL    HW118482   1.880   4.603   8.744  0.0786 -1.4151 -0.4377
 2282SOL    HW218483   1.740   4.656   8.743  0.2724 -0.9167  0.3847
 2283SOL     OW18484   3.417   2.427   7.148 -0.7041  0.3747  0.1951
 2283SOL    HW118485   3.375   2.433   7.062 -0.3034 -1.6175 -0.1405
 2283SOL    HW218486   3.355   2.365   7.185 -1.2005  0.6481 -0.1636
 2284SOL     OW18487   4.007   0.207   4.991 -0.5228 -0.5176  0.1750
 2284SOL    HW118488   4.061   0.257   4.930  0.2796 -0.3893  0.9696
 2284SOL    HW218489   4.038   0.250   5.071 -1.3116  0.9300 -0.3154
 2285SOL     OW18490   3.053   0.380  16.142 -0.1401 -0.0682 -0.5652
 2285SOL    HW118491   3.072   0.372  16.049 -1.0617 -2.2479 -0.5586
 2285SOL    HW218492   2.987   0.451  16.145 -1.4799 -1.3264 -0.2080
 2286SOL     OW18493   4.560   2.393   8.378  0.5823  0.1537 -0.1176
 2286SOL    HW118494   4.561   2.407   8.283 -2.8676 -0.6819 -0.2627
 2286SOL    HW218495   4.474   2.430   8.399  0.4496 -0.4527  0.4063
 2287SOL     OW18496   0.310   4.566  13.382 -0.2818  0.1415  0.2451
 2287SOL    HW118497   0.366   4.598  13.452 -0.5725  2.3181 -0.5173
 2287SOL    HW218498   0.371   4.536  13.314  1.6092 -2.3593  3.0459
 2288SOL     OW18499   2.288   1.554   1.594  0.0263 -0.3760 -0.0168
 2288SOL    HW118500   2.320   1.464   1.597  0.2094 -0.3025  0.2529
 2288SOL    HW218501   2.355   1.600   1.645 -1.2064 -0.3266  1.5821
 2289SOL     OW18502   3.760   0.146   8.297  0.1458 -0.5927 -0.3108
 2289SOL    HW118503   3.803   0.073   8.252  0.4795 -0.5484 -0.0645
 2289SOL    HW218504   3.694   0.148   8.228  1.0217  0.5978 -1.1225
 2290SOL     OW18505   2.321   2.763   7.486  0.7454 -0.1816  0.2308
 2290SOL    HW118506   2.290   2.683   7.529  1.1431 -1.3057 -1.5911
 2290SOL    HW218507   2.415   2.765   7.502  0.7039 -0.4863  0.5230
 2291SOL     OW18508   2.467   4.025   0.011 -0.1741 -0.2443  0.0800
 2291SOL    HW118509   2.512   3.998  17.676  0.7099 -2.3732  1.2757
 2291SOL    HW218510   2.413   3.951   0.037 -1.5719  1.2702  1.4936
 2292SOL     OW18511   2.226   0.941   8.781  0.2698 -0.0548 -0.0546
 2292SOL    HW118512   2.306   0.933   8.834  1.6554 -2.2999 -2.4548
 2292SOL    HW218513   2.167   0.997   8.832  0.0927 -0.7698  0.5271
 2293SOL     OW18514   1.001   2.664   8.169 -0.2614  0.4901  0.0418
 2293SOL    HW118515   1.082   2.697   8.130  3.0684 -4.3019  2.9582
 2293SOL    HW218516   0.966   2.744   8.209  0.6135  0.5574  0.6822
 2294SOL     OW18517   1.402   1.222   1.423  0.6224  0.0114 -0.4749
 2294SOL    HW118518   1.345   1.159   1.379 -1.9926  2.7475 -1.0198
 2294SOL    HW218519   1.335   1.280   1.460 -1.5688 -1.7654 -1.7230
 2295SOL     OW18520   0.709   3.735   1.203  0.1156  0.0255  0.0760
 2295SOL    HW118521   0.703   3.707   1.294 -0.7703  0.1451  0.0603
 2295SOL    HW218522   0.745   3.656   1.161  1.6587  0.7688  0.0356
 2296SOL     OW18523   0.062   2.763   4.561 -0.1676  0.0289  0.2177
 2296SOL    HW118524   0.039   2.849   4.526 -2.0040 -0.7331 -0.4461
 2296SOL    HW218525   0.002   2.713   4.506  1.6349 -0.5224 -1.2615
 2297SOL     OW18526   1.304   0.762   4.377 -0.1931 -0.1848  0.5830
 2297SOL    HW118527   1.243   0.826   4.340 -2.1867 -0.7631  2.8250
 2297SOL    HW218528   1.381   0.770   4.321 -0.6439  0.5322  0.0704
 2298SOL     OW18529   1.387   1.675   6.712 -0.2272  0.5991 -0.3310
 2298SOL    HW118530   1.340   1.593   6.698 -0.8531  0.7395  0.9225
 2298SOL    HW218531   1.419   1.656   6.800 -0.8927 -0.0397 -0.2215
 2299SOL     OW18532   1.098   1.479   8.669 -0.2593  0.3721 -0.2116
 2299SOL    HW118533   1.078   1.414   8.602 -1.3869  0.2625  0.2252
 2299SOL    HW218534   1.081   1.558   8.617  0.0805  0.4049 -0.2730
 2300SOL     OW18535   3.471   1.111   8.918 -0.2465 -0.1398 -0.2739
 2300SOL    HW118536   3.500   1.067   8.838 -0.0143  0.0452 -0.2911
 2300SOL    HW218537   3.517   1.072   8.993  1.0518  1.2474 -0.3334
 2301SOL     OW18538   0.874   0.835  12.406 -0.1183  0.8097  0.1115
 2301SOL    HW118539   0.792   0.882  12.387 -0.5522 -0.0088 -0.0216
 2301SOL    HW218540   0.856   0.752  12.361  0.4889  1.1128 -0.7049
 2302SOL     OW18541   3.784   3.788   7.980 -0.0027 -0.3558  0.5095
 2302SOL    HW118542   3.806   3.697   7.960  0.2495  0.0190 -0.9021
 2302SOL    HW218543   3.865   3.825   7.945 -0.7236  1.8123  1.0945
 2303SOL     OW18544   1.457   3.935   7.360 -0.3445 -1.2409 -0.1409
 2303SOL    HW118545   1.399   3.862   7.338 -1.1232 -1.0237  1.1809
 2303SOL    HW218546   1.403   4.009   7.331  0.0758 -1.1442 -0.6741
 2304SOL     OW18547   3.625   1.308  13.971 -0.6896 -0.3807 -0.2518
 2304SOL    HW118548   3.672   1.228  13.950 -0.8415 -0.5358 -0.0038
 2304SOL    HW218549   3.564   1.286  14.041 -4.5285  3.6262 -2.3468
 2305SOL     OW18550   0.326   1.532   1.008 -0.3462  0.0785 -0.7761
 2305SOL    HW118551   0.307   1.592   1.080  1.3244  0.9760 -1.0651
 2305SOL    HW218552   0.414   1.498   1.028 -0.0381  2.8615  2.7271
 2306SOL     OW18553   4.018   3.853   5.833 -0.2943 -0.0837  0.0245
 2306SOL    HW118554   3.987   3.776   5.881  3.7493 -0.8463  1.4331
 2306SOL    HW218555   3.938   3.905   5.823  0.8810  1.6875 -0.1697
 2307SOL     OW18556   4.027   2.513   6.093  0.1779 -0.6279 -0.2341
 2307SOL    HW118557   3.963   2.491   6.160  0.3355  1.1511  0.5218
 2307SOL    HW218558   4.000   2.597   6.056 -1.0894 -1.5101 -1.3127
 2308SOL     OW18559   3.224   3.083   1.880 -0.3182 -0.4033 -0.1174
 2308SOL    HW118560   3.227   3.015   1.814 -0.5818 -0.0438 -0.4978
 2308SOL    HW218561   3.241   3.024   1.954 -0.4794  0.4425  0.6045
 2309SOL     OW18562   3.340   2.857   5.467  1.0999 -0.5313 -0.3302
 2309SOL    HW118563   3.320   2.833   5.557  3.2119 -0.1232  0.2587
 2309SOL    HW218564   3.304   2.946   5.467  0.2535 -0.8907  0.6936
 2310SOL     OW18565   0.498   0.337   6.922  0.2861  0.4643 -0.2531
 2310SOL    HW118566   0.426   0.401   6.926  1.3951  1.7432 -0.9138
 2310SOL    HW218567   0.464   0.268   6.865  1.7881  1.5118 -2.3905
 2311SOL     OW18568   3.789   0.581   4.990  0.1076 -0.1978  0.7779
 2311SOL    HW118569   3.869   0.560   5.039  0.9706  3.3172  0.8970
 2311SOL    HW218570   3.808   0.556   4.900  0.1360  1.3211  0.3723
 2312SOL     OW18571   1.352   1.901   9.902  0.2897  0.0245 -0.0687
 2312SOL    HW118572   1.351   1.906   9.806 -0.3160  1.8967  0.0327
 2312SOL    HW218573   1.273   1.954   9.915 -1.2405 -2.4046  0.4844
 2313SOL     OW18574   2.828   1.710   1.602 -0.1135 -0.0020 -0.5143
 2313SOL    HW118575   2.912   1.733   1.641  0.6467 -0.1338 -2.0958
 2313SOL    HW218576   2.790   1.639   1.654 -0.4772  0.0699 -0.6795
 2314SOL     OW18577   0.904   2.691   2.967 -0.4875 -0.6918 -0.5235
 2314SOL    HW118578   0.954   2.670   2.888 -1.8219 -2.0377 -0.9863
 2314SOL    HW218579   0.881   2.782   2.947 -3.9110 -1.7972 -1.5306
 2315SOL     OW18580   0.425   0.387  11.340  0.0084 -0.1502 -0.1213
 2315SOL    HW118581   0.432   0.464  11.283  1.7743 -0.2537 -0.0386
 2315SOL    HW218582   0.335   0.391  11.372  0.0363  0.5381 -0.1163
 2316SOL     OW18583   1.578   1.828   1.059  0.0907 -0.1471 -0.1284
 2316SOL    HW118584   1.573   1.831   0.963  0.5732  1.3074 -0.1029
 2316SOL    HW218585   1.650   1.772   1.089 -0.8137 -1.0313  0.4041
 2317SOL     OW18586   1.543   1.854   1.599 -0.0772  0.0554 -0.5823
 2317SOL    HW118587   1.594   1.787   1.554  0.0254 -0.6290  0.5384
 2317SOL    HW218588   1.605   1.879   1.668 -0.4630 -0.7203  0.0513
 2318SOL     OW18589   3.842   0.157   5.382 -0.1374  0.4578 -0.1346
 2318SOL    HW118590   3.891   0.186   5.459  1.0217 -0.3524 -0.5672
 2318SOL    HW218591   3.876   0.070   5.362 -1.4633 -0.6123  2.2436
 2319SOL     OW18592   2.923   0.711   6.140 -0.1117 -0.6113  0.5830
 2319SOL    HW118593   2.828   0.709   6.154 -0.5876 -1.5955 -2.7345
 2319SOL    HW218594   2.928   0.618   6.163 -0.4708 -0.5327  1.0025
 2320SOL     OW18595   4.323   1.769   3.697  0.2894 -0.8098 -0.3336
 2320SOL    HW118596   4.361   1.851   3.726  0.8916 -1.0959 -0.3191
 2320SOL    HW218597   4.348   1.766   3.605 -2.5958 -0.0992 -1.1508
 2321SOL     OW18598   0.970   1.506  16.419  0.3096  0.0787 -0.2053
 2321SOL    HW118599   0.958   1.575  16.353  0.2138 -0.8263 -1.1287
 2321SOL    HW218600   0.974   1.564  16.495  0.1512 -2.8466  2.0188
 2322SOL     OW18601   0.987   3.753   7.944 -0.3026 -0.1989  0.1986
 2322SOL    HW118602   1.032   3.837   7.948 -0.4707 -0.1245  0.5620
 2322SOL    HW218603   0.897   3.763   7.975 -0.3699  2.3119 -0.8070
 2323SOL     OW18604   1.762   0.240   6.924 -0.0911 -0.1609 -0.1636
 2323SOL    HW118605   1.713   0.164   6.891 -0.8235  0.3324 -0.1841
 2323SOL    HW218606   1.801   0.215   7.008 -1.9822  0.1427  0.8045
 2324SOL     OW18607   4.335   0.985  16.684 -0.5002  0.1867 -0.1921
 2324SOL    HW118608   4.421   1.009  16.649  0.1113 -0.3710  0.9113
 2324SOL    HW218609   4.340   0.889  16.685 -1.0557  0.1810  1.5200
 2325SOL     OW18610   2.581   1.077   2.974 -0.1944  0.8005 -0.8597
 2325SOL    HW118611   2.547   1.015   2.908 -1.4362  1.0825 -0.4838
 2325SOL    HW218612   2.663   1.102   2.932 -0.2311  0.5124 -1.1071
 2326SOL     OW18613   0.664   0.201  10.321 -0.5576 -0.1322  0.0221
 2326SOL    HW118614   0.686   0.241  10.237 -2.4238  1.7950  0.4550
 2326SOL    HW218615   0.620   0.276  10.361 -0.4425  0.2002 -0.4736
 2327SOL     OW18616   4.307   2.145   4.083  0.1205 -0.2050 -0.6692
 2327SOL    HW118617   4.328   2.060   4.044  1.3308  0.0476 -0.5445
 2327SOL    HW218618   4.226   2.168   4.038  1.1183  1.0147 -1.8195
 2328SOL     OW18619   2.428   1.150   2.241  0.7483  0.0801  0.3328
 2328SOL    HW118620   2.511   1.149   2.193 -0.0732 -2.9330 -0.9953
 2328SOL    HW218621   2.370   1.108   2.178  0.5305  1.0842 -0.1278
 2329SOL     OW18622   2.591   4.019   1.376  0.1837  0.2893  0.0347
 2329SOL    HW118623   2.610   3.926   1.367 -0.3135  0.4675 -2.8141
 2329SOL    HW218624   2.583   4.035   1.471 -1.6342  0.8230 -0.1920
 2330SOL     OW18625   3.022   3.791   8.419  0.3347  0.0242 -0.5177
 2330SOL    HW118626   3.083   3.855   8.383  1.6893  0.7919  3.2035
 2330SOL    HW218627   3.080   3.715   8.415  0.2023 -0.1744  1.4651
 2331SOL     OW18628   2.827   0.332  17.734 -0.0934  0.2841 -0.3746
 2331SOL    HW118629   2.910   0.285  17.725 -0.1997  0.3868 -1.8887
 2331SOL    HW218630   2.771   0.254  17.735 -0.6653  0.7178  0.5304
 2332SOL     OW18631   3.412   0.628   5.453  0.2345  0.0856  0.5833
 2332SOL    HW118632   3.392   0.618   5.546  0.8915  1.9657  0.9329
 2332SOL    HW218633   3.494   0.582   5.437 -1.3893 -2.2989 -0.9189
 2333SOL     OW18634   4.066   3.657  15.081 -0.3237 -0.0534 -0.1674
 2333SOL    HW118635   4.058   3.717  15.154  0.6258 -0.2301  0.0745
 2333SOL    HW218636   4.036   3.579  15.127  3.2232 -1.6554 -0.5396
 2334SOL     OW18637   4.376   2.741   6.306 -0.7221  0.3634 -0.1737
 2334SOL    HW118638   4.441   2.701   6.363 -0.5651  0.0485 -0.5713
 2334SOL    HW218639   4.412   2.718   6.221 -0.5696  0.2379 -0.0754
 2335SOL     OW18640   3.057   4.163  10.000  0.2996  0.1244 -0.0253
 2335SOL    HW118641   3.147   4.184  10.024 -0.3811  1.7653  1.0642
 2335SOL    HW218642   3.029   4.091  10.057 -0.8626 -0.0819 -0.8458
 2336SOL     OW18643   4.604   4.349   7.311  0.0133 -0.0685  0.3225
 2336SOL    HW118644   4.643   4.279   7.258  1.8016  1.0989  0.0940
 2336SOL    HW218645   4.678   4.410   7.316  1.8632 -2.2668  0.1602
 2337SOL     OW18646   3.744   2.105   6.991  0.3712 -0.0551 -0.1859
 2337SOL    HW118647   3.824   2.057   7.008 -0.1354 -0.4829  1.0004
 2337SOL    HW218648   3.764   2.199   6.994  1.0689 -0.2046 -0.1655
 2338SOL     OW18649   0.826   3.985   8.554  0.3510 -0.0526 -0.3654
 2338SOL    HW118650   0.826   4.080   8.545 -0.3197  0.1229  1.4203
 2338SOL    HW218651   0.747   3.961   8.505 -0.0924 -1.1113  0.8390
 2339SOL     OW18652   1.827   2.896  11.216  0.2218  0.4247  0.1524
 2339SOL    HW118653   1.909   2.944  11.202  0.8596 -0.5292  0.6631
 2339SOL    HW218654   1.805   2.913  11.308 -0.1060 -1.6025  0.4603
 2340SOL     OW18655   2.443   3.863  12.138  0.4355 -0.3948  0.3265
 2340SOL    HW118656   2.377   3.910  12.086  1.5045 -0.0159 -0.6814
 2340SOL    HW218657   2.416   3.773  12.122 -1.3466  0.1358  0.2652
 2341SOL     OW18658   3.442   4.261   3.741 -0.1206  0.4387  0.0474
 2341SOL    HW118659   3.444   4.225   3.829  0.9391  0.3147 -0.0340
 2341SOL    HW218660   3.351   4.236   3.727  0.2676 -0.8143 -0.2099
 2342SOL     OW18661   1.609   2.649   3.693 -0.3584  0.0350 -0.1609
 2342SOL    HW118662   1.610   2.556   3.673  0.7893  0.0578 -0.2098
 2342SOL    HW218663   1.515   2.668   3.683 -0.0107  1.1519 -1.4280
 2343SOL     OW18664   2.670   3.239   3.268 -0.3433 -0.4451  0.6333
 2343SOL    HW118665   2.590   3.276   3.306 -1.1798 -0.5191 -1.0338
 2343SOL    HW218666   2.714   3.317   3.234 -0.3315  0.3394  2.4842
 2344SOL     OW18667   1.342   0.696   6.273  0.4925  0.3130 -0.0781
 2344SOL    HW118668   1.382   0.640   6.206 -1.0086 -0.9285  0.0479
 2344SOL    HW218669   1.250   0.714   6.251  0.5364  0.0572 -0.4612
 2345SOL     OW18670   1.689   2.785  15.994  0.2507  0.1431 -0.2829
 2345SOL    HW118671   1.661   2.826  15.912 -1.1903  1.7027  0.9995
 2345SOL    HW218672   1.699   2.694  15.968  0.0407 -0.5403  2.0451
 2346SOL     OW18673   3.557   4.541  14.480 -0.1642  0.0973  0.6903
 2346SOL    HW118674   3.520   4.470  14.532 -0.5606  0.0347  0.3175
 2346SOL    HW218675   3.637   4.563  14.529  0.4429  0.6036 -0.5222
 2347SOL     OW18676   4.194   1.045   6.163 -0.6854  0.4311 -0.8034
 2347SOL    HW118677   4.160   0.966   6.204 -2.2282  1.7855  0.5503
 2347SOL    HW218678   4.162   1.115   6.220  1.2980  0.3033  0.4569
 2348SOL     OW18679   2.002   1.067   4.646 -0.0121  0.0353 -0.2356
 2348SOL    HW118680   2.063   1.141   4.639  2.5989 -2.3364 -2.8362
 2348SOL    HW218681   1.993   1.039   4.555 -2.3075  0.8868 -0.2750
 2349SOL     OW18682   0.481   1.003   8.244 -0.0159 -0.5102 -0.3366
 2349SOL    HW118683   0.408   1.053   8.281  0.4878 -0.8033  1.0421
 2349SOL    HW218684   0.542   1.076   8.244 -0.7188  0.0816  1.5045
 2350SOL     OW18685   1.843   3.582  15.142 -0.2003  0.3850 -0.3550
 2350SOL    HW118686   1.899   3.507  15.125  0.0635  0.2599  1.0241
 2350SOL    HW218687   1.894   3.621  15.214 -1.1617 -0.5753  0.8411
 2351SOL     OW18688   0.360   2.446   8.666 -0.4166  0.5144 -0.0697
 2351SOL    HW118689   0.392   2.460   8.577  0.4276  1.5758  0.3979
 2351SOL    HW218690   0.265   2.444   8.657 -0.3903 -1.2553 -0.0870
 2352SOL     OW18691   4.534   1.469   5.726 -0.2332 -0.4108 -0.4794
 2352SOL    HW118692   4.443   1.459   5.697 -0.0354 -0.6267 -1.0363
 2352SOL    HW218693   4.529   1.445   5.819 -0.1489  1.0773 -0.0928
 2353SOL     OW18694   3.608   0.086   8.565 -0.1254  0.5940 -0.0802
 2353SOL    HW118695   3.685   0.105   8.619  0.4649  0.1177 -0.7594
 2353SOL    HW218696   3.651   0.080   8.480  2.5574 -0.6600  1.3795
 2354SOL     OW18697   3.380   3.940   1.698 -0.1686 -0.0912  0.1593
 2354SOL    HW118698   3.446   3.886   1.656  0.4877  1.2986 -0.6100
 2354SOL    HW218699   3.368   4.020   1.646  0.0205  1.2199  2.1406
 2355SOL     OW18700   1.537   0.957   3.558 -0.0473  0.5264 -0.3561
 2355SOL    HW118701   1.531   1.039   3.509  1.5764  1.4470  0.9921
 2355SOL    HW218702   1.449   0.918   3.552 -0.2767  1.5141 -3.4265
 2356SOL     OW18703   3.423   4.413  10.741 -0.4984 -0.2760 -0.2668
 2356SOL    HW118704   3.344   4.381  10.698 -1.7414  1.0903  1.0265
 2356SOL    HW218705   3.415   4.399  10.835  2.6234  0.8328  0.1578
 2357SOL     OW18706   1.060   4.400   7.445  0.3290 -0.3444 -0.0121
 2357SOL    HW118707   1.084   4.391   7.538  1.6111  0.5798 -0.2730
 2357SOL    HW218708   0.978   4.449   7.455  0.2586 -0.6525  0.9765
 2358SOL     OW18709   3.411   4.504   2.747  0.4066  0.6827 -0.1295
 2358SOL    HW118710   3.427   4.590   2.707 -2.6721  0.5303 -1.6912
 2358SOL    HW218711   3.331   4.484   2.699  0.8624 -2.8313  0.5656
 2359SOL     OW18712   4.714   0.029   1.320  0.4640  0.4293 -0.1230
 2359SOL    HW118713   4.699   0.085   1.243  1.8558 -0.1078 -0.7868
 2359SOL    HW218714   0.049   0.076   1.361  0.0878 -1.5042  2.7158
 2360SOL     OW18715   0.751   0.911   8.639 -0.0844  0.7891  0.3512
 2360SOL    HW118716   0.720   0.901   8.549 -1.8057 -1.5040  1.2095
 2360SOL    HW218717   0.748   1.006   8.647  0.7359  1.0179 -1.8785
 2361SOL     OW18718   1.184   4.324   3.993  0.2970 -0.0232 -0.1730
 2361SOL    HW118719   1.147   4.240   3.966  0.6755  0.0886 -1.0414
 2361SOL    HW218720   1.120   4.351   4.059 -1.6517 -1.1214 -1.6069
 2362SOL     OW18721   2.408   3.733   1.828  0.0658 -0.1914 -0.0761
 2362SOL    HW118722   2.483   3.731   1.887  0.6294 -0.8864 -0.8175
 2362SOL    HW218723   2.393   3.646   1.792 -0.6527 -1.2628  2.7531
 2363SOL     OW18724   0.111   0.497   9.061  0.7856 -0.4206  0.0521
 2363SOL    HW118725   0.053   0.540   9.124  1.6388 -1.3360  1.4687
 2363SOL    HW218726   0.148   0.576   9.021  0.9734 -0.8686 -0.6543
 2364SOL     OW18727   3.832   0.161   6.309  0.1818  0.5253 -0.7791
 2364SOL    HW118728   3.866   0.134   6.224  1.7466  1.9869 -0.6078
 2364SOL    HW218729   3.740   0.173   6.285  0.2080  2.4221  0.0165
 2365SOL     OW18730   1.326   3.778   5.167 -0.1358  0.0387  0.2006
 2365SOL    HW118731   1.281   3.856   5.200 -0.0789  1.3570 -2.8676
 2365SOL    HW218732   1.351   3.733   5.248  2.2208  0.2357 -0.4314
 2366SOL     OW18733   1.202   0.727   8.477 -0.6423 -0.7264 -0.0161
 2366SOL    HW118734   1.237   0.639   8.465 -0.5550 -0.7391  0.3490
 2366SOL    HW218735   1.274   0.775   8.517 -0.8068  0.4333 -1.1041
 2367SOL     OW18736   1.963   1.172   6.780 -0.0596  0.1589  0.3722
 2367SOL    HW118737   1.956   1.265   6.804 -2.1842 -0.2140  1.1898
 2367SOL    HW218738   1.915   1.163   6.699 -1.6838 -0.1103  1.3686
 2368SOL     OW18739   3.106   1.920   7.164  0.3472 -0.9951  0.2018
 2368SOL    HW118740   3.059   1.921   7.248 -3.1930 -0.2294 -1.7848
 2368SOL    HW218741   3.092   2.004   7.121 -1.2762 -1.2069  0.3017
 2369SOL     OW18742   4.669   1.492   3.051  0.3433  0.1303  0.2788
 2369SOL    HW118743   4.664   1.577   3.096  2.7869 -0.1762  1.1057
 2369SOL    HW218744   4.594   1.457   3.100 -0.9722 -1.2759 -2.7492
 2370SOL     OW18745   2.404   4.402  14.943  0.0559 -0.0832 -0.1405
 2370SOL    HW118746   2.356   4.403  15.026  0.6200 -3.9887  0.2243
 2370SOL    HW218747   2.354   4.472  14.901  2.7534  0.1218 -3.0427
 2371SOL     OW18748   3.236   2.850  17.449 -0.1000 -0.0994 -0.0510
 2371SOL    HW118749   3.271   2.934  17.478  0.5367 -0.0419 -0.9835
 2371SOL    HW218750   3.174   2.877  17.381 -1.0171  0.7242  1.1227
 2372SOL     OW18751   4.380   2.611   3.353 -0.5666  0.6066 -0.3729
 2372SOL    HW118752   4.312   2.544   3.355 -0.7862  0.9238  2.2390
 2372SOL    HW218753   4.454   2.550   3.349 -1.3363 -0.2666 -1.3462
 2373SOL     OW18754   4.566   4.407   7.995 -0.0875  0.0327 -0.4431
 2373SOL    HW118755   4.627   4.396   8.068 -3.1016 -0.8987  1.9386
 2373SOL    HW218756   4.484   4.391   8.042  0.5108  1.8653  1.2409
 2374SOL     OW18757   4.669   0.099   6.199  0.3550 -0.0446  0.1223
 2374SOL    HW118758   4.687   0.125   6.108  0.0342  1.5800  0.5251
 2374SOL    HW218759   4.676   0.005   6.186  2.8935  0.2339 -0.6170
 2375SOL     OW18760   0.636   0.310   3.395 -0.3356 -0.4762 -0.5455
 2375SOL    HW118761   0.668   0.399   3.380  0.7277 -0.5685  1.2044
 2375SOL    HW218762   0.720   0.275   3.425 -0.0763  0.1505 -0.5407
 2376SOL     OW18763   1.226   4.066   9.701  0.0341 -0.7423 -0.0846
 2376SOL    HW118764   1.208   4.122   9.777  2.6175 -0.2338  0.1534
 2376SOL    HW218765   1.196   4.115   9.625 -2.0975  0.6702  1.6449
 2377SOL     OW18766   2.486   1.542  15.867  0.2152  0.0766  0.6205
 2377SOL    HW118767   2.449   1.530  15.779 -0.1793 -1.8485  1.0470
 2377SOL    HW218768   2.449   1.465  15.910 -1.3606  0.0733 -0.7271
 2378SOL     OW18769   3.381   4.719   3.191 -0.3830  0.3714  0.6152
 2378SOL    HW118770   3.350   0.070   3.166  1.0681  1.1356  1.4704
 2378SOL    HW218771   3.299   4.673   3.175 -0.3795  0.0276  1.6289
 2379SOL     OW18772   2.265   1.635   8.697  0.3928 -0.0114  0.2217
 2379SOL    HW118773   2.185   1.598   8.661  1.0844 -0.2801 -1.0019
 2379SOL    HW218774   2.247   1.716   8.746  0.1800 -1.7228  2.9395
 2380SOL     OW18775   1.348   3.227   9.001  0.4438  0.4894 -0.1013
 2380SOL    HW118776   1.298   3.245   9.081 -0.5614 -1.2530 -0.3213
 2380SOL    HW218777   1.313   3.295   8.944  0.9181  0.4251 -0.4668
 2381SOL     OW18778   2.460   1.088   5.736 -0.1746  0.2957  0.2982
 2381SOL    HW118779   2.400   1.090   5.661  0.0176 -1.8174  0.0956
 2381SOL    HW218780   2.472   0.994   5.744 -0.2487  0.0617 -2.4394
 2382SOL     OW18781   3.508   2.321   5.515 -0.8121 -0.4762 -0.7362
 2382SOL    HW118782   3.493   2.266   5.439 -3.6962 -1.9440  0.8711
 2382SOL    HW218783   3.517   2.406   5.471  1.4008  0.5489  1.7167
 2383SOL     OW18784   3.557   2.531   6.879 -0.6088 -0.0583  0.1251
 2383SOL    HW118785   3.540   2.512   6.786  1.4016  0.6605 -0.3887
 2383SOL    HW218786   3.606   2.457   6.915 -0.3786 -0.9125 -1.9369
 2384SOL     OW18787   0.207   2.045   5.974  0.7760  0.0714  0.0411
 2384SOL    HW118788   0.245   2.133   5.979 -1.1794  0.9950 -1.1093
 2384SOL    HW218789   0.176   2.063   5.885 -1.3130 -1.3167  0.4883
 2385SOL     OW18790   2.622   3.220   6.677 -0.2964  0.5129  0.4918
 2385SOL    HW118791   2.698   3.264   6.715 -1.0154  1.6054  0.6457
 2385SOL    HW218792   2.580   3.281   6.617 -0.1757  1.0989  1.0073
 2386SOL     OW18793   3.328   0.933   8.570  0.0360  0.4604 -0.1229
 2386SOL    HW118794   3.403   0.990   8.553  1.1050 -1.1598 -0.8537
 2386SOL    HW218795   3.356   0.878   8.644  0.4781  1.8960  0.7794
 2387SOL     OW18796   3.776   1.717   0.528 -0.3197 -0.1886  0.0499
 2387SOL    HW118797   3.772   1.802   0.572 -0.7950  0.7669 -1.8527
 2387SOL    HW218798   3.797   1.654   0.598  0.5328  0.6659  0.5607
 2388SOL     OW18799   0.222   4.485   6.697  0.1922 -0.3338  0.5121
 2388SOL    HW118800   0.194   4.430   6.770  0.0482  0.7376  1.2627
 2388SOL    HW218801   0.165   4.556   6.726  2.4255  0.4295  3.1502
 2389SOL     OW18802   2.921   1.396   2.497 -0.0166 -0.1537  0.0277
 2389SOL    HW118803   2.884   1.480   2.526  1.6651  0.8211 -0.6127
 2389SOL    HW218804   2.987   1.433   2.438  0.3345 -3.2866 -1.5184
 2390SOL     OW18805   3.707   2.389   8.440  0.1418  0.2460  0.1444
 2390SOL    HW118806   3.656   2.417   8.515  1.4499 -0.1688  1.1982
 2390SOL    HW218807   3.792   2.433   8.449  0.4631 -0.6352  1.4775
 2391SOL     OW18808   1.716   3.875   9.128 -0.4065  0.2694 -0.3400
 2391SOL    HW118809   1.657   3.851   9.199 -0.8270 -0.6507 -0.9937
 2391SOL    HW218810   1.792   3.907   9.177  0.2656 -0.5306 -0.8591
 2392SOL     OW18811   2.132   3.839   1.795 -0.3851 -0.0266  0.0399
 2392SOL    HW118812   2.210   3.785   1.802 -0.0918  0.4055  0.1301
 2392SOL    HW218813   2.114   3.850   1.889  0.4536  2.3296 -0.0600
 2393SOL     OW18814   3.913   3.977   8.162  0.1317 -0.5439  0.0684
 2393SOL    HW118815   3.869   3.892   8.163  2.8142 -1.8719  2.3101
 2393SOL    HW218816   3.848   4.047   8.165  0.0645 -0.4903 -2.2233
 2394SOL     OW18817   2.517   1.971   3.750  0.2517 -0.3396  0.3486
 2394SOL    HW118818   2.554   2.052   3.785 -1.1846  0.5995 -0.3365
 2394SOL    HW218819   2.507   1.916   3.828 -2.9297  0.5100  0.5083
 2395SOL     OW18820   2.866   3.116   1.425  0.5660 -0.0139  0.2897
 2395SOL    HW118821   2.957   3.118   1.454  0.9402 -0.0853 -0.8857
 2395SOL    HW218822   2.821   3.122   1.509 -0.0616  0.5700 -0.0855
 2396SOL     OW18823   3.732   2.621   6.614  0.8910 -0.3445  0.5291
 2396SOL    HW118824   3.826   2.624   6.633  0.7663  1.4062  0.8446
 2396SOL    HW218825   3.695   2.690   6.668  0.9366  0.3140 -0.2688
 2397SOL     OW18826   4.615   2.833   8.529  0.1139 -0.7376  0.0729
 2397SOL    HW118827   4.595   2.917   8.571  2.7733  0.7045 -1.5386
 2397SOL    HW218828   4.708   2.821   8.545 -0.1517 -1.4801  1.0610
 2398SOL     OW18829   0.189   2.009   2.273  0.0933 -0.3969  0.2888
 2398SOL    HW118830   0.272   1.979   2.311 -0.2554  0.0810  1.4350
 2398SOL    HW218831   0.231   2.074   2.217 -1.1460  1.7391  1.8566
 2399SOL     OW18832   3.715   1.027   7.003  0.3347 -0.3119 -0.2615
 2399SOL    HW118833   3.699   1.076   7.083  2.9208  1.7268 -1.0224
 2399SOL    HW218834   3.629   0.990   6.980 -0.4358  0.8211  0.8451
 2400SOL     OW18835   1.519   0.606   2.596 -0.5333 -0.0580 -0.3153
 2400SOL    HW118836   1.463   0.533   2.569 -1.6724  1.1835 -1.2507
 2400SOL    HW218837   1.520   0.602   2.692 -0.5469  0.3532 -0.2992
 2401SOL     OW18838   1.884   3.126  15.221 -0.4777  0.6957 -0.3673
 2401SOL    HW118839   1.926   3.086  15.297  1.3432 -1.7211 -2.6169
 2401SOL    HW218840   1.950   3.182  15.178  0.0049 -0.5789 -1.2981
 2402SOL     OW18841   1.245   0.035   5.417  0.0443 -0.3655  0.3150
 2402SOL    HW118842   1.251   4.704   5.485  2.1625  0.0799  0.5778
 2402SOL    HW218843   1.326   0.027   5.367  1.0132 -0.9544  1.9618
 2403SOL     OW18844   1.838   3.252   5.662 -0.1543 -0.6111  0.2423
 2403SOL    HW118845   1.870   3.329   5.709 -0.3358  0.2493 -1.0552
 2403SOL    HW218846   1.919   3.217   5.625  0.2947  0.2316  0.4290
 2404SOL     OW18847   3.425   4.117   3.134  0.1028 -0.1493 -0.3485
 2404SOL    HW118848   3.452   4.208   3.144  0.4657 -0.4290  1.2366
 2404SOL    HW218849   3.477   4.065   3.196  1.5533  1.2921 -0.3597
 2405SOL     OW18850   0.241   2.394   2.667 -0.0728  0.1719 -0.0195
 2405SOL    HW118851   0.156   2.394   2.624 -0.6184 -4.3515  1.1063
 2405SOL    HW218852   0.256   2.300   2.669 -2.0976 -0.1858 -2.4257
 2406SOL     OW18853   0.383   4.167  16.603 -0.1973  0.4411  0.8056
 2406SOL    HW118854   0.383   4.213  16.519  2.3632  0.1520  0.6578
 2406SOL    HW218855   0.390   4.247  16.656  0.0595 -0.2816  1.8765
 2407SOL     OW18856   2.040   0.746   6.484 -0.3140 -0.4298  0.0682
 2407SOL    HW118857   2.125   0.791   6.481 -0.0250 -1.1486 -2.3586
 2407SOL    HW218858   2.048   0.684   6.412  0.0697  0.9431 -1.0738
 2408SOL     OW18859   0.074   3.542   4.825 -0.0981  0.1576  0.1491
 2408SOL    HW118860   0.030   3.491   4.893  0.6681 -0.8757 -0.1432
 2408SOL    HW218861   0.120   3.473   4.779  0.0893  0.6749 -0.4429
 2409SOL     OW18862   0.526   2.587  15.281 -0.1882  0.3536 -0.0245
 2409SOL    HW118863   0.621   2.582  15.294 -0.2355  0.3364  0.3104
 2409SOL    HW218864   0.509   2.672  15.321 -0.1031  0.3414  0.0380
 2410SOL     OW18865   1.042   0.217   8.139 -0.1054 -0.2631 -0.5821
 2410SOL    HW118866   1.019   0.302   8.177  1.1512 -0.1334 -0.1310
 2410SOL    HW218867   0.952   0.191   8.119 -0.0007 -1.6456  0.7246
 2411SOL     OW18868   3.233   0.201   5.778 -0.5426  0.7583  1.3749
 2411SOL    HW118869   3.210   0.289   5.749  2.8948  0.1381 -3.2300
 2411SOL    HW218870   3.169   0.197   5.849 -0.7408  0.6864  1.1942
 2412SOL     OW18871   0.992   1.757   8.592  0.1335 -0.1957 -0.2456
 2412SOL    HW118872   0.915   1.762   8.649 -0.2826  1.4060 -0.9291
 2412SOL    HW218873   0.958   1.773   8.503  0.2585  2.4301  0.1662
 2413SOL     OW18874   3.582   4.053   5.394  0.2147  0.0609 -0.4004
 2413SOL    HW118875   3.532   4.092   5.322 -1.5598 -2.1789 -0.3933
 2413SOL    HW218876   3.666   4.036   5.349  1.1787  1.8098  0.7616
 2414SOL     OW18877   3.329   4.276  10.193  0.0674  0.7173 -0.2434
 2414SOL    HW118878   3.313   4.183  10.177  0.0209  0.2412  2.5325
 2414SOL    HW218879   3.255   4.295  10.250  0.2840  2.1326 -0.4197
 2415SOL     OW18880   0.647   4.435   3.046 -0.3348 -0.2471 -0.9310
 2415SOL    HW118881   0.596   4.415   2.967 -0.5533  1.2544 -1.1597
 2415SOL    HW218882   0.696   4.510   3.014  1.6624 -0.7033  1.0759
 2416SOL     OW18883   2.164   4.128   3.454  0.0589 -0.2161 -0.7092
 2416SOL    HW118884   2.089   4.096   3.504  1.0125  2.1262  2.2415
 2416SOL    HW218885   2.143   4.092   3.368 -0.1566 -3.0693  0.5273
 2417SOL     OW18886   1.725   3.549   1.298  0.5539 -0.3873 -0.1604
 2417SOL    HW118887   1.794   3.502   1.251  0.0676 -0.4501 -0.8073
 2417SOL    HW218888   1.774   3.574   1.377  2.2864 -2.9405 -0.4279
 2418SOL     OW18889   2.511   2.412   2.059  0.2525  0.4748 -0.1391
 2418SOL    HW118890   2.473   2.485   2.011 -1.3651 -0.7120 -0.6608
 2418SOL    HW218891   2.575   2.448   2.121 -0.4839  0.0818  0.8531
 2419SOL     OW18892   1.264   3.496   1.463  0.0396  0.0314  0.1697
 2419SOL    HW118893   1.264   3.409   1.423  3.5339 -0.1160  0.4635
 2419SOL    HW218894   1.173   3.514   1.487 -0.1198 -1.3668  0.6165
 2420SOL     OW18895   1.765   4.506   1.051 -0.1834 -0.0165  0.1268
 2420SOL    HW118896   1.740   4.497   0.958  0.2688 -0.7353  0.0800
 2420SOL    HW218897   1.789   4.417   1.076 -0.9975 -0.7284 -1.6196
 2421SOL     OW18898   0.029   4.658  15.636 -0.2956  0.2741 -0.1180
 2421SOL    HW118899   0.038   4.623  15.725 -1.0684 -0.9127 -0.4999
 2421SOL    HW218900   0.072   0.006  15.645  1.8395 -1.0349  1.8394
 2422SOL     OW18901   2.237   3.544  15.578 -0.5854 -0.2329 -0.0671
 2422SOL    HW118902   2.267   3.623  15.533 -1.0183  0.4599  0.8475
 2422SOL    HW218903   2.314   3.529  15.633  0.1139  0.2826 -0.9022
 2423SOL     OW18904   1.999   1.505  14.022 -0.0719 -0.4871  0.6366
 2423SOL    HW118905   2.017   1.526  13.930 -0.0855  0.5703  0.8724
 2423SOL    HW218906   1.911   1.468  14.013 -1.0047  1.6297  0.9862
 2424SOL     OW18907   4.530   3.495  14.204  0.0358 -0.1452  0.2287
 2424SOL    HW118908   4.534   3.541  14.120  1.4600  1.0031  0.9205
 2424SOL    HW218909   4.569   3.409  14.190 -2.6216 -0.6243 -4.2553
 2425SOL     OW18910   4.495   3.399  15.744  0.1524  0.2264  0.5149
 2425SOL    HW118911   4.542   3.459  15.800 -0.7603  1.3110  0.1129
 2425SOL    HW218912   4.467   3.468  15.685  3.7380 -0.0812 -1.5614
 2426SOL     OW18913   0.454   3.889  16.592  0.2532 -0.4907  0.4521
 2426SOL    HW118914   0.545   3.914  16.576  0.5179 -2.1356 -0.6434
 2426SOL    HW218915   0.412   3.969  16.623 -1.4995 -0.3588 -2.2242
 2427SOL     OW18916   3.378   2.172   5.329 -0.5997 -0.3753 -0.6462
 2427SOL    HW118917   3.306   2.234   5.317 -1.0631 -0.4468  1.7243
 2427SOL    HW218918   3.326   2.094   5.350 -2.2193  0.8077 -0.3063
 2428SOL     OW18919   1.266   3.220   5.171  0.5269  0.0797  0.9818
 2428SOL    HW118920   1.237   3.129   5.169  0.3077  0.1555  0.6170
 2428SOL    HW218921   1.361   3.217   5.157  0.3818 -2.1076  0.4312
 2429SOL     OW18922   4.480   3.688  14.434 -0.3142 -0.5152  0.2589
 2429SOL    HW118923   4.478   3.657  14.344  0.7358  0.7094 -0.1830
 2429SOL    HW218924   4.488   3.783  14.426  0.2350 -0.5177  0.6963
 2430SOL     OW18925   0.169   0.841   8.039  0.7791 -0.3127 -0.6442
 2430SOL    HW118926   0.122   0.923   8.027 -0.2823 -0.9415 -0.7608
 2430SOL    HW218927   0.130   0.806   8.119 -0.0493  1.1792 -0.3969
 2431SOL     OW18928   4.417   2.577  14.394 -0.1806  0.3504 -0.4254
 2431SOL    HW118929   4.407   2.512  14.462 -0.1359 -0.1979 -0.9426
 2431SOL    HW218930   4.341   2.635  14.396  0.4570  1.2757 -2.5902
 2432SOL     OW18931   3.627   2.784   3.658 -0.1510  0.1642  0.0122
 2432SOL    HW118932   3.620   2.812   3.750  0.6263 -0.3310  0.2123
 2432SOL    HW218933   3.667   2.863   3.621  1.2057  1.2390  3.7258
 2433SOL     OW18934   1.744   1.087   0.381  0.3178  0.3910  0.4896
 2433SOL    HW118935   1.792   1.113   0.303 -2.3729  4.5002  0.1880
 2433SOL    HW218936   1.794   1.128   0.452 -0.1485  1.3767  0.2599
 2434SOL     OW18937   0.956   4.093   2.529 -0.2359  0.4685 -0.4595
 2434SOL    HW118938   1.037   4.133   2.496 -1.2346  0.5342 -2.8286
 2434SOL    HW218939   0.901   4.162   2.492  1.7776  2.8915  1.0328
 2435SOL     OW18940   0.259   1.765  16.856  0.2105  0.4452  0.2342
 2435SOL    HW118941   0.301   1.812  16.928 -1.3657  0.1393  1.3813
 2435SOL    HW218942   0.299   1.819  16.788  0.2003 -0.3060 -0.3600
 2436SOL     OW18943   0.306   1.761   5.167  0.0740 -0.3828 -0.2350
 2436SOL    HW118944   0.225   1.714   5.147  1.3751 -1.2370 -3.5299
 2436SOL    HW218945   0.336   1.711   5.243  2.1958  1.4636  0.1477
 2437SOL     OW18946   2.360   2.969  10.765 -0.0941  0.2079 -0.3738
 2437SOL    HW118947   2.324   3.058  10.767  0.5763  0.4819 -0.5516
 2437SOL    HW218948   2.278   2.919  10.759 -0.6148  0.8136  1.6379
 2438SOL     OW18949   3.151   3.695   2.850  0.1918  0.1432  0.4764
 2438SOL    HW118950   3.188   3.692   2.762 -1.0225  1.0148 -0.0681
 2438SOL    HW218951   3.092   3.770   2.842  0.6325  0.4316 -0.0559
 2439SOL     OW18952   0.251   0.002  14.117 -0.3808 -0.3713  0.2314
 2439SOL    HW118953   0.264   0.096  14.102  1.3559 -0.5818  0.4867
 2439SOL    HW218954   0.313   4.723  14.187 -0.0890  0.5690  0.1898
 2440SOL     OW18955   4.416   3.992   4.106 -0.5203  0.3202  0.2323
 2440SOL    HW118956   4.430   4.086   4.114 -1.5707  0.4152  1.0186
 2440SOL    HW218957   4.334   3.978   4.154  0.3404  1.5704  2.0504
 2441SOL     OW18958   2.501   3.068  15.742 -0.5758  0.5922  0.5350
 2441SOL    HW118959   2.517   2.981  15.780  2.0485  0.6949 -0.3123
 2441SOL    HW218960   2.587   3.110  15.744  0.5932 -1.7720  0.1084
 2442SOL     OW18961   0.351   3.048  17.246 -0.6429  0.2595 -0.6704
 2442SOL    HW118962   0.445   3.033  17.236 -0.2389  1.6966  0.8100
 2442SOL    HW218963   0.313   3.040  17.159 -1.2733  0.9440 -0.4648
 2443SOL     OW18964   1.986   0.678   5.079 -0.5008  0.0723  0.2193
 2443SOL    HW118965   2.014   0.588   5.094 -0.3796 -0.1235 -1.1855
 2443SOL    HW218966   2.067   0.725   5.098  0.2473 -1.5200  0.9626
 2444SOL     OW18967   1.348   3.414   6.376 -0.0662  1.3496 -0.0088
 2444SOL    HW118968   1.363   3.333   6.327 -2.6562 -0.0795  1.5523
 2444SOL    HW218969   1.253   3.417   6.391  0.0902  1.5442  0.9467
 2445SOL     OW18970   0.271   0.171   1.988  0.1025 -0.0399  0.1646
 2445SOL    HW118971   0.246   0.088   1.948 -0.3684  0.2857 -0.2115
 2445SOL    HW218972   0.190   0.217   1.968 -0.8693 -1.7526  0.1485
 2446SOL     OW18973   3.025   0.944   6.284 -0.4101  0.6337 -0.2793
 2446SOL    HW118974   2.983   0.865   6.251 -0.5884 -0.3152  2.2479
 2446SOL    HW218975   2.958   1.010   6.264 -2.1751 -0.8577  0.8007
 2447SOL     OW18976   4.666   3.687   6.823  0.0650 -0.4235 -0.2035
 2447SOL    HW118977   4.589   3.725   6.782  1.4297 -0.2618 -2.5945
 2447SOL    HW218978   4.641   3.669   6.914 -1.1725  0.8530 -0.2981
 2448SOL     OW18979   4.498   2.717   0.657 -0.1503  0.1805  0.2108
 2448SOL    HW118980   4.591   2.718   0.682 -1.1485  0.1133  3.8698
 2448SOL    HW218981   4.454   2.755   0.732 -0.1679 -1.5348  1.0699
 2449SOL     OW18982   1.112   4.219   6.384  0.2517  0.2573 -0.2220
 2449SOL    HW118983   1.077   4.293   6.433 -0.6603 -0.7699  0.6526
 2449SOL    HW218984   1.041   4.156   6.396  1.3667 -0.8002  0.7347
 2450SOL     OW18985   3.764   0.964  16.533  0.3372  0.3148 -0.1691
 2450SOL    HW118986   3.761   0.893  16.469 -1.5797  0.2795 -0.0483
 2450SOL    HW218987   3.671   0.970  16.555  0.5964 -0.1023  1.0407
 2451SOL     OW18988   4.108   1.703  13.802 -0.9680  0.0108 -0.3236
 2451SOL    HW118989   4.014   1.711  13.818 -0.4094  1.1811  2.3906
 2451SOL    HW218990   4.119   1.685  13.708 -0.8285  1.2352 -0.5486
 2452SOL     OW18991   1.370   3.208   1.856 -0.3258  0.6992  0.3953
 2452SOL    HW118992   1.307   3.279   1.856 -0.9998  0.0891 -3.4246
 2452SOL    HW218993   1.390   3.208   1.763 -1.8925  1.2768  0.0526
 2453SOL     OW18994   4.635   4.073   3.834  0.2676 -0.1314 -0.5204
 2453SOL    HW118995   4.599   4.161   3.831  1.3269  0.2561 -1.6490
 2453SOL    HW218996   4.718   4.082   3.788  1.0023  2.1632  1.2392
 2454SOL     OW18997   0.990   4.151  10.023 -0.0598 -0.0706 -0.2521
 2454SOL    HW118998   1.013   4.158   9.930 -0.6570  1.3393 -0.2864
 2454SOL    HW218999   1.071   4.184  10.062 -0.3504 -0.6684  0.8533
 2455SOL     OW19000   3.302   0.283   7.843 -0.1125  0.0456  0.0772
 2455SOL    HW119001   3.332   0.300   7.932 -0.5024  0.3089  0.1557
 2455SOL    HW219002   3.222   0.231   7.855  0.5744 -1.1771 -0.5938
 2456SOL     OW19003   3.569   3.638   1.859 -0.2014 -0.4278 -0.1366
 2456SOL    HW119004   3.580   3.692   1.938 -0.5816 -1.5301  0.6767
 2456SOL    HW219005   3.490   3.588   1.880  2.0423 -4.0617 -0.4586
 2457SOL     OW19006   3.970   1.113   6.541  0.0048 -0.0347  0.0132
 2457SOL    HW119007   3.939   1.049   6.477 -0.2400 -0.9329  1.0361
 2457SOL    HW219008   3.908   1.121   6.614 -1.5496 -0.6382 -1.2337
 2458SOL     OW19009   2.271   3.776  13.015 -0.3072  0.3673  0.1853
 2458SOL    HW119010   2.250   3.869  13.021  0.1467  0.5073 -0.4636
 2458SOL    HW219011   2.199   3.737  13.064  0.6706  0.2505  1.5394
 2459SOL     OW19012   2.177   2.916   4.095 -0.7061 -0.4401  0.0338
 2459SOL    HW119013   2.132   2.891   4.014 -3.0049  0.9953  0.8795
 2459SOL    HW219014   2.245   2.979   4.073 -4.4018  3.1019 -1.0579
 2460SOL     OW19015   4.506   1.858   7.972  0.1377  0.4502 -0.0876
 2460SOL    HW119016   4.568   1.789   7.947 -1.6327 -1.0822 -0.2184
 2460SOL    HW219017   4.486   1.910   7.894 -1.6040 -1.0648 -0.6559
 2461SOL     OW19018   3.856   3.120   6.406  0.1617  0.2699 -0.6557
 2461SOL    HW119019   3.796   3.097   6.335 -0.7543  1.0923 -0.1452
 2461SOL    HW219020   3.826   3.204   6.439 -0.8539  0.0648 -1.0622
 2462SOL     OW19021   2.005   3.175   3.198 -0.0899 -0.3845 -0.4917
 2462SOL    HW119022   2.090   3.207   3.226  0.8346 -2.4990 -0.8333
 2462SOL    HW219023   2.011   3.080   3.211  0.1871 -0.4755 -1.2750
 2463SOL     OW19024   4.299   2.327   7.900  0.6404 -0.2325  0.1613
 2463SOL    HW119025   4.332   2.254   7.848  1.2280  0.5321 -0.5310
 2463SOL    HW219026   4.238   2.371   7.841  0.6583 -2.9108 -1.8598
 2464SOL     OW19027   3.352   0.893  16.963  0.2453 -0.2501  0.0748
 2464SOL    HW119028   3.386   0.853  17.043 -2.1328 -1.1625  0.6403
 2464SOL    HW219029   3.363   0.984  16.990  1.3182 -0.4636  0.3623
 2465SOL     OW19030   1.335   2.722   3.727 -0.3437  0.3035 -0.1888
 2465SOL    HW119031   1.247   2.684   3.724 -0.2483  0.2731 -2.6800
 2465SOL    HW219032   1.317   2.816   3.719 -1.4669 -0.0504 -1.8621
 2466SOL     OW19033   0.248   0.109  14.607 -0.5685 -0.5952 -0.4407
 2466SOL    HW119034   0.210   0.075  14.688 -0.0747  2.3231  1.0078
 2466SOL    HW219035   0.172   0.142  14.558 -2.6697  0.3559  3.4670
 2467SOL     OW19036   3.307   2.472   5.947 -0.2000 -0.4791 -0.3964
 2467SOL    HW119037   3.294   2.475   6.042 -1.0273  0.3210 -0.5331
 2467SOL    HW219038   3.310   2.376   5.936 -0.5738 -0.6941  1.4364
 2468SOL     OW19039   2.426   2.018  10.724  0.1973  0.3019  0.9366
 2468SOL    HW119040   2.482   1.951  10.764 -0.9609 -0.1191  1.8757
 2468SOL    HW219041   2.494   2.085  10.720 -1.6089  2.1987  2.0228
 2469SOL     OW19042   1.410   2.913  11.399 -0.6405  0.1899 -0.5449
 2469SOL    HW119043   1.472   2.934  11.328 -0.8671  0.1807 -0.7458
 2469SOL    HW219044   1.422   2.982  11.464  0.4096 -0.6977  0.2138
 2470SOL     OW19045   2.349   2.977  16.558 -0.7133 -0.0629  0.4890
 2470SOL    HW119046   2.414   2.909  16.576 -3.8338 -2.6499  2.0389
 2470SOL    HW219047   2.376   3.007  16.471  1.3413 -1.1756  0.7273
 2471SOL     OW19048   2.742   1.733   0.522  0.1785  0.1789 -0.2842
 2471SOL    HW119049   2.731   1.639   0.539  0.5320 -0.0426 -1.2585
 2471SOL    HW219050   2.652   1.742   0.489  0.0330 -2.6368 -0.7035
 2472SOL     OW19051   1.728   1.692   3.831  0.2976  0.2934  0.0736
 2472SOL    HW119052   1.797   1.757   3.847  1.9558 -1.2088 -1.0513
 2472SOL    HW219053   1.771   1.607   3.834  0.1918  0.2136 -0.8095
 2473SOL     OW19054   2.296   3.722   7.730 -0.2126 -0.3048 -0.4326
 2473SOL    HW119055   2.309   3.804   7.777 -0.5552 -0.1366 -0.6306
 2473SOL    HW219056   2.212   3.736   7.686  0.6075 -1.2706 -2.2996
 2474SOL     OW19057   0.327   2.444   2.339 -0.2091 -0.4733  0.3603
 2474SOL    HW119058   0.242   2.400   2.337  0.1763 -1.1575 -2.0756
 2474SOL    HW219059   0.319   2.504   2.264  0.5936  0.5984  1.1452
 2475SOL     OW19060   0.596   3.123  15.234  0.0709  0.0141 -0.8372
 2475SOL    HW119061   0.535   3.194  15.213 -0.4488 -0.0700  0.3387
 2475SOL    HW219062   0.673   3.169  15.266 -0.5916 -0.7558  1.8827
 2476SOL     OW19063   2.094   2.246   1.171  0.3085  0.3901 -0.5167
 2476SOL    HW119064   2.155   2.268   1.100  0.3808  1.6992 -0.0386
 2476SOL    HW219065   2.146   2.283   1.242 -0.3618  0.4134 -0.0482
 2477SOL     OW19066   4.578   0.506  14.699 -0.0089 -0.2386 -0.3741
 2477SOL    HW119067   4.578   0.579  14.636 -1.7447 -1.2532 -1.5337
 2477SOL    HW219068   4.485   0.485  14.705  0.0186 -0.6574 -1.4237
 2478SOL     OW19069   3.036   0.390   4.411 -0.3333  0.5409 -0.0157
 2478SOL    HW119070   3.003   0.479   4.397  0.5223  0.3707 -3.1558
 2478SOL    HW219071   3.112   0.383   4.353 -0.3892  1.5872 -0.2238
 2479SOL     OW19072   4.015   4.486  12.635  0.0533 -0.5037 -0.0324
 2479SOL    HW119073   3.969   4.402  12.633 -2.3890  0.8646 -0.4042
 2479SOL    HW219074   4.070   4.487  12.714 -1.6095 -0.2118  1.1257
 2480SOL     OW19075   4.414   0.816  14.844  0.6758  0.1391  0.5892
 2480SOL    HW119076   4.436   0.833  14.752 -0.8773 -1.2916 -0.0546
 2480SOL    HW219077   4.498   0.779  14.871  0.4985 -0.2718  0.5887
 2481SOL     OW19078   3.360   0.334  11.767  0.0658 -0.1045 -0.0752
 2481SOL    HW119079   3.435   0.375  11.810  1.1128 -0.8756 -1.1861
 2481SOL    HW219080   3.409   0.253  11.753 -1.3103 -1.2960  1.9554
 2482SOL     OW19081   0.081   4.657   4.695  0.4593  0.5636  0.1002
 2482SOL    HW119082   0.145   4.720   4.662  1.7920 -0.9292 -0.1519
 2482SOL    HW219083   0.002   4.710   4.689 -0.3401 -0.5189  1.0505
 2483SOL     OW19084   0.986   1.473   1.843 -0.0510  0.2784  0.2654
 2483SOL    HW119085   0.988   1.413   1.918  0.2705 -1.3902 -1.0971
 2483SOL    HW219086   0.987   1.410   1.771  1.4452  1.3987 -0.6811
 2484SOL     OW19087   0.278   3.494   0.200  0.5716 -0.0333  0.0221
 2484SOL    HW119088   0.283   3.470   0.292 -2.0347 -0.7390 -0.0035
 2484SOL    HW219089   0.289   3.589   0.204  0.5864 -0.1119  1.6509
 2485SOL     OW19090   2.900   0.950   3.865  0.3743  0.3747  0.5730
 2485SOL    HW119091   2.887   0.856   3.878 -1.2688  0.7973  2.0519
 2485SOL    HW219092   2.814   0.990   3.878 -0.6768 -2.0608  1.1876
 2486SOL     OW19093   3.893   2.990   5.506 -0.0179 -0.1864 -0.2130
 2486SOL    HW119094   3.928   2.988   5.417  1.9598 -0.8833  0.5918
 2486SOL    HW219095   3.798   2.989   5.494 -0.1404 -1.0080  0.7741
 2487SOL     OW19096   1.352   2.870   1.773  0.3377  0.0778 -0.1318
 2487SOL    HW119097   1.320   2.835   1.690 -0.4097  0.9281 -0.2128
 2487SOL    HW219098   1.279   2.925   1.804  0.4219 -0.5430  1.1609
 2488SOL     OW19099   4.370   4.534  13.157  0.3211  0.5696  0.3272
 2488SOL    HW119100   4.293   4.590  13.163  0.2030  0.4073  0.2966
 2488SOL    HW219101   4.409   4.551  13.071 -0.7159  0.4741 -0.1601
 2489SOL     OW19102   4.665   3.559   2.688  0.2339 -0.4561  0.4422
 2489SOL    HW119103   4.681   3.581   2.780  3.2067  0.4373 -0.2792
 2489SOL    HW219104   4.571   3.539   2.692 -0.1415  1.4580  1.1336
 2490SOL     OW19105   0.917   0.473   8.209 -0.0300  0.0173 -0.2682
 2490SOL    HW119106   0.922   0.494   8.303  1.9484  2.1828 -0.8676
 2490SOL    HW219107   0.823   0.455   8.199 -0.2167 -0.2216  1.7868
 2491SOL     OW19108   3.765   3.462  11.551  0.8604 -0.1313  0.0467
 2491SOL    HW119109   3.749   3.374  11.584 -0.3171 -0.1849 -0.6788
 2491SOL    HW219110   3.785   3.510  11.631 -0.5755 -1.0905  0.9711
 2492SOL     OW19111   3.477   2.069  15.676  0.2647  0.8038  0.0701
 2492SOL    HW119112   3.543   2.054  15.745  0.9327  1.6641 -0.3878
 2492SOL    HW219113   3.540   2.103  15.612  1.5444 -1.8738 -0.1098
 2493SOL     OW19114   4.043   4.605   3.318  0.3266  0.6100 -0.4597
 2493SOL    HW119115   4.110   4.539   3.332  1.6023  1.8897 -0.5193
 2493SOL    HW219116   4.087   4.680   3.276 -1.3747  1.4209 -0.8036
 2494SOL     OW19117   1.524   1.201   4.270 -0.0696 -0.1702 -0.0969
 2494SOL    HW119118   1.617   1.178   4.275 -0.4090 -1.0503  2.5671
 2494SOL    HW219119   1.493   1.195   4.361 -0.6948 -1.5029 -0.4040
 2495SOL     OW19120   1.094   4.226   5.460 -0.4276  0.7387 -0.1634
 2495SOL    HW119121   1.107   4.225   5.365  0.1969 -0.0827 -0.0735
 2495SOL    HW219122   1.066   4.316   5.479 -2.1292  0.3640 -0.8752
 2496SOL     OW19123   3.237   4.142  10.949 -0.1386 -0.3015  0.2203
 2496SOL    HW119124   3.308   4.206  10.954 -1.8674  1.5957  0.1876
 2496SOL    HW219125   3.289   4.068  10.916 -0.1205  0.4546 -1.4535
 2497SOL     OW19126   4.594   3.709   6.257  0.3695 -0.5053  0.2290
 2497SOL    HW119127   4.557   3.686   6.171  1.4745  1.2277 -0.7086
 2497SOL    HW219128   4.629   3.794   6.233 -2.0484  0.6117  0.6358
 2498SOL     OW19129   1.656   4.443   7.778  0.2966 -0.4754  0.0649
 2498SOL    HW119130   1.655   4.536   7.801 -0.0539 -0.5347  0.2835
 2498SOL    HW219131   1.744   4.407   7.792  0.6259 -0.4363 -1.9585
 2499SOL     OW19132   3.839   0.731   6.628 -0.2550 -0.3603 -0.3150
 2499SOL    HW119133   3.854   0.649   6.675  0.1448  0.6568  1.3574
 2499SOL    HW219134   3.754   0.753   6.666  0.4744  1.2764  0.3677
 2500SOL     OW19135   4.566   1.924   0.730 -0.5569 -0.1074  0.0718
 2500SOL    HW119136   4.612   1.850   0.771  1.4565  1.1967  0.1629
 2500SOL    HW219137   4.519   1.959   0.806 -0.5773 -0.4417  0.2156
 2501SOL     OW19138   3.078   4.023   6.134 -0.4429 -0.3867  0.2161
 2501SOL    HW119139   3.143   4.092   6.147  0.0807 -1.3368  2.7037
 2501SOL    HW219140   3.017   4.064   6.072  0.5312 -2.2682 -1.9601
 2502SOL     OW19141   0.986   2.445  12.608 -0.4674 -0.3500  0.5463
 2502SOL    HW119142   1.068   2.472  12.568  0.4766  0.5303  3.0479
 2502SOL    HW219143   0.929   2.509  12.566 -0.7744 -0.3476  0.9617
 2503SOL     OW19144   1.930   4.495  11.186  0.1969  0.4166 -0.5643
 2503SOL    HW119145   1.910   4.416  11.134 -1.6099 -0.2630  1.1401
 2503SOL    HW219146   1.903   4.471  11.275  1.8543 -0.2762 -0.2365
 2504SOL     OW19147   4.262   4.167   5.392 -0.6739  0.2260  0.5466
 2504SOL    HW119148   4.205   4.218   5.335  0.0006  0.2104 -0.1440
 2504SOL    HW219149   4.345   4.165   5.344 -1.1397  3.3414 -0.3859
 2505SOL     OW19150   0.614   2.551  11.849 -0.5695 -0.6430  0.4247
 2505SOL    HW119151   0.569   2.588  11.926 -0.8880 -0.8454  0.3381
 2505SOL    HW219152   0.536   2.548  11.793  0.5173 -0.7216 -1.0604
 2506SOL     OW19153   2.725   1.951  15.002  0.1836 -0.0945 -0.8269
 2506SOL    HW119154   2.746   1.966  14.910 -1.2862  0.5227 -1.0590
 2506SOL    HW219155   2.656   1.890  14.978  0.1927 -0.0970 -0.8468
 2507SOL     OW19156   2.305   3.368   8.576  0.4282  0.1671 -0.2265
 2507SOL    HW119157   2.370   3.437   8.590  0.3144  0.0458  0.8822
 2507SOL    HW219158   2.249   3.409   8.510  0.5746 -0.9614 -1.0568
 2508SOL     OW19159   1.241   3.558  10.587  0.3672 -0.1668  0.1451
 2508SOL    HW119160   1.224   3.632  10.645 -0.6615 -0.6981  0.5302
 2508SOL    HW219161   1.224   3.487  10.649 -2.8804  0.6519  0.2007
 2509SOL     OW19162   4.700   3.911  11.258  0.0098 -0.1118 -0.0431
 2509SOL    HW119163   0.022   3.923  11.333 -0.8360  2.1725  0.2519
 2509SOL    HW219164   0.025   3.886  11.189 -1.7033 -0.9089 -1.2545
 2510SOL     OW19165   1.634   2.050  10.645  0.4559  0.3013  0.5221
 2510SOL    HW119166   1.562   2.086  10.697 -0.2054 -1.1257  0.5910
 2510SOL    HW219167   1.627   2.120  10.580  1.3255  0.3901  0.5164
 2511SOL     OW19168   0.487   3.862   3.910 -0.1223  0.0846 -0.1481
 2511SOL    HW119169   0.439   3.848   3.992  1.5195 -2.4689  0.3639
 2511SOL    HW219170   0.538   3.782   3.895 -0.2497  0.0412 -0.3491
 2512SOL     OW19171   4.313   0.037  16.420  0.0110  0.1473  0.1127
 2512SOL    HW119172   4.251   4.701  16.415  0.6923 -0.2951 -1.7444
 2512SOL    HW219173   4.264   0.112  16.386 -2.4111 -0.5720  1.9441
 2513SOL     OW19174   1.262   3.513   7.171 -0.1895  0.4347 -0.1458
 2513SOL    HW119175   1.339   3.541   7.120  0.6523 -1.5600 -0.0031
 2513SOL    HW219176   1.290   3.521   7.262 -1.2436  1.5203  0.0659
 2514SOL     OW19177   3.151   1.355   3.403  0.4678  0.1805  0.1739
 2514SOL    HW119178   3.110   1.423   3.456 -1.6306 -0.8285 -0.1250
 2514SOL    HW219179   3.215   1.401   3.349  0.8642 -1.1675 -0.5196
 2515SOL     OW19180   1.487   4.554  16.860 -0.3335 -0.0393  0.2606
 2515SOL    HW119181   1.482   4.523  16.769  0.0144 -3.9151  1.5294
 2515SOL    HW219182   1.511   4.646  16.859  0.7394 -0.3050  1.3011
 2516SOL     OW19183   0.808   4.166  16.113 -0.0472 -0.1558  0.7366
 2516SOL    HW119184   0.904   4.172  16.113  0.0867 -2.2621 -1.6138
 2516SOL    HW219185   0.787   4.151  16.204  0.4501 -3.1744  0.3448
 2517SOL     OW19186   0.321   0.551   2.162 -0.6230 -0.1395  0.2329
 2517SOL    HW119187   0.278   0.554   2.077 -1.2163  1.3291  0.5805
 2517SOL    HW219188   0.380   0.627   2.159  0.4616 -0.9852  0.4502
 2518SOL     OW19189   1.681   2.342   5.826 -0.3236 -0.0119  0.6607
 2518SOL    HW119190   1.719   2.430   5.829  0.2077 -0.2282  0.1201
 2518SOL    HW219191   1.622   2.347   5.751 -0.3498  1.8047  0.7852
 2519SOL     OW19192   0.003   0.559   8.421  0.0728  0.4024  0.2482
 2519SOL    HW119193   4.673   0.598   8.477 -1.0437 -1.3118  0.1376
 2519SOL    HW219194   0.005   0.465   8.436  1.0284  0.5697  1.1750
 2520SOL     OW19195   0.194   0.721   3.884 -0.6022  0.7632  0.0260
 2520SOL    HW119196   0.221   0.753   3.970  0.4730 -0.4252  0.1360
 2520SOL    HW219197   0.174   0.629   3.904  0.9523  0.3951 -0.0973
 2521SOL     OW19198   4.010   1.896   7.273  0.2964 -0.0821 -0.7544
 2521SOL    HW119199   3.921   1.861   7.276  0.9093 -1.4813  1.2779
 2521SOL    HW219200   4.046   1.807   7.283 -2.7951 -1.1652  0.7027
 2522SOL     OW19201   4.560   1.510   2.807  0.8609  0.1287 -0.6122
 2522SOL    HW119202   4.608   1.431   2.781  0.0487 -0.2426 -0.9811
 2522SOL    HW219203   4.595   1.533   2.893  0.6255  0.8104 -0.6987
 2523SOL     OW19204   1.070   0.022   2.296 -0.1178 -0.0201 -0.1370
 2523SOL    HW119205   0.982   0.043   2.328 -0.3305  0.3102 -0.9303
 2523SOL    HW219206   1.120   4.720   2.367  0.8542  2.7103  0.6679
 2524SOL     OW19207   1.398   3.673   4.150 -0.3543 -0.0985 -0.2894
 2524SOL    HW119208   1.367   3.583   4.156  1.4408 -0.6244  1.2847
 2524SOL    HW219209   1.320   3.722   4.125 -0.7555  0.3725  1.8455
 2525SOL     OW19210   1.468   1.493   4.976  0.0843  0.4217 -0.1970
 2525SOL    HW119211   1.420   1.422   5.019 -1.7898  2.0105  0.3193
 2525SOL    HW219212   1.473   1.463   4.885 -1.5867 -0.0262 -0.1280
 2526SOL     OW19213   4.431   1.006  12.544 -0.2856 -0.1336  0.0929
 2526SOL    HW119214   4.391   1.087  12.577  0.6573  0.8845 -1.2888
 2526SOL    HW219215   4.361   0.946  12.571 -3.2327  3.2791  0.1124
 2527SOL     OW19216   0.831   4.222   8.784  0.4534  0.9251 -0.0586
 2527SOL    HW119217   0.859   4.235   8.693  2.1798 -3.9492 -0.1920
 2527SOL    HW219218   0.763   4.155   8.781  1.6356 -0.3130  0.8462
 2528SOL     OW19219   0.116   1.554   5.175 -0.2645  0.2010 -0.3558
 2528SOL    HW119220   0.038   1.518   5.218 -0.3969  1.0508  0.1241
 2528SOL    HW219221   0.069   1.601   5.106  1.1019  1.0638 -0.6858
 2529SOL     OW19222   4.182   3.886   4.241  0.4812 -0.6277 -0.2449
 2529SOL    HW119223   4.130   3.856   4.316 -0.8720 -0.1120 -0.9811
 2529SOL    HW219224   4.264   3.837   4.238 -0.6998 -2.6150  0.5572
 2530SOL     OW19225   4.278   1.090   2.413 -0.1474 -0.5006 -0.4757
 2530SOL    HW119226   4.306   1.071   2.323  1.0045  0.2575 -0.2650
 2530SOL    HW219227   4.357   1.136   2.442 -1.3153  2.3396 -1.8267
 2531SOL     OW19228   2.796   1.888   3.094 -0.0631  0.8817  0.4249
 2531SOL    HW119229   2.731   1.851   3.154  0.0408  1.7363  1.0727
 2531SOL    HW219230   2.856   1.931   3.155 -0.7478  0.1660  1.6135
 2532SOL     OW19231   2.842   2.489   2.005 -0.8863  0.1680 -0.4300
 2532SOL    HW119232   2.852   2.429   2.078 -2.0175 -0.9348 -1.1884
 2532SOL    HW219233   2.822   2.431   1.932 -0.6392 -0.4567  0.0038
 2533SOL     OW19234   4.478   0.305   5.338 -0.1868 -0.1574  0.2159
 2533SOL    HW119235   4.407   0.307   5.401  0.7298  2.1017  1.1887
 2533SOL    HW219236   4.532   0.232   5.366  1.9966  1.0620 -0.7934
 2534SOL     OW19237   1.786   4.043   4.298  0.2919 -0.0736 -0.3093
 2534SOL    HW119238   1.728   4.039   4.373  1.3095 -0.5436  0.4436
 2534SOL    HW219239   1.864   3.996   4.327  0.1779  0.8557  1.4657
 2535SOL     OW19240   0.184   4.202  13.347  0.0519 -0.4139  0.4254
 2535SOL    HW119241   0.137   4.198  13.430  1.1542 -0.8180  1.0412
 2535SOL    HW219242   0.227   4.286  13.362  0.2693 -0.6171  0.9360
 2536SOL     OW19243   1.743   2.350   7.776  0.0851  0.3796 -0.4044
 2536SOL    HW119244   1.694   2.277   7.737 -0.7981  0.7254  0.0669
 2536SOL    HW219245   1.751   2.413   7.705  0.5020  0.1427 -0.5704
 2537SOL     OW19246   3.920   1.325   2.788 -0.3653  0.5174  0.2228
 2537SOL    HW119247   4.014   1.310   2.790 -0.1170  1.6874 -2.7280
 2537SOL    HW219248   3.901   1.372   2.706  2.7589 -0.4005 -1.0224
 2538SOL     OW19249   1.085   2.180  16.302  0.6980 -0.0625 -0.2102
 2538SOL    HW119250   0.995   2.210  16.291  0.5142 -0.1926  0.9688
 2538SOL    HW219251   1.090   2.118  16.228  0.8026  0.1201 -0.3562
 2539SOL     OW19252   3.781   0.502   6.838 -0.0642 -0.1231 -0.4942
 2539SOL    HW119253   3.756   0.590   6.868 -0.8683 -0.9718  1.2939
 2539SOL    HW219254   3.720   0.438   6.875  0.4907 -0.3593  0.0101
 2540SOL     OW19255   1.498   0.079   1.689  0.3112 -0.5445  0.1301
 2540SOL    HW119256   1.593   0.081   1.693  0.3139 -0.9740  0.2945
 2540SOL    HW219257   1.488   0.119   1.602  0.6433 -2.4896 -0.8138
 2541SOL     OW19258   2.663   2.746   6.533  0.0071 -0.1792 -0.3145
 2541SOL    HW119259   2.581   2.701   6.550 -1.4037  1.9528 -1.4497
 2541SOL    HW219260   2.645   2.835   6.563  2.1422  0.1560 -0.0227
 2542SOL     OW19261   1.786   0.381  10.057  0.0528  0.2371 -0.1120
 2542SOL    HW119262   1.799   0.447  10.125 -2.0287  1.0335 -0.4903
 2542SOL    HW219263   1.872   0.339  10.060 -1.0852 -2.2773 -2.4761
 2543SOL     OW19264   1.634   3.356  12.777 -0.1520  0.0017  0.6877
 2543SOL    HW119265   1.581   3.291  12.732 -0.1408 -1.0379  2.1761
 2543SOL    HW219266   1.713   3.350  12.724 -1.3168 -2.0362 -0.8294
 2544SOL     OW19267   3.442   2.676   4.910  0.2726 -0.6258 -0.1727
 2544SOL    HW119268   3.428   2.632   4.995 -1.5514  0.8972  0.3100
 2544SOL    HW219269   3.394   2.753   4.938 -0.7746 -0.8015 -1.4984
 2545SOL     OW19270   4.549   4.274   4.615 -0.4764 -0.4988 -0.3731
 2545SOL    HW119271   4.537   4.199   4.674 -1.7644 -0.2627 -0.3254
 2545SOL    HW219272   4.587   4.334   4.679  0.0005  0.3873 -1.4932
 2546SOL     OW19273   0.112   4.275   9.330 -0.3208 -0.3746  0.0586
 2546SOL    HW119274   0.062   4.354   9.312 -2.1417 -1.6527 -0.4488
 2546SOL    HW219275   0.105   4.227   9.247  2.3915  0.2012 -0.5185
 2547SOL     OW19276   3.267   1.993   6.032 -0.7165 -0.1454 -0.1828
 2547SOL    HW119277   3.357   2.022   6.049 -0.0169 -1.6173 -1.4578
 2547SOL    HW219278   3.217   2.075   6.029 -1.4044 -0.5153  1.0285
 2548SOL     OW19279   1.809   2.028   7.850  0.3085 -0.0316  0.1367
 2548SOL    HW119280   1.858   2.104   7.881  3.0547 -1.8073  0.0801
 2548SOL    HW219281   1.782   2.067   7.767 -1.3916  0.4489  0.9223
 2549SOL     OW19282   1.647   3.548  10.450  0.2240 -0.1752 -0.2495
 2549SOL    HW119283   1.694   3.555  10.533 -1.1548  1.3987  0.3843
 2549SOL    HW219284   1.712   3.506  10.394  0.7746  1.2072 -0.6501
 2550SOL     OW19285   1.721   1.017  13.413  0.5535  0.4123 -0.3404
 2550SOL    HW119286   1.642   1.043  13.366  1.7302  0.0475 -2.5065
 2550SOL    HW219287   1.685   1.027  13.501  2.0209 -1.7565  0.5169
 2551SOL     OW19288   2.675   0.152   1.712 -0.0995 -0.1453  0.2792
 2551SOL    HW119289   2.673   0.196   1.627  0.9578  0.7592  0.7190
 2551SOL    HW219290   2.733   0.083   1.680 -1.3960 -0.4259 -1.4320
 2552SOL     OW19291   3.492   3.269   6.006  0.7712 -0.6742  0.7363
 2552SOL    HW119292   3.496   3.173   5.999  0.7440 -0.5594 -0.7611
 2552SOL    HW219293   3.583   3.298   6.007  0.0882  1.4707 -0.1109
 2553SOL     OW19294   4.179   2.949   1.364  0.5112  0.0788  0.6171
 2553SOL    HW119295   4.165   2.966   1.458  0.4512  1.5502  0.3384
 2553SOL    HW219296   4.140   3.031   1.335 -0.8140 -0.2138  1.5373
 2554SOL     OW19297   2.784   1.364   6.606  0.1474  0.2252  0.0707
 2554SOL    HW119298   2.875   1.370   6.577  0.2656 -0.8300  0.2049
 2554SOL    HW219299   2.778   1.273   6.576 -2.4523  1.1780 -2.2392
 2555SOL     OW19300   2.946   3.598   2.640 -0.3545  0.6204 -0.5348
 2555SOL    HW119301   2.937   3.538   2.714  1.4209  0.7511 -0.2059
 2555SOL    HW219302   2.875   3.660   2.656 -1.0556 -0.0571 -1.0330
 2556SOL     OW19303   0.980   2.407   4.576  0.5287  0.2263 -0.9221
 2556SOL    HW119304   0.932   2.483   4.544  0.8641  0.7959 -0.0646
 2556SOL    HW219305   0.924   2.332   4.556 -1.4125  1.5921 -0.4822
 2557SOL     OW19306   3.872   3.042   2.452  0.2692  0.3703  0.0036
 2557SOL    HW119307   3.951   2.994   2.426 -0.1524 -1.7510  2.6279
 2557SOL    HW219308   3.811   3.042   2.379 -2.4269 -0.8757  2.2340
 2558SOL     OW19309   4.650   3.652  11.583 -0.7216  0.2501  0.3056
 2558SOL    HW119310   4.663   3.725  11.644 -1.8727  1.1903 -0.5734
 2558SOL    HW219311   4.568   3.617  11.617  0.2803 -1.4739  0.9551
 2559SOL     OW19312   0.055   2.045  15.225 -0.0325 -0.8285  0.2519
 2559SOL    HW119313   0.131   2.060  15.169  0.1302 -0.3707  0.5970
 2559SOL    HW219314   0.011   2.129  15.234  2.5568  0.6300 -0.8677
 2560SOL     OW19315   4.718   1.993   6.844 -0.2596  0.1198  0.0952
 2560SOL    HW119316   0.069   2.031   6.846 -0.2802  0.1611  0.1885
 2560SOL    HW219317   4.678   1.997   6.757  1.2070  0.5099 -0.5635
 2561SOL     OW19318   1.280   3.643  11.752  0.0430 -0.2470  0.5971
 2561SOL    HW119319   1.349   3.600  11.803  0.5394 -0.0726  0.0684
 2561SOL    HW219320   1.265   3.719  11.808 -1.7782  0.9631 -1.5358
 2562SOL     OW19321   4.522   1.979  15.731 -0.3939 -0.1537  0.2128
 2562SOL    HW119322   4.614   2.003  15.724 -0.7998  1.2156 -0.4998
 2562SOL    HW219323   4.487   2.053  15.781 -0.2990  0.2922 -0.3827
 2563SOL     OW19324   1.581   1.711   2.403  0.0119 -0.2852 -0.6498
 2563SOL    HW119325   1.609   1.799   2.379  1.7745 -0.3744  1.0743
 2563SOL    HW219326   1.666   1.670   2.388  0.5453 -0.4870  2.9032
 2564SOL     OW19327   3.381   4.067  17.735  0.1589 -0.1279  0.7919
 2564SOL    HW119328   3.336   4.149   0.011  1.8141  1.1466 -0.6561
 2564SOL    HW219329   3.403   4.039   0.079  3.5607  1.6061  0.4824
 2565SOL     OW19330   1.446   4.338   0.596  0.1906 -0.1152 -0.0447
 2565SOL    HW119331   1.393   4.309   0.670  0.9423 -0.9724  0.1563
 2565SOL    HW219332   1.517   4.275   0.597  0.3037  0.0365  0.9903
 2566SOL     OW19333   0.042   0.039   6.453  0.0076 -0.1100 -0.8256
 2566SOL    HW119334   0.009   0.110   6.398 -2.6533  0.5036  1.5542
 2566SOL    HW219335   0.127   0.023   6.413 -1.0848 -0.0610 -3.1595
 2567SOL     OW19336   2.731   2.382  16.313  0.1597 -0.3294  0.2064
 2567SOL    HW119337   2.787   2.440  16.263  2.7215 -1.2982  1.9194
 2567SOL    HW219338   2.673   2.352  16.243  0.7860  0.6784 -0.7170
 2568SOL     OW19339   4.607   1.277   5.478 -0.2446 -0.5213 -0.2107
 2568SOL    HW119340   4.685   1.224   5.463  1.6536  1.7377  1.6033
 2568SOL    HW219341   4.640   1.359   5.441 -0.0739 -1.3885 -1.9393
 2569SOL     OW19342   1.667   2.834  11.891  0.7979  0.0457  0.1702
 2569SOL    HW119343   1.593   2.824  11.831  0.7956 -0.6853  0.2969
 2569SOL    HW219344   1.714   2.757  11.858  1.0093 -0.7254  2.3085
 2570SOL     OW19345   0.607   1.020   7.779  0.2614  0.0058 -0.1519
 2570SOL    HW119346   0.646   0.951   7.832  0.7970  1.6687  1.6396
 2570SOL    HW219347   0.518   1.005   7.811  0.0324  1.3653 -0.1397
 2571SOL     OW19348   4.672   4.446   4.776  0.4854 -0.6724  0.4105
 2571SOL    HW119349   0.006   4.506   4.752  0.9428 -1.2664  0.2569
 2571SOL    HW219350   4.622   4.510   4.827  1.8928 -0.2013  1.1899
 2572SOL     OW19351   2.961   2.041   5.411  0.7976 -0.3956  0.2547
 2572SOL    HW119352   2.966   2.131   5.378 -1.3311  0.3577  2.0095
 2572SOL    HW219353   2.887   2.038   5.471 -0.0847  0.3961 -0.7963
 2573SOL     OW19354   2.063   0.005  11.190 -0.0594  0.0908 -0.0029
 2573SOL    HW119355   1.998   0.075  11.191 -0.4691 -0.3236  2.3418
 2573SOL    HW219356   2.002   4.669  11.185  0.1163  0.0039 -0.7940
 2574SOL     OW19357   1.281   2.249   6.175  0.6186  0.0961  0.1396
 2574SOL    HW119358   1.196   2.285   6.150 -0.4497 -0.6269  2.7625
 2574SOL    HW219359   1.262   2.177   6.236  2.4733 -1.1717 -0.7781
 2575SOL     OW19360   4.610   4.135   2.430  0.2314  0.4297 -0.2434
 2575SOL    HW119361   4.582   4.224   2.448 -0.7645  0.0384  0.1289
 2575SOL    HW219362   4.553   4.090   2.492  0.4857 -1.9262 -1.7168
 2576SOL     OW19363   2.402   2.683   3.021  0.9021  0.0541  0.0019
 2576SOL    HW119364   2.371   2.770   3.047  1.2832  0.2599 -0.2367
 2576SOL    HW219365   2.327   2.625   3.035 -0.0145  1.5505  1.3752
 2577SOL     OW19366   3.997   3.359   6.919 -0.3902  0.0852 -0.2661
 2577SOL    HW119367   3.937   3.433   6.930 -0.5126 -0.1771  0.7799
 2577SOL    HW219368   3.942   3.321   6.851  0.2462  3.5247 -2.6816
 2578SOL     OW19369   3.952   3.932  13.010  0.2537  0.1990  0.2222
 2578SOL    HW119370   3.940   3.893  12.923  0.8833 -1.1509  0.7440
 2578SOL    HW219371   3.970   4.023  12.986 -1.1551  0.5261  0.3822
 2579SOL     OW19372   2.226   1.959  12.744 -0.2554  0.4050 -0.1910
 2579SOL    HW119373   2.251   1.993  12.830  0.1511  2.1601 -1.0006
 2579SOL    HW219374   2.210   1.866  12.762  2.6607 -0.2709 -1.0064
 2580SOL     OW19375   3.838   3.171   1.411 -0.7181  0.0040 -0.0451
 2580SOL    HW119376   3.873   3.206   1.329  1.8050 -1.9661  0.2310
 2580SOL    HW219377   3.768   3.233   1.436 -0.4609 -0.6295  2.2988
 2581SOL     OW19378   2.217   2.775   5.959 -0.1814  0.0765  0.2619
 2581SOL    HW119379   2.260   2.716   5.897  0.6973  0.5005  0.4704
 2581SOL    HW219380   2.133   2.732   5.974 -0.2264 -0.1453 -0.6219
 2582SOL     OW19381   1.928   4.399   2.871  0.1872  0.2512 -0.4576
 2582SOL    HW119382   1.901   4.351   2.793 -1.3538  0.9401 -0.3506
 2582SOL    HW219383   1.944   4.325   2.930 -2.1223 -0.2980 -0.5205
 2583SOL     OW19384   1.870   1.429   6.830  0.1195  0.5365  0.5010
 2583SOL    HW119385   1.801   1.474   6.879  0.3384  0.7956  0.5706
 2583SOL    HW219386   1.854   1.470   6.745  2.7610 -1.6231 -1.0323
 2584SOL     OW19387   1.315   1.720   8.996 -0.8114  0.4162 -0.0226
 2584SOL    HW119388   1.318   1.639   8.945 -1.0994 -0.1385  0.8413
 2584SOL    HW219389   1.282   1.784   8.933 -1.4318 -0.6228 -0.7488
 2585SOL     OW19390   0.552   2.080   8.734 -0.1471  0.2225  0.0830
 2585SOL    HW119391   0.471   2.120   8.702 -0.3246  0.7655  1.1995
 2585SOL    HW219392   0.596   2.159   8.765 -2.2183  1.9764 -1.4269
 2586SOL     OW19393   1.491   2.390  11.452 -0.2667  0.1880 -0.5360
 2586SOL    HW119394   1.517   2.329  11.521 -0.1202  0.6666 -0.1682
 2586SOL    HW219395   1.569   2.393  11.397 -1.0057 -0.5491 -1.6481
 2587SOL     OW19396   3.568   4.383  10.330 -0.0708 -0.7337  0.0518
 2587SOL    HW119397   3.663   4.388  10.342 -0.1125 -1.6143  0.7600
 2587SOL    HW219398   3.565   4.415  10.240  2.4778 -2.5593 -0.6682
 2588SOL     OW19399   3.761   3.364  13.748 -0.6773  0.3407  0.3703
 2588SOL    HW119400   3.789   3.440  13.697 -1.1257 -0.6843 -1.4134
 2588SOL    HW219401   3.794   3.290  13.698 -0.2812 -0.6232  2.0489
 2589SOL     OW19402   2.477   4.454  17.461 -0.5399 -0.4884  0.2910
 2589SOL    HW119403   2.492   4.457  17.367 -0.7001  3.8584  0.3799
 2589SOL    HW219404   2.567   4.447  17.494 -0.4788 -0.5808  0.0993
 2590SOL     OW19405   1.392   0.590   5.253 -0.0799 -0.1250 -0.4132
 2590SOL    HW119406   1.460   0.589   5.186 -1.2200  1.2482 -1.5739
 2590SOL    HW219407   1.385   0.497   5.277  2.3264 -0.2702 -0.1974
 2591SOL     OW19408   3.964   3.626   5.958 -0.3516  0.2477  0.1955
 2591SOL    HW119409   3.964   3.609   6.052 -1.3827 -2.2952 -0.2779
 2591SOL    HW219410   3.932   3.542   5.927 -0.5775  0.2576  0.4049
 2592SOL     OW19411   2.258   0.006   4.065 -0.2169 -0.0014  0.2866
 2592SOL    HW119412   2.250   4.669   4.127 -0.8540 -0.2882 -0.1405
 2592SOL    HW219413   2.214   0.081   4.105  2.0399  1.5987 -0.1905
 2593SOL     OW19414   3.210   2.337   2.749  0.3827 -0.3778  0.1793
 2593SOL    HW119415   3.230   2.275   2.819 -0.9676 -1.1032 -0.0740
 2593SOL    HW219416   3.294   2.382   2.746 -0.0098  0.3622  0.1202
 2594SOL     OW19417   2.784   3.096   7.968 -0.1497 -0.2163 -0.2782
 2594SOL    HW119418   2.803   3.072   8.058 -0.0770 -0.8168 -0.4551
 2594SOL    HW219419   2.689   3.083   7.963 -0.0579 -1.5699  1.4795
 2595SOL     OW19420   1.199   3.681   5.550  0.0263  0.0898 -1.3739
 2595SOL    HW119421   1.117   3.645   5.516 -0.2289 -0.8654  0.2474
 2595SOL    HW219422   1.176   3.690   5.642  0.5327 -2.8602 -0.9427
 2596SOL     OW19423   4.730   0.893   3.483  0.2577  0.2220 -0.2036
 2596SOL    HW119424   4.724   0.861   3.573  0.8426 -2.2825 -1.0630
 2596SOL    HW219425   0.080   0.935   3.484  0.2913  0.1486 -0.0616
 2597SOL     OW19426   3.844   0.222   7.293  0.1181 -0.0118 -0.1910
 2597SOL    HW119427   3.867   0.131   7.272 -0.6643 -0.5319  1.1864
 2597SOL    HW219428   3.881   0.278   7.226 -0.3480 -0.5233 -0.8766
 2598SOL     OW19429   4.441   2.902   1.657 -0.1609 -0.5577  0.4729
 2598SOL    HW119430   4.535   2.910   1.637 -0.4107 -0.4081 -0.6444
 2598SOL    HW219431   4.440   2.905   1.752  0.0032  0.8312  0.4436
 2599SOL     OW19432   0.128   2.517   1.691 -0.3565 -0.0897  0.3813
 2599SOL    HW119433   0.176   2.589   1.733  0.3324  0.8096 -1.9423
 2599SOL    HW219434   0.182   2.497   1.615 -1.6235  3.1666 -1.3830
 2600SOL     OW19435   2.446   3.568  10.360  0.3488 -0.6610 -0.5437
 2600SOL    HW119436   2.494   3.488  10.338  0.8516 -0.4966 -0.0399
 2600SOL    HW219437   2.462   3.615  10.278 -0.7609  0.4939 -0.0934
 2601SOL     OW19438   4.314   3.910   3.799  0.2510  0.2345  0.4672
 2601SOL    HW119439   4.302   3.838   3.736 -1.0211 -0.9075  1.9985
 2601SOL    HW219440   4.365   3.865   3.866  0.6752  0.9677  0.6244
 2602SOL     OW19441   0.828   4.222  10.235  0.0199  0.7540 -0.5115
 2602SOL    HW119442   0.868   4.197  10.151  0.2158 -0.6452 -0.0075
 2602SOL    HW219443   0.842   4.316  10.225 -0.3118  0.9170  0.6221
 2603SOL     OW19444   4.233   3.480   0.858 -0.4100 -0.2132 -0.5042
 2603SOL    HW119445   4.165   3.505   0.795 -1.5615  1.4022  1.3708
 2603SOL    HW219446   4.314   3.485   0.807 -0.9856  3.7700 -1.0548
 2604SOL     OW19447   0.519   1.689   4.076 -0.1831 -0.0555 -0.3332
 2604SOL    HW119448   0.512   1.604   4.032 -1.0758 -0.0197 -0.2620
 2604SOL    HW219449   0.529   1.748   4.002 -2.2541 -1.0374 -1.4117
 2605SOL     OW19450   0.887   0.733   2.684 -0.0164 -0.1203  0.1768
 2605SOL    HW119451   0.797   0.768   2.683  0.3959  0.9913  1.3392
 2605SOL    HW219452   0.873   0.667   2.752  0.4960  0.2863  0.6848
 2606SOL     OW19453   1.970   1.035   1.528 -0.0159  0.3073  0.5223
 2606SOL    HW119454   2.019   1.010   1.606  2.4899 -2.5584 -1.9764
 2606SOL    HW219455   1.962   0.951   1.482 -0.4586  0.6953 -0.1142
 2607SOL     OW19456   3.082   4.662   5.815  0.0454 -0.0059  0.5651
 2607SOL    HW119457   3.039   4.582   5.784  0.5086  0.0211 -0.1607
 2607SOL    HW219458   3.159   4.669   5.757  0.2693 -1.4301  0.6855
 2608SOL     OW19459   2.318   2.554  13.599  0.0126  0.1132 -0.5023
 2608SOL    HW119460   2.357   2.631  13.639 -0.4809 -0.0836  0.3519
 2608SOL    HW219461   2.262   2.607  13.544 -1.3900 -1.6149 -0.7445
 2609SOL     OW19462   1.968   3.584   9.117 -0.2530  0.0169  0.0085
 2609SOL    HW119463   1.904   3.605   9.048  0.8179  2.3541 -0.2889
 2609SOL    HW219464   2.044   3.599   9.062 -0.4585 -1.1485 -0.5845
 2610SOL     OW19465   4.177   0.195   6.487 -0.1973  0.2582  0.1120
 2610SOL    HW119466   4.231   0.126   6.525 -1.6669 -1.1491 -0.3561
 2610SOL    HW219467   4.158   0.168   6.397 -0.2936  0.3083  0.1171
 2611SOL     OW19468   0.923   0.339  11.934 -0.0645 -0.2271  0.2557
 2611SOL    HW119469   0.913   0.244  11.941 -0.3798 -0.4608 -3.3113
 2611SOL    HW219470   1.017   0.350  11.950  0.0333 -0.5658 -0.0862
 2612SOL     OW19471   2.143   3.457   8.354  0.2837  0.6753 -0.2478
 2612SOL    HW119472   2.189   3.521   8.300 -0.5201  0.6229 -1.0129
 2612SOL    HW219473   2.066   3.508   8.379 -0.2545 -0.1188 -0.2668
 2613SOL     OW19474   3.306   4.124   5.922 -0.2122  0.4917 -0.5152
 2613SOL    HW119475   3.305   4.168   6.007  1.1397  0.2338 -0.3607
 2613SOL    HW219476   3.269   4.198   5.874  0.5550  0.6408 -0.8741
 2614SOL     OW19477   4.566   4.055   5.399 -0.6097 -0.1013  0.5289
 2614SOL    HW119478   4.563   4.051   5.303 -1.4419  2.0821  0.4473
 2614SOL    HW219479   4.615   4.136   5.415  1.5163 -0.6482 -3.0403
 2615SOL     OW19480   2.821   0.258   9.187  0.0060  0.2675  0.4873
 2615SOL    HW119481   2.866   0.294   9.110  0.3726 -1.0228  0.1091
 2615SOL    HW219482   2.761   0.200   9.141  0.4304 -0.6695  1.1407
 2616SOL     OW19483   2.823   1.560   4.393  0.5420 -0.2385  0.5221
 2616SOL    HW119484   2.871   1.482   4.365  0.3468 -0.4406  0.7552
 2616SOL    HW219485   2.865   1.624   4.335 -1.5678 -0.3052 -1.0909
 2617SOL     OW19486   2.598   2.902  10.658  0.1740 -0.1388 -0.1621
 2617SOL    HW119487   2.515   2.927  10.699  1.4939  4.0757 -0.0295
 2617SOL    HW219488   2.612   2.810  10.680 -1.8075 -0.7020 -1.2455
 2618SOL     OW19489   0.198   2.931   8.992  0.1200  0.0701 -0.0131
 2618SOL    HW119490   0.241   3.002   8.945 -0.0954 -1.7661 -3.0491
 2618SOL    HW219491   0.221   2.954   9.081  3.2415  0.7236 -0.9954
 2619SOL     OW19492   4.409   0.737   7.537 -0.4147  0.0212  0.3354
 2619SOL    HW119493   4.416   0.808   7.601 -0.2579 -2.5286  3.1458
 2619SOL    HW219494   4.498   0.710   7.513 -0.7162 -0.8148  0.1399
 2620SOL     OW19495   1.811   1.141   7.974  0.2880 -0.0084  0.4022
 2620SOL    HW119496   1.806   1.050   7.946  0.4369 -0.3649  1.5323
 2620SOL    HW219497   1.894   1.169   7.936  1.2932 -0.2640  2.4435
 2621SOL     OW19498   3.001   2.122   2.128 -0.0837 -0.1817  0.4451
 2621SOL    HW119499   2.934   2.188   2.148 -0.5144 -0.1667 -1.0761
 2621SOL    HW219500   2.987   2.124   2.034 -0.8587  1.2380  0.5903
 2622SOL     OW19501   1.328   1.211   1.984  1.0494 -0.0107 -0.0335
 2622SOL    HW119502   1.336   1.305   1.968  1.7693  0.0091  0.4236
 2622SOL    HW219503   1.390   1.204   2.057 -1.6042  1.7018  2.3937
 2623SOL     OW19504   0.968   0.165   5.062 -0.4438 -0.2126 -0.0100
 2623SOL    HW119505   0.951   0.169   4.968  0.6710 -1.7725 -0.2857
 2623SOL    HW219506   0.915   0.088   5.081 -1.0433  0.0941 -0.4820
 2624SOL     OW19507   3.731   0.703   2.320  0.1131 -0.1273 -0.5846
 2624SOL    HW119508   3.811   0.706   2.268 -2.2788 -0.8355 -4.2837
 2624SOL    HW219509   3.717   0.795   2.341 -1.4322 -0.5042 -0.0198
 2625SOL     OW19510   4.322   0.361   9.542 -0.1023 -0.1617 -0.0891
 2625SOL    HW119511   4.227   0.362   9.535 -0.2118  1.1916  1.3548
 2625SOL    HW219512   4.330   0.441   9.595 -2.6944 -0.8768  1.3375
 2626SOL     OW19513   1.185   4.152  16.679  0.2234 -0.5435 -0.1246
 2626SOL    HW119514   1.146   4.230  16.640 -1.7954 -1.3545  0.2370
 2626SOL    HW219515   1.168   4.090  16.607  1.4455  0.4455 -1.2491
 2627SOL     OW19516   2.286   0.263   9.878 -0.2050  0.1236 -0.2768
 2627SOL    HW119517   2.283   0.321   9.802  2.5796  0.3042 -0.2564
 2627SOL    HW219518   2.379   0.240   9.883 -0.5670 -1.6692 -1.5413
 2628SOL     OW19519   4.395   3.950  17.251 -0.4250 -0.1586  0.4782
 2628SOL    HW119520   4.445   4.032  17.247 -0.0613 -0.3754  0.5923
 2628SOL    HW219521   4.450   3.893  17.305  0.8437 -1.1247 -1.8599
 2629SOL     OW19522   1.961   3.783  12.759 -0.3876  0.2918 -0.0481
 2629SOL    HW119523   1.890   3.823  12.708 -1.1224 -0.0740  0.6740
 2629SOL    HW219524   1.942   3.808  12.850 -2.9866 -1.6131 -0.0577
 2630SOL     OW19525   3.899   3.826   6.310 -0.3182  0.2435  0.0254
 2630SOL    HW119526   3.921   3.879   6.387  0.6776  0.9880 -0.7751
 2630SOL    HW219527   3.962   3.870   6.253 -0.6654  1.7718  0.8081
 2631SOL     OW19528   0.899   2.668   9.709  0.1765  0.8270 -0.2229
 2631SOL    HW119529   0.877   2.646   9.618 -0.5108  0.3880  0.0456
 2631SOL    HW219530   0.827   2.622   9.753  1.5017 -0.5717  0.4849
 2632SOL     OW19531   0.808   4.552   7.152  0.5603  0.5097 -0.1785
 2632SOL    HW119532   0.773   4.614   7.216 -0.3205  0.3496 -0.5052
 2632SOL    HW219533   0.888   4.595   7.122  1.1755  0.5880  1.5688
 2633SOL     OW19534   3.590   0.373   3.864 -0.1015 -0.6510 -0.3888
 2633SOL    HW119535   3.621   0.423   3.940 -1.2794 -0.7895  0.1823
 2633SOL    HW219536   3.561   0.443   3.806 -0.7719 -0.4359  0.2117
 2634SOL     OW19537   3.153   2.896   7.686  0.7750  0.4613 -0.0746
 2634SOL    HW119538   3.118   2.951   7.756 -0.3716 -1.0946  0.5706
 2634SOL    HW219539   3.235   2.943   7.673  1.6263 -1.2338 -0.6539
 2635SOL     OW19540   0.557   0.775  15.026 -0.0919  0.2051 -0.1283
 2635SOL    HW119541   0.482   0.737  14.982 -1.1304  0.4593  1.4330
 2635SOL    HW219542   0.527   0.780  15.117  1.5513 -3.3837  0.6254
 2636SOL     OW19543   2.470   3.069   4.235  0.5131  0.0700 -0.3286
 2636SOL    HW119544   2.502   2.981   4.213 -0.3549 -0.2723 -0.2481
 2636SOL    HW219545   2.539   3.091   4.297 -1.3773  0.3919  1.6429
 2637SOL     OW19546   2.887   3.490  14.020 -0.4440  0.3946 -0.2262
 2637SOL    HW119547   2.928   3.577  14.016 -1.6936  0.8182 -3.8141
 2637SOL    HW219548   2.961   3.432  14.005 -1.5622 -1.0604 -0.0702
 2638SOL     OW19549   0.886   0.729   4.539  0.7017 -0.1462 -0.0311
 2638SOL    HW119550   0.976   0.737   4.506 -0.4615  1.8092 -2.7072
 2638SOL    HW219551   0.910   0.672   4.612 -0.5766  0.1983  0.6411
 2639SOL     OW19552   4.239   3.738   1.922 -0.2344  0.0271  0.0513
 2639SOL    HW119553   4.178   3.689   1.977 -0.6290  0.1110 -0.3073
 2639SOL    HW219554   4.219   3.689   1.843  0.1843  1.4487 -0.9423
 2640SOL     OW19555   3.100   3.232   6.433 -0.3134 -0.4512  0.1745
 2640SOL    HW119556   3.047   3.233   6.353 -0.3126  1.7539  0.2043
 2640SOL    HW219557   3.041   3.262   6.502  0.0720  1.4548 -0.3247
 2641SOL     OW19558   1.809   2.797   2.045 -0.4135  0.3334  0.1854
 2641SOL    HW119559   1.729   2.797   1.993 -0.8495 -1.4761  0.8448
 2641SOL    HW219560   1.861   2.845   1.981 -0.0835  2.4458  2.0295
 2642SOL     OW19561   4.339   0.402   7.034  0.2510  0.5865  0.2800
 2642SOL    HW119562   4.358   0.313   7.064  2.8790  1.8409  2.3778
 2642SOL    HW219563   4.372   0.394   6.944 -1.4807  0.7334 -0.3727
 2643SOL     OW19564   1.706   3.361   6.840 -0.4386 -0.3851  0.4298
 2643SOL    HW119565   1.726   3.395   6.753  0.4055 -2.8039 -0.3285
 2643SOL    HW219566   1.631   3.311   6.810 -0.2337 -0.3620 -0.1180
 2644SOL     OW19567   0.863   1.882  12.500  0.4000  0.6107 -0.5270
 2644SOL    HW119568   0.891   1.965  12.540 -0.6884 -0.1145  1.7516
 2644SOL    HW219569   0.864   1.908  12.408  2.0217  0.3599 -0.5807
 2645SOL     OW19570   1.572   3.556   2.312  0.0938 -0.1495 -0.5094
 2645SOL    HW119571   1.545   3.621   2.247 -1.5605 -0.4311 -0.0964
 2645SOL    HW219572   1.643   3.603   2.358  1.6222 -0.4856 -2.5199
 2646SOL     OW19573   1.370   4.082   0.934  0.1528 -0.7645  0.1838
 2646SOL    HW119574   1.415   4.076   1.018  2.0306 -1.9587 -0.9202
 2646SOL    HW219575   1.447   4.093   0.878 -0.4232  1.0053 -0.2624
 2647SOL     OW19576   4.240   2.864   8.571  0.2139 -0.1757  0.0757
 2647SOL    HW119577   4.246   2.933   8.506  1.3866  0.0916  0.4543
 2647SOL    HW219578   4.232   2.922   8.647  1.4954 -0.6640  0.5980
 2648SOL     OW19579   4.096   3.575   2.122 -0.0337  0.4501  0.0674
 2648SOL    HW119580   4.068   3.487   2.146  1.8838  0.1724  1.2434
 2648SOL    HW219581   4.167   3.588   2.183 -0.0164  3.4064 -0.5750
 2649SOL     OW19582   0.418   3.023   7.456  0.1189  1.2580 -0.8688
 2649SOL    HW119583   0.468   2.995   7.380  1.6832 -0.4593  0.7833
 2649SOL    HW219584   0.365   2.947   7.483 -1.1433  1.5367 -2.5704
 2650SOL     OW19585   3.315   2.628   3.459  0.3540  0.3431  0.0239
 2650SOL    HW119586   3.281   2.643   3.547 -1.3755 -1.1238 -0.3957
 2650SOL    HW219587   3.237   2.649   3.407  0.6865  0.9463 -0.2260
 2651SOL     OW19588   4.057   0.396  11.587 -0.1624 -0.7221 -0.8569
 2651SOL    HW119589   3.973   0.440  11.591  1.0360  1.5576 -1.0500
 2651SOL    HW219590   4.034   0.330  11.521 -2.8361 -2.1776  1.5300
 2652SOL     OW19591   4.025   1.479   2.597  0.3737  0.4911  0.1814
 2652SOL    HW119592   4.051   1.412   2.534 -1.8057 -0.1304 -0.0575
 2652SOL    HW219593   4.103   1.533   2.606  0.8580 -0.2986  0.5945
 2653SOL     OW19594   1.929   1.912   3.929 -0.1834 -0.0819  0.1506
 2653SOL    HW119595   1.974   1.929   3.846  0.8429 -0.8742  0.5280
 2653SOL    HW219596   1.983   1.839   3.962 -0.2967 -0.5800 -0.7563
 2654SOL     OW19597   2.511   4.736   6.447  0.2624  0.3266  0.3351
 2654SOL    HW119598   2.469   4.669   6.502  1.3070  0.7249  1.6129
 2654SOL    HW219599   2.523   0.069   6.511  1.7159  0.3501  0.0425
 2655SOL     OW19600   2.228   2.026   6.230  0.1661 -0.1727  0.4479
 2655SOL    HW119601   2.143   2.037   6.187  0.3499  0.4946  0.2530
 2655SOL    HW219602   2.246   1.932   6.233 -0.8381 -0.4064 -0.8349
 2656SOL     OW19603   3.967   2.548  17.668 -0.1924 -0.5455 -0.2832
 2656SOL    HW119604   3.938   2.637  17.651 -0.4311 -0.3258  1.3244
 2656SOL    HW219605   3.909   2.511  17.602  1.5627 -0.6763 -1.7607
 2657SOL     OW19606   0.811   3.149  10.798 -0.3992  0.1803  0.2496
 2657SOL    HW119607   0.793   3.116  10.710 -0.2850 -1.0857  0.7088
 2657SOL    HW219608   0.732   3.123  10.845  0.6451  1.5926  2.7889
 2658SOL     OW19609   4.607   4.348  13.236  0.0825 -0.1912  0.7002
 2658SOL    HW119610   4.660   4.404  13.293 -1.5597  1.1524  0.8982
 2658SOL    HW219611   4.549   4.411  13.194 -0.1682  0.5928  2.2165
 2659SOL     OW19612   0.486   1.323   4.734 -0.7509  0.1208  0.0682
 2659SOL    HW119613   0.471   1.256   4.801 -1.0061  1.2503  1.1572
 2659SOL    HW219614   0.467   1.400   4.788  1.0478 -0.2329  1.2146
 2660SOL     OW19615   2.972   1.068   7.687  0.4453 -0.5967  0.0657
 2660SOL    HW119616   3.019   1.084   7.605 -0.3109 -1.2176 -0.4878
 2660SOL    HW219617   2.906   1.135   7.672 -0.0674 -1.3085 -0.8574
 2661SOL     OW19618   3.740   0.738   1.962  0.6206 -0.1459 -0.0452
 2661SOL    HW119619   3.690   0.810   1.999  1.6820  0.1338  0.8447
 2661SOL    HW219620   3.688   0.665   1.994  0.6409  0.2724  0.9347
 2662SOL     OW19621   4.214   1.291   7.599  0.2121  0.4775 -0.2844
 2662SOL    HW119622   4.278   1.223   7.619 -1.7072 -1.3736 -0.3535
 2662SOL    HW219623   4.171   1.299   7.684  1.5452  1.6106  0.2701
 2663SOL     OW19624   3.720   2.050   4.933  0.0406  0.4920  0.4489
 2663SOL    HW119625   3.656   1.979   4.918  3.1163 -2.6709  2.4083
 2663SOL    HW219626   3.692   2.090   5.015 -0.2867  1.2785 -0.0522
 2664SOL     OW19627   2.379   0.787   7.217 -0.0353  0.5174  0.0604
 2664SOL    HW119628   2.402   0.868   7.171 -1.3704  1.0779  0.4043
 2664SOL    HW219629   2.363   0.822   7.304 -1.2554  0.0249  0.0269
 2665SOL     OW19630   4.625   2.329  16.666 -0.1276  0.5642 -0.2005
 2665SOL    HW119631   4.694   2.265  16.685 -0.4845  1.0632  2.7550
 2665SOL    HW219632   4.614   2.356  16.757  1.3619 -1.0373  0.4574
 2666SOL     OW19633   3.594   1.261   7.191  0.0976 -0.5763 -0.4794
 2666SOL    HW119634   3.690   1.268   7.190  0.2703 -2.2700  3.8652
 2666SOL    HW219635   3.576   1.340   7.140 -0.6804 -0.8118 -0.5663
 2667SOL     OW19636   1.454   1.889   9.393 -0.6888 -0.4445 -0.6490
 2667SOL    HW119637   1.513   1.943   9.446 -1.9220  0.6581 -0.3984
 2667SOL    HW219638   1.452   1.945   9.315  1.4053  1.8794  0.9546
 2668SOL     OW19639   3.986   2.695   3.300 -0.9436 -0.4177 -0.3106
 2668SOL    HW119640   3.959   2.604   3.283 -2.6938 -0.2561  1.6621
 2668SOL    HW219641   3.918   2.739   3.249 -1.7421  0.4523  1.5304
 2669SOL     OW19642   4.577   1.313   7.602  0.1044  0.6713 -0.0954
 2669SOL    HW119643   4.563   1.378   7.533  1.7978  2.2984  1.1148
 2669SOL    HW219644   4.542   1.359   7.678 -1.5524 -1.0374  0.1795
 2670SOL     OW19645   2.404   3.286   1.354 -0.2568  0.4674 -0.0014
 2670SOL    HW119646   2.455   3.205   1.360 -0.1294  0.4985 -0.7550
 2670SOL    HW219647   2.433   3.329   1.435 -0.2361 -0.8666  0.7021
 2671SOL     OW19648   3.977   3.020  10.302  0.4438  0.1327  0.1832
 2671SOL    HW119649   4.026   2.975  10.233 -0.2099 -1.3128  0.6583
 2671SOL    HW219650   4.051   3.076  10.325 -0.3857  2.0492 -1.7696
 2672SOL     OW19651   4.366   2.202   3.026 -0.0650 -0.6745 -0.1441
 2672SOL    HW119652   4.310   2.160   3.091  0.9047 -2.0271 -0.1814
 2672SOL    HW219653   4.308   2.190   2.951  0.4324 -1.2710 -0.4294
 2673SOL     OW19654   2.503   4.141   4.630  0.4641 -0.0044  0.1589
 2673SOL    HW119655   2.528   4.059   4.586 -2.3433 -0.1189 -1.2250
 2673SOL    HW219656   2.506   4.194   4.550 -0.4302 -1.1838 -0.6523
 2674SOL     OW19657   1.029   2.989   8.593 -0.1477 -0.1934 -0.3648
 2674SOL    HW119658   1.060   3.070   8.633 -0.9446 -1.3141  2.5554
 2674SOL    HW219659   0.963   3.029   8.538  1.2840  1.6603 -0.7422
 2675SOL     OW19660   0.533   2.377   8.409 -0.1752  0.3296  0.1137
 2675SOL    HW119661   0.470   2.307   8.427  1.8658 -1.1289  1.5184
 2675SOL    HW219662   0.607   2.346   8.461 -2.1793  1.2718  3.5179
 2676SOL     OW19663   0.113   2.424   8.423 -0.4730  0.4779  0.2428
 2676SOL    HW119664   0.146   2.368   8.352 -1.1742 -1.3908  1.3931
 2676SOL    HW219665   0.023   2.442   8.396 -1.0268 -1.0478  1.0486
 2677SOL     OW19666   1.103   4.626   4.870 -0.5033  0.2525  0.7416
 2677SOL    HW119667   1.054   4.610   4.789  0.1429 -1.4871  0.7023
 2677SOL    HW219668   1.088   4.557   4.934  1.0195  0.0720  0.9221
 2678SOL     OW19669   4.422   0.593   9.219  0.6713  0.3083  0.0811
 2678SOL    HW119670   4.385   0.603   9.306  0.0814 -1.1168 -0.0159
 2678SOL    HW219671   4.368   0.649   9.162 -1.2464 -0.3370  1.2641
 2679SOL     OW19672   4.653   1.719   9.634 -1.1510  0.3460  0.4986
 2679SOL    HW119673   4.613   1.680   9.712 -0.9261  0.0683  0.4731
 2679SOL    HW219674   0.008   1.693   9.636 -0.8190  1.2378 -2.7723
 2680SOL     OW19675   4.459   0.590   9.679  0.4983 -0.5216 -0.2984
 2680SOL    HW119676   4.509   0.588   9.760  1.6206 -0.1466 -0.9756
 2680SOL    HW219677   4.374   0.628   9.703  1.7008  1.4152  0.9288
 2681SOL     OW19678   4.269   3.753  15.420 -0.4648 -0.4699  0.0371
 2681SOL    HW119679   4.301   3.838  15.447 -1.7930  0.8407 -2.4576
 2681SOL    HW219680   4.198   3.784  15.363  0.1120 -1.3191 -1.1352
 2682SOL     OW19681   3.060   0.574   3.986  0.4102 -0.2547  0.0403
 2682SOL    HW119682   3.088   0.547   3.899  1.0162  2.4816 -0.6282
 2682SOL    HW219683   3.001   0.500   3.997 -1.2342  1.3753  2.0975
 2683SOL     OW19684   4.091   1.653   7.347 -0.0945 -0.0041  0.4164
 2683SOL    HW119685   4.036   1.575   7.339 -0.7985  0.7310 -1.9366
 2683SOL    HW219686   4.167   1.613   7.306 -0.9397 -0.5294 -0.6337
 2684SOL     OW19687   0.241   3.039   5.155  0.4716 -0.0642  0.0723
 2684SOL    HW119688   0.232   2.950   5.119 -0.9155  0.8825 -1.9471
 2684SOL    HW219689   0.159   3.072   5.119 -0.0450  0.0356  1.3643
 2685SOL     OW19690   2.805   2.464   7.576  0.1486  0.3017  0.0184
 2685SOL    HW119691   2.848   2.389   7.615  0.1003 -0.1789 -0.8541
 2685SOL    HW219692   2.848   2.539   7.617 -0.7663  1.8080 -1.7169
 2686SOL     OW19693   0.841   2.383   2.152 -0.2697 -0.0957  0.2850
 2686SOL    HW119694   0.926   2.358   2.114 -0.9835  0.1863 -1.4482
 2686SOL    HW219695   0.867   2.405   2.242  2.1121  0.0224 -0.4187
 2687SOL     OW19696   0.656   3.014  16.087 -0.0232  0.3975  0.2413
 2687SOL    HW119697   0.647   3.109  16.090 -1.9884  0.3174 -2.6717
 2687SOL    HW219698   0.706   2.997  16.007 -1.2888 -0.4543 -0.3791
 2688SOL     OW19699   0.798   2.507  16.474 -0.4146  0.0344  0.0590
 2688SOL    HW119700   0.704   2.503  16.456 -0.6303 -0.9225  1.4086
 2688SOL    HW219701   0.826   2.439  16.412  1.1631 -1.6935  2.6986
 2689SOL     OW19702   2.823   1.628   2.581  0.6001 -0.6167  0.4101
 2689SOL    HW119703   2.847   1.691   2.649 -1.6324 -1.2880  1.8417
 2689SOL    HW219704   2.781   1.698   2.531  0.1490 -2.2622 -1.5250
 2690SOL     OW19705   4.582   0.140   5.054  0.1035 -0.5263  0.7756
 2690SOL    HW119706   4.676   0.125   5.053  0.5819  2.5486 -1.1798
 2690SOL    HW219707   4.557   0.056   5.092 -0.3849  0.0541  1.7316
 2691SOL     OW19708   4.595   0.351  10.625 -0.2242  0.4002 -0.1365
 2691SOL    HW119709   4.551   0.436  10.618 -0.2453  0.6020  2.1643
 2691SOL    HW219710   4.528   0.289  10.597  0.1935  0.0291 -0.3013
 2692SOL     OW19711   3.741   1.935   2.361  0.3200 -0.4365  0.5192
 2692SOL    HW119712   3.693   1.998   2.415  1.1040  2.3452 -2.0058
 2692SOL    HW219713   3.780   1.994   2.296 -2.2988  0.9620  0.1892
 2693SOL     OW19714   3.119   4.521  11.812  0.0402 -0.6028 -0.5500
 2693SOL    HW119715   3.166   4.469  11.746  0.6545  1.1976 -1.5184
 2693SOL    HW219716   3.035   4.540  11.771  0.2204  4.0067  1.2593
 2694SOL     OW19717   2.773   3.237  14.546  0.4287  0.5490  0.2408
 2694SOL    HW119718   2.838   3.184  14.592 -0.5364 -2.1252 -1.4917
 2694SOL    HW219719   2.832   3.266  14.477  0.6587  0.5093  0.4214
 2695SOL     OW19720   0.765   0.260   5.683  0.3680 -0.1082  0.2575
 2695SOL    HW119721   0.856   0.261   5.654  0.1039  0.6623 -0.5279
 2695SOL    HW219722   0.754   0.354   5.693 -1.5884 -0.2720 -0.5157
 2696SOL     OW19723   2.364   4.730   2.064 -0.0734  0.3321  0.0019
 2696SOL    HW119724   2.428   4.715   1.994  0.5946 -1.0538  0.9033
 2696SOL    HW219725   2.331   0.076   2.029  0.8230 -0.0012 -1.6155
 2697SOL     OW19726   3.211   2.615   2.245 -0.3536 -0.0941 -0.2681
 2697SOL    HW119727   3.120   2.632   2.224 -0.4545 -0.7286 -0.3599
 2697SOL    HW219728   3.222   2.644   2.335 -0.5362 -0.3839 -0.1518
 2698SOL     OW19729   3.520   0.333   2.494  0.0834 -0.0438 -0.1353
 2698SOL    HW119730   3.466   0.254   2.494 -0.4183  0.3042 -1.1055
 2698SOL    HW219731   3.479   0.373   2.571  0.6705  2.5534 -1.1746
 2699SOL     OW19732   3.979   1.907   9.810 -0.0643 -0.8168  0.0977
 2699SOL    HW119733   4.051   1.929   9.751  1.5256 -2.3682  1.4650
 2699SOL    HW219734   3.904   1.929   9.753  0.0252  2.6517  1.3499
 2700SOL     OW19735   3.623   4.459   4.324 -0.2699 -0.3351 -0.1308
 2700SOL    HW119736   3.621   4.403   4.247  1.5340 -3.0213  1.8026
 2700SOL    HW219737   3.554   4.522   4.301 -0.6341 -0.2102  1.2491
 2701SOL     OW19738   2.751   4.083   3.211  0.1751 -0.2082  0.0779
 2701SOL    HW119739   2.691   4.106   3.139 -0.1639  0.9339  0.7376
 2701SOL    HW219740   2.829   4.136   3.194 -0.6972  0.8407 -0.6700
 2702SOL     OW19741   4.472   1.614   3.371  0.2453 -0.0104  0.0508
 2702SOL    HW119742   4.436   1.702   3.384 -2.7236 -1.4837  1.9040
 2702SOL    HW219743   4.552   1.644   3.329  0.9572  0.8012  2.0017
 2703SOL     OW19744   4.453   3.368   3.777 -0.0162  0.2224  0.0582
 2703SOL    HW119745   4.460   3.273   3.768 -0.2632  0.3956 -1.9643
 2703SOL    HW219746   4.405   3.387   3.697 -1.2107 -0.9393  0.5086
 2704SOL     OW19747   4.605   3.340   6.755  0.8026  0.4668  0.8928
 2704SOL    HW119748   4.635   3.332   6.665  1.2690  1.9284  0.9111
 2704SOL    HW219749   4.559   3.423   6.747  1.0732  0.4821 -0.4858
 2705SOL     OW19750   3.603   4.351   6.084 -0.5353  0.0071  0.0680
 2705SOL    HW119751   3.669   4.296   6.041  0.0564  1.1124 -0.4400
 2705SOL    HW219752   3.548   4.396   6.020 -0.6358 -2.0155 -1.2604
 2706SOL     OW19753   1.917   2.928  17.636 -0.1638  0.4521  0.0922
 2706SOL    HW119754   1.853   2.992  17.604 -0.5345  0.1575  0.2498
 2706SOL    HW219755   1.949   2.881  17.558  0.4942 -1.5323  1.5666
 2707SOL     OW19756   1.970   4.513   7.106 -0.2339 -0.5197  0.1994
 2707SOL    HW119757   1.909   4.471   7.167  1.4080 -2.0161  0.8108
 2707SOL    HW219758   2.047   4.539   7.156  0.0899 -0.9822 -0.0652
 2708SOL     OW19759   3.257   0.609   0.498 -0.0448  0.4123  0.7431
 2708SOL    HW119760   3.299   0.687   0.462  1.2709 -0.7965 -0.3526
 2708SOL    HW219761   3.189   0.591   0.433  0.9834 -2.9218  0.5663
 2709SOL     OW19762   1.752   1.647   2.922 -0.0386 -0.2412 -0.0161
 2709SOL    HW119763   1.717   1.676   3.006  1.0219  2.2902 -0.4347
 2709SOL    HW219764   1.808   1.722   2.899 -0.0467 -0.9361 -2.2123
 2710SOL     OW19765   4.638   3.562   3.844  0.2190  0.6054 -0.3746
 2710SOL    HW119766   4.584   3.486   3.819 -1.1083  1.1865  0.7134
 2710SOL    HW219767   4.589   3.638   3.814 -0.6512  0.0834 -0.2851
 2711SOL     OW19768   0.070   3.926   1.839 -0.2282 -0.0418 -0.6285
 2711SOL    HW119769   0.156   3.960   1.865 -0.9217  1.8306 -0.7206
 2711SOL    HW219770   0.015   3.998   1.807 -1.5981 -1.3299 -1.1409
 2712SOL     OW19771   1.576   0.218   4.691  0.1457 -0.3099  0.1424
 2712SOL    HW119772   1.611   0.191   4.607 -1.5737  1.7130 -1.2207
 2712SOL    HW219773   1.649   0.186   4.745  0.5262  1.0301  0.4444
 2713SOL     OW19774   2.155   3.313  17.382  0.3329 -0.1386  0.3275
 2713SOL    HW119775   2.172   3.289  17.291  0.9315  1.9900 -0.1311
 2713SOL    HW219776   2.170   3.232  17.430 -2.0126 -0.6284  0.2682
 2714SOL     OW19777   1.324   4.586   8.550 -0.1035  0.0852 -0.0877
 2714SOL    HW119778   1.376   4.521   8.598 -1.4368 -1.7760 -1.2362
 2714SOL    HW219779   1.388   4.658   8.545 -0.9872  0.8057 -0.9596
 2715SOL     OW19780   2.010   1.238   5.624  0.6656 -0.2947 -0.2625
 2715SOL    HW119781   1.936   1.258   5.567 -1.1102 -1.1830  1.7542
 2715SOL    HW219782   2.037   1.327   5.650 -1.2127  0.2693 -0.2930
 2716SOL     OW19783   3.905   1.410   5.487 -0.1199  0.3539 -0.3448
 2716SOL    HW119784   3.918   1.316   5.476  3.1842  0.4386  2.5158
 2716SOL    HW219785   3.820   1.435   5.452  0.1119  1.3994 -0.1695
 2717SOL     OW19786   0.754   0.953  17.549 -0.2019  0.1722  0.0782
 2717SOL    HW119787   0.831   0.912  17.588  0.4079  1.8798  0.6533
 2717SOL    HW219788   0.686   0.896  17.587 -0.6706  0.5316 -0.2171
 2718SOL     OW19789   3.776   0.052   4.049  0.1560 -0.2178 -0.0750
 2718SOL    HW119790   3.821   0.132   4.076  1.0647 -1.3698  1.8384
 2718SOL    HW219791   3.837   0.006   3.991  0.9623 -3.3304  3.2512
 2719SOL     OW19792   1.076   2.608   4.841  0.1853  0.2161 -0.0030
 2719SOL    HW119793   1.105   2.524   4.878  1.1762  0.5326 -0.0619
 2719SOL    HW219794   0.984   2.589   4.824  0.2902 -0.8239  0.5699
 2720SOL     OW19795   0.443   3.827   8.314 -0.0069 -0.3319 -0.0233
 2720SOL    HW119796   0.446   3.763   8.243  0.2419 -2.7833  2.2157
 2720SOL    HW219797   0.351   3.851   8.303  0.3248  1.6889  1.6132
 2721SOL     OW19798   2.426   0.934   5.062 -0.1462 -0.2191 -0.6022
 2721SOL    HW119799   2.439   1.019   5.104 -2.3836 -0.9407  1.5326
 2721SOL    HW219800   2.503   0.887   5.093  0.0447  0.2266 -0.3916
 2722SOL     OW19801   3.798   1.146   2.205 -0.6057  0.2390  0.0155
 2722SOL    HW119802   3.822   1.157   2.113  0.9692 -1.5984  0.2066
 2722SOL    HW219803   3.878   1.106   2.240 -0.4779 -1.9343 -2.7603
 2723SOL     OW19804   0.608   0.823  12.895  0.0860  0.3215  0.0746
 2723SOL    HW119805   0.695   0.826  12.855  0.9381 -0.1907  1.9101
 2723SOL    HW219806   0.627   0.775  12.975  2.0252  2.0920  0.6823
 2724SOL     OW19807   1.398   0.056   6.871 -0.4029 -0.3100 -0.2261
 2724SOL    HW119808   1.490   0.034   6.865  0.0916  2.0812 -1.4996
 2724SOL    HW219809   1.413   0.143   6.908  1.2545 -0.7524  0.1099
 2725SOL     OW19810   3.270   2.462   6.474  0.4509 -0.1577 -0.3380
 2725SOL    HW119811   3.349   2.409   6.487 -0.3491 -0.7413  2.1493
 2725SOL    HW219812   3.205   2.424   6.533 -1.1092 -0.1457 -2.0720
 2726SOL     OW19813   0.158   1.558   6.330  0.1126 -0.0212  0.2201
 2726SOL    HW119814   0.125   1.608   6.255 -0.1908  1.7618  1.5250
 2726SOL    HW219815   0.127   1.469   6.317  0.6688 -0.3276  1.0031
 2727SOL     OW19816   1.461   4.131   5.197 -0.2607  0.1098  0.4979
 2727SOL    HW119817   1.465   4.115   5.291  0.8268 -2.2497  0.0615
 2727SOL    HW219818   1.549   4.159   5.172  0.3886 -2.6648 -0.4286
 2728SOL     OW19819   3.866   2.204  12.494  0.1327  0.3186 -0.0653
 2728SOL    HW119820   3.849   2.131  12.553 -3.3787 -1.0827 -2.8292
 2728SOL    HW219821   3.921   2.262  12.547 -0.9504  0.3474  1.0248
 2729SOL     OW19822   2.170   3.406  10.162 -0.1899 -0.4640  0.4791
 2729SOL    HW119823   2.208   3.459  10.092  0.8599 -0.7878  0.8145
 2729SOL    HW219824   2.143   3.473  10.223 -1.0973  0.3402 -0.8042
 2730SOL     OW19825   3.575   2.864   6.446 -0.0401 -0.3137 -0.0010
 2730SOL    HW119826   3.536   2.950   6.431  1.6541  0.7442  1.6339
 2730SOL    HW219827   3.505   2.814   6.488  0.2143 -2.7625 -2.4827
 2731SOL     OW19828   3.721   1.143  11.189 -0.1433 -0.2090 -0.0426
 2731SOL    HW119829   3.674   1.224  11.172 -0.3529 -0.1215  0.9229
 2731SOL    HW219830   3.659   1.103  11.250 -1.7947  0.7444 -1.1014
 2732SOL     OW19831   2.000   0.139   6.606 -0.0769  0.2329  0.2215
 2732SOL    HW119832   2.007   0.208   6.540  1.1629  0.4997  0.6364
 2732SOL    HW219833   1.956   0.186   6.677 -4.7263 -1.0602 -1.8288
 2733SOL     OW19834   3.281   2.232   5.645  0.2159 -0.4834 -0.6072
 2733SOL    HW119835   3.360   2.243   5.593  0.1755 -0.3506 -0.6395
 2733SOL    HW219836   3.255   2.139   5.647  2.0562 -0.9767  0.2211
 2734SOL     OW19837   2.626   0.812   1.639 -0.2584  0.7875 -0.7582
 2734SOL    HW119838   2.714   0.832   1.672  0.0795  1.4110 -2.0261
 2734SOL    HW219839   2.639   0.820   1.545  0.1460  0.3016 -0.7420
 2735SOL     OW19840   1.246   1.508  11.312  0.4899 -0.1345  0.0795
 2735SOL    HW119841   1.263   1.440  11.377 -1.0787 -0.2659  0.3338
 2735SOL    HW219842   1.205   1.460  11.241 -1.8479 -0.7166  1.8304
 2736SOL     OW19843   4.508   1.860   3.955  0.6684  0.6454  0.5523
 2736SOL    HW119844   4.422   1.833   3.987  1.0087 -0.4779  0.5094
 2736SOL    HW219845   4.481   1.919   3.884 -2.1015  0.9289  1.8391
 2737SOL     OW19846   2.137   0.205   5.271 -0.0791 -0.7396 -0.3084
 2737SOL    HW119847   2.230   0.224   5.257 -1.3793  3.9546 -2.7234
 2737SOL    HW219848   2.135   0.114   5.241 -1.5754 -0.1316 -2.0368
 2738SOL     OW19849   2.086   1.015   5.773 -0.2106 -0.0309  0.8407
 2738SOL    HW119850   2.149   0.962   5.724 -0.3191 -0.4659  1.1675
 2738SOL    HW219851   2.065   1.087   5.712 -3.3267 -0.4106  1.4269
 2739SOL     OW19852   4.088   4.341   5.292  0.0214 -0.1865  0.2802
 2739SOL    HW119853   4.080   4.423   5.243  1.1681 -0.7886 -0.9208
 2739SOL    HW219854   4.014   4.348   5.352  0.4327 -0.5370  0.8290
 2740SOL     OW19855   2.441   0.568   6.694  0.3532  0.0547  0.3989
 2740SOL    HW119856   2.497   0.494   6.717 -1.3897 -1.0707  1.0648
 2740SOL    HW219857   2.432   0.616   6.777  2.7588  0.0559  0.6677
 2741SOL     OW19858   3.995   4.593  15.659 -0.1145  0.4966 -0.1590
 2741SOL    HW119859   4.077   4.546  15.670  0.8644  2.2227 -0.1057
 2741SOL    HW219860   3.937   4.553  15.724  0.7659 -3.2186 -1.7106
 2742SOL     OW19861   3.409   3.738   0.648  0.1647 -0.8384 -0.1221
 2742SOL    HW119862   3.449   3.823   0.632 -1.2552  0.1531  1.6505
 2742SOL    HW219863   3.410   3.699   0.561 -0.9224  0.4405 -0.6938
 2743SOL     OW19864   0.387   0.485   9.248  0.1594  0.5623  0.3252
 2743SOL    HW119865   0.427   0.435   9.320  1.6335  1.4168  0.1081
 2743SOL    HW219866   0.293   0.469   9.261  0.3374 -1.7621 -1.2511
 2744SOL     OW19867   1.520   3.530  15.384 -0.1985  0.2200 -0.0349
 2744SOL    HW119868   1.446   3.575  15.424  0.6810  0.6700  1.0793
 2744SOL    HW219869   1.553   3.489  15.464  1.1306 -0.0929 -0.7412
 2745SOL     OW19870   2.416   1.666   2.238  0.5880 -0.0450  0.0283
 2745SOL    HW119871   2.394   1.635   2.326 -2.6105 -2.3067 -1.5580
 2745SOL    HW219872   2.376   1.609   2.172 -0.2629 -0.9716  1.3493
 2746SOL     OW19873   1.112   1.960  13.544 -0.4433 -0.6408  0.1718
 2746SOL    HW119874   1.085   2.049  13.566 -3.4754 -1.0611 -1.8135
 2746SOL    HW219875   1.077   1.953  13.455 -0.4309  0.8281  0.0467
 2747SOL     OW19876   1.365   2.942  10.077  0.4912 -0.4337  0.1243
 2747SOL    HW119877   1.387   2.916   9.988  0.2611  1.4854 -0.4827
 2747SOL    HW219878   1.383   2.862  10.126 -0.5806 -0.0794  1.1042
 2748SOL     OW19879   2.357   0.644   3.637  0.3044  0.1925 -0.7624
 2748SOL    HW119880   2.393   0.556   3.641 -2.5213 -0.9204  0.9101
 2748SOL    HW219881   2.276   0.623   3.590 -0.7832  0.5778  0.9137
 2749SOL     OW19882   1.933   0.318  14.907 -0.0186 -0.3517  0.1974
 2749SOL    HW119883   1.899   0.354  14.826  0.2163  0.6649  0.5600
 2749SOL    HW219884   1.876   0.242  14.919  0.2645 -0.5193  0.4904
 2750SOL     OW19885   1.140   1.807   4.002  1.1155  0.1051  0.8280
 2750SOL    HW119886   1.157   1.885   4.055 -0.7210  1.2743 -0.2947
 2750SOL    HW219887   1.066   1.770   4.051  1.1294  0.3938  1.0678
 2751SOL     OW19888   3.699   1.293   3.290  0.3213 -0.0890 -0.3587
 2751SOL    HW119889   3.631   1.232   3.261  2.1740 -2.3887  0.1727
 2751SOL    HW219890   3.759   1.296   3.215 -2.1348  1.2001 -2.2749
 2752SOL     OW19891   1.957   4.498   9.215 -0.3616  0.2539 -0.5947
 2752SOL    HW119892   1.921   4.586   9.228  0.0009  0.3553 -0.2912
 2752SOL    HW219893   1.938   4.500   9.121  0.2855 -2.2854 -0.7568
 2753SOL     OW19894   0.461   2.607   9.702 -0.2287  0.0267 -0.0845
 2753SOL    HW119895   0.552   2.595   9.729 -0.3803 -2.0894 -0.5383
 2753SOL    HW219896   0.475   2.692   9.661 -0.9736  1.5136  2.7035
 2754SOL     OW19897   0.043   2.082   2.805 -0.1745 -0.7444  0.6498
 2754SOL    HW119898   0.034   2.076   2.710 -0.1950 -0.2532  0.6209
 2754SOL    HW219899   0.021   1.992   2.828 -1.6889 -1.1682 -2.5239
 2755SOL     OW19900   3.982   2.392  13.120 -0.1860  0.2192 -0.3362
 2755SOL    HW119901   3.908   2.369  13.177 -0.2572 -0.8404 -0.8550
 2755SOL    HW219902   4.016   2.311  13.084 -3.7440 -1.6435  0.4953
 2756SOL     OW19903   1.020   0.889   0.473 -0.0026  0.4094 -0.0346
 2756SOL    HW119904   0.959   0.952   0.433  1.2981  1.9529  0.3908
 2756SOL    HW219905   0.971   0.811   0.449  0.5213  0.3165 -0.8178
 2757SOL     OW19906   1.216   3.104   2.753 -0.3895 -0.1420 -0.2813
 2757SOL    HW119907   1.282   3.108   2.683 -2.0363  0.7916 -1.8064
 2757SOL    HW219908   1.188   3.013   2.746 -2.0336  0.4229 -1.0420
 2758SOL     OW19909   4.075   3.742   4.495  0.7174 -0.2957  0.2822
 2758SOL    HW119910   4.035   3.791   4.567  0.5859 -2.3499  1.6220
 2758SOL    HW219911   4.156   3.730   4.545  2.1890  2.6101 -1.4438
 2759SOL     OW19912   0.543   0.984   5.791  0.3577  0.6543  0.9150
 2759SOL    HW119913   0.617   1.039   5.766 -0.4519  1.2074 -0.2590
 2759SOL    HW219914   0.509   0.981   5.702 -0.2445  0.7042  1.1391
 2760SOL     OW19915   1.455   4.665  16.597  0.0100  0.3616  0.4162
 2760SOL    HW119916   1.537   4.666  16.548  0.7422  1.5552  1.6740
 2760SOL    HW219917   1.454   0.015  16.638  1.6052  0.1432  0.9106
 2761SOL     OW19918   1.635   3.664   1.082 -0.2408  0.1363  0.6989
 2761SOL    HW119919   1.545   3.634   1.091 -0.4022 -0.2546 -2.2380
 2761SOL    HW219920   1.674   3.645   1.167  0.1985  0.7696  0.6388
 2762SOL     OW19921   4.590   2.887   5.895 -0.0901 -0.2025  0.8590
 2762SOL    HW119922   4.512   2.842   5.924 -0.7677  0.0744 -0.5233
 2762SOL    HW219923   4.556   2.957   5.840 -0.2373 -1.5252 -0.7295
 2763SOL     OW19924   1.270   4.190   3.158  0.5942 -0.0846 -0.0045
 2763SOL    HW119925   1.314   4.194   3.073  0.4455 -1.8417 -0.1518
 2763SOL    HW219926   1.287   4.279   3.190  1.1562  0.7265 -2.5381
 2764SOL     OW19927   0.476   0.797   2.163  0.3648  0.3102  0.0616
 2764SOL    HW119928   0.524   0.876   2.189  0.3159  0.4556 -0.2886
 2764SOL    HW219929   0.492   0.794   2.068 -2.0043 -2.1666 -0.2720
 2765SOL     OW19930   0.268   3.701  10.098 -0.4064  0.0204  0.1160
 2765SOL    HW119931   0.335   3.647  10.055 -3.1351 -3.2255 -0.0494
 2765SOL    HW219932   0.310   3.787  10.092 -0.4024 -0.0264 -0.5105
 2766SOL     OW19933   3.744   1.634  14.985 -0.4364  0.4455 -0.1008
 2766SOL    HW119934   3.693   1.657  15.062  0.4244 -0.9319  0.8743
 2766SOL    HW219935   3.738   1.716  14.936 -1.9520  0.4175  0.0416
 2767SOL     OW19936   3.016   2.743   5.474 -0.8213  0.8140 -0.0656
 2767SOL    HW119937   2.943   2.691   5.441  0.6924 -1.1066 -0.4052
 2767SOL    HW219938   3.068   2.767   5.397  3.2152  0.5575  2.5665
 2768SOL     OW19939   4.716   1.035   8.040  0.7079 -0.5656 -0.4872
 2768SOL    HW119940   4.642   1.004   7.987  0.1870 -0.4173  0.1552
 2768SOL    HW219941   4.670   1.082   8.110 -1.6079 -0.1908 -2.2459
 2769SOL     OW19942   2.483   4.388   5.392 -0.7883  0.2590 -0.0742
 2769SOL    HW119943   2.464   4.299   5.362 -0.0093  0.4271 -1.0883
 2769SOL    HW219944   2.468   4.432   5.308 -0.8646  1.1748  0.4176
 2770SOL     OW19945   1.766   2.865   3.877 -0.1566  0.3019 -0.3714
 2770SOL    HW119946   1.757   2.899   3.788  0.9551 -0.8689 -0.9358
 2770SOL    HW219947   1.751   2.948   3.923  1.5878  0.5855 -0.3238
 2771SOL     OW19948   3.835   2.852   7.772  0.3127 -0.6689 -0.2670
 2771SOL    HW119949   3.893   2.889   7.705 -0.4484  0.9074 -0.0441
 2771SOL    HW219950   3.882   2.779   7.812  1.4013 -1.1174 -2.3902
 2772SOL     OW19951   0.420   4.280   4.217  0.3381  0.0611 -0.4329
 2772SOL    HW119952   0.392   4.212   4.279  1.2499  1.7290  1.8051
 2772SOL    HW219953   0.475   4.238   4.152 -0.4538 -1.6122 -0.0320
 2773SOL     OW19954   1.096   4.567   4.406 -0.4263 -0.3267 -0.1035
 2773SOL    HW119955   1.074   4.520   4.325 -0.2243 -0.5142 -0.0487
 2773SOL    HW219956   1.159   4.627   4.367 -0.6576 -0.7924 -1.2147
 2774SOL     OW19957   4.077   3.520  17.168 -0.0448  0.1569 -0.1881
 2774SOL    HW119958   4.107   3.429  17.171  0.3412  0.2421 -1.4686
 2774SOL    HW219959   4.067   3.534  17.262  0.3874 -2.9051  0.3135
 2775SOL     OW19960   0.539   4.448   4.558  0.1796  0.6077  0.3190
 2775SOL    HW119961   0.611   4.397   4.597  1.3721 -0.2532 -3.0014
 2775SOL    HW219962   0.509   4.491   4.638 -1.0384  0.3677 -0.0074
 2776SOL     OW19963   0.106   4.724   1.615  0.0250 -0.2135  0.1947
 2776SOL    HW119964   0.115   0.063   1.557  0.1190 -0.1106  0.3412
 2776SOL    HW219965   0.175   4.673   1.572 -0.6053  1.3330 -2.6090
 2777SOL     OW19966   0.969   4.737   5.493 -0.3240 -0.4705 -0.2813
 2777SOL    HW119967   1.008   0.024   5.409  3.0897  0.1365  1.4559
 2777SOL    HW219968   1.029   0.038   5.558  0.3932 -0.4056 -0.9863
 2778SOL     OW19969   4.565   0.186   5.597  0.2170  0.2328  0.1230
 2778SOL    HW119970   4.476   0.153   5.602 -0.9064  3.2109 -0.4688
 2778SOL    HW219971   4.609   0.113   5.641 -0.3261  0.1445  0.5196
 2779SOL     OW19972   4.079   3.664  16.937 -0.2832  0.2076 -0.3483
 2779SOL    HW119973   4.075   3.595  17.003  1.6385  2.0508  1.6987
 2779SOL    HW219974   3.992   3.652  16.900  0.5465  2.0281 -2.8479
 2780SOL     OW19975   2.601   2.548   6.055 -0.4769  0.4193 -0.3321
 2780SOL    HW119976   2.673   2.589   6.007  1.8023 -2.8124  0.3421
 2780SOL    HW219977   2.583   2.602   6.132  1.1595  0.4093  0.0613
 2781SOL     OW19978   1.476   1.532   2.576  0.3202 -0.6039 -0.6421
 2781SOL    HW119979   1.507   1.602   2.520  1.1145 -0.3935  0.0611
 2781SOL    HW219980   1.556   1.507   2.622  0.0753 -1.2276 -0.5401
 2782SOL     OW19981   1.469   0.388   3.328 -0.0510 -0.3380 -0.9678
 2782SOL    HW119982   1.527   0.317   3.355  1.4453  1.8789  1.7186
 2782SOL    HW219983   1.409   0.340   3.271 -0.7298 -0.8713  0.2078
 2783SOL     OW19984   0.574   3.110  10.921 -0.2260 -0.4472  0.1117
 2783SOL    HW119985   0.531   3.167  10.985 -0.0339 -2.5149  2.0967
 2783SOL    HW219986   0.513   3.037  10.918 -1.5681  0.7842 -1.9966
 2784SOL     OW19987   3.715   1.111   4.196  0.6931  0.3355  0.2028
 2784SOL    HW119988   3.635   1.060   4.211  1.3484 -0.1144  2.1160
 2784SOL    HW219989   3.785   1.053   4.224  0.8553  0.2381 -0.4001
 2785SOL     OW19990   4.193   4.049  16.233  0.3452  0.5954  0.8568
 2785SOL    HW119991   4.216   4.135  16.269  0.9698  1.1301 -0.8502
 2785SOL    HW219992   4.129   4.066  16.164 -1.3500 -0.4550  2.1576
 2786SOL     OW19993   0.382   0.208  10.117  0.4352  0.1394 -0.2360
 2786SOL    HW119994   0.428   0.132  10.084  1.0573  1.2136 -1.8295
 2786SOL    HW219995   0.326   0.227  10.041 -1.4979 -3.6410  0.2776
 2787SOL     OW19996   0.554   1.116   8.510  0.0531  0.0588 -0.0431
 2787SOL    HW119997   0.557   1.211   8.523 -2.4112  0.3264 -1.3542
 2787SOL    HW219998   0.623   1.117   8.443  1.7966  2.1755  1.7843
 2788SOL     OW19999   3.883   2.878   4.126  0.2129 -0.3437  0.2199
 2788SOL    HW120000   3.958   2.894   4.183  1.8298 -1.3980 -1.6045
 2788SOL    HW220001   3.882   2.963   4.082 -1.1174 -0.6583 -0.3642
 2789SOL     OW20002   2.089   1.723   4.064  0.5638  0.2704 -0.0943
 2789SOL    HW120003   2.138   1.750   4.142  0.2201  0.4582  0.0600
 2789SOL    HW220004   2.035   1.650   4.093 -0.0937  0.4750 -0.7954
 2790SOL     OW20005   1.057   2.466  15.145 -0.0442 -0.3968 -0.0953
 2790SOL    HW120006   0.965   2.437  15.142 -0.0711 -0.6358  2.7728
 2790SOL    HW220007   1.104   2.384  15.163 -0.3625 -0.3731  0.8740
 2791SOL     OW20008   1.717   4.285  11.838 -0.0953 -0.0787  0.4693
 2791SOL    HW120009   1.731   4.290  11.932 -0.2407 -0.8547  0.5289
 2791SOL    HW220010   1.804   4.303  11.803  0.5430 -2.4407  0.8636
 2792SOL     OW20011   2.169   2.733   5.297  0.4387  0.3518  0.2367
 2792SOL    HW120012   2.142   2.735   5.206  2.7408 -0.0394 -0.4400
 2792SOL    HW220013   2.226   2.656   5.296 -0.1345 -0.1341  3.3958
 2793SOL     OW20014   2.028   2.478  11.345 -0.8070  0.8370 -0.1507
 2793SOL    HW120015   2.029   2.430  11.263 -1.5161  0.5379  0.0181
 2793SOL    HW220016   1.947   2.527  11.333 -0.9315  0.7092  0.1741
 2794SOL     OW20017   3.216   0.550   7.928 -0.0201  0.7077  0.3887
 2794SOL    HW120018   3.306   0.574   7.950 -0.2843  1.9571  0.1341
 2794SOL    HW220019   3.229   0.475   7.870 -0.6976  0.5470  0.4410
 2795SOL     OW20020   0.626   4.531  16.317 -0.1640 -0.3703  0.5641
 2795SOL    HW120021   0.708   4.526  16.365  0.3677 -1.3759 -0.4499
 2795SOL    HW220022   0.662   4.567  16.236 -0.3095  0.6329  0.9443
 2796SOL     OW20023   2.582   2.648   8.653  0.0446  0.2315  0.5816
 2796SOL    HW120024   2.530   2.697   8.590  0.2811  1.0553  1.0315
 2796SOL    HW220025   2.669   2.675   8.624 -1.5616  1.2446 -3.2497
 2797SOL     OW20026   3.493   1.237  14.206  0.3199 -0.1090 -0.0197
 2797SOL    HW120027   3.454   1.150  14.213 -1.2402  0.8832  3.8292
 2797SOL    HW220028   3.499   1.255  14.300  0.5865  1.3945 -0.3166
 2798SOL     OW20029   1.336   2.536   1.704 -0.2990 -0.4780 -0.0926
 2798SOL    HW120030   1.259   2.487   1.679 -1.1520  0.3073  0.9755
 2798SOL    HW220031   1.332   2.589   1.624 -2.0494 -1.4402 -0.6360
 2799SOL     OW20032   2.265   2.341   8.578 -0.3674  0.2035  0.5698
 2799SOL    HW120033   2.285   2.371   8.667  1.3794 -1.3356  0.7130
 2799SOL    HW220034   2.199   2.275   8.596 -1.3799  0.9595 -0.4149
 2800SOL     OW20035   2.553   0.266   5.365  0.1481 -0.0125  0.1522
 2800SOL    HW120036   2.494   0.212   5.417 -0.2092 -1.9624 -2.2885
 2800SOL    HW220037   2.507   0.267   5.281 -0.2703  0.3420  0.3868
 2801SOL     OW20038   1.423   0.107   5.138 -0.0055 -0.5079  0.3648
 2801SOL    HW120039   1.380   0.192   5.123 -3.2456 -2.4404 -1.2277
 2801SOL    HW220040   1.398   0.061   5.058 -0.9204  3.3566 -1.6242
 2802SOL     OW20041   3.497   1.665   7.182 -0.2715  0.6230  0.0649
 2802SOL    HW120042   3.406   1.678   7.158  0.0053 -0.4169 -1.5442
 2802SOL    HW220043   3.535   1.747   7.150  2.1583 -1.2689 -1.9807
 2803SOL     OW20044   4.096   1.281  17.649 -0.0161  0.8224  0.8861
 2803SOL    HW120045   4.054   1.355  17.605  0.5944  0.7166  0.1369
 2803SOL    HW220046   4.032   1.210  17.654 -1.2945  1.7646 -2.3944
 2804SOL     OW20047   2.811   3.619   5.681 -0.0534 -0.1477 -0.0132
 2804SOL    HW120048   2.830   3.661   5.765  0.5322 -0.7628  0.1641
 2804SOL    HW220049   2.716   3.608   5.686  0.0593 -0.7274  0.8924
 2805SOL     OW20050   3.140   3.825   1.696  0.5026 -0.9284  0.5805
 2805SOL    HW120051   3.224   3.870   1.692 -0.0499  0.0723  0.3163
 2805SOL    HW220052   3.097   3.882   1.759  2.0166 -0.0696  0.8506
 2806SOL     OW20053   1.215   4.279   9.870 -0.2181 -0.7641  0.3738
 2806SOL    HW120054   1.248   4.355   9.822  0.3624  0.2829  2.4403
 2806SOL    HW220055   1.222   4.307   9.961  1.4998 -0.1657  0.0461
 2807SOL     OW20056   3.144   1.830   8.993 -0.8311  0.5561 -0.5241
 2807SOL    HW120057   3.176   1.746   8.960  1.6393  0.3259  2.5084
 2807SOL    HW220058   3.051   1.808   8.984 -0.3460 -1.3085 -0.8326
 2808SOL     OW20059   1.613   4.249   6.506 -0.2113  0.3636 -0.3524
 2808SOL    HW120060   1.551   4.288   6.444 -3.3726  0.6840  3.0071
 2808SOL    HW220061   1.561   4.205   6.574 -0.5792  0.2771 -0.6914
 2809SOL     OW20062   3.338   2.794   6.849  0.0530  0.4626  0.1298
 2809SOL    HW120063   3.277   2.752   6.908  1.2344  0.2833  1.2107
 2809SOL    HW220064   3.388   2.713   6.843  0.8932  0.8664  1.7160
 2810SOL     OW20065   0.283   4.532   2.038  0.0993  0.0189  0.1950
 2810SOL    HW120066   0.256   4.454   1.990  0.3482  0.5767 -0.8355
 2810SOL    HW220067   0.245   4.606   1.991 -0.7726 -0.5705 -0.0203
 2811SOL     OW20068   0.477   1.382   4.486  0.1075  0.1684 -0.7445
 2811SOL    HW120069   0.483   1.357   4.578  0.8867 -0.2064 -0.9009
 2811SOL    HW220070   0.498   1.475   4.493 -0.3214  0.1027  1.3787
 2812SOL     OW20071   0.725   1.829   3.124  0.0281  0.2310 -0.9069
 2812SOL    HW120072   0.634   1.825   3.153  0.1114  0.4466 -0.6145
 2812SOL    HW220073   0.768   1.761   3.174  0.1650  0.1882 -1.0818
 2813SOL     OW20074   1.409   0.985   2.762 -0.4692 -0.2711 -0.5181
 2813SOL    HW120075   1.430   0.985   2.856  1.7307 -1.0697 -0.9998
 2813SOL    HW220076   1.406   1.077   2.736  0.3893  0.2681  1.2544
 2814SOL     OW20077   3.330   0.076   2.496 -0.3288 -0.0147  0.6292
 2814SOL    HW120078   3.270   0.110   2.562  0.5430  3.9510 -0.6003
 2814SOL    HW220079   3.300   4.723   2.482  0.9443 -0.2763 -0.4610
 2815SOL     OW20080   3.843   4.495   8.209  0.1239 -0.1803 -0.7290
 2815SOL    HW120081   3.887   4.428   8.157 -0.1157 -1.3436  0.5867
 2815SOL    HW220082   3.834   4.571   8.151 -1.6345  0.3501  0.2561
 2816SOL     OW20083   2.670   0.105   7.563  0.2180 -0.0265  0.3802
 2816SOL    HW120084   2.583   0.115   7.602 -0.4764  1.0198 -1.4405
 2816SOL    HW220085   2.720   0.138   7.637 -0.0878  0.5253  0.3430
 2817SOL     OW20086   3.906   1.235   3.727  0.1635  0.2474  0.0947
 2817SOL    HW120087   3.870   1.259   3.813 -0.5492 -0.6246  0.0432
 2817SOL    HW220088   3.985   1.194   3.762  0.2912  0.5566  0.1743
 2818SOL     OW20089   2.625   1.165   5.086  0.1191 -0.1375 -0.1691
 2818SOL    HW120090   2.675   1.087   5.059 -0.2792 -1.3446  2.5057
 2818SOL    HW220091   2.693   1.201   5.143  0.1943  1.2515 -1.1665
 2819SOL     OW20092   3.865   1.643   8.402 -0.7171 -0.2219  0.2268
 2819SOL    HW120093   3.857   1.738   8.410  0.2315 -0.2135  1.1424
 2819SOL    HW220094   3.804   1.610   8.468 -0.1265  0.2662  1.0175
 2820SOL     OW20095   4.722   2.088   9.384 -0.5064 -0.1175  0.4504
 2820SOL    HW120096   4.736   2.043   9.301  0.6975  0.4610  0.3477
 2820SOL    HW220097   0.045   2.163   9.383 -2.2469  1.2805  0.9868
 2821SOL     OW20098   2.697   1.487   7.130 -0.1905  0.1921 -0.5595
 2821SOL    HW120099   2.680   1.469   7.038  3.7123 -0.6107 -1.1407
 2821SOL    HW220100   2.784   1.525   7.122  1.8513 -4.2113  0.3265
 2822SOL     OW20101   3.748   1.468   6.532  0.2490  0.5017 -0.0904
 2822SOL    HW120102   3.769   1.435   6.619  1.3928 -0.7004 -0.8113
 2822SOL    HW220103   3.654   1.451   6.528  0.3000 -0.0190  0.9815
 2823SOL     OW20104   1.830   2.167  11.345 -0.5368 -0.6528 -0.0121
 2823SOL    HW120105   1.779   2.085  11.342  0.5076 -1.2673 -1.2262
 2823SOL    HW220106   1.801   2.203  11.260 -1.3553 -1.7975 -0.2281
 2824SOL     OW20107   3.490   0.033  14.588 -0.0948  0.1022 -0.4994
 2824SOL    HW120108   3.398   0.006  14.586 -0.1263 -0.0096  1.5954
 2824SOL    HW220109   3.508   0.019  14.682 -1.1466 -2.1582 -0.6360
 2825SOL     OW20110   0.143   1.204   6.958  0.2198  0.3202 -0.2544
 2825SOL    HW120111   0.076   1.194   6.891  1.5286 -2.2625 -1.1937
 2825SOL    HW220112   0.200   1.269   6.915  0.6171 -0.4326 -0.8679
 2826SOL     OW20113   2.941   2.850   1.757  0.1586  0.1674 -0.1371
 2826SOL    HW120114   2.921   2.757   1.745 -0.7859  0.1367  1.5749
 2826SOL    HW220115   3.032   2.866   1.734  0.3949 -0.7404  0.1398
 2827SOL     OW20116   2.037   3.978   7.808 -0.1301  0.4209  0.0809
 2827SOL    HW120117   2.022   3.917   7.736  0.1334 -0.7812  1.0585
 2827SOL    HW220118   1.955   4.025   7.794 -1.6247 -1.7617  1.5205
 2828SOL     OW20119   2.895   2.057  11.130 -0.0472  0.6565  0.0389
 2828SOL    HW120120   2.840   1.982  11.107  0.5788  0.5968 -1.2411
 2828SOL    HW220121   2.827   2.102  11.180  0.3863  1.0614  0.2642
 2829SOL     OW20122   2.215   3.743   0.629  0.3575 -0.2310 -0.0966
 2829SOL    HW120123   2.237   3.810   0.694 -0.4148  0.6438 -0.7338
 2829SOL    HW220124   2.295   3.692   0.617 -0.7932 -2.0912  0.1404
 2830SOL     OW20125   1.141   3.206   3.312  0.1366 -0.6868  0.2698
 2830SOL    HW120126   1.057   3.217   3.356  0.5535 -0.4352  0.9886
 2830SOL    HW220127   1.133   3.118   3.273  1.0817 -0.7929  0.3028
 2831SOL     OW20128   2.959   2.492   8.201  0.0662  0.4691 -0.0288
 2831SOL    HW120129   2.949   2.587   8.204 -2.6546  0.1574  0.7931
 2831SOL    HW220130   2.920   2.458   8.281  2.8561 -0.3805  0.9525
 2832SOL     OW20131   4.089   0.715   8.085 -0.8358  0.1851 -0.3054
 2832SOL    HW120132   4.043   0.661   8.020  0.5594 -0.2776 -0.8958
 2832SOL    HW220133   4.172   0.729   8.040 -0.6989 -0.6087 -0.3036
 2833SOL     OW20134   1.281   3.029   6.978  0.3338 -0.1239 -0.2360
 2833SOL    HW120135   1.240   2.963   7.035 -1.0734  1.2867  0.4020
 2833SOL    HW220136   1.205   3.083   6.955  0.3259  0.5382  1.2717
 2834SOL     OW20137   1.103   2.764  15.725  0.0746 -0.4356  0.0224
 2834SOL    HW120138   1.066   2.810  15.800  0.3053  1.4947 -1.0639
 2834SOL    HW220139   1.099   2.836  15.663 -2.2571  0.0606  0.7710
 2835SOL     OW20140   4.253   3.439   2.574  0.6749  0.6296  0.1438
 2835SOL    HW120141   4.236   3.363   2.518 -0.8200  1.5178 -0.6128
 2835SOL    HW220142   4.264   3.388   2.654  0.3492 -0.7999 -0.7385
 2836SOL     OW20143   0.815   2.611  15.335 -0.4624  0.2325 -0.1139
 2836SOL    HW120144   0.884   2.615  15.401  0.7795  0.3132 -1.4078
 2836SOL    HW220145   0.838   2.530  15.290 -1.8819  0.5108 -1.3853
 2837SOL     OW20146   3.743   1.661  10.304  0.3110 -0.2128  0.2043
 2837SOL    HW120147   3.747   1.706  10.220 -0.2551 -0.8408 -0.1617
 2837SOL    HW220148   3.656   1.689  10.334  1.3764  0.8931  2.2942
 2838SOL     OW20149   1.558   0.782   9.665  0.0246 -0.5863  0.3116
 2838SOL    HW120150   1.606   0.864   9.669  0.6674 -0.9181 -0.7336
 2838SOL    HW220151   1.467   0.809   9.664  0.1445 -0.2326 -1.4401
 2839SOL     OW20152   1.199   4.502   2.643 -0.3508 -0.3348 -0.5651
 2839SOL    HW120153   1.248   4.568   2.692 -0.5708 -0.4565 -0.1801
 2839SOL    HW220154   1.229   4.524   2.555  0.6544 -1.9152 -0.6193
 2840SOL     OW20155   2.091   3.075   6.335 -0.1034 -0.0991  0.5618
 2840SOL    HW120156   2.177   3.048   6.304 -0.2745  0.0320 -0.0325
 2840SOL    HW220157   2.032   3.019   6.285 -0.6868  0.7218  0.3299
 2841SOL     OW20158   1.049   1.349   0.155 -0.0043 -0.0794 -0.0140
 2841SOL    HW120159   0.986   1.385   0.217  0.2664  1.5963 -0.7094
 2841SOL    HW220160   1.126   1.325   0.206 -0.2872 -1.0608 -0.0481
 2842SOL     OW20161   0.270   0.122   7.514 -0.4150  0.2725 -0.1582
 2842SOL    HW120162   0.297   0.210   7.538  2.3965 -0.4070 -0.8112
 2842SOL    HW220163   0.216   0.101   7.590  0.9662 -0.5814  0.5874
 2843SOL     OW20164   1.578   0.231  15.030 -0.4251  0.6876  0.0750
 2843SOL    HW120165   1.541   0.299  14.973  0.0499 -0.9470 -2.2106
 2843SOL    HW220166   1.632   0.174  14.974 -2.4827  0.9085 -2.1364
 2844SOL     OW20167   4.054   2.161   5.664  0.2667 -0.2160 -0.3426
 2844SOL    HW120168   4.030   2.148   5.756  0.9411 -1.2748 -0.3178
 2844SOL    HW220169   3.968   2.178   5.624 -0.6303 -0.1501  1.5943
 2845SOL     OW20170   1.478   1.353  13.813 -0.4155  0.4118 -0.1105
 2845SOL    HW120171   1.510   1.417  13.749 -0.6339  0.0427 -0.5923
 2845SOL    HW220172   1.385   1.378  13.809 -0.3984  0.4854 -0.0624
 2846SOL     OW20173   1.182   2.383   2.069  0.3297  0.1599 -0.6781
 2846SOL    HW120174   1.177   2.435   2.149 -1.6023 -2.0166  0.6228
 2846SOL    HW220175   1.170   2.454   2.006  1.4987 -0.3545 -1.4731
 2847SOL     OW20176   4.655   1.019   7.692  0.3295 -0.4278 -0.0904
 2847SOL    HW120177   4.684   1.108   7.673  0.4071 -0.2723  0.7285
 2847SOL    HW220178   0.004   0.978   7.698  1.0771  1.0703 -0.5722
 2848SOL     OW20179   2.426   3.478  13.154 -0.1497 -0.4977 -0.5222
 2848SOL    HW120180   2.468   3.481  13.240  0.3303  0.9707 -0.8103
 2848SOL    HW220181   2.493   3.453  13.091  0.9265  0.3096  0.3157
 2849SOL     OW20182   1.933   3.384  17.523 -0.6698  0.1376 -0.2039
 2849SOL    HW120183   1.936   3.477  17.500  0.1691  0.4011  0.9733
 2849SOL    HW220184   2.019   3.350  17.502 -0.9546 -1.4546  1.2717
 2850SOL     OW20185   3.822   1.029  12.736  0.1343 -0.5673 -0.3269
 2850SOL    HW120186   3.879   1.041  12.660 -0.5317  1.4499 -0.5070
 2850SOL    HW220187   3.743   1.077  12.713 -0.1683 -0.5581  0.7202
 2851SOL     OW20188   4.100   0.486   7.218  0.2215  0.3029 -0.7071
 2851SOL    HW120189   4.073   0.410   7.166  0.4153 -0.2801  0.0557
 2851SOL    HW220190   4.166   0.523   7.158  2.7922 -2.4571  0.4016
 2852SOL     OW20191   3.998   1.611  11.561 -0.1288 -0.2553  0.2824
 2852SOL    HW120192   3.960   1.693  11.529 -3.2518 -1.9343 -0.3558
 2852SOL    HW220193   3.953   1.592  11.643 -0.5310  0.8804  0.3268
 2853SOL     OW20194   0.043   3.862  13.295 -0.7587  0.0506 -0.3207
 2853SOL    HW120195   0.042   3.941  13.241 -1.1910  0.5329  0.3910
 2853SOL    HW220196   4.687   3.842  13.285 -0.5831 -1.3637  0.8200
 2854SOL     OW20197   1.679   1.361  10.402 -0.0055 -0.1012 -0.5038
 2854SOL    HW120198   1.722   1.432  10.448  0.9880 -1.1954  0.2631
 2854SOL    HW220199   1.694   1.287  10.461 -1.4608 -0.0055 -0.0056
 2855SOL     OW20200   0.073   2.244  12.059  0.6656 -0.4174 -0.3871
 2855SOL    HW120201   0.153   2.286  12.027  1.6172 -1.0612  1.1270
 2855SOL    HW220202   0.070   2.170  11.998 -0.2377 -1.0479  0.4176
 2856SOL     OW20203   2.626   0.614   8.729 -0.0445 -0.3588  0.5095
 2856SOL    HW120204   2.544   0.605   8.681  0.4813 -0.5845 -0.3566
 2856SOL    HW220205   2.687   0.603   8.656  0.7400 -1.4107  1.3130
 2857SOL     OW20206   3.889   2.788  16.062 -0.2419  0.1460  0.1472
 2857SOL    HW120207   3.967   2.834  16.093 -1.5856  2.1576  0.5314
 2857SOL    HW220208   3.903   2.698  16.093 -0.6176 -0.5493 -1.7262
 2858SOL     OW20209   0.999   1.097   0.039  0.8297 -0.3211  0.2004
 2858SOL    HW120210   0.958   1.183   0.028 -1.9218 -1.6673 -0.0088
 2858SOL    HW220211   1.082   1.119  17.742  0.4638  1.0072  0.1494
 2859SOL     OW20212   3.559   3.291   6.917 -0.2599 -0.4449 -0.0851
 2859SOL    HW120213   3.469   3.322   6.908 -0.1309  0.5740  2.1698
 2859SOL    HW220214   3.544   3.205   6.877  0.9433 -0.4059 -0.6226
 2860SOL     OW20215   2.591   3.047   6.416 -0.1788  0.1322  0.0624
 2860SOL    HW120216   2.620   3.116   6.475  1.9516 -0.3162 -0.4626
 2860SOL    HW220217   2.512   3.010   6.454 -1.4045  1.1563 -1.4811
 2861SOL     OW20218   2.495   2.039  12.311 -0.0161  0.7698  0.3122
 2861SOL    HW120219   2.559   2.099  12.351  1.1326 -0.2936  0.0704
 2861SOL    HW220220   2.440   2.015  12.385 -0.5022  1.1583  0.0752
 2862SOL     OW20221   1.999   1.370  14.859  0.5897 -0.6792 -0.1809
 2862SOL    HW120222   2.079   1.354  14.910 -0.0449  1.8650  1.6180
 2862SOL    HW220223   2.004   1.288  14.810  0.0713 -0.0334 -1.3102
 2863SOL     OW20224   4.107   3.888   9.863  0.0457  0.5958 -0.2310
 2863SOL    HW120225   4.081   3.980   9.855  0.0832  0.5485 -0.8666
 2863SOL    HW220226   4.199   3.900   9.884 -0.3030  0.9136  1.1191
 2864SOL     OW20227   1.112   1.136  16.515 -0.0734  0.2058 -0.1310
 2864SOL    HW120228   1.081   1.070  16.454  3.6612 -2.4368  0.7799
 2864SOL    HW220229   1.204   1.108  16.518  0.0970  0.6874 -0.8644
 2865SOL     OW20230   1.106   0.276   1.912  0.1745  0.4450  0.1674
 2865SOL    HW120231   1.125   0.200   1.966 -0.2425  0.2637  0.0570
 2865SOL    HW220232   1.025   0.318   1.939  0.5888 -1.0829  3.8265
 2866SOL     OW20233   3.766   2.518   4.138  0.3716 -0.0098 -0.4707
 2866SOL    HW120234   3.714   2.507   4.217  0.4747  0.0428 -0.3945
 2866SOL    HW220235   3.700   2.527   4.070  0.4440  0.7189 -0.4452
 2867SOL     OW20236   0.971   3.958   3.647 -0.2479  0.2826  0.4551
 2867SOL    HW120237   0.881   3.970   3.617 -0.3842 -0.6673  0.5041
 2867SOL    HW220238   0.966   3.865   3.670 -0.3965  0.4965  1.2805
 2868SOL     OW20239   3.523   4.106  11.708  0.1472  0.3961 -0.1742
 2868SOL    HW120240   3.537   4.165  11.782 -2.4521  2.0485 -1.0247
 2868SOL    HW220241   3.431   4.082  11.717 -0.0195  0.8450 -0.6852
 2869SOL     OW20242   4.326   2.901   1.922 -0.7348  0.6166 -0.4120
 2869SOL    HW120243   4.255   2.852   1.883  0.5071 -1.2960 -0.2565
 2869SOL    HW220244   4.359   2.832   1.980  0.3686  2.1905  0.8538
 2870SOL     OW20245   4.040   3.835   7.894  0.2114 -0.2367  0.5140
 2870SOL    HW120246   4.054   3.822   7.801  1.9133  0.3236  0.6841
 2870SOL    HW220247   4.067   3.926   7.907  1.6587 -0.7544  1.1736
 2871SOL     OW20248   3.981   3.227   4.338 -0.1082  0.3907 -0.7328
 2871SOL    HW120249   4.004   3.316   4.365  0.0970  0.1428 -0.0688
 2871SOL    HW220250   3.886   3.230   4.324 -0.1117 -2.3385 -1.1738
 2872SOL     OW20251   2.572   0.358   8.961 -0.3698  0.2421  0.1093
 2872SOL    HW120252   2.598   0.425   9.024  1.0893  0.9574 -1.2660
 2872SOL    HW220253   2.520   0.401   8.893 -1.7209 -0.8727  0.4355
 2873SOL     OW20254   4.236   2.164   9.793  0.2643 -0.6768 -0.5838
 2873SOL    HW120255   4.304   2.231   9.787  1.6566 -1.7994  2.6883
 2873SOL    HW220256   4.282   2.115   9.861  1.5969  1.8747  0.3510
 2874SOL     OW20257   4.397   2.646   8.589 -0.0633  0.1585  0.0147
 2874SOL    HW120258   4.344   2.725   8.603 -1.8152 -0.9715 -0.2242
 2874SOL    HW220259   4.481   2.691   8.575  0.3634 -0.5455  0.3631
 2875SOL     OW20260   3.360   4.231  13.516  0.1288  0.3238 -0.0138
 2875SOL    HW120261   3.399   4.234  13.604 -0.2961  0.5696  0.1685
 2875SOL    HW220262   3.374   4.138  13.498  0.8076  0.4923 -0.3303
 2876SOL     OW20263   2.626   1.762  12.427 -0.4115 -0.5351  0.6144
 2876SOL    HW120264   2.646   1.829  12.493 -0.5631 -0.2220  0.3414
 2876SOL    HW220265   2.680   1.791  12.354  1.4726 -0.5646  1.9950
 2877SOL     OW20266   4.037   2.203   1.274 -0.0409 -0.3150  0.4463
 2877SOL    HW120267   4.014   2.131   1.333 -0.1517  0.6481  1.5597
 2877SOL    HW220268   4.130   2.186   1.283  0.1621  0.0844 -0.8441
 2878SOL     OW20269   3.676   1.023   4.689  0.1694 -0.2251 -0.1518
 2878SOL    HW120270   3.656   1.096   4.632 -1.8481 -0.2986  0.4209
 2878SOL    HW220271   3.742   1.054   4.751 -0.9344  0.5079  0.6572
 2879SOL     OW20272   4.182   0.310   1.016  0.1432  0.1605 -0.7549
 2879SOL    HW120273   4.248   0.325   1.084 -0.7663 -0.2293  0.2176
 2879SOL    HW220274   4.161   0.400   0.992 -0.1955  0.3681  0.3282
 2880SOL     OW20275   3.988   3.194   5.676  0.2624  0.1994  0.0551
 2880SOL    HW120276   4.066   3.224   5.630  0.7764  0.8577  1.3672
 2880SOL    HW220277   3.957   3.125   5.617 -0.5267  1.1115 -0.5973
 2881SOL     OW20278   0.538   3.086   4.694  0.9835  0.2550  0.1758
 2881SOL    HW120279   0.621   3.039   4.684 -0.0003 -1.6157  0.7484
 2881SOL    HW220280   0.578   3.170   4.715 -0.3747  1.3891 -1.7700
 2882SOL     OW20281   3.197   0.451   5.415  0.4340  0.3410  0.3853
 2882SOL    HW120282   3.210   0.384   5.347 -1.1611 -0.3985  0.7929
 2882SOL    HW220283   3.273   0.506   5.398  0.9023 -0.0112  1.3937
 2883SOL     OW20284   1.752   0.489   7.055  0.4534  0.3032  0.1024
 2883SOL    HW120285   1.735   0.406   7.010  1.0488 -0.3027  1.0007
 2883SOL    HW220286   1.784   0.457   7.139  0.4321 -1.1765 -0.4492
 2884SOL     OW20287   1.937   0.005  11.984 -0.2320  0.0040  0.6508
 2884SOL    HW120288   1.850   4.727  11.948  0.1517 -1.7040  0.4385
 2884SOL    HW220289   1.925   4.687  12.061  0.7978 -0.3527  0.5517
 2885SOL     OW20290   0.463   1.752   1.491 -0.5594  0.1607 -0.6947
 2885SOL    HW120291   0.465   1.846   1.513  0.9833  0.1734 -0.9462
 2885SOL    HW220292   0.444   1.722   1.580 -1.3212  0.0567 -0.8856
 2886SOL     OW20293   3.593   1.961   2.732 -0.0205  0.2379  0.0068
 2886SOL    HW120294   3.506   1.968   2.693 -0.5806  0.1838  1.2150
 2886SOL    HW220295   3.643   2.025   2.682  0.4672  1.9190  2.5928
 2887SOL     OW20296   3.745   2.132   4.172  0.1732 -0.1194 -0.0399
 2887SOL    HW120297   3.761   2.043   4.141  0.3800  0.3482 -1.2820
 2887SOL    HW220298   3.781   2.184   4.100 -2.7576 -1.8969 -2.7595
 2888SOL     OW20299   0.571   3.400   9.422 -0.4923  0.3224  0.3094
 2888SOL    HW120300   0.545   3.396   9.514  3.0039 -0.7958  1.2342
 2888SOL    HW220301   0.620   3.318   9.412  0.0402  0.5305  1.2518
 2889SOL     OW20302   2.604   4.139   6.458 -0.6025 -0.0930  0.3294
 2889SOL    HW120303   2.567   4.226   6.472 -0.7220 -0.1349  0.2739
 2889SOL    HW220304   2.558   4.074   6.511  0.2020 -0.3714  0.6990
 2890SOL     OW20305   4.723   2.395   4.134 -0.6037  0.3522 -0.1916
 2890SOL    HW120306   0.053   2.454   4.100  0.4117 -1.0278 -0.6338
 2890SOL    HW220307   0.019   2.372   4.222 -0.2802 -1.3917 -0.7558
 2891SOL     OW20308   0.566   0.778   7.501 -0.1562 -0.4615 -0.4885
 2891SOL    HW120309   0.600   0.867   7.493 -1.4462 -0.0832 -1.7343
 2891SOL    HW220310   0.647   0.731   7.481  0.6842  1.4394 -1.4545
 2892SOL     OW20311   3.460   4.371  17.028  0.3701  0.6376  0.1922
 2892SOL    HW120312   3.505   4.400  17.107  1.3242  2.8345 -1.1544
 2892SOL    HW220313   3.526   4.407  16.969 -1.7859  1.0611 -1.9558
 2893SOL     OW20314   2.560   0.330   6.783  0.1367 -0.1714  0.1831
 2893SOL    HW120315   2.547   0.337   6.877 -1.1952  0.5263 -0.0512
 2893SOL    HW220316   2.594   0.241   6.777  1.1860  0.2598 -0.1715
 2894SOL     OW20317   2.479   3.676  12.595 -0.1189  0.0844  0.3252
 2894SOL    HW120318   2.450   3.739  12.529  2.0871  0.9720  0.2150
 2894SOL    HW220319   2.540   3.621  12.545  0.2541 -0.1026  0.9837
 2895SOL     OW20320   3.765   0.157   7.833  0.1968 -0.1790 -0.3818
 2895SOL    HW120321   3.674   0.183   7.819  0.2554  0.0486 -0.3450
 2895SOL    HW220322   3.787   0.147   7.741 -0.0350 -1.6286 -0.2648
 2896SOL     OW20323   3.871   4.697   3.497  0.3520 -0.3871  0.3681
 2896SOL    HW120324   3.880   0.051   3.529 -0.9469 -0.7776  1.8690
 2896SOL    HW220325   3.941   4.681   3.434  0.2827  1.4550 -0.1945
 2897SOL     OW20326   4.301   1.080   7.969 -0.4513 -0.4610 -0.2269
 2897SOL    HW120327   4.328   1.171   7.978 -1.4424 -0.1207 -0.6759
 2897SOL    HW220328   4.214   1.074   8.008 -1.5057 -1.3642 -2.7647
 2898SOL     OW20329   3.829   0.755   1.561  0.1190 -0.6945 -0.2228
 2898SOL    HW120330   3.859   0.766   1.471  1.9384 -1.1964  0.3279
 2898SOL    HW220331   3.773   0.831   1.577 -0.3444 -1.0072 -0.3508
 2899SOL     OW20332   4.047   2.474  11.222 -0.0309 -0.1231 -0.1629
 2899SOL    HW120333   4.052   2.548  11.161  0.4838 -1.0080 -1.1885
 2899SOL    HW220334   4.062   2.522  11.304  1.5144 -0.2939 -0.3451
 2900SOL     OW20335   2.500   2.612   4.902 -0.3361  0.2180 -0.1319
 2900SOL    HW120336   2.452   2.538   4.863  1.2249 -0.4754 -0.7471
 2900SOL    HW220337   2.497   2.689   4.846  0.6924  0.4638  0.1544
 2901SOL     OW20338   4.054   2.787  14.968 -0.5619  0.4286 -0.7731
 2901SOL    HW120339   4.106   2.726  14.916  0.9932  0.6159  0.5594
 2901SOL    HW220340   4.116   2.844  15.014 -1.0405  0.2771  0.0509
 2902SOL     OW20341   3.719   3.987   4.559  0.0974 -0.2359 -0.0045
 2902SOL    HW120342   3.777   4.025   4.625 -0.6375  0.7134  0.0899
 2902SOL    HW220343   3.719   3.894   4.584 -1.7517  0.6736  3.2612
 2903SOL     OW20344   2.790   3.462   2.152 -0.3438  0.1873 -0.2431
 2903SOL    HW120345   2.869   3.515   2.135  0.1360 -0.6939 -0.7690
 2903SOL    HW220346   2.789   3.412   2.070 -2.3157 -1.2361  0.6637
 2904SOL     OW20347   2.750   3.941   5.394 -0.2416  0.1560 -0.1423
 2904SOL    HW120348   2.737   4.030   5.425  2.2498  0.1564  0.9280
 2904SOL    HW220349   2.659   3.921   5.414 -0.7915  1.3748 -1.3809
 2905SOL     OW20350   3.677   2.986   4.534 -0.0307  0.3871 -0.0280
 2905SOL    HW120351   3.723   2.916   4.579 -2.1264 -0.4827  0.7606
 2905SOL    HW220352   3.646   2.936   4.458  1.9969 -0.9996  0.0645
 2906SOL     OW20353   0.763   0.723   9.454 -0.2536 -0.2232 -0.1491
 2906SOL    HW120354   0.773   0.694   9.364 -1.9153 -1.1204 -0.0407
 2906SOL    HW220355   0.777   0.818   9.450  1.8313 -0.3955  2.7150
 2907SOL     OW20356   3.304   1.453  11.724  0.3717 -0.2035  0.0863
 2907SOL    HW120357   3.232   1.391  11.738 -0.6665  0.7264 -1.1046
 2907SOL    HW220358   3.289   1.500  11.807 -2.7231 -0.2816 -0.4233
 2908SOL     OW20359   3.628   3.785   1.640  0.1445 -0.0257 -0.4652
 2908SOL    HW120360   3.609   3.729   1.715 -0.7046  1.0015  0.0845
 2908SOL    HW220361   3.724   3.787   1.644  0.2042 -0.1993 -1.6647
 2909SOL     OW20362   1.982   4.171   6.405 -0.8687  0.3472 -0.2104
 2909SOL    HW120363   1.960   4.083   6.376  0.7040  0.6411 -2.2632
 2909SOL    HW220364   1.908   4.176   6.466 -0.8312 -1.3785 -0.0273
 2910SOL     OW20365   3.875   3.319  13.086 -0.2452  0.1643 -0.2511
 2910SOL    HW120366   3.863   3.393  13.144 -1.9327 -0.1214 -0.2493
 2910SOL    HW220367   3.880   3.250  13.152 -0.4114 -0.3254 -0.7480
 2911SOL     OW20368   0.579   3.213  11.367 -0.3065 -0.0809 -0.0547
 2911SOL    HW120369   0.524   3.276  11.414 -0.8064 -0.8967  0.4536
 2911SOL    HW220370   0.553   3.225  11.275 -1.8732 -0.9797  0.2577
 2912SOL     OW20371   2.300   0.327   9.115 -0.2550  0.5478 -0.1717
 2912SOL    HW120372   2.220   0.373   9.090 -0.1572  1.2679  0.8510
 2912SOL    HW220373   2.358   0.343   9.040 -1.3304 -0.7747 -1.2918
 2913SOL     OW20374   2.794   1.579   7.420  0.1910 -0.0751  0.3388
 2913SOL    HW120375   2.775   1.650   7.359  0.9493  0.4155  0.6861
 2913SOL    HW220376   2.789   1.629   7.502 -1.0567 -1.4297  1.0981
 2914SOL     OW20377   0.846   0.693   0.338 -0.2402 -0.3017  0.2063
 2914SOL    HW120378   0.796   0.662   0.414  1.6426  0.5666  1.8055
 2914SOL    HW220379   0.790   0.751   0.286  0.2290  0.4319  0.5153
 2915SOL     OW20380   4.218   3.686   3.116 -0.1492 -0.3218  0.2038
 2915SOL    HW120381   4.298   3.737   3.101 -1.0932  1.0269 -0.2338
 2915SOL    HW220382   4.237   3.628   3.190 -1.9666 -1.6589 -0.3661
 2916SOL     OW20383   4.528   2.868  10.486 -0.7640  0.3366 -0.2903
 2916SOL    HW120384   4.616   2.831  10.475 -0.3118  1.1982  0.3969
 2916SOL    HW220385   4.518   2.884  10.579 -0.9975 -0.1024 -0.2418
 2917SOL     OW20386   3.217   2.580  13.525  0.7896 -0.5800  0.1551
 2917SOL    HW120387   3.223   2.485  13.514  0.5724 -0.7007  1.0768
 2917SOL    HW220388   3.213   2.607  13.433 -3.6509 -1.3306  0.0870
 2918SOL     OW20389   1.999   3.513  10.593  0.4288  0.1784  0.2734
 2918SOL    HW120390   2.062   3.560  10.538 -1.0467  1.9878  0.1354
 2918SOL    HW220391   1.974   3.447  10.529  1.3207 -1.9195  2.0558
 2919SOL     OW20392   4.712   4.193   2.971  0.1555  0.3184  0.1775
 2919SOL    HW120393   0.062   4.167   3.002  0.1550 -0.2691 -0.3147
 2919SOL    HW220394   4.720   4.286   2.989 -1.9193  0.6906 -0.8409
 2920SOL     OW20395   2.357   1.599   7.758 -0.0897  0.6511 -0.1369
 2920SOL    HW120396   2.406   1.633   7.834  0.7498  1.2604 -0.9507
 2920SOL    HW220397   2.408   1.625   7.682 -2.1133  2.2530 -0.9427
 2921SOL     OW20398   4.245   3.023   3.825  0.0892 -0.4651 -0.2857
 2921SOL    HW120399   4.329   2.979   3.810  0.3154  0.7037 -2.5017
 2921SOL    HW220400   4.270   3.101   3.874 -0.8982  0.2868 -0.9781
 2922SOL     OW20401   1.904   3.417  12.160 -0.6143 -0.1475  0.0422
 2922SOL    HW120402   1.970   3.436  12.093 -3.5051  1.0825 -2.4397
 2922SOL    HW220403   1.841   3.385  12.096  0.4719 -0.0116 -1.1047
 2923SOL     OW20404   0.441   0.298  12.441  0.1622  0.0550  0.2535
 2923SOL    HW120405   0.395   0.371  12.400 -2.5168 -0.5353  2.2821
 2923SOL    HW220406   0.445   0.215  12.393 -1.5266  0.0885  0.0646
 2924SOL     OW20407   4.650   3.167   5.721  0.6783  0.0765  0.7190
 2924SOL    HW120408   4.637   3.083   5.677 -1.7347  0.2340  1.1270
 2924SOL    HW220409   4.730   3.202   5.681  0.2748 -0.7775 -0.8463
 2925SOL     OW20410   0.239   1.875  12.689  0.1172  0.0492  0.7326
 2925SOL    HW120411   0.155   1.833  12.671 -0.0718  0.7790 -0.0722
 2925SOL    HW220412   0.235   1.931  12.611  0.3162  0.9974  1.3993
 2926SOL     OW20413   1.596   3.111   3.114 -0.1184  0.9334  0.4738
 2926SOL    HW120414   1.538   3.179   3.148 -0.3177  1.2315 -0.4722
 2926SOL    HW220415   1.531   3.041   3.105  1.4915 -0.4103 -0.6567
 2927SOL     OW20416   0.029   2.014   4.099 -0.2360 -0.5390  0.0535
 2927SOL    HW120417   4.706   2.089   4.106 -4.4161 -4.0610  2.1849
 2927SOL    HW220418   4.712   1.971   4.032 -1.2741  0.2465  0.3818
 2928SOL     OW20419   0.942   2.896   6.919 -0.6978  0.0164  0.0922
 2928SOL    HW120420   0.969   2.986   6.937 -0.5217  0.0622 -0.4121
 2928SOL    HW220421   1.016   2.874   6.863  0.6430  1.4463  1.3341
 2929SOL     OW20422   4.661   3.905   4.495  0.3425 -0.4064  0.5549
 2929SOL    HW120423   4.613   3.975   4.451  1.1965  0.4571  0.9988
 2929SOL    HW220424   0.008   3.913   4.450  0.3257  2.2716  1.0047
 2930SOL     OW20425   1.196   3.802   1.704  0.0154 -0.5973  0.1448
 2930SOL    HW120426   1.261   3.735   1.682 -1.4797 -1.2788 -2.2979
 2930SOL    HW220427   1.215   3.872   1.642  0.2031 -0.4211  0.4057
 2931SOL     OW20428   0.252   4.417   5.178  0.0267 -0.2382  0.5256
 2931SOL    HW120429   0.167   4.374   5.182 -0.2594  0.1003 -1.4697
 2931SOL    HW220430   0.309   4.351   5.139 -2.4673 -1.7782 -0.5163
 2932SOL     OW20431   4.204   0.177   7.206  0.5474 -0.2883  0.1392
 2932SOL    HW120432   4.247   0.107   7.158  1.2901  0.8520 -0.8385
 2932SOL    HW220433   4.173   0.236   7.138 -0.7950 -0.4070  0.6386
 2933SOL     OW20434   0.945   3.022   6.510 -0.1580 -0.1970 -0.6891
 2933SOL    HW120435   1.027   3.020   6.560  0.3965  1.1601 -1.5262
 2933SOL    HW220436   0.877   3.032   6.576  0.9365 -2.6670  0.8113
 2934SOL     OW20437   0.922   1.540   5.939  0.3019 -0.1218 -0.3166
 2934SOL    HW120438   0.858   1.557   6.007 -1.1356 -1.6830 -1.2939
 2934SOL    HW220439   1.000   1.570   5.986  0.7646  0.3823 -1.3977
 2935SOL     OW20440   4.415   0.907   6.001  0.5265 -0.0255  0.1981
 2935SOL    HW120441   4.437   0.885   6.091 -2.1286 -2.6271  0.2020
 2935SOL    HW220442   4.364   0.987   6.016  0.5368 -0.2127  1.1861
 2936SOL     OW20443   0.876   1.938   2.622  0.0243  0.1645 -0.1227
 2936SOL    HW120444   0.879   2.000   2.548  0.5804  0.5692  0.2368
 2936SOL    HW220445   0.970   1.925   2.637  0.0899  0.8064  0.0556
 2937SOL     OW20446   1.117   3.991   1.870 -0.2853 -0.1234  0.3446
 2937SOL    HW120447   1.083   3.954   1.952  2.6334  0.8580  2.0164
 2937SOL    HW220448   1.116   3.913   1.814 -3.5493  1.0070 -1.1248
 2938SOL     OW20449   1.406   2.393   4.048 -0.4038  0.1330  0.1268
 2938SOL    HW120450   1.347   2.406   4.122  3.2662 -3.5212  3.6945
 2938SOL    HW220451   1.435   2.484   4.040  0.3223  0.0866  2.1234
 2939SOL     OW20452   3.936   4.603   5.291  0.3588 -0.3590 -0.1417
 2939SOL    HW120453   4.005   4.667   5.277 -0.7519  0.8737  0.0320
 2939SOL    HW220454   3.873   4.615   5.220  0.8723 -1.1366 -0.7248
 2940SOL     OW20455   3.572   2.984   7.450 -0.6067 -0.1742  0.1938
 2940SOL    HW120456   3.636   3.026   7.508 -0.3247 -1.6782  0.9590
 2940SOL    HW220457   3.620   2.912   7.408 -0.9730 -1.1330  1.4251
 2941SOL     OW20458   4.295   2.600   3.646 -0.6998  0.0805 -0.4249
 2941SOL    HW120459   4.375   2.640   3.611 -1.0257 -0.0927 -1.3889
 2941SOL    HW220460   4.280   2.532   3.580 -0.2901 -0.6518  0.2471
 2942SOL     OW20461   4.211   3.029   5.411 -0.5287  0.2857 -0.4846
 2942SOL    HW120462   4.216   3.040   5.316 -1.0478  2.4706 -0.2678
 2942SOL    HW220463   4.251   3.113   5.436 -0.0765 -0.1832  0.3612
 2943SOL     OW20464   3.845   0.607  12.732  0.3292 -0.0293 -0.6373
 2943SOL    HW120465   3.900   0.685  12.747  1.4809 -1.5349  3.0264
 2943SOL    HW220466   3.763   0.632  12.774  2.1154  2.3685  1.4206
 2944SOL     OW20467   2.567   1.457   2.527 -0.6397  0.3735 -0.1163
 2944SOL    HW120468   2.541   1.386   2.584  3.1207  0.6439  1.9149
 2944SOL    HW220469   2.612   1.516   2.587 -0.5083 -0.7825  0.8942
 2945SOL     OW20470   3.345   3.681   3.033 -0.1714  0.1072  0.4165
 2945SOL    HW120471   3.391   3.737   2.971  1.6874 -0.5973  1.1625
 2945SOL    HW220472   3.274   3.651   2.976  1.4359 -0.7117 -1.1490
 2946SOL     OW20473   3.128   0.826   1.440  0.4729  0.6406  0.4449
 2946SOL    HW120474   3.150   0.762   1.373  0.1169 -1.1051  1.9882
 2946SOL    HW220475   3.215   0.846   1.477  1.5030 -0.1366 -1.5383
 2947SOL     OW20476   0.290   3.364  12.146  0.4267  0.3353  0.1565
 2947SOL    HW120477   0.326   3.423  12.213 -0.2997  0.5970  0.3197
 2947SOL    HW220478   0.213   3.337  12.195  0.2693 -0.2881 -0.4422
 2948SOL     OW20479   2.890   0.630   2.013 -0.1406 -0.4046  0.0453
 2948SOL    HW120480   2.943   0.576   2.070 -2.0495 -1.0894  1.1680
 2948SOL    HW220481   2.820   0.574   1.978  1.2698 -2.8187  1.1094
 2949SOL     OW20482   3.915   0.092   6.082 -0.1797  0.1134 -0.0346
 2949SOL    HW120483   3.844   0.038   6.046  0.8636 -2.7261  2.2268
 2949SOL    HW220484   3.993   0.043   6.058  0.2301  0.3984  0.7230
 2950SOL     OW20485   1.669   4.303   0.020  0.2650 -0.4433 -0.1416
 2950SOL    HW120486   1.633   4.259  17.689  3.6793  0.7571 -2.4464
 2950SOL    HW220487   1.661   4.391  17.727  0.2819 -0.6242 -0.5604
 2951SOL     OW20488   4.564   2.819   8.266  0.2611 -0.1854  0.1876
 2951SOL    HW120489   4.564   2.911   8.291  1.0385  0.1908 -1.1979
 2951SOL    HW220490   4.552   2.777   8.351 -1.9831  0.3143  0.1221
 2952SOL     OW20491   4.083   4.127   4.707 -0.2470  0.0493  0.3388
 2952SOL    HW120492   4.009   4.183   4.680 -2.9384 -3.1975  0.9873
 2952SOL    HW220493   4.118   4.165   4.787  2.0863  0.3794 -0.8309
 2953SOL     OW20494   2.127   4.668   2.217 -0.1127  0.1942 -0.6412
 2953SOL    HW120495   2.077   4.594   2.183 -2.1010 -0.0794  2.9078
 2953SOL    HW220496   2.174   4.715   2.148  0.0551 -0.0772 -0.7124
 2954SOL     OW20497   2.385   3.153  13.346  0.1250 -0.3712  0.0103
 2954SOL    HW120498   2.322   3.219  13.374 -0.9657 -0.8878 -1.2486
 2954SOL    HW220499   2.346   3.124  13.264 -0.0975 -2.2017  0.7545
 2955SOL     OW20500   3.963   2.509   8.414 -0.5280  0.3084 -0.1390
 2955SOL    HW120501   3.985   2.568   8.486  2.7113  0.9468 -1.6501
 2955SOL    HW220502   4.012   2.437   8.452 -1.6115 -0.9110 -1.0704
 2956SOL     OW20503   1.284   0.771   8.141 -0.2781 -0.4986 -0.0980
 2956SOL    HW120504   1.330   0.740   8.063 -0.4948 -3.3550  0.9078
 2956SOL    HW220505   1.213   0.707   8.151  1.3540 -2.2408  0.4801
 2957SOL     OW20506   0.411   3.455   4.052  0.0835  0.0710 -0.0648
 2957SOL    HW120507   0.489   3.503   4.080 -0.6824  1.6788 -0.7331
 2957SOL    HW220508   0.358   3.524   4.014 -2.8436 -3.3612 -2.1824
 2958SOL     OW20509   0.082   0.746  14.552 -0.2678  0.2094  0.1137
 2958SOL    HW120510   0.073   0.819  14.492  0.6516 -0.8444 -1.2922
 2958SOL    HW220511   0.127   0.678  14.502  0.8605 -0.0711  1.5167
 2959SOL     OW20512   2.003   1.068   1.996 -0.7313  0.5123  0.3046
 2959SOL    HW120513   1.965   1.113   2.071 -0.4477 -0.8989  1.2791
 2959SOL    HW220514   2.093   1.092   2.017 -1.2794  2.3561  0.5378
 2960SOL     OW20515   0.751   0.435   0.189 -0.0736 -0.5922 -0.4310
 2960SOL    HW120516   0.763   0.386   0.107  1.6442 -1.6270  0.4149
 2960SOL    HW220517   0.794   0.517   0.163 -0.6140 -0.0322  0.4522
 2961SOL     OW20518   0.505   4.350  14.558 -0.2305 -0.0223  0.3040
 2961SOL    HW120519   0.601   4.345  14.562 -0.4122 -2.1381  2.3201
 2961SOL    HW220520   0.487   4.431  14.605 -0.3343  0.1611 -0.0532
 2962SOL     OW20521   1.714   4.678   4.533  0.2132  0.0523 -0.6248
 2962SOL    HW120522   1.632   4.662   4.487  0.2930 -2.7433  0.1952
 2962SOL    HW220523   1.679   4.722   4.611 -1.8119 -1.4254 -0.7201
 2963SOL     OW20524   3.584   1.330  14.449  0.0607  0.0187  0.6966
 2963SOL    HW120525   3.521   1.311  14.518 -0.0332 -0.8040  0.3806
 2963SOL    HW220526   3.661   1.284  14.482 -0.1507 -0.0322  1.1056
 2964SOL     OW20527   4.027   2.296  12.707 -0.6102  0.3123 -0.2766
 2964SOL    HW120528   4.073   2.375  12.737 -0.6376  0.6265 -1.0703
 2964SOL    HW220529   3.996   2.257  12.789 -1.3787  0.8586 -0.3046
 2965SOL     OW20530   1.163   4.211   8.974  0.7649 -0.5959  0.2366
 2965SOL    HW120531   1.098   4.150   8.939  2.3091 -1.0919 -1.8036
 2965SOL    HW220532   1.107   4.270   9.024  0.4186 -0.0854 -0.7642
 2966SOL     OW20533   1.470   0.130  10.810 -0.0105 -0.0628  0.0546
 2966SOL    HW120534   1.543   0.166  10.760 -0.4106 -0.8179 -1.0684
 2966SOL    HW220535   1.412   0.206  10.803 -0.8483 -0.6724  0.3194
 2967SOL     OW20536   2.760   1.945   1.223 -0.0047 -0.3918  0.0015
 2967SOL    HW120537   2.777   2.009   1.293 -2.5431  0.9544 -0.6144
 2967SOL    HW220538   2.692   1.889   1.259  0.2988 -0.2954  0.7347
 2968SOL     OW20539   3.362   3.087   7.570  0.3864  0.1118 -0.1679
 2968SOL    HW120540   3.436   3.044   7.528  1.8277  0.6931  1.7648
 2968SOL    HW220541   3.409   3.152   7.622 -0.7255  2.8994 -2.6410
 2969SOL     OW20542   0.539   2.710   8.015  0.7112 -0.8315  0.1778
 2969SOL    HW120543   0.623   2.685   7.975  1.4838 -0.6551  1.6782
 2969SOL    HW220544   0.549   2.660   8.096  1.9724  0.8066  1.0322
 2970SOL     OW20545   4.477   1.721  15.812  0.0024 -0.5057  0.0778
 2970SOL    HW120546   4.490   1.811  15.781  1.2944 -0.9010 -0.5309
 2970SOL    HW220547   4.454   1.670  15.735 -0.0264 -1.3967  0.6769
 2971SOL     OW20548   3.610   0.158  14.374  0.1917 -0.2395  0.7454
 2971SOL    HW120549   3.530   0.184  14.329 -0.0401 -2.3428 -0.0731
 2971SOL    HW220550   3.566   0.116  14.449  0.6161 -1.0430  0.5470
 2972SOL     OW20551   1.542   2.608  15.804 -0.0989 -0.4365 -0.1535
 2972SOL    HW120552   1.519   2.682  15.749  1.5028 -0.5145 -0.9278
 2972SOL    HW220553   1.453   2.587  15.833 -0.0240 -0.9852 -0.3212
 2973SOL     OW20554   4.143   2.892   4.419 -0.1813 -0.5326  0.2860
 2973SOL    HW120555   4.117   2.928   4.334  0.2158 -2.0232 -0.4643
 2973SOL    HW220556   4.100   2.807   4.416  1.5160 -1.4046  0.3251
 2974SOL     OW20557   2.897   4.363   5.186 -0.1661  0.1126 -0.0317
 2974SOL    HW120558   2.950   4.362   5.265 -0.9395  1.8585  0.5327
 2974SOL    HW220559   2.967   4.375   5.123 -1.4858  0.7950 -1.3858
 2975SOL     OW20560   3.570   1.442   6.989 -0.4293  0.3634  0.4528
 2975SOL    HW120561   3.510   1.515   7.003 -1.0041 -0.3465  1.6564
 2975SOL    HW220562   3.508   1.388   6.941  0.2009 -0.3104  0.4053
 2976SOL     OW20563   3.604   0.150   2.793 -0.5661 -0.3066 -0.0576
 2976SOL    HW120564   3.627   0.224   2.738 -1.2662  0.8614  1.2154
 2976SOL    HW220565   3.509   0.135   2.792 -1.0015  2.1411  3.0326
 2977SOL     OW20566   0.246   0.510  13.694  0.4586 -0.1492 -0.2625
 2977SOL    HW120567   0.231   0.472  13.780  0.8771  0.4427  0.0754
 2977SOL    HW220568   0.250   0.601  13.722  1.2605 -0.8091  1.7237
 2978SOL     OW20569   1.778   3.262   3.272  0.1679  0.2425 -0.2233
 2978SOL    HW120570   1.721   3.194   3.237  1.5216 -0.7126 -0.5615
 2978SOL    HW220571   1.859   3.235   3.229  0.3559 -1.1600  1.0335
 2979SOL     OW20572   4.229   2.130   6.213 -0.3204 -0.1172  0.4940
 2979SOL    HW120573   4.277   2.199   6.259 -0.8350  0.6158 -0.0581
 2979SOL    HW220574   4.153   2.114   6.270 -0.6129  1.9933  0.7147
 2980SOL     OW20575   2.821   2.618   5.929  0.3868 -0.1348 -0.1644
 2980SOL    HW120576   2.871   2.612   6.010  1.9106 -1.0293 -1.1665
 2980SOL    HW220577   2.879   2.680   5.884 -0.4310 -1.3753 -2.9672
 2981SOL     OW20578   3.754   3.674  17.545 -0.1773 -0.0526 -0.0346
 2981SOL    HW120579   3.725   3.659  17.455 -0.6310 -1.0324  0.2702
 2981SOL    HW220580   3.697   3.608  17.585 -1.0769 -0.0606 -1.3171
 2982SOL     OW20581   1.092   1.451   2.259  0.2561 -0.1188 -0.3032
 2982SOL    HW120582   1.048   1.378   2.216 -1.4780  1.3772 -1.1267
 2982SOL    HW220583   1.134   1.408   2.333 -0.8858  1.0191  1.0109
 2983SOL     OW20584   2.921   4.549   7.231 -0.4578  0.1098 -0.4342
 2983SOL    HW120585   2.857   4.513   7.292 -0.0639  0.9831  0.4800
 2983SOL    HW220586   2.985   4.604   7.276 -1.0196 -0.1984  0.7309
 2984SOL     OW20587   3.519   3.987  17.506 -0.0668 -0.6261  0.3859
 2984SOL    HW120588   3.596   3.940  17.539 -0.9739 -2.4260 -0.0701
 2984SOL    HW220589   3.475   4.019  17.585  1.0946  0.2728  0.6800
 2985SOL     OW20590   2.405   0.976   2.795 -0.2301 -0.5261 -0.4951
 2985SOL    HW120591   2.393   0.894   2.844  3.0989 -1.5173 -1.3467
 2985SOL    HW220592   2.344   0.963   2.722 -0.3129  2.1945 -0.9241
 2986SOL     OW20593   0.115   1.058   7.301 -0.5507  0.0347 -0.2938
 2986SOL    HW120594   0.032   1.106   7.298  0.7858  2.0771 -4.6623
 2986SOL    HW220595   0.084   0.969   7.317 -0.6866 -0.0074 -0.8002
 2987SOL     OW20596   3.274   1.741   6.166  0.5974  0.5991 -0.1106
 2987SOL    HW120597   3.294   1.692   6.086  2.2925 -1.1131  1.3744
 2987SOL    HW220598   3.231   1.820   6.132 -0.1770  0.6019  0.8669
 2988SOL     OW20599   4.561   1.420   1.224  0.1998  0.2425 -1.1808
 2988SOL    HW120600   4.510   1.481   1.171 -1.8492  0.6670  1.2924
 2988SOL    HW220601   4.554   1.475   1.303  2.0166 -1.0124 -0.1631
 2989SOL     OW20602   1.443   4.352   8.616  0.2560  0.3089 -0.1751
 2989SOL    HW120603   1.515   4.352   8.554  0.7115 -2.6783  0.3665
 2989SOL    HW220604   1.483   4.302   8.688 -0.0867  0.6771  0.2748
 2990SOL     OW20605   0.626   0.592   5.580  0.4077  0.1452 -0.1920
 2990SOL    HW120606   0.629   0.526   5.511 -0.2121 -0.6072  0.5038
 2990SOL    HW220607   0.536   0.581   5.611  0.5462  0.5108  0.3378
 2991SOL     OW20608   0.628   4.562   8.256  0.0001  0.1783  0.0874
 2991SOL    HW120609   0.539   4.526   8.259 -0.2605  0.7896 -0.4428
 2991SOL    HW220610   0.621   4.644   8.207 -0.0250  0.6262  0.8519
 2992SOL     OW20611   3.705   1.478  13.724  0.3058 -0.0191  0.5168
 2992SOL    HW120612   3.681   1.447  13.811 -1.8553 -0.8359 -0.3733
 2992SOL    HW220613   3.788   1.430  13.716  1.4339  1.8292  1.2527
 2993SOL     OW20614   2.484   4.228   7.589 -0.6196  0.2585 -0.1900
 2993SOL    HW120615   2.435   4.236   7.671 -0.0656 -2.7585  0.4334
 2993SOL    HW220616   2.566   4.183   7.607  0.0219  2.1130  1.5330
 2994SOL     OW20617   1.234   4.190   0.722  0.1652 -0.3143 -0.7275
 2994SOL    HW120618   1.223   4.112   0.668 -1.1660  1.8260 -3.5198
 2994SOL    HW220619   1.258   4.153   0.807 -0.4010 -2.3059 -1.4577
 2995SOL     OW20620   3.733   1.458  17.354 -0.6560 -0.1506 -0.1652
 2995SOL    HW120621   3.787   1.518  17.302 -0.8187 -0.6429 -0.9018
 2995SOL    HW220622   3.792   1.383  17.345  1.2926  1.2918  0.6104
 2996SOL     OW20623   0.257   4.104   5.866  0.5569 -0.6526 -0.5164
 2996SOL    HW120624   0.184   4.041   5.871  0.2215 -0.3032 -1.0149
 2996SOL    HW220625   0.210   4.180   5.830  0.8307 -0.5751 -0.7110
 2997SOL     OW20626   3.213   3.155  12.300 -0.3502 -1.0023  0.2167
 2997SOL    HW120627   3.262   3.073  12.295 -1.3155 -1.5754  0.3122
 2997SOL    HW220628   3.162   3.142  12.380 -0.7276  0.6511  0.2408
 2998SOL     OW20629   4.159   1.727  15.330  0.0435  0.0609  0.1046
 2998SOL    HW120630   4.201   1.722  15.416 -0.6618 -0.1646  0.4408
 2998SOL    HW220631   4.096   1.655  15.339  0.7226 -0.6614 -0.8554
 2999SOL     OW20632   0.627   4.636  11.525 -0.7466  0.4011 -0.2324
 2999SOL    HW120633   0.578   4.596  11.597 -1.3088  0.4654 -0.5865
 2999SOL    HW220634   0.559   4.670  11.467  0.1830  1.7204 -0.5509
 3000SOL     OW20635   0.703   0.768   5.218  0.3536  0.0580  0.1035
 3000SOL    HW120636   0.693   0.676   5.245  0.4066  0.9623  3.2293
 3000SOL    HW220637   0.779   0.768   5.160  0.3753 -0.0521  0.1305
 3001SOL     OW20638   2.787   1.787  16.822 -0.4998  0.4102 -0.2165
 3001SOL    HW120639   2.720   1.824  16.880 -0.0537  1.6900 -0.5193
 3001SOL    HW220640   2.806   1.704  16.866  0.3817  1.8669  2.1483
 3002SOL     OW20641   0.796   2.497   7.698  0.0336 -0.1349  0.1555
 3002SOL    HW120642   0.857   2.430   7.729 -0.4043  0.3384  2.0305
 3002SOL    HW220643   0.719   2.441   7.688 -1.0151  1.3323  0.1464
 3003SOL     OW20644   2.124   2.119  10.141  0.4670  0.1787  0.3143
 3003SOL    HW120645   2.100   2.156  10.056 -2.5395 -0.3058  0.9769
 3003SOL    HW220646   2.208   2.075  10.125  0.9027  1.4603 -0.8672
 3004SOL     OW20647   4.020   4.310   4.965  0.0685 -0.1918 -0.5145
 3004SOL    HW120648   3.930   4.314   4.933  0.4662 -0.9600 -1.6919
 3004SOL    HW220649   4.010   4.250   5.039  2.7443  1.9935  1.6433
 3005SOL     OW20650   1.482   1.657   7.766 -0.4875  0.4715 -0.1617
 3005SOL    HW120651   1.535   1.720   7.815 -0.2797 -1.0170  1.5105
 3005SOL    HW220652   1.397   1.700   7.756  1.2263  3.4663 -1.7562
 3006SOL     OW20653   2.443   2.842   8.832  0.6956  0.2005  0.3064
 3006SOL    HW120654   2.446   2.936   8.813 -0.5152 -0.2121 -1.9124
 3006SOL    HW220655   2.533   2.813   8.818  1.2035  0.3405  3.2135
 3007SOL     OW20656   3.205   3.013   7.359 -0.1334 -0.4363  0.1606
 3007SOL    HW120657   3.242   3.011   7.447  0.2614 -1.9285 -0.0522
 3007SOL    HW220658   3.227   2.925   7.330  0.1597 -0.4989  0.5796
 3008SOL     OW20659   3.446   2.302   8.709 -0.4403  0.1955  0.3049
 3008SOL    HW120660   3.540   2.294   8.725  0.0595  3.8325 -0.6008
 3008SOL    HW220661   3.427   2.394   8.728 -0.3708  0.1642  0.5235
 3009SOL     OW20662   2.569   2.191   1.886  0.2405  0.3265  0.1373
 3009SOL    HW120663   2.591   2.267   1.941  0.4347  0.5083 -0.1909
 3009SOL    HW220664   2.492   2.151   1.927 -0.9679  0.7212 -1.7366
 3010SOL     OW20665   2.771   2.304   8.363 -0.3387  0.2081  0.1826
 3010SOL    HW120666   2.705   2.328   8.428  1.2552 -1.7136  2.5351
 3010SOL    HW220667   2.848   2.276   8.413 -0.1401 -1.6976 -1.1806
 3011SOL     OW20668   0.321   1.577   6.071 -0.5741  0.3532  0.8106
 3011SOL    HW120669   0.332   1.502   6.130 -4.0574 -0.0731  0.9372
 3011SOL    HW220670   0.240   1.560   6.022 -0.5099 -1.9995  1.5588
 3012SOL     OW20671   0.957   1.215  10.249 -0.4889  0.0197 -0.2078
 3012SOL    HW120672   0.909   1.247  10.325 -0.3241 -0.1155 -0.0490
 3012SOL    HW220673   0.972   1.126  10.279 -1.8283 -0.8310 -2.0504
 3013SOL     OW20674   1.651   3.201  13.992 -0.2686 -0.2063  0.1985
 3013SOL    HW120675   1.565   3.234  13.965  0.8687  1.3464 -1.4643
 3013SOL    HW220676   1.684   3.165  13.910 -0.1664  0.5228 -0.0794
 3014SOL     OW20677   3.872   0.898  12.174 -0.1375 -0.2490  0.3390
 3014SOL    HW120678   3.825   0.817  12.195  2.7468 -2.7780 -2.8096
 3014SOL    HW220679   3.902   0.878  12.085  1.5530  0.2737  0.7951
 3015SOL     OW20680   3.199   4.672  12.541 -0.4728  0.2702 -0.2222
 3015SOL    HW120681   3.271   4.685  12.602 -2.1104 -1.2708  2.0562
 3015SOL    HW220682   3.180   4.580  12.563  1.5659  0.2654  1.4979
 3016SOL     OW20683   0.118   3.917   9.412 -0.2963  0.2683  0.0241
 3016SOL    HW120684   0.030   3.909   9.375  0.4945  0.4229 -1.9099
 3016SOL    HW220685   0.155   3.989   9.361 -0.4034 -0.2176 -0.7412
 3017SOL     OW20686   4.306   1.054   4.276 -0.6323  0.0315 -0.2017
 3017SOL    HW120687   4.369   1.021   4.211 -0.3959  0.2753 -0.0944
 3017SOL    HW220688   4.288   1.145   4.253  0.4064  0.0667 -0.9151
 3018SOL     OW20689   4.425   0.804  15.580  0.3589  0.3416  0.3801
 3018SOL    HW120690   4.346   0.753  15.561  1.1604 -0.0145 -1.9448
 3018SOL    HW220691   4.481   0.763  15.514  0.7911 -1.9114  2.1394
 3019SOL     OW20692   1.264   1.255   8.988 -0.2937  0.3256 -0.0995
 3019SOL    HW120693   1.308   1.207   9.058  2.0816 -0.0342 -1.8394
 3019SOL    HW220694   1.177   1.266   9.025 -0.3825 -1.8772  0.3614
 3020SOL     OW20695   1.013   2.609   6.142  0.0570 -0.0003 -0.3337
 3020SOL    HW120696   1.005   2.704   6.133 -0.0003 -0.0490 -0.8383
 3020SOL    HW220697   1.107   2.604   6.158  0.4208  1.5132 -1.9992
 3021SOL     OW20698   2.605   2.636   3.526 -0.0604  0.1726 -0.5021
 3021SOL    HW120699   2.513   2.645   3.552  0.0175 -0.4078 -0.0086
 3021SOL    HW220700   2.622   2.542   3.515 -0.2912  0.0310  0.3161
 3022SOL     OW20701   3.547   1.965   5.769  0.2403  0.2197  0.5919
 3022SOL    HW120702   3.476   1.943   5.708 -0.6102  1.7555  1.0346
 3022SOL    HW220703   3.566   1.881   5.810 -0.6376 -0.6318 -0.7062
 3023SOL     OW20704   3.492   0.113  11.704 -0.2746  0.2500  0.2951
 3023SOL    HW120705   3.542   0.032  11.694  1.3350  1.4942 -1.8336
 3023SOL    HW220706   3.530   0.178  11.645 -0.2383  0.1052  0.1596
 3024SOL     OW20707   0.528   3.119   1.586  0.4413  0.3104 -0.0207
 3024SOL    HW120708   0.466   3.126   1.658 -0.2271  0.5661 -0.6184
 3024SOL    HW220709   0.536   3.207   1.551 -0.5243  0.9417  1.3501
 3025SOL     OW20710   3.360   2.931   8.745  0.2782 -0.3797  0.1757
 3025SOL    HW120711   3.404   2.992   8.804 -0.7140  0.0674  0.4560
 3025SOL    HW220712   3.308   2.992   8.691  0.8539  1.0141  1.1975
 3026SOL     OW20713   0.047   2.518   1.094  0.4016  0.4517 -0.5253
 3026SOL    HW120714   4.727   2.513   1.017  1.8645  0.1802 -1.5931
 3026SOL    HW220715   0.088   2.431   1.086  1.6724  1.0514 -0.6403
 3027SOL     OW20716   0.929   4.674   0.021 -0.2795 -0.0501  0.0949
 3027SOL    HW120717   0.914   0.000   0.091  0.4929  0.6883 -0.3883
 3027SOL    HW220718   0.841   4.688  17.732  0.4964 -0.5461 -2.1109
 3028SOL     OW20719   0.974   4.470   4.184 -0.8417 -0.6107 -0.1523
 3028SOL    HW120720   0.928   4.448   4.104 -0.4603 -1.9340 -0.0066
 3028SOL    HW220721   0.925   4.542   4.223  1.8244  0.7866  0.6544
 3029SOL     OW20722   1.436   2.469   1.013  0.9797  0.3279 -0.3719
 3029SOL    HW120723   1.445   2.373   1.010  0.9370  0.2870  0.7006
 3029SOL    HW220724   1.526   2.494   0.994  1.8067 -0.4311  2.5819
 3030SOL     OW20725   4.572   1.050   8.278  0.2358  0.6134 -0.2361
 3030SOL    HW120726   4.512   1.123   8.291 -0.8622 -0.2134 -0.6844
 3030SOL    HW220727   4.510   0.978   8.278 -0.1375  0.9422  2.3428
 3031SOL     OW20728   4.226   3.127   2.431 -0.1697  0.0099 -0.3916
 3031SOL    HW120729   4.259   3.047   2.389  0.3911  1.3413 -2.5186
 3031SOL    HW220730   4.220   3.192   2.361  0.0743 -0.9016 -1.2581
 3032SOL     OW20731   1.990   1.118  13.791 -0.1113 -0.1034 -0.6520
 3032SOL    HW120732   2.016   1.199  13.833  0.6455 -0.1774 -0.9818
 3032SOL    HW220733   1.930   1.086  13.859  1.1825  2.5770  1.7662
 3033SOL     OW20734   2.163   0.198   6.876 -0.0942  0.4360 -0.6463
 3033SOL    HW120735   2.191   0.287   6.855  0.6218  0.4876  0.5008
 3033SOL    HW220736   2.233   0.174   6.937 -1.0265 -0.3048  0.1417
 3034SOL     OW20737   4.498   1.366   9.960 -0.1905 -0.2504 -0.0406
 3034SOL    HW120738   4.474   1.353  10.052 -0.2280  0.6536  0.0787
 3034SOL    HW220739   4.440   1.305   9.915 -0.8687  1.1954 -1.1391
 3035SOL     OW20740   1.604   3.002   8.261 -0.1078 -0.2538 -0.2039
 3035SOL    HW120741   1.670   3.070   8.272 -1.9897  1.8327 -1.8695
 3035SOL    HW220742   1.583   2.997   8.168  0.9719  2.1881 -0.5750
 3036SOL     OW20743   2.909   0.135   6.634  0.0007 -0.1305  0.5653
 3036SOL    HW120744   2.823   0.142   6.675 -0.1153  0.4940  0.2114
 3036SOL    HW220745   2.907   0.059   6.575  0.8672 -1.6710  2.5036
 3037SOL     OW20746   4.363   3.911   9.969  0.1391  0.1533 -0.0842
 3037SOL    HW120747   4.446   3.878  10.005  0.1077  2.0544  1.7043
 3037SOL    HW220748   4.352   3.983  10.031 -1.8181 -0.9813  0.8795
 3038SOL     OW20749   2.251   3.481  11.647  0.3587 -0.1912  0.1794
 3038SOL    HW120750   2.289   3.484  11.735 -1.0009  1.8074  0.6856
 3038SOL    HW220751   2.270   3.570  11.617  2.6193 -0.9152 -0.5584
 3039SOL     OW20752   2.028   4.362   6.892 -0.2943  0.7365  0.0411
 3039SOL    HW120753   2.070   4.412   6.822  0.4949 -1.7836 -1.2874
 3039SOL    HW220754   1.979   4.431   6.936 -2.9828  0.7518 -2.9819
 3040SOL     OW20755   2.597   4.036   9.146 -0.2505  0.0023  0.4119
 3040SOL    HW120756   2.664   3.968   9.131 -0.0046  0.0226  1.3783
 3040SOL    HW220757   2.582   4.031   9.241 -0.6101  0.7320  0.3881
 3041SOL     OW20758   1.303   1.511   7.014  0.1348 -0.4498 -0.1469
 3041SOL    HW120759   1.361   1.459   6.958  1.4122  1.3238 -0.4567
 3041SOL    HW220760   1.351   1.593   7.009 -1.8177  0.6085 -1.9494
 3042SOL     OW20761   3.742   0.807   4.508  0.5669  0.2762  0.2610
 3042SOL    HW120762   3.828   0.830   4.473  0.5028 -0.7188 -0.5502
 3042SOL    HW220763   3.764   0.766   4.591 -1.8574  0.1628  0.8547
 3043SOL     OW20764   3.714   2.301   8.739  0.6576  0.5592  0.3223
 3043SOL    HW120765   3.773   2.298   8.664 -2.6275  1.1385 -2.2944
 3043SOL    HW220766   3.756   2.366   8.796  1.5239  0.3254 -0.0499
 3044SOL     OW20767   2.989   0.290  12.815 -0.2266  0.0008  1.0107
 3044SOL    HW120768   2.940   0.324  12.740 -1.5663  0.7373  2.2396
 3044SOL    HW220769   2.991   0.197  12.792 -0.2339  0.2454  0.0083
 3045SOL     OW20770   0.170   2.830   0.516 -0.5246 -0.3588  0.0746
 3045SOL    HW120771   0.182   2.780   0.435 -1.1834  1.3493 -1.0658
 3045SOL    HW220772   0.253   2.805   0.556  0.1168 -0.3538 -1.2780
 3046SOL     OW20773   4.444   1.339   8.308 -0.7302 -0.0306  0.4187
 3046SOL    HW120774   4.439   1.434   8.321  0.7449  0.0952  0.0764
 3046SOL    HW220775   4.490   1.324   8.391 -3.0948  0.0660  1.7511
 3047SOL     OW20776   4.097   2.157   0.788 -0.0012 -0.5486  0.0614
 3047SOL    HW120777   4.078   2.068   0.760  1.2047 -1.4506  2.0657
 3047SOL    HW220778   4.009   2.195   0.787  0.6620  1.0041 -0.6380
 3048SOL     OW20779   3.690   4.141  11.248  0.2404  0.1605 -0.4723
 3048SOL    HW120780   3.717   4.135  11.340 -1.1679  3.2841  0.1513
 3048SOL    HW220781   3.626   4.071  11.240  0.2250  0.1175  0.0198
 3049SOL     OW20782   0.647   0.498   3.106 -0.0774  0.8307 -0.2416
 3049SOL    HW120783   0.715   0.565   3.108  0.5126  0.1754  1.8600
 3049SOL    HW220784   0.672   0.443   3.032 -0.3057 -0.1831  0.4377
 3050SOL     OW20785   1.893   3.887   6.342 -0.1521  0.7789 -0.7462
 3050SOL    HW120786   1.886   3.843   6.427 -1.5684  2.0172 -0.2131
 3050SOL    HW220787   1.958   3.836   6.295 -0.7793  0.5587 -1.3723
 3051SOL     OW20788   0.672   0.411   9.898 -0.0843 -0.7702  0.1943
 3051SOL    HW120789   0.723   0.360   9.962 -0.1073 -2.0360 -0.7806
 3051SOL    HW220790   0.659   0.487   9.954 -0.5575  0.1585 -1.1874
 3052SOL     OW20791   0.929   1.664  12.092 -0.3818  0.3025  0.1222
 3052SOL    HW120792   0.979   1.745  12.085  0.4282 -0.0938  1.2182
 3052SOL    HW220793   0.842   1.703  12.096  1.1315  3.6599  0.3608
 3053SOL     OW20794   2.352   1.573   4.524 -0.1607  0.3797  0.2595
 3053SOL    HW120795   2.363   1.663   4.555  1.3784 -0.0591  0.9909
 3053SOL    HW220796   2.416   1.524   4.575  0.7106  0.5019 -0.7178
 3054SOL     OW20797   2.459   1.656   4.236 -0.7788  0.1107 -0.7626
 3054SOL    HW120798   2.503   1.604   4.169  0.9365  0.9590 -0.2888
 3054SOL    HW220799   2.457   1.591   4.306 -1.6342  2.1096  1.0661
 3055SOL     OW20800   3.467   0.547   7.486 -0.2353  0.3603 -0.3141
 3055SOL    HW120801   3.442   0.605   7.413  2.2872  3.3945  1.2091
 3055SOL    HW220802   3.514   0.478   7.439  2.3013  1.5499  0.4710
 3056SOL     OW20803   3.401   3.443   1.936  0.4921 -0.1169 -0.0180
 3056SOL    HW120804   3.456   3.367   1.921  1.0462  0.5274 -1.2331
 3056SOL    HW220805   3.361   3.420   2.020 -1.6915  1.2975 -0.6415
 3057SOL     OW20806   1.904   0.646   4.558 -0.2730 -0.1586 -0.3824
 3057SOL    HW120807   1.826   0.681   4.514  1.4160 -0.2497 -3.4549
 3057SOL    HW220808   1.910   0.568   4.504 -2.1146  0.1861 -1.1087
 3058SOL     OW20809   2.256   3.487   9.802 -0.3197 -0.4302  0.1270
 3058SOL    HW120810   2.309   3.493   9.722 -0.5470 -0.0934  0.0027
 3058SOL    HW220811   2.327   3.481   9.867  0.4899  0.4443 -0.6651
 3059SOL     OW20812   3.509   2.651   6.032 -0.4415 -0.4376  0.9352
 3059SOL    HW120813   3.455   2.598   5.974 -2.2492  1.4601  0.8911
 3059SOL    HW220814   3.479   2.619   6.117 -0.7072 -1.9216  0.2643
 3060SOL     OW20815   0.830   0.565  16.150  0.0360 -0.3095  0.5594
 3060SOL    HW120816   0.859   0.579  16.060 -0.0343  0.8909  0.7244
 3060SOL    HW220817   0.757   0.625  16.167  0.5652 -0.0564  1.9693
 3061SOL     OW20818   3.851   1.849  11.519  0.6611 -0.2083 -0.2255
 3061SOL    HW120819   3.835   1.935  11.480 -2.9571 -2.4346 -3.7030
 3061SOL    HW220820   3.817   1.846  11.608 -0.2229 -3.7276 -0.6782
 3062SOL     OW20821   2.038   0.138   8.563  0.1756 -0.1291 -0.1317
 3062SOL    HW120822   2.010   0.082   8.491 -2.1159  1.5179 -0.5206
 3062SOL    HW220823   2.091   0.200   8.513 -2.0291  1.1716 -0.8427
 3063SOL     OW20824   1.800   3.890   1.496 -0.3230  0.4069 -0.3341
 3063SOL    HW120825   1.772   3.968   1.449  1.3601  2.5358  2.2016
 3063SOL    HW220826   1.728   3.835   1.463 -0.7438  0.3779  0.6215
 3064SOL     OW20827   4.205   4.406  14.145 -0.6556  0.6672 -0.3223
 3064SOL    HW120828   4.213   4.366  14.058 -0.4038  0.8247 -0.3727
 3064SOL    HW220829   4.111   4.411  14.158 -0.5698 -0.0199  0.5625
 3065SOL     OW20830   4.596   2.399   8.099  0.5074 -0.2900 -0.0639
 3065SOL    HW120831   4.558   2.418   8.013  0.0002 -1.6152 -0.1256
 3065SOL    HW220832   4.658   2.472   8.110  3.0303 -2.4597 -0.0032
 3066SOL     OW20833   4.409   2.113   5.270  0.4173  0.3478  0.2241
 3066SOL    HW120834   4.407   2.019   5.288  1.2702  0.8081  2.7634
 3066SOL    HW220835   4.362   2.154   5.342 -0.6484 -0.9867  0.2699
 3067SOL     OW20836   4.268   0.810   3.900  0.2453  0.1122  0.3148
 3067SOL    HW120837   4.330   0.759   3.848  1.1659  2.4618 -0.8671
 3067SOL    HW220838   4.224   0.745   3.954  0.5424 -1.1667 -0.9902
 3068SOL     OW20839   0.046   4.597   6.122 -0.8519  0.2020  0.9504
 3068SOL    HW120840   0.138   4.622   6.115 -0.5848 -1.1720 -0.3668
 3068SOL    HW220841   0.036   4.507   6.089  1.1798 -0.2728  1.6575
 3069SOL     OW20842   4.734   2.344   4.398  0.1126 -0.2009 -0.5959
 3069SOL    HW120843   4.640   2.328   4.406  0.0401  0.5120  0.0395
 3069SOL    HW220844   0.027   2.272   4.454  0.3374  1.0239  0.8553
 3070SOL     OW20845   0.642   4.164   1.713 -0.2293 -0.0059  0.0810
 3070SOL    HW120846   0.734   4.176   1.690  0.5926 -0.9213  2.8639
 3070SOL    HW220847   0.647   4.068   1.713 -0.9641 -0.0459 -1.8617
 3071SOL     OW20848   3.524   0.501  10.057 -0.5180  0.3494  0.0787
 3071SOL    HW120849   3.516   0.426  10.117 -1.6148  1.1366  0.9023
 3071SOL    HW220850   3.557   0.470   9.973 -0.2997 -2.6257  1.2186
 3072SOL     OW20851   1.431   3.464  12.997  0.5432  0.0904 -0.1383
 3072SOL    HW120852   1.441   3.369  13.004  2.2876  0.3385  0.8821
 3072SOL    HW220853   1.512   3.479  12.948  2.0578 -1.2426  1.9235
 3073SOL     OW20854   4.398   3.983  10.959 -0.0668  0.3730  0.0963
 3073SOL    HW120855   4.338   4.048  10.996  1.2117  1.8395 -0.4020
 3073SOL    HW220856   4.341   3.908  10.940 -0.5869  0.8334 -0.1707
 3074SOL     OW20857   2.741   0.910   8.257  0.1520  0.1210 -0.3170
 3074SOL    HW120858   2.768   0.941   8.344  0.8376 -0.3308 -0.3635
 3074SOL    HW220859   2.713   0.987   8.209 -2.4278 -0.2449  0.6122
 3075SOL     OW20860   1.373   4.420  17.472  0.1963  0.3117  0.4511
 3075SOL    HW120861   1.422   4.395  17.394 -0.0029  0.4442  0.2834
 3075SOL    HW220862   1.320   4.343  17.493  0.2140  0.4738  1.0956
 3076SOL     OW20863   2.405   3.693  17.574 -0.5010 -0.3979  0.4474
 3076SOL    HW120864   2.443   3.646  17.500 -1.4818 -1.1520  0.4278
 3076SOL    HW220865   2.317   3.713  17.542 -0.2063 -2.0594 -1.3961
 3077SOL     OW20866   0.556   1.483   7.962 -0.5499  0.1775 -0.1191
 3077SOL    HW120867   0.489   1.548   7.981 -2.5293 -2.0696  0.4731
 3077SOL    HW220868   0.551   1.477   7.867  0.5849  1.6083 -0.2834
 3078SOL     OW20869   2.045   0.464  16.742 -0.5070 -0.5678 -0.3004
 3078SOL    HW120870   2.041   0.387  16.799  0.8412  0.4501  1.1805
 3078SOL    HW220871   1.960   0.508  16.749  0.3169  1.1904 -1.2969
 3079SOL     OW20872   1.029   2.121  10.853 -0.1580  0.4819  0.1584
 3079SOL    HW120873   0.940   2.100  10.824  0.3915 -2.0950  0.3427
 3079SOL    HW220874   1.023   2.217  10.846 -0.8571  0.6287  2.7569
 3080SOL     OW20875   3.682   1.906  15.421 -0.5698 -1.0010 -0.1468
 3080SOL    HW120876   3.598   1.873  15.454 -1.4692  1.6669  0.2301
 3080SOL    HW220877   3.737   1.887  15.497 -1.5570 -1.9979  0.3190
 3081SOL     OW20878   4.285   3.585  17.422 -0.1294 -0.1181  0.3337
 3081SOL    HW120879   4.367   3.558  17.379 -1.4914 -1.4412 -1.4286
 3081SOL    HW220880   4.304   3.557  17.512 -0.5425  0.8342  0.7166
 3082SOL     OW20881   2.985   2.434   2.381  0.1880  0.0130 -0.1591
 3082SOL    HW120882   2.954   2.521   2.355 -1.7311 -0.0731  1.7987
 3082SOL    HW220883   3.075   2.455   2.406 -0.2292  1.2095  0.3777
 3083SOL     OW20884   0.892   2.501   3.392  0.0714 -0.3643 -0.6571
 3083SOL    HW120885   0.959   2.440   3.360  0.3320 -1.2781  1.6020
 3083SOL    HW220886   0.833   2.511   3.317 -1.9315 -0.2405  0.9350
 3084SOL     OW20887   1.438   1.021   6.347 -0.1346 -0.0799  0.3231
 3084SOL    HW120888   1.497   0.946   6.347 -1.6279 -1.2734 -1.8825
 3084SOL    HW220889   1.387   0.998   6.269  1.1068  1.4071 -0.9144
 3085SOL     OW20890   0.799   3.807  15.530 -0.0843 -0.4433  0.1873
 3085SOL    HW120891   0.843   3.862  15.595  1.7247  0.5266 -1.8728
 3085SOL    HW220892   0.707   3.809  15.558 -0.3613 -0.2812 -0.7560
 3086SOL     OW20893   3.716   4.362   4.949 -0.1911 -0.1478  0.7973
 3086SOL    HW120894   3.727   4.454   4.922 -0.3426 -0.3153  0.1622
 3086SOL    HW220895   3.651   4.350   4.879 -0.7333 -1.3534  1.5142
 3087SOL     OW20896   0.503   4.299   7.125  0.1712  0.5837 -0.2486
 3087SOL    HW120897   0.452   4.369   7.087 -0.7212 -0.3033 -0.6793
 3087SOL    HW220898   0.549   4.260   7.050 -0.6327 -1.8982  0.5293
 3088SOL     OW20899   0.202   1.943  14.889 -0.1526  0.4935  0.1224
 3088SOL    HW120900   0.121   1.946  14.940 -0.7303 -3.4730 -0.5706
 3088SOL    HW220901   0.166   1.905  14.809  1.9333 -2.9051  0.7761
 3089SOL     OW20902   2.426   3.344   9.965 -0.0093  0.2565 -0.5006
 3089SOL    HW120903   2.443   3.407  10.036  1.8089  0.9227 -1.5356
 3089SOL    HW220904   2.431   3.262  10.014  2.0848  0.5178 -0.3054
 3090SOL     OW20905   1.583   4.562   9.080  0.1155 -0.3961  0.2026
 3090SOL    HW120906   1.652   4.596   9.137 -0.3284 -1.7782  1.5698
 3090SOL    HW220907   1.611   4.476   9.050 -1.4093 -0.8366  0.0324
 3091SOL     OW20908   1.778   0.982  11.889 -0.1129  1.2400  0.2880
 3091SOL    HW120909   1.854   1.005  11.941  0.5996  0.5027 -0.4096
 3091SOL    HW220910   1.755   0.894  11.920 -2.8196  2.2338  1.1162
 3092SOL     OW20911   3.127   3.493   5.655  0.3782  0.6626  0.1107
 3092SOL    HW120912   3.088   3.539   5.730  1.8146 -2.1282  2.5400
 3092SOL    HW220913   3.048   3.461   5.611  1.1535 -1.7558  0.4654
 3093SOL     OW20914   4.060   2.018  10.814 -0.1769  0.1149  0.3600
 3093SOL    HW120915   4.062   1.925  10.789 -0.8039 -0.0576  0.9788
 3093SOL    HW220916   3.989   2.007  10.877 -0.7072  2.0357  0.0795
 3094SOL     OW20917   1.074   2.466   9.786 -0.2422 -0.0735 -0.0290
 3094SOL    HW120918   1.014   2.523   9.738 -2.0363 -1.7713  0.2072
 3094SOL    HW220919   1.129   2.533   9.827 -0.8024  0.5214 -0.2425
 3095SOL     OW20920   3.866   0.018   8.717 -0.1409 -0.6511 -0.0262
 3095SOL    HW120921   3.858   4.695   8.791  2.3826 -1.3880 -0.3427
 3095SOL    HW220922   3.921   4.701   8.661  0.1177  0.3542 -0.7468
 3096SOL     OW20923   3.718   4.631   2.685 -0.3424  0.2485  0.2619
 3096SOL    HW120924   3.688   4.674   2.605  0.5963 -0.0050 -0.2208
 3096SOL    HW220925   3.754   4.707   2.730 -1.4930  0.9447  0.0077
 3097SOL     OW20926   1.570   0.648   6.848  0.5471 -0.3698 -0.6232
 3097SOL    HW120927   1.604   0.733   6.876  2.9340 -2.0211  1.4610
 3097SOL    HW220928   1.599   0.586   6.914  0.1764  0.7988  0.6429
 3098SOL     OW20929   4.356   4.239   6.965 -0.1511 -0.4573 -0.6818
 3098SOL    HW120930   4.362   4.146   6.986  1.5337 -0.8278 -2.8270
 3098SOL    HW220931   4.354   4.278   7.053 -0.0238  0.2858 -1.0110
 3099SOL     OW20932   3.500   1.488   6.624  0.1767 -0.2614  0.4931
 3099SOL    HW120933   3.489   1.408   6.676 -1.4650  0.8484  1.8541
 3099SOL    HW220934   3.456   1.545   6.686 -0.2602 -0.2837  0.2019
 3100SOL     OW20935   3.208   0.175   9.124 -0.6886  0.1828 -1.1492
 3100SOL    HW120936   3.129   0.121   9.113  0.1257 -1.4544  0.8250
 3100SOL    HW220937   3.239   0.185   9.034  0.2083  3.6358 -0.4303
 3101SOL     OW20938   1.424   1.020   3.047  0.0642 -0.2995  0.0349
 3101SOL    HW120939   1.445   0.956   3.114 -1.8691 -0.9649  0.0206
 3101SOL    HW220940   1.387   1.098   3.089 -1.2706 -1.3634  0.8643
 3102SOL     OW20941   2.590   4.098   5.866  0.2893  0.6290  0.7408
 3102SOL    HW120942   2.619   4.186   5.841  3.2840 -0.4397  0.4463
 3102SOL    HW220943   2.653   4.073   5.934 -0.2858 -1.2188  0.6031
 3103SOL     OW20944   0.372   2.246   5.384 -0.2814 -0.6933 -0.2956
 3103SOL    HW120945   0.425   2.325   5.374 -0.5142 -0.5285 -0.2270
 3103SOL    HW220946   0.377   2.200   5.301 -0.4155  0.4763 -0.9489
 3104SOL     OW20947   3.068   4.168  13.460  0.1941  0.6667  0.0858
 3104SOL    HW120948   3.024   4.250  13.439  0.8794  0.3553 -2.5137
 3104SOL    HW220949   3.152   4.202  13.489  0.4814 -1.2256  1.4249
 3105SOL     OW20950   2.517   2.915   2.097  0.3701  0.5257  0.2866
 3105SOL    HW120951   2.532   3.005   2.068 -1.1470  0.6790 -0.0108
 3105SOL    HW220952   2.591   2.903   2.157 -1.0002 -0.1716  1.8242
 3106SOL     OW20953   3.289   3.843   4.146  0.2896  0.0541  0.4760
 3106SOL    HW120954   3.376   3.858   4.110 -0.3998  0.5965 -0.9443
 3106SOL    HW220955   3.252   3.931   4.156 -0.9394 -0.1407 -2.5046
 3107SOL     OW20956   3.144   2.469   5.714  0.1135 -0.1827 -0.1548
 3107SOL    HW120957   3.190   2.388   5.689  0.5962 -0.5498  1.8756
 3107SOL    HW220958   3.194   2.492   5.793 -0.3092  0.5236 -0.0958
 3108SOL     OW20959   0.979   1.996   5.689  0.2434 -0.5835  0.1950
 3108SOL    HW120960   0.982   2.083   5.650 -2.8481 -0.8969 -0.7872
 3108SOL    HW220961   0.941   1.956   5.610 -3.7100  1.9322  0.8347
 3109SOL     OW20962   3.095   1.199   9.142 -0.0230 -0.0419  0.0653
 3109SOL    HW120963   3.161   1.180   9.208  0.5737  0.0542 -0.5104
 3109SOL    HW220964   3.132   1.262   9.081 -2.0207 -0.4703 -1.6029
 3110SOL     OW20965   3.316   0.685   5.112 -0.0292  0.5484 -0.3759
 3110SOL    HW120966   3.298   0.779   5.113  3.4045  1.1954  0.5016
 3110SOL    HW220967   3.368   0.679   5.032  0.7648  0.9444  0.1140
 3111SOL     OW20968   0.639   3.333   4.692  0.0132  0.2550  0.2125
 3111SOL    HW120969   0.729   3.352   4.664 -0.0016 -0.2101 -0.1368
 3111SOL    HW220970   0.590   3.390   4.633  0.4469  1.2073  0.7561
 3112SOL     OW20971   0.341   2.529  16.742  0.3111 -0.3263  0.2604
 3112SOL    HW120972   0.318   2.480  16.821 -0.1484 -0.3713  0.0953
 3112SOL    HW220973   0.418   2.579  16.771  0.9181 -1.9291  1.4398
 3113SOL     OW20974   3.282   3.065   3.198  0.9814  0.0568  0.1553
 3113SOL    HW120975   3.196   3.099   3.172  0.8267  0.7981  1.6259
 3113SOL    HW220976   3.264   3.015   3.277 -0.1665  1.3183  0.6847
 3114SOL     OW20977   1.663   1.239   6.353 -0.5203  0.0380  0.2949
 3114SOL    HW120978   1.670   1.213   6.261  0.5597 -0.7462  0.6032
 3114SOL    HW220979   1.577   1.207   6.381  0.0585 -0.8426  1.0506
 3115SOL     OW20980   0.405   0.789  15.243 -0.1044 -0.6405 -0.1375
 3115SOL    HW120981   0.394   0.728  15.316  0.1736 -0.2334  0.2479
 3115SOL    HW220982   0.330   0.765  15.189  1.2780 -0.8933 -1.9275
 3116SOL     OW20983   3.186   3.906   6.738  0.4731 -0.1824 -0.5211
 3116SOL    HW120984   3.221   3.903   6.649 -0.1875 -1.0777 -0.7523
 3116SOL    HW220985   3.195   3.815   6.763 -0.5688  0.8765  3.5990
 3117SOL     OW20986   1.008   1.365   6.764 -0.0416  0.2764  0.2545
 3117SOL    HW120987   1.007   1.325   6.851 -1.2436  0.5190  0.3567
 3117SOL    HW220988   0.937   1.317   6.721  1.1981  0.6933 -2.2860
 3118SOL     OW20989   3.573   4.658   8.795 -0.4217 -0.0515  0.5752
 3118SOL    HW120990   3.563   0.016   8.787 -1.7138 -0.5191 -3.7975
 3118SOL    HW220991   3.557   4.650   8.701 -3.3264 -0.1182  1.0528
 3119SOL     OW20992   1.548   2.333   5.466  0.3951 -0.1233 -0.4649
 3119SOL    HW120993   1.500   2.412   5.438 -0.5162 -0.3262  0.5476
 3119SOL    HW220994   1.478   2.267   5.464 -1.4716  1.7798  1.9024
 3120SOL     OW20995   2.740   3.418  17.198  0.2211  0.3266 -0.4258
 3120SOL    HW120996   2.809   3.364  17.236  2.1488  2.0779 -1.3978
 3120SOL    HW220997   2.794   3.491  17.167  0.2838  0.7401  0.6568
 3121SOL     OW20998   1.575   3.235  10.230 -0.0395 -0.3117  0.0299
 3121SOL    HW120999   1.520   3.221  10.153 -0.5606  0.0065  0.3411
 3121SOL    HW221000   1.518   3.289  10.287 -0.0470  0.2469 -0.5080
 3122SOL     OW21001   0.924   0.971   7.633 -0.0495  0.0572 -0.4485
 3122SOL    HW121002   1.007   0.924   7.641  0.0029 -0.0069 -1.3874
 3122SOL    HW221003   0.912   1.016   7.716  2.2944  0.3828 -0.3125
 3123SOL     OW21004   1.911   0.708   5.990  0.3139 -0.1279  0.4388
 3123SOL    HW121005   1.824   0.731   6.024  0.1628  0.5064 -0.3936
 3123SOL    HW221006   1.887   0.672   5.904 -0.7958  1.0279  0.2704
 3124SOL     OW21007   1.449   2.767   4.235 -0.4540 -0.1622  0.0690
 3124SOL    HW121008   1.507   2.842   4.252  0.4781 -0.7843 -0.3827
 3124SOL    HW221009   1.471   2.741   4.145  0.3530  1.4654 -0.2157
 3125SOL     OW21010   1.309   4.311  15.705  0.0510 -0.2568  0.1312
 3125SOL    HW121011   1.226   4.265  15.718  0.0809  0.2986  2.2888
 3125SOL    HW221012   1.354   4.232  15.674  2.2664  1.5296 -1.2283
 3126SOL     OW21013   2.244   3.277   6.873 -0.8557 -0.4113  0.3905
 3126SOL    HW121014   2.212   3.197   6.915  0.1921 -0.1271  1.7202
 3126SOL    HW221015   2.338   3.261   6.876 -1.0645 -1.5854  0.6472
 3127SOL     OW21016   2.588   3.355   5.725  0.3444 -0.2513  0.4778
 3127SOL    HW121017   2.598   3.330   5.816  1.4015 -0.5310  0.2854
 3127SOL    HW221018   2.516   3.295   5.704  2.1564 -2.5308  0.8278
 3128SOL     OW21019   1.045   3.237  10.930 -0.0189 -0.1672 -0.1994
 3128SOL    HW121020   1.026   3.256  11.022  4.9468  2.1639  0.3134
 3128SOL    HW221021   0.963   3.198  10.899  0.7805 -3.2288  1.6356
 3129SOL     OW21022   2.723   1.696  15.310  0.7061 -0.1992  0.0402
 3129SOL    HW121023   2.688   1.780  15.282 -1.7607 -1.0862  0.4238
 3129SOL    HW221024   2.721   1.717  15.403  0.9144 -0.8521  0.1957
 3130SOL     OW21025   2.991   0.135   1.912 -0.6738  0.7617  0.1047
 3130SOL    HW121026   2.982   0.157   2.005 -1.2769 -2.0488  0.7146
 3130SOL    HW221027   3.080   0.167   1.898  0.2368 -0.6899  2.5959
 3131SOL     OW21028   3.794   3.792   3.172 -0.2871  0.2914  0.2754
 3131SOL    HW121029   3.854   3.732   3.216 -0.0047  0.7444  0.5139
 3131SOL    HW221030   3.746   3.723   3.127  0.4452  0.1938 -0.3505
 3132SOL     OW21031   1.017   0.615   5.457 -0.6225 -0.1140 -0.2568
 3132SOL    HW121032   1.096   0.669   5.452 -0.7042  0.1917  2.1713
 3132SOL    HW221033   0.960   0.684   5.425 -0.2404 -0.4005 -1.5946
 3133SOL     OW21034   2.315   3.855  10.220 -0.0851  0.0475  0.3006
 3133SOL    HW121035   2.251   3.895  10.279 -2.8798 -3.5534 -0.2948
 3133SOL    HW221036   2.251   3.817  10.160  0.4354 -0.1450 -0.1281
 3134SOL     OW21037   4.459   2.539  11.970  0.2558  0.0132  0.0519
 3134SOL    HW121038   4.473   2.512  12.061  0.7550 -3.3827 -1.0509
 3134SOL    HW221039   4.385   2.484  11.945 -0.2743  0.9128 -0.3570
 3135SOL     OW21040   4.457   4.157   7.437  0.4386  0.0226  0.2652
 3135SOL    HW121041   4.501   4.102   7.372  1.5987  1.1048  0.1264
 3135SOL    HW221042   4.506   4.238   7.420 -0.8404  0.7658  0.0830
 3136SOL     OW21043   1.727   3.945   6.054 -0.5032 -0.0592  0.2291
 3136SOL    HW121044   1.813   3.932   6.094 -0.1975  1.1507 -0.0329
 3136SOL    HW221045   1.701   4.023   6.103  2.4410 -0.4372  2.4330
 3137SOL     OW21046   1.509   2.395   7.887 -0.0674 -0.1258 -0.1246
 3137SOL    HW121047   1.508   2.299   7.877 -1.0728 -0.4139  2.9130
 3137SOL    HW221048   1.602   2.415   7.875  0.0628 -0.0508  1.0627
 3138SOL     OW21049   4.255   3.365   3.990 -0.2093  0.3079 -0.1874
 3138SOL    HW121050   4.262   3.299   4.059 -0.6313  0.0298 -0.4100
 3138SOL    HW221051   4.334   3.361   3.935  0.1198  1.4492  0.2033
 3139SOL     OW21052   4.164   1.309   8.538 -0.0222 -0.3492  0.3386
 3139SOL    HW121053   4.108   1.243   8.496 -0.8441 -0.0144  0.9097
 3139SOL    HW221054   4.151   1.383   8.479 -0.5265 -1.1920 -0.5975
 3140SOL     OW21055   3.776   3.233  11.674  0.2756  0.2534 -0.0178
 3140SOL    HW121056   3.745   3.224  11.764  2.9189 -0.3588  0.8435
 3140SOL    HW221057   3.866   3.201  11.678  1.0300  2.3353 -0.4135
 3141SOL     OW21058   1.748   2.128  13.110 -0.0199  0.4890  0.4799
 3141SOL    HW121059   1.731   2.207  13.161 -2.4759  0.6679 -0.5913
 3141SOL    HW221060   1.676   2.073  13.140 -0.1866  0.2392 -0.3713
 3142SOL     OW21061   4.481   3.228   7.371  0.1548  0.4138  0.0386
 3142SOL    HW121062   4.395   3.187   7.362  0.4039  0.0908 -0.8743
 3142SOL    HW221063   4.446   3.313   7.399 -1.9834 -0.7107  0.7626
 3143SOL     OW21064   2.754   3.466   6.311 -0.0883  0.4976 -0.4541
 3143SOL    HW121065   2.676   3.441   6.360 -1.5482 -0.8991 -3.4205
 3143SOL    HW221066   2.825   3.450   6.372 -1.1893  0.0808  0.7134
 3144SOL     OW21067   1.425   4.324   1.822  0.3567  0.1200 -0.5669
 3144SOL    HW121068   1.507   4.359   1.857  1.6218 -1.5525 -1.8625
 3144SOL    HW221069   1.435   4.341   1.728 -0.4947  2.0809 -0.3025
 3145SOL     OW21070   3.938   1.426  14.710  0.5585 -0.2509  0.3659
 3145SOL    HW121071   3.951   1.388  14.796  1.4263 -1.6945 -0.3951
 3145SOL    HW221072   3.887   1.361  14.661  0.4076  0.0783  0.0771
 3146SOL     OW21073   3.892   3.158  13.610 -0.6786 -0.3862 -0.0668
 3146SOL    HW121074   3.891   3.071  13.651 -0.5755 -1.4563 -2.3467
 3146SOL    HW221075   3.936   3.130  13.530 -0.4775 -2.6231  0.8141
 3147SOL     OW21076   0.031   0.637  15.277  0.1988 -0.9951  0.1190
 3147SOL    HW121077   0.085   0.561  15.295  0.9672 -0.2947  0.7996
 3147SOL    HW221078   0.061   0.644  15.186  1.8707  1.1432  0.8237
 3148SOL     OW21079   1.756   4.525   3.821 -0.4374  0.3768 -0.2943
 3148SOL    HW121080   1.833   4.539   3.766 -0.0276 -1.5196 -0.1998
 3148SOL    HW221081   1.724   4.437   3.800  0.7302 -0.6275  2.1044
 3149SOL     OW21082   3.771   0.332  17.673 -0.0282 -0.3754  0.4139
 3149SOL    HW121083   3.829   0.304  17.602 -2.5494  2.9953 -2.9987
 3149SOL    HW221084   3.686   0.296  17.645 -2.0375  1.9942  3.4520
 3150SOL     OW21085   2.398   4.511   4.669  0.2599 -0.0610 -0.4990
 3150SOL    HW121086   2.331   4.450   4.701 -0.4672  0.7445 -0.4752
 3150SOL    HW221087   2.458   4.447   4.630  1.1809  3.1006 -4.2721
 3151SOL     OW21088   1.763   2.549  16.249  0.1342  0.2542 -0.3839
 3151SOL    HW121089   1.745   2.543  16.156  2.2355  0.7151 -0.8304
 3151SOL    HW221090   1.859   2.552  16.242  0.0786 -0.8450 -1.7206
 3152SOL     OW21091   4.016   1.451   9.514 -0.0456 -0.1994  0.7020
 3152SOL    HW121092   3.950   1.521   9.515 -1.3906 -1.5261  3.8333
 3152SOL    HW221093   3.987   1.393   9.584 -0.0944 -0.5223  0.4130
 3153SOL     OW21094   3.453   1.116   4.855 -0.5429  0.0257 -0.3873
 3153SOL    HW121095   3.421   1.179   4.790 -1.3215 -1.6544 -1.6528
 3153SOL    HW221096   3.525   1.076   4.805 -2.4589 -0.2145 -2.9972
 3154SOL     OW21097   4.025   1.458   3.279 -0.7574 -0.2465 -0.1911
 3154SOL    HW121098   4.070   1.387   3.325 -4.3727 -0.7279  2.5620
 3154SOL    HW221099   3.976   1.419   3.206  0.1920  0.2919 -1.1158
 3155SOL     OW21100   4.010   0.197  10.449  0.1357 -0.1783 -0.3015
 3155SOL    HW121101   3.960   0.269  10.410  2.6018  2.5892  1.6172
 3155SOL    HW221102   4.095   0.225  10.414  0.9372 -0.5298  1.3622
 3156SOL     OW21103   4.133   1.147  12.137 -0.3979 -0.4497  0.5133
 3156SOL    HW121104   4.119   1.233  12.097 -1.4713 -0.7949  0.1454
 3156SOL    HW221105   4.057   1.107  12.095 -0.4090  2.2885 -2.0974
 3157SOL     OW21106   0.387   1.323   6.190 -0.4105  0.4653 -0.0193
 3157SOL    HW121107   0.396   1.250   6.129  0.5717  0.5547  0.0227
 3157SOL    HW221108   0.352   1.290   6.273 -1.6589 -0.6691 -0.9882
 3158SOL     OW21109   0.845   2.972   9.846 -0.4516  0.1998  0.2269
 3158SOL    HW121110   0.838   2.891   9.795 -2.4103  0.3305  0.2826
 3158SOL    HW221111   0.903   2.942   9.916  0.4513  0.7407 -0.2778
 3159SOL     OW21112   3.263   3.480   5.000  0.3933  0.1297 -0.5149
 3159SOL    HW121113   3.203   3.457   4.929  0.2741  1.0535 -0.7120
 3159SOL    HW221114   3.318   3.534   4.943  0.5522 -1.5608 -1.9698
 3160SOL     OW21115   1.778   4.475   5.330 -0.0244 -0.3104 -0.8408
 3160SOL    HW121116   1.698   4.434   5.363 -0.1505  2.8189  2.7245
 3160SOL    HW221117   1.839   4.441   5.395 -3.0254 -0.9048  1.6600
 3161SOL     OW21118   2.560   4.536   8.789  0.3976  0.4783 -0.7145
 3161SOL    HW121119   2.552   4.554   8.882  1.0014 -1.2960 -0.3101
 3161SOL    HW221120   2.553   4.627   8.761 -0.3368  0.8557  0.7192
 3162SOL     OW21121   3.113   1.828   7.690  0.6037 -0.3000  0.1707
 3162SOL    HW121122   3.100   1.863   7.778 -0.8212 -2.7728  0.9553
 3162SOL    HW221123   3.196   1.783   7.703  0.7548 -0.6661 -2.0055
 3163SOL     OW21124   1.896   1.208   8.732 -0.0307  0.0519  0.1299
 3163SOL    HW121125   1.876   1.137   8.793  0.9743 -0.6319 -0.3202
 3163SOL    HW221126   1.912   1.280   8.794  1.0671  0.1052 -0.2007
 3164SOL     OW21127   1.667   0.513   6.627 -0.3763  0.1630 -0.1500
 3164SOL    HW121128   1.634   0.565   6.700  2.1624  1.5716  0.0138
 3164SOL    HW221129   1.639   0.575   6.560 -0.6418 -0.5012 -0.6453
 3165SOL     OW21130   0.441   1.664   1.768 -0.4572  0.4931  0.0380
 3165SOL    HW121131   0.437   1.637   1.860 -2.1452 -1.6325 -0.6470
 3165SOL    HW221132   0.356   1.630   1.741 -0.4515 -0.5592  1.3356
 3166SOL     OW21133   4.108   3.370  16.688 -0.8802  0.3454  0.4726
 3166SOL    HW121134   4.150   3.372  16.774  1.2815 -0.2219 -0.5665
 3166SOL    HW221135   4.151   3.444  16.644  0.3761  0.2123  1.4998
 3167SOL     OW21136   0.255   4.586  17.566 -0.0134 -0.2515  0.1715
 3167SOL    HW121137   0.211   4.596  17.651  0.9192 -2.7872  0.9743
 3167SOL    HW221138   0.273   4.492  17.571 -0.5904 -0.4033 -0.6811
 3168SOL     OW21139   0.635   2.177   6.288  0.0661  0.1138 -0.5211
 3168SOL    HW121140   0.559   2.207   6.338  1.0978 -1.1180  1.8187
 3168SOL    HW221141   0.632   2.224   6.205  3.0393  0.1035 -0.6404
 3169SOL     OW21142   0.329   1.395   9.429 -0.1430 -0.3391  0.8204
 3169SOL    HW121143   0.251   1.429   9.471  0.1001  2.5891 -1.1165
 3169SOL    HW221144   0.290   1.338   9.362  1.1445 -0.8730  0.5125
 3170SOL     OW21145   4.220   3.069   8.328 -0.1708 -0.1848  0.0667
 3170SOL    HW121146   4.263   3.154   8.322  2.0202 -1.5971 -4.4551
 3170SOL    HW221147   4.141   3.099   8.373  0.3245 -0.6557  1.2642
 3171SOL     OW21148   2.212   3.450   0.400 -0.7085 -0.3392 -0.1275
 3171SOL    HW121149   2.198   3.498   0.318 -0.5027  1.1633  0.7124
 3171SOL    HW221150   2.291   3.494   0.433 -1.4710  0.6310  0.4158
 3172SOL     OW21151   3.961   0.388   1.280  0.0016 -0.1685 -0.1042
 3172SOL    HW121152   3.874   0.425   1.267 -0.0028  0.1654  0.9498
 3172SOL    HW221153   3.940   0.302   1.244 -0.2143  0.0711 -0.5491
 3173SOL     OW21154   3.751   3.802  16.831 -0.1176  0.1939 -0.4304
 3173SOL    HW121155   3.666   3.811  16.788 -0.3776  0.3909  0.1171
 3173SOL    HW221156   3.784   3.733  16.774  0.5304 -1.3885  1.8556
 3174SOL     OW21157   2.091   4.682   0.598  0.0244 -0.4658 -0.1532
 3174SOL    HW121158   2.172   4.639   0.573  1.6806  1.5555  1.7539
 3174SOL    HW221159   2.120   0.034   0.579 -2.0278  0.5519  1.5087
 3175SOL     OW21160   3.677   1.485   2.993 -0.5642 -0.0082 -0.0669
 3175SOL    HW121161   3.724   1.548   3.048 -0.8380  0.2394 -0.1116
 3175SOL    HW221162   3.731   1.408   3.009 -2.7963 -1.6529 -0.3609
 3176SOL     OW21163   3.096   4.620   8.306  0.2102  0.3100 -0.0995
 3176SOL    HW121164   3.067   4.529   8.292 -3.5172  1.4783  0.0418
 3176SOL    HW221165   3.038   4.661   8.369  1.5213 -0.5399  1.6696
 3177SOL     OW21166   2.820   1.820   7.086 -0.0737 -0.8745 -0.2513
 3177SOL    HW121167   2.826   1.899   7.032  1.2065  0.2903  1.5862
 3177SOL    HW221168   2.808   1.853   7.174 -0.0692  3.3674 -1.8465
 3178SOL     OW21169   1.209   2.035   2.220  0.0856  0.3915  0.4904
 3178SOL    HW121170   1.267   1.990   2.158 -0.0834 -0.2254  0.7801
 3178SOL    HW221171   1.141   2.075   2.167 -1.1688 -2.8399 -0.3625
 3179SOL     OW21172   3.622   1.370   8.692  0.1760 -0.1174 -0.4246
 3179SOL    HW121173   3.678   1.334   8.623 -1.2061 -0.6093 -1.3006
 3179SOL    HW221174   3.676   1.340   8.765 -1.2306 -2.5602 -0.3863
 3180SOL     OW21175   3.977   2.403   5.399  0.4754 -0.0592 -0.2044
 3180SOL    HW121176   3.955   2.324   5.350 -1.5325  1.0101 -1.0459
 3180SOL    HW221177   3.943   2.467   5.336 -1.2143  0.6698  1.4395
 3181SOL     OW21178   2.781   0.722  12.536 -0.7502  0.3869  0.1160
 3181SOL    HW121179   2.830   0.649  12.574 -0.0311 -0.0820 -1.7134
 3181SOL    HW221180   2.831   0.797  12.568 -1.0231  1.0453 -1.0095
 3182SOL     OW21181   1.802   1.508   6.064  0.7347  0.5655  0.2662
 3182SOL    HW121182   1.757   1.430   6.096 -0.2323  1.9786  2.3284
 3182SOL    HW221183   1.742   1.558   6.008  0.1236 -0.2355  0.2124
 3183SOL     OW21184   1.700   4.567  15.748 -0.6941 -0.2515 -0.3020
 3183SOL    HW121185   1.622   4.546  15.698 -1.2324  0.0671  0.4069
 3183SOL    HW221186   1.754   4.590  15.673  1.6040  1.6538  1.9270
 3184SOL     OW21187   1.438   1.085   9.921  0.0324 -0.1236 -0.2857
 3184SOL    HW121188   1.414   1.130  10.002  0.6643 -0.2832 -0.0060
 3184SOL    HW221189   1.352   1.052   9.896 -0.4589 -0.4227  1.8432
 3185SOL     OW21190   0.350   4.047  10.213 -0.0318 -0.0760 -0.0079
 3185SOL    HW121191   0.397   4.100  10.148 -1.6312  0.8180 -0.4408
 3185SOL    HW221192   0.407   4.063  10.288  1.1136 -0.1792 -0.8533
 3186SOL     OW21193   3.804   4.460   8.886  0.0555  0.0502 -0.6644
 3186SOL    HW121194   3.789   4.540   8.937  2.2752 -0.5500  0.9144
 3186SOL    HW221195   3.859   4.414   8.949 -2.0749 -0.1482  1.0607
 3187SOL     OW21196   3.147   0.566   8.417  0.2743  0.0341  0.0973
 3187SOL    HW121197   3.065   0.609   8.441  0.8608 -0.0422  2.2822
 3187SOL    HW221198   3.205   0.638   8.392 -1.9059  0.8406 -2.6660
 3188SOL     OW21199   1.941   3.455   9.472  0.6476 -0.1224 -0.0110
 3188SOL    HW121200   1.960   3.548   9.458 -0.2128  0.1271  0.4925
 3188SOL    HW221201   2.015   3.411   9.430 -0.6739 -1.1345 -1.3126
 3189SOL     OW21202   2.704   2.541  10.425  0.3868 -0.3807  0.5169
 3189SOL    HW121203   2.690   2.634  10.409  2.1607 -0.3730 -0.9367
 3189SOL    HW221204   2.793   2.529  10.391 -0.2042 -0.0789 -1.1238
 3190SOL     OW21205   0.499   3.037   0.211  0.2255  0.5629  0.2818
 3190SOL    HW121206   0.549   3.019   0.291 -0.4653  0.0144  0.5830
 3190SOL    HW221207   0.512   3.132   0.208  1.7162  0.2971 -1.4839
 3191SOL     OW21208   4.622   0.571   5.451  0.2516  0.0602  0.3618
 3191SOL    HW121209   4.534   0.580   5.413  1.0062  1.0971 -1.1369
 3191SOL    HW221210   4.666   0.656   5.441 -1.5863  0.8251 -1.2175
 3192SOL     OW21211   0.314   3.146   3.493  1.6050  0.2237 -0.1829
 3192SOL    HW121212   0.355   3.154   3.579  0.5586  0.9257  0.2537
 3192SOL    HW221213   0.379   3.198   3.445  1.7732 -2.5592 -2.9641
 3193SOL     OW21214   0.285   1.248   4.037 -0.1419  0.3987 -0.1045
 3193SOL    HW121215   0.234   1.212   4.110  0.5455  0.4198  0.3822
 3193SOL    HW221216   0.302   1.171   3.982  0.4448  0.6751 -0.3069
 3194SOL     OW21217   3.597   2.333  17.157 -0.3921 -0.2190  0.1308
 3194SOL    HW121218   3.563   2.264  17.100  0.6307 -1.0901  0.5690
 3194SOL    HW221219   3.691   2.314  17.154 -0.0704  1.2345  1.0282
 3195SOL     OW21220   4.579   0.561  12.776 -0.5131  0.1784 -0.0373
 3195SOL    HW121221   4.629   0.554  12.695  1.0074 -2.0471  1.0891
 3195SOL    HW221222   4.584   0.657  12.780  1.2101  0.0055  2.1248
 3196SOL     OW21223   2.045   2.286   7.865 -0.1059  0.4800 -0.3846
 3196SOL    HW121224   2.085   2.372   7.849 -2.4948  1.9059  1.3030
 3196SOL    HW221225   2.015   2.268   7.776  0.6660  0.8132 -0.7126
 3197SOL     OW21226   1.555   1.869   6.167  0.1724 -0.2049 -0.0764
 3197SOL    HW121227   1.482   1.888   6.108 -1.5941 -2.0001  1.5321
 3197SOL    HW221228   1.548   1.775   6.183 -1.3387 -0.3862 -1.7925
 3198SOL     OW21229   4.493   1.129   1.227 -0.2417 -0.2476 -0.2771
 3198SOL    HW121230   4.492   1.103   1.134  0.7977  0.9691 -0.6371
 3198SOL    HW221231   4.513   1.222   1.216  0.4348 -0.5190 -1.3667
 3199SOL     OW21232   4.140   1.775  10.274 -0.0046  0.4302  0.0660
 3199SOL    HW121233   4.127   1.862  10.311 -0.7613  0.4559 -0.2640
 3199SOL    HW221234   4.083   1.775  10.198 -1.0082 -3.1020  0.8056
 3200SOL     OW21235   0.047   0.561   3.276  0.0738  0.4042 -0.3025
 3200SOL    HW121236   0.080   0.496   3.214 -0.5773 -1.0444  0.8630
 3200SOL    HW221237   0.127   0.595   3.316 -0.2067  0.5356  0.1432
 3201SOL     OW21238   3.074   1.875   6.666 -0.2434 -0.3886 -0.2124
 3201SOL    HW121239   2.984   1.852   6.640 -0.4806 -0.4550  0.6499
 3201SOL    HW221240   3.131   1.818   6.615  0.9578  0.0697  0.6336
 3202SOL     OW21241   3.166   1.218  14.760  0.7106 -0.3139 -0.3105
 3202SOL    HW121242   3.094   1.184  14.813  0.8573  1.4032  0.9618
 3202SOL    HW221243   3.118   1.237  14.679 -0.6895  0.5059  0.7224
 3203SOL     OW21244   1.021   2.238   2.713 -0.5843  0.0911  0.1486
 3203SOL    HW121245   0.970   2.229   2.632  0.6754  0.7756 -0.7247
 3203SOL    HW221246   1.099   2.185   2.694  0.6442  1.3078  1.8347
 3204SOL     OW21247   4.324   2.754   4.733  0.2872  0.1233 -0.0534
 3204SOL    HW121248   4.316   2.672   4.685 -1.3394 -0.4896  1.2613
 3204SOL    HW221249   4.234   2.754   4.765  0.4854  1.6309  0.5437
 3205SOL     OW21250   0.359   3.291   6.899 -0.4425  0.5815  0.0766
 3205SOL    HW121251   0.381   3.248   6.982 -0.6700 -2.7261 -1.5707
 3205SOL    HW221252   0.275   3.247   6.886  0.5571 -1.5907  0.9299
 3206SOL     OW21253   4.078   1.933   4.088 -0.0300  0.7537  0.5436
 3206SOL    HW121254   4.040   2.017   4.063  0.0728  0.6097 -0.0961
 3206SOL    HW221255   4.089   1.942   4.182  2.1308  0.8766  0.2828
 3207SOL     OW21256   0.917   3.641   5.491  0.3014 -0.0983  0.1145
 3207SOL    HW121257   0.916   3.689   5.409  3.6863  1.5176  0.9833
 3207SOL    HW221258   0.826   3.612   5.495  1.3727 -3.4919  0.1978
 3208SOL     OW21259   2.897   0.568   7.728  0.1960  0.2471  0.6407
 3208SOL    HW121260   2.925   0.578   7.819 -0.5631 -1.1111  1.0337
 3208SOL    HW221261   2.867   0.654   7.702  1.5812  1.0007  1.5388
 3209SOL     OW21262   0.416   1.202   3.548 -0.4387 -0.4524 -0.0270
 3209SOL    HW121263   0.448   1.162   3.629 -3.3451  2.2633  2.4762
 3209SOL    HW221264   0.379   1.283   3.585 -2.6885 -2.3227  1.8364
 3210SOL     OW21265   4.160   2.134  13.572  0.4073 -0.5146 -0.1444
 3210SOL    HW121266   4.104   2.086  13.633 -0.7353  1.4369  0.3698
 3210SOL    HW221267   4.220   2.062  13.552  1.5345  1.1483 -2.7383
 3211SOL     OW21268   1.511   0.524   4.539 -0.2111  0.5472  0.0884
 3211SOL    HW121269   1.437   0.478   4.500  0.6215 -0.5696 -0.1874
 3211SOL    HW221270   1.554   0.444   4.570 -1.1056 -0.4688 -1.2964
 3212SOL     OW21271   1.319   3.093   9.487 -0.1846  0.7511  0.5670
 3212SOL    HW121272   1.400   3.122   9.530 -0.1339  0.9348  0.3477
 3212SOL    HW221273   1.274   3.178   9.483 -0.3126  0.5551 -1.9884
 3213SOL     OW21274   2.148   3.984   6.218  0.1682 -0.0177  0.5442
 3213SOL    HW121275   2.095   4.063   6.212  1.0634  0.5037 -0.3648
 3213SOL    HW221276   2.210   4.003   6.148 -1.2563 -1.3967 -1.0924
 3214SOL     OW21277   1.940   2.353   4.887  0.0452 -0.3000  0.2146
 3214SOL    HW121278   1.970   2.298   4.815  0.4142 -0.5522  0.5670
 3214SOL    HW221279   1.943   2.295   4.963  2.3878  0.2281  0.5182
 3215SOL     OW21280   0.086   2.796  13.318  0.6000 -0.5016  0.1787
 3215SOL    HW121281   0.079   2.764  13.408  2.1181 -0.9455  0.1550
 3215SOL    HW221282   0.007   2.848  13.306  0.0321 -1.1586  0.9965
 3216SOL     OW21283   0.523   0.210  14.663 -0.2447  0.3395 -0.4617
 3216SOL    HW121284   0.430   0.208  14.639 -0.1547 -1.1571 -0.7181
 3216SOL    HW221285   0.528   0.290  14.715  2.1015 -0.7838  1.0439
 3217SOL     OW21286   4.311   1.220   3.078 -0.1935  0.1086 -0.8029
 3217SOL    HW121287   4.356   1.203   2.996  0.5989  1.8153 -0.7276
 3217SOL    HW221288   4.362   1.294   3.111 -4.6236  2.0835  1.7023
 3218SOL     OW21289   2.594   4.549  12.207 -0.3201  0.1326 -1.1793
 3218SOL    HW121290   2.549   4.544  12.122  0.8922  0.3126 -1.8316
 3218SOL    HW221291   2.630   4.638  12.207 -0.9727  0.3916 -0.2933
 3219SOL     OW21292   2.840   1.565   4.821 -0.1108  0.3911 -0.4963
 3219SOL    HW121293   2.932   1.579   4.845 -0.6577  1.6430  0.8699
 3219SOL    HW221294   2.797   1.528   4.898 -0.0539  4.0834  1.2893
 3220SOL     OW21295   1.779   4.160  16.738 -0.2346  0.5998 -0.0530
 3220SOL    HW121296   1.772   4.124  16.827  3.2750 -2.0362 -0.8920
 3220SOL    HW221297   1.868   4.135  16.718  0.0034  0.5399  1.0927
 3221SOL     OW21298   2.895   0.073   8.846 -0.0773  0.6047 -0.7162
 3221SOL    HW121299   2.935   0.017   8.913  1.0356  0.3309 -1.6132
 3221SOL    HW221300   2.811   0.082   8.891 -0.1251  2.6285 -1.2166
 3222SOL     OW21301   1.406   2.001  15.898  0.4476 -1.3098  0.5896
 3222SOL    HW121302   1.475   1.947  15.936  0.5418 -2.2830 -0.9610
 3222SOL    HW221303   1.370   1.945  15.830 -2.3214  0.2736  0.7183
 3223SOL     OW21304   2.508   3.864   2.845  0.0168 -0.0781  0.3678
 3223SOL    HW121305   2.511   3.774   2.813  1.0902  0.6716 -1.6432
 3223SOL    HW221306   2.463   3.847   2.928  0.0051 -0.6758  0.2398
 3224SOL     OW21307   2.236   1.525   2.075  0.1619  0.0225  0.2150
 3224SOL    HW121308   2.246   1.458   2.007 -3.0333  1.2719 -1.4688
 3224SOL    HW221309   2.148   1.516   2.112 -0.1182  1.6480 -0.0693
 3225SOL     OW21310   0.545   2.825  12.300 -0.2234  0.0035 -0.8746
 3225SOL    HW121311   0.618   2.852  12.357  1.0764 -0.0088 -2.5334
 3225SOL    HW221312   0.565   2.862  12.214 -1.4955  1.5602 -0.4968
 3226SOL     OW21313   4.167   1.943   9.619 -0.2636  0.4285  0.2624
 3226SOL    HW121314   4.197   2.030   9.644  0.6607 -0.1145  1.0359
 3226SOL    HW221315   4.249   1.894   9.607 -0.3268  1.0250 -2.6013
 3227SOL     OW21316   1.705   1.820   3.454  0.3227  0.0335 -0.4412
 3227SOL    HW121317   1.725   1.731   3.482 -0.8294 -0.5784 -1.5730
 3227SOL    HW221318   1.762   1.837   3.379 -0.7473 -2.3508 -1.7942
 3228SOL     OW21319   2.095   1.647  11.933 -0.1210  0.2892  0.2561
 3228SOL    HW121320   2.027   1.692  11.883 -0.7296 -1.9834 -0.9837
 3228SOL    HW221321   2.037   1.597  11.990 -1.9286  2.4875  0.3537
 3229SOL     OW21322   3.631   4.575   3.601 -0.4329  0.1235 -0.5759
 3229SOL    HW121323   3.701   4.637   3.579  1.3462 -1.4753  0.5674
 3229SOL    HW221324   3.664   4.533   3.680  0.5433 -1.0670 -1.6199
 3230SOL     OW21325   3.966   4.146   7.409  0.4959 -0.5627  0.1298
 3230SOL    HW121326   3.998   4.187   7.328  1.0881  0.7373  1.0171
 3230SOL    HW221327   4.038   4.171   7.467  0.4093 -2.7757  1.1956
 3231SOL     OW21328   1.162   0.408  15.818 -0.1576  0.1811  0.2940
 3231SOL    HW121329   1.067   0.401  15.813 -0.2106  1.9528 -1.0747
 3231SOL    HW221330   1.172   0.503  15.821  0.6597  0.0634  1.2688
 3232SOL     OW21331   1.743   4.304  12.126  0.4154  0.7186  0.3964
 3232SOL    HW121332   1.652   4.311  12.097  0.0873  0.6473  1.4109
 3232SOL    HW221333   1.742   4.210  12.107  1.6731  0.2187  2.8382
 3233SOL     OW21334   0.417   1.565   4.863  0.3985  0.1087  0.1790
 3233SOL    HW121335   0.478   1.636   4.885 -1.6423  2.0602 -0.3638
 3233SOL    HW221336   0.352   1.593   4.928 -1.9756 -2.2298 -1.1738
 3234SOL     OW21337   2.822   1.925   7.351 -0.4799  0.4432  0.2371
 3234SOL    HW121338   2.836   1.883   7.435 -3.4038 -0.4985  0.2454
 3234SOL    HW221339   2.775   2.006   7.373  1.3358  1.4547  0.3335
 3235SOL     OW21340   2.261   4.144  17.146 -0.1423  0.5569 -0.7484
 3235SOL    HW121341   2.328   4.210  17.126 -0.6691  1.7424  1.3965
 3235SOL    HW221342   2.215   4.185  17.219 -1.0261 -1.3529 -0.2459
 3236SOL     OW21343   3.412   4.185   3.435  0.1719 -0.4041 -0.5578
 3236SOL    HW121344   3.499   4.197   3.395  1.5684 -4.1864  1.3220
 3236SOL    HW221345   3.437   4.141   3.516 -1.2064  0.2639  0.2202
 3237SOL     OW21346   1.595   0.525   6.010  0.5384 -0.1248 -0.0158
 3237SOL    HW121347   1.513   0.510   5.963 -0.4719  1.4237  1.2659
 3237SOL    HW221348   1.595   0.443   6.060 -0.2475 -0.5346 -0.6938
 3238SOL     OW21349   3.656   1.215   1.812  0.4283 -0.0572 -0.0966
 3238SOL    HW121350   3.574   1.167   1.822  1.8479 -2.4861  0.0254
 3238SOL    HW221351   3.622   1.303   1.799 -0.3829  0.0165  2.5171
 3239SOL     OW21352   3.297   2.052   6.778 -0.1853  0.0171  0.3018
 3239SOL    HW121353   3.241   1.981   6.745  0.0943  0.5950 -1.4255
 3239SOL    HW221354   3.296   2.121   6.711  0.3878  2.4565  2.8074
 3240SOL     OW21355   1.466   4.357   4.140 -0.0002  0.1424 -0.1010
 3240SOL    HW121356   1.453   4.287   4.204 -0.6250  1.3202  1.0561
 3240SOL    HW221357   1.398   4.326   4.079 -0.9369  0.0889  0.9694
 3241SOL     OW21358   1.076   0.552   0.288  0.1858 -0.4942 -0.3931
 3241SOL    HW121359   1.007   0.619   0.291  1.4813  0.7101  2.0016
 3241SOL    HW221360   1.086   0.548   0.383 -1.0385 -2.0468 -0.3286
 3242SOL     OW21361   3.943   1.096  12.489  0.3657  0.5719 -0.4532
 3242SOL    HW121362   3.886   1.114  12.414 -0.4894  0.7812  0.2435
 3242SOL    HW221363   4.027   1.133  12.462  1.5030 -0.2172  2.0460
 3243SOL     OW21364   3.263   4.452   1.659 -0.1472 -0.2405  0.3863
 3243SOL    HW121365   3.195   4.385   1.651  0.1645 -0.4781 -0.2940
 3243SOL    HW221366   3.348   4.414   1.681 -0.6833 -1.6892 -0.0286
 3244SOL     OW21367   3.631   3.202  13.532 -0.0917 -1.1588  0.3908
 3244SOL    HW121368   3.636   3.293  13.504 -0.6525 -1.1606  0.2702
 3244SOL    HW221369   3.722   3.180  13.552  0.2518  1.3050  1.4932
 3245SOL     OW21370   4.229   2.361  15.942 -0.1733  0.0409 -0.2826
 3245SOL    HW121371   4.230   2.435  15.882  1.4513 -0.7102 -1.1948
 3245SOL    HW221372   4.140   2.324  15.933  0.6467 -2.2179  0.7859
 3246SOL     OW21373   1.047   1.080  15.384 -0.4310 -0.0598 -0.1520
 3246SOL    HW121374   1.032   1.103  15.292  1.6522 -0.0877 -0.4996
 3246SOL    HW221375   1.072   1.162  15.427 -3.3117  1.5382 -1.4971
 3247SOL     OW21376   4.255   2.232   6.748  0.2956 -0.4534  0.2559
 3247SOL    HW121377   4.318   2.221   6.677 -0.0348 -0.9361  0.0344
 3247SOL    HW221378   4.188   2.167   6.725 -0.8019  0.9815 -0.6750
 3248SOL     OW21379   3.378   1.826   5.123  0.0969 -0.1897 -0.1157
 3248SOL    HW121380   3.293   1.871   5.130  0.9676  1.7650 -2.3382
 3248SOL    HW221381   3.374   1.757   5.190  0.4845 -0.7392 -0.6637
 3249SOL     OW21382   2.768   0.115   3.056  0.0985  0.0786  0.3735
 3249SOL    HW121383   2.708   0.067   2.998 -0.1808  1.5652 -0.5732
 3249SOL    HW221384   2.742   0.082   3.142  1.7820 -1.8201  0.1514
 3250SOL     OW21385   0.711   2.173   3.753 -0.2835  0.0655  0.1878
 3250SOL    HW121386   0.627   2.201   3.718  0.5169  1.6255 -0.4982
 3250SOL    HW221387   0.762   2.245   3.717  0.2664  0.4299  1.6732
 3251SOL     OW21388   2.322   4.358   3.800  0.8848  0.3035  0.2819
 3251SOL    HW121389   2.233   4.359   3.764  1.3708  1.3707 -0.8871
 3251SOL    HW221390   2.364   4.339   3.716 -2.6850 -0.0399 -1.4266
 3252SOL     OW21391   3.205   3.938  17.573  0.5283  0.7969  0.5398
 3252SOL    HW121392   3.275   3.952  17.636  0.4219  1.5992  0.4719
 3252SOL    HW221393   3.179   4.028  17.554  1.8570  0.8386 -1.0380
 3253SOL     OW21394   3.825   2.277   6.508 -0.2547 -0.0546 -0.5838
 3253SOL    HW121395   3.894   2.319   6.558  0.0681 -0.1190 -0.9726
 3253SOL    HW221396   3.791   2.210   6.567 -0.3948 -0.2323 -0.8619
 3254SOL     OW21397   2.972   4.624   3.898 -0.1323 -0.3934 -0.7087
 3254SOL    HW121398   2.912   4.671   3.957  0.0124 -2.3373  0.9779
 3254SOL    HW221399   3.053   4.667   3.928  0.3276 -2.4755  1.0319
 3255SOL     OW21400   1.354   4.518   3.166 -0.1427 -0.1958 -0.1411
 3255SOL    HW121401   1.389   4.602   3.136 -4.7108  1.4099 -0.9488
 3255SOL    HW221402   1.299   4.484   3.096  0.3560 -0.8202 -0.2267
 3256SOL     OW21403   4.384   2.009   1.781  0.2735  0.1197  0.2274
 3256SOL    HW121404   4.385   1.919   1.749 -1.5260  0.0572  0.3521
 3256SOL    HW221405   4.352   1.988   1.869  1.8761 -1.8895  0.3530
 3257SOL     OW21406   2.224   3.695   3.677 -0.3954 -0.0862 -0.7167
 3257SOL    HW121407   2.139   3.656   3.661 -0.4144 -0.0554 -0.6906
 3257SOL    HW221408   2.201   3.785   3.700  0.5474  0.5837 -2.4021
 3258SOL     OW21409   0.371   4.146   5.284 -0.0981 -0.3218 -0.0431
 3258SOL    HW121410   0.362   4.051   5.293 -0.1274 -0.0445  2.9327
 3258SOL    HW221411   0.281   4.171   5.263  0.2446  0.2129 -0.8984
 3259SOL     OW21412   1.360   0.403   2.461  0.4064 -0.1829  0.2514
 3259SOL    HW121413   1.274   0.380   2.495  0.4358 -0.6846 -0.0110
 3259SOL    HW221414   1.363   0.374   2.370  4.2425 -1.2130  0.6769
 3260SOL     OW21415   2.024   1.945  14.217 -1.2092  0.2199 -0.3790
 3260SOL    HW121416   1.955   2.011  14.215  0.2261  1.7248 -0.5796
 3260SOL    HW221417   1.964   1.870  14.217 -1.3570  0.3335 -2.6514
 3261SOL     OW21418   3.916   3.858   0.446 -0.0002 -0.4502  0.1415
 3261SOL    HW121419   3.935   3.764   0.444  2.1288 -0.0228  1.0089
 3261SOL    HW221420   3.962   3.876   0.528  0.8987  0.9806 -0.6842
 3262SOL     OW21421   2.762   4.203  15.524 -0.2017 -0.3592 -0.2904
 3262SOL    HW121422   2.788   4.201  15.616  0.1857  0.5583 -0.3756
 3262SOL    HW221423   2.839   4.252  15.493 -0.4949  0.6419  0.5358
 3263SOL     OW21424   2.610   2.181   2.291 -0.4735  0.0631 -0.2186
 3263SOL    HW121425   2.556   2.147   2.363 -0.4669 -0.0006 -0.2444
 3263SOL    HW221426   2.541   2.226   2.242 -0.4896 -0.5179 -0.7204
 3264SOL     OW21427   0.601   3.577   2.996  0.0015  0.8680  0.4120
 3264SOL    HW121428   0.593   3.485   3.022 -0.3012  0.2909 -1.7189
 3264SOL    HW221429   0.579   3.578   2.903  2.0072  2.2801 -0.0381
 3265SOL     OW21430   3.524   1.588  15.240 -0.2404 -0.2136  0.1103
 3265SOL    HW121431   3.508   1.660  15.178  1.7982  0.1637  0.0092
 3265SOL    HW221432   3.460   1.614  15.306  0.6068  1.6010  0.2142
 3266SOL     OW21433   0.816   2.855   7.174 -0.3835 -0.2313  0.6080
 3266SOL    HW121434   0.847   2.770   7.205  0.4068  0.1821  0.9411
 3266SOL    HW221435   0.856   2.862   7.087 -0.0842 -3.0046  0.5092
 3267SOL     OW21436   3.951   0.345   5.568 -0.1886  0.3861 -0.1421
 3267SOL    HW121437   4.038   0.306   5.564 -0.5141 -0.4733  1.0759
 3267SOL    HW221438   3.950   0.416   5.504  1.2932  0.7402  0.2441
 3268SOL     OW21439   2.964   2.236   5.111 -0.5531  0.2664 -0.1122
 3268SOL    HW121440   2.891   2.261   5.054 -1.5223  2.6351  2.1526
 3268SOL    HW221441   2.959   2.304   5.179 -0.6365  0.2609 -0.1135
 3269SOL     OW21442   4.340   1.275  11.018 -0.1903  0.1526  0.3954
 3269SOL    HW121443   4.268   1.293  11.079 -0.6523  0.7910 -0.3380
 3269SOL    HW221444   4.336   1.353  10.963 -2.2984  0.4713  0.9930
 3270SOL     OW21445   2.238   2.342   7.021 -0.3725 -0.2492  0.0551
 3270SOL    HW121446   2.170   2.393   7.066  0.6478  0.5611  0.6587
 3270SOL    HW221447   2.306   2.369   7.081 -0.3560 -1.8261  0.7602
 3271SOL     OW21448   0.981   3.035  16.654 -0.3197 -0.1340 -0.6117
 3271SOL    HW121449   0.914   3.054  16.589  1.3128  0.6928 -2.0409
 3271SOL    HW221450   1.049   2.991  16.604  1.0608  0.0041  1.1407
 3272SOL     OW21451   1.902   1.956   3.219 -0.4350 -0.1558  0.4194
 3272SOL    HW121452   1.872   2.035   3.266 -2.5243 -0.7637  0.1035
 3272SOL    HW221453   1.994   1.981   3.218 -0.8517  1.4112  1.0305
 3273SOL     OW21454   0.956   2.692   2.401  0.5634  0.1035  0.2434
 3273SOL    HW121455   0.862   2.687   2.418  0.7294  0.2875  1.2368
 3273SOL    HW221456   0.949   2.764   2.338 -0.4293  1.6714  2.1332
 3274SOL     OW21457   2.838   1.818   5.355  0.3631  0.0017 -0.1145
 3274SOL    HW121458   2.910   1.871   5.389 -0.5509 -0.0789  1.9477
 3274SOL    HW221459   2.775   1.883   5.324  2.0607  1.1092 -1.2570
 3275SOL     OW21460   2.421   4.644  14.056  0.0553 -0.2435  0.0567
 3275SOL    HW121461   2.452   4.714  14.115  1.7292  0.0358 -1.1728
 3275SOL    HW221462   2.330   4.635  14.085  0.5551 -2.7500  0.8370
 3276SOL     OW21463   1.835   0.718  10.136  0.4045  0.0125  0.6733
 3276SOL    HW121464   1.806   0.800  10.095  1.2825  0.0532  0.1561
 3276SOL    HW221465   1.888   0.692  10.061  0.9484  1.0656  0.6904
 3277SOL     OW21466   3.623   0.203  15.344  0.2699 -0.8648 -0.2326
 3277SOL    HW121467   3.620   0.114  15.379 -0.2277 -0.1880  1.4286
 3277SOL    HW221468   3.664   0.180  15.261  2.6147  1.1880  0.3627
 3278SOL     OW21469   1.643   3.766   7.919 -0.2937  0.0346 -0.0195
 3278SOL    HW121470   1.681   3.687   7.883  0.8610  0.5553  0.0535
 3278SOL    HW221471   1.581   3.800   7.855 -2.0438  0.4905  1.9052
 3279SOL     OW21472   2.315   0.506  10.990 -0.2599 -0.4188 -0.4851
 3279SOL    HW121473   2.379   0.572  10.965 -1.8956  2.1014  1.8830
 3279SOL    HW221474   2.342   0.436  10.931  0.2083 -0.6446  0.0008
 3280SOL     OW21475   2.565   0.547   5.658 -0.8459 -0.4028  0.1092
 3280SOL    HW121476   2.645   0.515   5.615 -0.9063  0.1779 -0.4390
 3280SOL    HW221477   2.583   0.516   5.747  2.9980 -0.5449 -0.7097
 3281SOL     OW21478   0.193   4.161   5.517  0.2563  0.3627 -0.0424
 3281SOL    HW121479   0.276   4.159   5.469  0.4217  1.2929  0.2023
 3281SOL    HW221480   0.123   4.170   5.453  0.7989 -2.5292 -1.0443
 3282SOL     OW21481   1.328   1.706   3.293 -0.9075  0.1429  0.6959
 3282SOL    HW121482   1.288   1.620   3.311 -0.9479  0.3301  1.5128
 3282SOL    HW221483   1.381   1.700   3.372 -0.1743 -0.4188  0.1598
 3283SOL     OW21484   0.623   4.286   7.574  0.0804  0.9483  0.3675
 3283SOL    HW121485   0.623   4.377   7.544 -0.4499  0.5098 -0.9307
 3283SOL    HW221486   0.596   4.240   7.495  2.9471 -0.6473  0.3248
 3284SOL     OW21487   1.192   1.763  17.307  0.1157 -0.3527  0.5036
 3284SOL    HW121488   1.251   1.764  17.382  2.0185 -0.2824 -1.0106
 3284SOL    HW221489   1.110   1.755  17.356 -0.5038  0.1719 -0.4396
 3285SOL     OW21490   0.306   3.085   4.856 -0.4790 -0.3035 -0.2313
 3285SOL    HW121491   0.394   3.101   4.824  0.3578 -1.2536  1.6439
 3285SOL    HW221492   0.311   2.989   4.861  1.7166 -0.1171  0.7735
 3286SOL     OW21493   0.947   4.392  15.873  0.1613 -0.5495 -0.5944
 3286SOL    HW121494   0.972   4.334  15.801  0.3748 -0.1658 -0.8294
 3286SOL    HW221495   0.996   4.357  15.947  1.0440  0.5149 -0.6910
 3287SOL     OW21496   0.308   1.525   3.023 -0.1861 -0.2279  0.0426
 3287SOL    HW121497   0.290   1.614   2.993  3.8285  0.0795 -1.5066
 3287SOL    HW221498   0.372   1.508   2.953  1.2626  0.3754  1.2245
 3288SOL     OW21499   1.479   0.224   7.899 -0.0720 -0.2100  0.2156
 3288SOL    HW121500   1.526   0.188   7.823  0.4910 -1.8469  1.3362
 3288SOL    HW221501   1.485   0.161   7.971  1.3924 -0.6438 -0.2879
 3289SOL     OW21502   2.237   3.498   1.266  0.3202  0.0821 -0.6333
 3289SOL    HW121503   2.291   3.430   1.305 -0.2304  0.2335  0.3852
 3289SOL    HW221504   2.282   3.575   1.300 -1.2623  0.2604  1.0224
 3290SOL     OW21505   2.304   1.568   6.979  0.2803  0.3891  0.1084
 3290SOL    HW121506   2.265   1.576   6.891  0.6349 -1.4984 -0.2015
 3290SOL    HW221507   2.362   1.495   6.962 -0.9061 -0.9261  1.7742
 3291SOL     OW21508   2.525   3.701   3.289  0.0328 -0.1394  0.1791
 3291SOL    HW121509   2.437   3.706   3.327  0.4484 -1.2245  1.2861
 3291SOL    HW221510   2.510   3.626   3.232  0.4847  0.1818 -0.3540
 3292SOL     OW21511   1.293   1.857   1.078 -0.0533 -0.1102  0.3921
 3292SOL    HW121512   1.383   1.887   1.064 -0.6763  1.1355 -0.9566
 3292SOL    HW221513   1.304   1.793   1.149 -0.0441  0.4801  0.9214
 3293SOL     OW21514   0.108   0.215   8.610 -0.4023  0.0117  0.2401
 3293SOL    HW121515   0.201   0.190   8.614 -0.2107  0.6781  0.0569
 3293SOL    HW221516   0.118   0.305   8.643  0.7079 -0.9014  2.4228
 3294SOL     OW21517   3.082   3.355   4.347 -0.4105 -0.1785 -0.4049
 3294SOL    HW121518   3.136   3.279   4.368  1.5131  0.5451 -2.7727
 3294SOL    HW221519   3.128   3.432   4.314  0.6103 -0.9988 -0.8711
 3295SOL     OW21520   0.866   4.661   5.083  0.0268  0.3694  0.2728
 3295SOL    HW121521   0.802   4.589   5.086 -0.4977  0.8175 -0.3449
 3295SOL    HW221522   0.947   4.616   5.106 -0.6785 -0.9709  0.1992
 3296SOL     OW21523   0.498   3.219  12.029 -0.1664 -0.0027  0.7614
 3296SOL    HW121524   0.429   3.279  12.057 -0.5628 -1.1140  2.2022
 3296SOL    HW221525   0.462   3.132  12.048  0.4487 -0.5890 -0.7095
 3297SOL     OW21526   2.229   0.149   1.402  0.3260 -0.2619 -0.2323
 3297SOL    HW121527   2.281   0.211   1.350 -1.8485 -0.0762 -2.2450
 3297SOL    HW221528   2.142   0.188   1.393  0.9814  0.7153 -2.4364
 3298SOL     OW21529   4.412   3.112   9.700  0.1634 -0.7618 -0.0149
 3298SOL    HW121530   4.397   3.051   9.772  0.9334  2.2349  2.6958
 3298SOL    HW221531   4.476   3.172   9.739 -1.6695  1.2701 -0.1376
 3299SOL     OW21532   3.219   1.881  12.926 -0.3578  0.2904 -0.6032
 3299SOL    HW121533   3.239   1.944  12.856  0.8359 -1.5376 -1.8993
 3299SOL    HW221534   3.133   1.911  12.955 -1.0442 -1.2375 -1.0739
 3300SOL     OW21535   2.319   1.415   7.487 -0.0170  0.6367 -0.2069
 3300SOL    HW121536   2.285   1.503   7.474  0.8989  1.0205  0.0379
 3300SOL    HW221537   2.405   1.411   7.446 -0.2437  1.6110 -0.7550
 3301SOL     OW21538   2.091   3.425   5.887 -0.3653  0.0919 -0.1421
 3301SOL    HW121539   2.007   3.462   5.861  0.0552  0.7210 -0.6045
 3301SOL    HW221540   2.157   3.452   5.823 -0.0215  2.1671  1.0820
 3302SOL     OW21541   4.560   0.229   4.505 -0.8791 -0.4879 -0.5803
 3302SOL    HW121542   4.523   0.150   4.465  0.0346 -1.1628 -0.1113
 3302SOL    HW221543   4.646   0.233   4.463 -0.6540 -2.2106 -0.2837
 3303SOL     OW21544   1.511   1.346  15.759 -0.3566 -0.2420 -0.2117
 3303SOL    HW121545   1.529   1.373  15.849  1.4494  2.4397 -1.3861
 3303SOL    HW221546   1.599   1.347  15.721 -0.0722  0.0511  0.4609
 3304SOL     OW21547   4.673   1.592  10.135  0.6212 -0.3344  0.1865
 3304SOL    HW121548   4.614   1.600  10.210 -0.4159  0.5387 -0.7367
 3304SOL    HW221549   4.630   1.622  10.056  0.5746  1.1623  0.7875
 3305SOL     OW21550   4.303   3.577   7.123 -0.6336 -0.4283  0.0436
 3305SOL    HW121551   4.291   3.570   7.028  0.3316  0.1317 -0.1214
 3305SOL    HW221552   4.255   3.502   7.157  1.5255 -2.2560 -0.8984
 3306SOL     OW21553   1.002   1.874   6.197 -0.2683  0.6732 -0.0130
 3306SOL    HW121554   1.004   1.901   6.105  1.4275  1.6358  0.2962
 3306SOL    HW221555   1.080   1.823   6.178 -1.8409 -1.3495 -1.0226
 3307SOL     OW21556   4.297   1.375   2.715 -0.1287 -0.1110 -0.1728
 3307SOL    HW121557   4.336   1.366   2.629  1.6116 -0.4981  0.6629
 3307SOL    HW221558   4.346   1.305   2.759  1.1388  0.8791 -0.0179
 3308SOL     OW21559   3.669   4.208  16.788 -0.1436  0.6227  0.1775
 3308SOL    HW121560   3.604   4.150  16.828 -0.4151  1.6790  1.2561
 3308SOL    HW221561   3.744   4.157  16.818  0.3839  1.8443  0.9273
 3309SOL     OW21562   0.749   3.533   9.052  0.5178  0.2735  0.0556
 3309SOL    HW121563   0.837   3.526   9.091  0.2848 -2.4200  0.1145
 3309SOL    HW221564   0.713   3.451   9.086 -0.3980  1.1837  1.2901
 3310SOL     OW21565   0.707   1.328   7.106  0.0027  0.7852 -0.1103
 3310SOL    HW121566   0.681   1.376   7.027 -0.6491  0.8471  0.1497
 3310SOL    HW221567   0.782   1.382   7.133  0.6375  0.1925 -0.6935
 3311SOL     OW21568   0.828   0.287  10.090 -0.3095 -0.3508  0.2980
 3311SOL    HW121569   0.921   0.312  10.093 -0.8185  1.4447  0.6306
 3311SOL    HW221570   0.840   0.192  10.089 -1.6669 -0.5138  0.7113
 3312SOL     OW21571   2.872   2.609   6.421  0.1743 -0.7178  0.2432
 3312SOL    HW121572   2.793   2.648   6.458  0.6570 -0.9003  1.4525
 3312SOL    HW221573   2.827   2.543   6.367 -1.3410 -1.0780  1.9462
 3313SOL     OW21574   4.387   4.736   5.335 -0.3742  0.7707  0.3316
 3313SOL    HW121575   4.369   4.670   5.402 -1.7962  0.6905 -0.1348
 3313SOL    HW221576   4.406   4.678   5.261 -3.1378 -1.9111  1.7391
 3314SOL     OW21577   3.462   2.302   2.590 -0.6572  0.5934  0.1108
 3314SOL    HW121578   3.552   2.318   2.561 -0.4341  0.0853  0.5294
 3314SOL    HW221579   3.426   2.388   2.568 -2.1544  0.0572  0.4305
 3315SOL     OW21580   1.719   1.617   8.909 -0.2046  0.1867  0.5130
 3315SOL    HW121581   1.665   1.566   8.970  1.2154 -0.7828  0.9434
 3315SOL    HW221582   1.761   1.679   8.968  1.0826 -1.5774  1.4476
 3316SOL     OW21583   3.351   0.272  17.400  0.2456  0.4994 -0.4938
 3316SOL    HW121584   3.293   0.348  17.392 -0.5862  0.1446  2.1622
 3316SOL    HW221585   3.327   0.215  17.326  3.0293  0.0149 -1.0260
 3317SOL     OW21586   4.633   0.388   9.539  0.0522  0.0746 -0.2403
 3317SOL    HW121587   4.580   0.312   9.561  0.1225 -0.0620 -0.5462
 3317SOL    HW221588   4.583   0.458   9.582 -0.9268 -1.0309  0.4297
 3318SOL     OW21589   0.840   0.177  16.581 -0.0024 -0.7949  0.6316
 3318SOL    HW121590   0.835   0.121  16.658 -0.7262 -1.1364  0.3375
 3318SOL    HW221591   0.919   0.145  16.536  1.1007  0.9795  1.3068
 3319SOL     OW21592   1.041   4.089   3.889  0.3185 -0.1793 -0.5226
 3319SOL    HW121593   1.046   4.021   3.822  4.0370 -0.1646 -0.2841
 3319SOL    HW221594   0.977   4.149   3.851  0.3156 -0.3985 -0.8600
 3320SOL     OW21595   1.241   2.905   2.120  0.0844  0.0199  0.0853
 3320SOL    HW121596   1.213   2.946   2.038  2.3739 -0.3109 -0.8437
 3320SOL    HW221597   1.304   2.964   2.160  0.5194  1.9663 -3.4203
 3321SOL     OW21598   4.378   1.707   5.901 -0.0318 -0.0192  0.2310
 3321SOL    HW121599   4.372   1.798   5.932  2.6908 -0.0150  0.7062
 3321SOL    HW221600   4.288   1.676   5.915 -0.4510  0.5492 -1.2187
 3322SOL     OW21601   2.426   0.644   7.640 -0.0292  0.3860 -0.1741
 3322SOL    HW121602   2.331   0.637   7.645 -0.0751  0.0594 -1.7055
 3322SOL    HW221603   2.444   0.736   7.620 -0.2284  0.4799  0.0741
 3323SOL     OW21604   2.515   0.830   3.283 -0.3230 -0.3923 -0.0129
 3323SOL    HW121605   2.588   0.804   3.340  0.2345 -1.6646 -1.3106
 3323SOL    HW221606   2.531   0.924   3.283 -1.6107 -0.1841 -0.9071
 3324SOL     OW21607   0.814   2.251   8.857  0.4752 -0.3231 -0.2010
 3324SOL    HW121608   0.908   2.265   8.864  0.8584 -1.6743 -2.5075
 3324SOL    HW221609   0.823   2.163   8.820  0.5392 -0.1945 -0.4942
 3325SOL     OW21610   4.167   1.630   9.920  0.4561  0.0122 -0.0461
 3325SOL    HW121611   4.110   1.561   9.885  2.3468  0.1221 -3.3275
 3325SOL    HW221612   4.097   1.681   9.960  0.0764 -0.4083 -0.1766
 3326SOL     OW21613   0.883   4.271   4.349 -0.0283 -0.6775  0.4875
 3326SOL    HW121614   0.820   4.339   4.375 -0.2483 -0.5751 -0.3174
 3326SOL    HW221615   0.931   4.327   4.288 -2.4734 -0.3921 -1.1920
 3327SOL     OW21616   2.603   0.197   2.695  0.8291 -0.0138 -0.2777
 3327SOL    HW121617   2.610   0.103   2.714 -0.9242 -0.2328 -0.6718
 3327SOL    HW221618   2.615   0.205   2.600  0.5734 -0.1860 -0.3237
 3328SOL     OW21619   1.571   4.289  16.647  0.1266 -0.4704  0.2763
 3328SOL    HW121620   1.650   4.235  16.659 -1.3358 -1.9088  3.4078
 3328SOL    HW221621   1.520   4.264  16.724  0.6224  0.3563  0.8719
 3329SOL     OW21622   3.255   0.930   9.289 -0.5209 -0.3882 -0.3415
 3329SOL    HW121623   3.285   1.019   9.273  0.7257 -0.2240  2.8649
 3329SOL    HW221624   3.250   0.940   9.384  0.2659 -0.9889 -0.2344
 3330SOL     OW21625   4.082   3.351   2.349 -0.0029  0.3585 -0.6330
 3330SOL    HW121626   4.035   3.360   2.431 -0.2460  0.6107 -0.8005
 3330SOL    HW221627   4.009   3.321   2.296 -1.4606 -0.8824  2.1002
 3331SOL     OW21628   2.229   0.412   2.177  0.1881 -0.3253 -0.5320
 3331SOL    HW121629   2.272   0.487   2.219  1.6650 -1.1089 -0.6354
 3331SOL    HW221630   2.246   0.354   2.251 -1.3281  1.9937  1.6378
 3332SOL     OW21631   3.607   1.196   8.094 -0.2154  0.3574 -0.2127
 3332SOL    HW121632   3.684   1.166   8.142  0.1124  0.4569 -0.6794
 3332SOL    HW221633   3.622   1.149   8.012  0.1867 -0.0601  0.0960
 3333SOL     OW21634   0.834   2.358   3.614 -0.0286 -0.7870  0.0516
 3333SOL    HW121635   0.784   2.398   3.544 -2.2100 -2.0058  0.9043
 3333SOL    HW221636   0.906   2.419   3.597  0.1139 -1.1729 -0.7426
 3334SOL     OW21637   1.511   0.924   5.004 -0.2292  0.0480 -0.0587
 3334SOL    HW121638   1.584   0.868   4.978  1.7293  3.1124 -1.0963
 3334SOL    HW221639   1.499   0.904   5.096 -1.4399  0.1707 -0.1880
 3335SOL     OW21640   1.117   0.295   8.721  0.0387 -0.1165  0.1538
 3335SOL    HW121641   1.184   0.232   8.695 -1.0467 -1.1207 -0.2451
 3335SOL    HW221642   1.103   0.333   8.634  0.4884  1.5678  0.8319
 3336SOL     OW21643   4.730   1.929   8.381  0.5457  0.4057 -0.1171
 3336SOL    HW121644   0.053   1.887   8.319 -1.0574  0.1440 -1.4816
 3336SOL    HW221645   4.654   1.945   8.326  1.3786  1.2381 -1.0278
 3337SOL     OW21646   2.861   2.822   3.781 -0.0711 -0.0163 -0.0366
 3337SOL    HW121647   2.827   2.869   3.857 -2.0163 -0.7733 -0.4548
 3337SOL    HW221648   2.880   2.892   3.720 -0.2887  0.0996  0.0296
 3338SOL     OW21649   1.259   1.013   1.273 -0.2758 -0.3142 -0.3417
 3338SOL    HW121650   1.286   0.935   1.322 -1.5192  0.4088  1.4942
 3338SOL    HW221651   1.168   0.988   1.262 -0.1643 -0.8976  0.0565
 3339SOL     OW21652   2.990   2.579   1.795 -0.6449  0.3245 -0.3402
 3339SOL    HW121653   2.926   2.517   1.760 -0.3686  0.0398 -0.3478
 3339SOL    HW221654   2.976   2.561   1.888 -2.0425  0.7956 -0.4702
 3340SOL     OW21655   1.526   3.398   2.015 -0.4046 -0.1974  0.4681
 3340SOL    HW121656   1.455   3.339   1.992 -0.7259  0.2695  0.2858
 3340SOL    HW221657   1.573   3.356   2.087 -1.0223 -1.7358 -0.0355
 3341SOL     OW21658   1.663   3.520   9.026 -0.1529  0.1226 -0.4512
 3341SOL    HW121659   1.684   3.454   9.093 -1.1707  2.0293  1.7474
 3341SOL    HW221660   1.576   3.554   9.048  0.7921  2.7995 -0.8271
 3342SOL     OW21661   2.307   2.096   5.861  0.4284 -0.1826 -0.1106
 3342SOL    HW121662   2.330   2.100   5.954  1.1055 -0.1547 -0.2750
 3342SOL    HW221663   2.282   2.004   5.851 -0.7278  0.2117 -0.8052
 3343SOL     OW21664   4.079   2.916   0.083  0.2179  0.1367 -0.3081
 3343SOL    HW121665   4.126   2.833   0.090 -0.7934 -0.5462 -1.6272
 3343SOL    HW221666   4.012   2.894   0.018 -0.5123 -0.7782  0.7528
 3344SOL     OW21667   0.821   2.193   0.363 -0.3250  0.0230  0.0756
 3344SOL    HW121668   0.814   2.181   0.458 -0.5890 -0.2973  0.0167
 3344SOL    HW221669   0.912   2.164   0.356 -0.1413  0.1069  1.9849
 3345SOL     OW21670   4.431   2.267   4.818  0.1755  0.1022  0.2023
 3345SOL    HW121671   4.495   2.198   4.834  0.0280 -0.0975 -0.0685
 3345SOL    HW221672   4.365   2.208   4.783  1.2904 -1.0114 -0.0091
 3346SOL     OW21673   0.994   4.405   5.748  0.0486 -0.2697  0.4597
 3346SOL    HW121674   1.061   4.431   5.811  2.1067  0.1667 -1.8955
 3346SOL    HW221675   0.949   4.330   5.785 -1.8673 -0.6165 -2.5724
 3347SOL     OW21676   3.085   1.752   4.647  0.0267  0.0784  0.2903
 3347SOL    HW121677   3.067   1.784   4.559  1.0777 -0.6555 -0.1897
 3347SOL    HW221678   3.001   1.713   4.671  0.6052  0.4712  2.9612
 3348SOL     OW21679   3.426   0.792   0.373 -0.2158  0.7700 -0.1579
 3348SOL    HW121680   3.496   0.734   0.344 -1.1987 -0.6594  0.3405
 3348SOL    HW221681   3.478   0.855   0.424 -1.8922 -0.2163  2.7617
 3349SOL     OW21682   0.751   2.671   5.824 -0.0030  0.0651  0.2717
 3349SOL    HW121683   0.703   2.610   5.768  0.9034 -2.1996  1.9327
 3349SOL    HW221684   0.829   2.675   5.767 -0.6651  0.8509 -0.5932
 3350SOL     OW21685   1.810   2.069  14.581 -0.3251 -0.5219  0.5860
 3350SOL    HW121686   1.830   1.978  14.603  0.3047 -0.7877 -1.1138
 3350SOL    HW221687   1.900   2.102  14.592 -0.0853 -0.7488 -0.7183
 3351SOL     OW21688   1.648   2.286   2.816  0.4139 -0.0603  0.4958
 3351SOL    HW121689   1.675   2.211   2.870 -1.5830 -0.3808  1.0506
 3351SOL    HW221690   1.725   2.313   2.766  0.4543  0.7994  1.0055
 3352SOL     OW21691   0.090   3.894   7.218 -0.1468 -0.4468 -0.8978
 3352SOL    HW121692   0.167   3.917   7.166  0.5912 -0.1165  0.3666
 3352SOL    HW221693   0.085   3.800   7.205  1.1287 -0.8993  2.0429
 3353SOL     OW21694   2.527   4.553  16.909  0.4086  0.1133  0.3810
 3353SOL    HW121695   2.578   4.621  16.953 -1.2439  0.7543  1.3389
 3353SOL    HW221696   2.513   4.598  16.826  0.3015 -0.2127  0.2232
 3354SOL     OW21697   2.323   1.832   6.737  0.1269 -0.0051  0.2684
 3354SOL    HW121698   2.296   1.741   6.748 -1.8291  0.5205 -0.0475
 3354SOL    HW221699   2.237   1.864   6.708  0.2264 -1.4189 -1.5078
 3355SOL     OW21700   4.127   1.172   3.859  0.1932 -0.2458  0.1475
 3355SOL    HW121701   4.221   1.164   3.839  0.3746  2.3560 -0.0358
 3355SOL    HW221702   4.140   1.254   3.907  0.0047 -0.0826 -0.0818
 3356SOL     OW21703   0.862   3.161  17.121  0.7783  0.1811  0.3385
 3356SOL    HW121704   0.852   3.175  17.027 -1.5068 -2.9311  0.1125
 3356SOL    HW221705   0.774   3.125  17.133  0.8268 -0.2838 -0.6708
 3357SOL     OW21706   3.453   2.186  17.398 -0.0284  0.0442 -0.2326
 3357SOL    HW121707   3.381   2.130  17.370  0.8939 -1.2603 -0.0070
 3357SOL    HW221708   3.464   2.239  17.319  2.4607 -1.2643 -0.7564
 3358SOL     OW21709   3.782   2.779   4.686  0.6397  0.4458 -0.0197
 3358SOL    HW121710   3.829   2.707   4.728  1.6790 -0.4965 -2.8231
 3358SOL    HW221711   3.694   2.744   4.673  0.8523  0.8913 -2.5074
 3359SOL     OW21712   1.308   3.927   5.590 -0.4631  0.0470  0.2185
 3359SOL    HW121713   1.362   3.894   5.661 -0.1281  0.2338  0.0501
 3359SOL    HW221714   1.268   3.846   5.558 -2.5487  0.1769  2.5377
 3360SOL     OW21715   2.135   3.367   7.226 -0.1312  0.3048 -0.0988
 3360SOL    HW121716   2.136   3.325   7.312  0.0329 -1.0849 -0.7722
 3360SOL    HW221717   2.169   3.292   7.176 -0.0889  0.2169  0.0618
 3361SOL     OW21718   3.217   1.036   8.120 -1.3045  0.1687  0.5297
 3361SOL    HW121719   3.292   1.075   8.164 -0.1380 -0.4263 -0.9221
 3361SOL    HW221720   3.253   0.987   8.046 -0.8848  0.2750  0.6669
 3362SOL     OW21721   0.393   0.390   3.203  0.3552  0.3743  0.0374
 3362SOL    HW121722   0.485   0.381   3.179 -0.2888  2.6809 -3.1970
 3362SOL    HW221723   0.361   0.452   3.138 -0.8859  1.8218  2.0488
 3363SOL     OW21724   3.406   1.173   8.264 -0.1994  0.0096 -0.1977
 3363SOL    HW121725   3.489   1.174   8.217 -0.5952  1.6828 -0.8549
 3363SOL    HW221726   3.398   1.267   8.277 -1.0331 -0.1013  0.0925
 3364SOL     OW21727   1.542   2.643   7.753 -0.6633 -0.0633  0.2023
 3364SOL    HW121728   1.528   2.638   7.848  1.0881 -0.4278  0.4341
 3364SOL    HW221729   1.526   2.737   7.759 -2.1174 -0.2159 -1.4082
 3365SOL     OW21730   1.397   2.132   5.928 -0.3603  0.8587 -0.1714
 3365SOL    HW121731   1.383   2.185   5.850 -0.2120 -0.5594 -1.1593
 3365SOL    HW221732   1.369   2.190   5.999  0.0859 -0.5408  1.1589
 3366SOL     OW21733   1.788   3.363   4.674 -0.2146 -0.2593  0.3627
 3366SOL    HW121734   1.719   3.348   4.609 -0.9689 -0.4598  1.2075
 3366SOL    HW221735   1.733   3.379   4.751  0.6902  1.3057  0.6908
 3367SOL     OW21736   4.111   3.049   4.169 -0.1082 -0.0395 -0.3702
 3367SOL    HW121737   4.204   3.064   4.158  0.1090 -1.3867 -0.4405
 3367SOL    HW221738   4.077   3.123   4.219 -0.0650  0.1127 -0.5688
 3368SOL     OW21739   4.601   2.138   5.870 -0.1013 -0.0487 -0.2895
 3368SOL    HW121740   4.535   2.163   5.934  0.3117 -0.7411  0.4244
 3368SOL    HW221741   4.550   2.135   5.790  3.0546 -0.5324 -2.3096
 3369SOL     OW21742   1.695   2.427  11.256 -0.1376  0.0675 -0.2304
 3369SOL    HW121743   1.670   2.380  11.177  0.6652 -3.1294  1.4120
 3369SOL    HW221744   1.749   2.499  11.221  1.2765 -0.6766  0.4217
 3370SOL     OW21745   2.704   0.004   4.694 -0.4110 -0.2723  0.5223
 3370SOL    HW121746   2.692   4.733   4.789  1.7870 -3.9079  0.4701
 3370SOL    HW221747   2.684   4.653   4.663 -1.3719 -0.4379  1.5828
 3371SOL     OW21748   2.224   3.885  10.901  0.1144 -0.4155  0.1195
 3371SOL    HW121749   2.143   3.859  10.944 -0.2522 -2.5970 -1.8372
 3371SOL    HW221750   2.216   3.848  10.813  2.4714 -1.0452  0.1626
 3372SOL     OW21751   0.355   0.450   8.911 -0.2533  0.2135 -0.8886
 3372SOL    HW121752   0.269   0.450   8.953  0.9870 -0.9138  1.6695
 3372SOL    HW221753   0.386   0.360   8.922 -3.0362 -0.7167 -0.5778
 3373SOL     OW21754   1.109   1.325   8.406  0.4252 -0.0966  0.0362
 3373SOL    HW121755   1.188   1.272   8.406 -0.7637 -1.8658  0.7966
 3373SOL    HW221756   1.124   1.366   8.321  1.4463 -0.0104  0.2578
 3374SOL     OW21757   4.366   0.344   8.664  0.7349  0.1810 -0.3732
 3374SOL    HW121758   4.368   0.426   8.715  3.1301 -0.4512  0.5503
 3374SOL    HW221759   4.395   0.279   8.728 -1.2397 -1.1784 -0.8737
 3375SOL     OW21760   4.664   1.823   7.537  0.2962  0.1933  0.3275
 3375SOL    HW121761   4.577   1.787   7.555 -0.7005  1.2296 -2.4886
 3375SOL    HW221762   4.665   1.830   7.442  2.0088 -0.1672  0.3255
 3376SOL     OW21763   3.788   1.639   4.489 -0.3230  0.0223  0.0609
 3376SOL    HW121764   3.874   1.628   4.530  0.3521 -1.8826 -1.8880
 3376SOL    HW221765   3.721   1.619   4.555 -0.5947  1.9536  0.3890
 3377SOL     OW21766   4.721   3.133   4.523  0.0508 -0.4329  0.2516
 3377SOL    HW121767   4.720   3.099   4.612  1.1033  1.1879  0.8895
 3377SOL    HW221768   4.684   3.059   4.476 -0.0779  0.3606 -0.9114
 3378SOL     OW21769   0.848   3.461   6.047  0.4357  0.5849 -0.3559
 3378SOL    HW121770   0.769   3.411   6.029 -0.9181  3.0623 -1.2064
 3378SOL    HW221771   0.877   3.483   5.958  2.3115  0.6250  0.2708
 3379SOL     OW21772   3.931   0.581   7.884  0.5813  0.4394 -0.1694
 3379SOL    HW121773   3.956   0.490   7.898 -0.9780 -0.1069 -0.9633
 3379SOL    HW221774   3.860   0.567   7.822  0.7533  0.1350 -0.2968
 3380SOL     OW21775   0.216   1.890   4.579 -0.0825  0.0424  0.6952
 3380SOL    HW121776   0.155   1.816   4.568 -0.5531  0.0985  2.9967
 3380SOL    HW221777   0.241   1.910   4.489  2.9844 -3.0854  0.8670
 3381SOL     OW21778   0.358   1.923   6.796  0.6170 -0.0587  0.0176
 3381SOL    HW121779   0.448   1.935   6.826  0.1838 -0.9951  1.6754
 3381SOL    HW221780   0.345   1.845   6.850  1.2786  1.0350  1.7380
 3382SOL     OW21781   1.148   1.904   4.894  0.4331 -0.2855 -0.1118
 3382SOL    HW121782   1.128   1.864   4.809 -1.3726 -0.7625  0.5385
 3382SOL    HW221783   1.096   1.853   4.956  1.6450 -1.8417 -0.3628
 3383SOL     OW21784   1.941   0.785   1.355  0.0844  0.3747 -0.4528
 3383SOL    HW121785   2.018   0.801   1.301  0.6935 -0.3077  0.1982
 3383SOL    HW221786   1.963   0.694   1.376  0.0535  0.4012 -0.3023
 3384SOL     OW21787   1.652   2.813  10.893 -0.1608  0.3461  0.1757
 3384SOL    HW121788   1.641   2.879  10.961  1.1782 -0.0303  0.7568
 3384SOL    HW221789   1.745   2.792  10.893 -0.1812  0.2552 -1.4181
 3385SOL     OW21790   3.833   1.915  11.879 -0.1008 -0.0659 -0.4102
 3385SOL    HW121791   3.915   1.871  11.858 -0.6859 -1.3809  0.0558
 3385SOL    HW221792   3.786   1.845  11.925 -0.9182 -0.0837 -1.2645
 3386SOL     OW21793   4.611   4.133   1.831  0.5087  0.1552  0.2074
 3386SOL    HW121794   4.576   4.220   1.851 -0.0571  0.4784 -2.2413
 3386SOL    HW221795   4.531   4.082   1.847 -0.1123  0.3941 -2.1887
 3387SOL     OW21796   2.999   4.269   1.726  0.0678  0.6214 -0.0334
 3387SOL    HW121797   2.962   4.337   1.782 -0.6346 -0.2109  0.5110
 3387SOL    HW221798   3.004   4.323   1.648  0.7908 -1.1092 -1.1861
 3388SOL     OW21799   2.432   3.902   5.045  0.3244  0.0264  0.8817
 3388SOL    HW121800   2.522   3.875   5.061  0.3958 -1.2364 -1.5974
 3388SOL    HW221801   2.396   3.825   5.001  0.8642 -0.1350  0.7299
 3389SOL     OW21802   4.591   3.348   4.690 -0.1426 -0.7821 -0.4192
 3389SOL    HW121803   4.609   3.403   4.614 -0.0781 -1.3752 -0.8284
 3389SOL    HW221804   4.498   3.329   4.698 -0.4388  0.6194 -0.5074
 3390SOL     OW21805   1.371   2.126   4.619 -0.0495 -0.8184 -0.3373
 3390SOL    HW121806   1.363   2.220   4.603 -1.0377 -0.2938  3.1555
 3390SOL    HW221807   1.319   2.094   4.546 -0.1267 -0.3035 -0.5069
 3391SOL     OW21808   1.077   4.010  12.211  0.7615  0.0911 -0.0113
 3391SOL    HW121809   1.002   4.063  12.185  0.6344 -0.5881 -1.0456
 3391SOL    HW221810   1.064   3.924  12.171 -1.2211  0.7271 -0.7032
 3392SOL     OW21811   2.913   3.728   5.446  0.4902  0.1889  0.2797
 3392SOL    HW121812   2.866   3.701   5.524 -0.3044  1.7777  0.3297
 3392SOL    HW221813   2.879   3.813   5.420  0.0797 -0.2189 -0.5521
 3393SOL     OW21814   4.081   3.593  10.258  0.2135 -0.3010  0.4299
 3393SOL    HW121815   4.149   3.535  10.293 -1.1081 -2.0783  0.0722
 3393SOL    HW221816   4.050   3.638  10.337  0.2307  0.4597  0.0036
 3394SOL     OW21817   2.554   2.405  10.568 -0.4808  0.7501 -0.2016
 3394SOL    HW121818   2.629   2.439  10.519  0.2018  1.0051  1.0398
 3394SOL    HW221819   2.494   2.466  10.524 -1.4267  0.1801  0.2781
 3395SOL     OW21820   4.684   3.189   6.435  0.0746 -0.3158  0.1622
 3395SOL    HW121821   4.631   3.114   6.405 -0.6185  0.0323  0.5287
 3395SOL    HW221822   0.036   3.164   6.408  0.1087  0.6999 -0.6507
 3396SOL     OW21823   2.814   0.905   4.153 -0.4308 -0.4131 -0.2678
 3396SOL    HW121824   2.909   0.899   4.146 -0.4700 -0.9955 -0.2670
 3396SOL    HW221825   2.799   0.984   4.206 -1.4207 -0.6378 -0.2247
 3397SOL     OW21826   2.184   2.753   8.304 -0.3409 -0.1914 -0.9357
 3397SOL    HW121827   2.108   2.809   8.322  1.2948  1.7934 -0.1355
 3397SOL    HW221828   2.151   2.663   8.307 -0.0342 -0.2819 -0.1800
 3398SOL     OW21829   1.508   1.234   2.180 -0.0482 -0.2824 -0.2221
 3398SOL    HW121830   1.461   1.291   2.240  0.2534  2.1541 -2.3160
 3398SOL    HW221831   1.584   1.288   2.160  0.4292 -0.6386  0.5891
 3399SOL     OW21832   2.300   3.500   7.513  0.0397  0.5990 -0.3788
 3399SOL    HW121833   2.208   3.477   7.527  0.5862 -0.1121  2.1871
 3399SOL    HW221834   2.317   3.558   7.587  1.0774 -0.4072  0.1693
 3400SOL     OW21835   0.203   3.214   2.184 -0.0968  0.0351 -0.3777
 3400SOL    HW121836   0.116   3.202   2.145 -0.9815  1.6245  1.1035
 3400SOL    HW221837   0.205   3.310   2.194 -1.3937  0.3232 -2.9408
 3401SOL     OW21838   4.083   4.330   4.461 -0.0294  0.2724  0.1323
 3401SOL    HW121839   4.056   4.385   4.388 -0.8338 -0.4364 -0.1143
 3401SOL    HW221840   4.169   4.301   4.431 -0.5638 -1.3990  0.2088
 3402SOL     OW21841   3.492   2.151  10.387 -0.5443 -0.3450 -0.2539
 3402SOL    HW121842   3.552   2.197  10.329  1.8910 -0.4134  2.1931
 3402SOL    HW221843   3.459   2.085  10.326  2.3011  0.0078 -2.1731
 3403SOL     OW21844   3.034   3.784  13.058 -0.1104 -0.3392 -0.1841
 3403SOL    HW121845   2.975   3.827  12.996  1.9638  0.4665 -1.6170
 3403SOL    HW221846   3.054   3.852  13.121  0.6704 -2.0362  1.3826
 3404SOL     OW21847   3.545   3.171  17.426 -0.3649 -0.3310  0.2664
 3404SOL    HW121848   3.508   3.164  17.338  0.5870  2.3413 -0.3549
 3404SOL    HW221849   3.628   3.219  17.426  0.2467 -1.3990 -1.6301
 3405SOL     OW21850   1.441   3.888   0.501 -0.2068 -0.2828 -1.0494
 3405SOL    HW121851   1.486   3.884   0.417  0.6815 -0.1934 -0.5716
 3405SOL    HW221852   1.475   3.816   0.553  2.6861  2.0075  0.2327
 3406SOL     OW21853   0.477   0.202  13.414 -0.0168  0.0383  0.0114
 3406SOL    HW121854   0.412   0.231  13.350  1.3878 -1.4258 -2.0713
 3406SOL    HW221855   0.472   0.271  13.480 -0.1643  0.4829 -0.4684
 3407SOL     OW21856   1.216   0.269  16.061 -0.4038  0.6787 -0.0046
 3407SOL    HW121857   1.225   0.332  15.990  0.7141 -0.6925 -1.0629
 3407SOL    HW221858   1.266   0.198  16.021  1.5092  1.0907  1.6367
 3408SOL     OW21859   1.448   1.417   7.901 -0.0431  0.6049  0.5851
 3408SOL    HW121860   1.481   1.363   7.829 -2.5389  0.2073 -0.2842
 3408SOL    HW221861   1.449   1.508   7.871  2.1693  0.0147 -1.1103
 3409SOL     OW21862   1.740   0.378   5.164 -0.1897  0.6455 -0.6055
 3409SOL    HW121863   1.808   0.433   5.125  0.1855 -0.6510 -1.8040
 3409SOL    HW221864   1.661   0.412   5.121 -1.3561 -2.2468 -0.7824
 3410SOL     OW21865   3.072   0.613  12.279 -0.1315  0.0060 -0.0168
 3410SOL    HW121866   3.101   0.552  12.347 -1.7635 -1.4522 -0.6480
 3410SOL    HW221867   2.995   0.569  12.244 -1.3806  1.3231  1.0766
 3411SOL     OW21868   1.995   1.868   1.922 -0.4145 -0.2417  0.2207
 3411SOL    HW121869   2.076   1.848   1.876 -0.8482  1.1009 -1.0965
 3411SOL    HW221870   2.010   1.827   2.008  2.7947 -0.2328 -0.3544
 3412SOL     OW21871   2.741   4.617   5.015 -0.0489 -0.7756 -0.0347
 3412SOL    HW121872   2.767   4.544   4.960  0.1724  1.3358 -2.7352
 3412SOL    HW221873   2.823   4.645   5.057 -0.1538 -0.3950 -0.0790
 3413SOL     OW21874   4.197   0.231   4.719  0.0162 -0.2011  0.2108
 3413SOL    HW121875   4.218   0.149   4.674 -0.1799 -0.2758  0.2527
 3413SOL    HW221876   4.131   0.275   4.664  1.2970  0.2220 -0.9761
 3414SOL     OW21877   1.579   0.055   6.618 -0.7758 -0.8119  0.2674
 3414SOL    HW121878   1.646   4.725   6.632  1.1404  0.8473 -1.0695
 3414SOL    HW221879   1.514   0.005   6.570 -0.1565 -1.2614 -0.1054
 3415SOL     OW21880   0.607   0.824   2.551  0.4333 -0.3272  0.1854
 3415SOL    HW121881   0.565   0.756   2.500 -0.9889 -1.1295  2.4029
 3415SOL    HW221882   0.680   0.851   2.497  1.1597 -3.1534 -0.2050
 3416SOL     OW21883   4.701   3.508   4.133 -0.1202 -0.3293 -0.2293
 3416SOL    HW121884   4.736   3.593   4.161 -1.2837 -0.5949  1.9987
 3416SOL    HW221885   4.611   3.540   4.125 -0.2251 -0.5479  0.0945
 3417SOL     OW21886   1.090   4.544   5.130  0.4724 -0.5176 -0.2573
 3417SOL    HW121887   1.184   4.561   5.142  0.1198  1.3195  0.0114
 3417SOL    HW221888   1.097   4.453   5.158  1.7538 -0.9240 -1.9263
 3418SOL     OW21889   4.063   2.029  14.988  0.3291 -0.0844 -0.3840
 3418SOL    HW121890   4.157   2.018  14.996  0.4719  0.1820 -1.7564
 3418SOL    HW221891   4.047   2.098  14.924 -0.1360 -0.7113 -0.9562
 3419SOL     OW21892   2.046   3.049  10.784  0.1650  0.2088  0.1214
 3419SOL    HW121893   2.098   3.118  10.825  0.2321  0.5835 -0.5895
 3419SOL    HW221894   1.973   3.107  10.760  1.6998  1.7918 -0.7340
 3420SOL     OW21895   1.419   1.833   4.950  0.2542 -0.4265 -0.0638
 3420SOL    HW121896   1.459   1.916   4.975  1.2798 -0.5859 -1.2006
 3420SOL    HW221897   1.328   1.860   4.935 -0.0912 -0.2023  2.3874
 3421SOL     OW21898   2.760   4.445   3.023 -0.0473 -0.2746 -0.0581
 3421SOL    HW121899   2.694   4.449   3.093  0.8256  1.4952  0.6601
 3421SOL    HW221900   2.837   4.401   3.059  1.6474  0.0415 -3.3813
 3422SOL     OW21901   4.100   2.422   6.374 -0.4603  0.0570  0.4280
 3422SOL    HW121902   4.096   2.382   6.287 -0.7370  0.9374  0.0392
 3422SOL    HW221903   4.194   2.422   6.391 -0.0949 -1.6527 -1.5027
 3423SOL     OW21904   3.273   3.988  11.776  0.1942  0.4510  0.0428
 3423SOL    HW121905   3.217   3.987  11.698 -2.3824  0.1377  1.9216
 3423SOL    HW221906   3.278   3.899  11.810 -3.3027 -0.1179 -0.9487
 3424SOL     OW21907   1.130   0.434  12.810  0.2081 -0.2402 -0.5058
 3424SOL    HW121908   1.122   0.529  12.806  1.2851 -0.1448 -0.2284
 3424SOL    HW221909   1.153   0.412  12.901  0.7794 -3.0778 -1.3313
 3425SOL     OW21910   1.954   0.304   3.949 -0.2609  0.3051  0.1937
 3425SOL    HW121911   1.906   0.386   3.935 -1.1899 -0.1354  0.7786
 3425SOL    HW221912   1.905   0.235   3.905  1.0701 -0.7147  0.2826
 3426SOL     OW21913   1.004   2.143   2.090  0.1060  0.0020 -0.0966
 3426SOL    HW121914   1.059   2.222   2.096  2.1199 -1.2326 -2.2992
 3426SOL    HW221915   0.962   2.140   2.004  1.4478 -3.0585 -0.6394
 3427SOL     OW21916   1.948   0.627   2.832  0.4016  0.4086  0.1579
 3427SOL    HW121917   1.993   0.547   2.859 -0.9685 -0.2189  0.5755
 3427SOL    HW221918   1.863   0.586   2.818  1.5464 -1.5476 -1.0262
 3428SOL     OW21919   4.702   2.453   3.017  0.1559 -0.4836 -0.0556
 3428SOL    HW121920   4.718   2.517   2.947 -0.2983 -0.0682  0.2209
 3428SOL    HW221921   4.613   2.477   3.041 -0.7541 -2.4201 -1.4476
 3429SOL     OW21922   2.484   3.815  13.225 -0.2954 -0.5687  0.2799
 3429SOL    HW121923   2.498   3.901  13.185 -2.5458 -0.7518 -0.8672
 3429SOL    HW221924   2.435   3.768  13.157  2.8875 -2.9227 -0.4116
 3430SOL     OW21925   1.814   1.263   9.269  0.2950  0.6250  0.0016
 3430SOL    HW121926   1.728   1.245   9.231  1.0021 -3.2215  0.2075
 3430SOL    HW221927   1.799   1.215   9.350  0.5829 -1.0438 -0.9278
 3431SOL     OW21928   4.512   0.454  14.299 -0.1461 -0.3889  0.3144
 3431SOL    HW121929   4.419   0.474  14.310  0.3731  2.2846 -0.1210
 3431SOL    HW221930   4.518   0.361  14.323  1.0813 -0.2330  0.6176
 3432SOL     OW21931   1.578   1.943   4.563  0.0575  0.1595  0.1294
 3432SOL    HW121932   1.514   2.014   4.572 -0.3707 -0.3059  0.7363
 3432SOL    HW221933   1.557   1.911   4.476 -0.5516 -2.5578  1.2787
 3433SOL     OW21934   3.495   3.815  12.631 -0.5718  0.0318 -0.8251
 3433SOL    HW121935   3.419   3.847  12.583 -1.9502 -1.2502  0.4935
 3433SOL    HW221936   3.559   3.818  12.560  0.0082  0.5180 -0.2768
 3434SOL     OW21937   1.908   3.742   3.004  0.1318  0.0088 -0.5902
 3434SOL    HW121938   1.833   3.705   3.050  0.9983 -0.5830  0.3403
 3434SOL    HW221939   1.975   3.678   3.030  2.4371  1.8898 -1.8856
 3435SOL     OW21940   0.307   2.824   6.273 -0.0430 -0.0908  0.5223
 3435SOL    HW121941   0.327   2.756   6.210  1.4237  0.2434  0.6276
 3435SOL    HW221942   0.392   2.829   6.316  2.1967  0.6189 -4.0804
 3436SOL     OW21943   3.598   1.283  13.083 -0.1139  0.1566 -0.5843
 3436SOL    HW121944   3.610   1.206  13.028  1.0280  0.1311 -0.2878
 3436SOL    HW221945   3.600   1.352  13.017  1.6089 -1.2384 -1.9784
 3437SOL     OW21946   0.340   2.934   2.540  0.7031 -0.2013  0.2925
 3437SOL    HW121947   0.324   2.903   2.629 -3.0953 -0.3511 -0.4204
 3437SOL    HW221948   0.358   2.853   2.491  1.0192  0.0037  0.0724
 3438SOL     OW21949   1.052   1.643   6.802 -0.1374 -0.4756 -0.3683
 3438SOL    HW121950   1.059   1.674   6.712  0.9240 -1.3436 -0.6010
 3438SOL    HW221951   1.050   1.547   6.797  3.2777 -0.5878 -0.0578
 3439SOL     OW21952   4.262   3.222   6.595  0.1888 -0.2154 -0.0874
 3439SOL    HW121953   4.194   3.154   6.593  1.3722 -1.3888 -1.0029
 3439SOL    HW221954   4.297   3.209   6.683  3.6011 -0.1190 -1.4625
 3440SOL     OW21955   3.160   3.261   2.646 -0.0069  0.1051  0.6328
 3440SOL    HW121956   3.233   3.322   2.658  1.4020 -1.7515  1.5582
 3440SOL    HW221957   3.080   3.310   2.667 -0.1377  0.1926 -0.0505
 3441SOL     OW21958   4.248   0.205   5.755 -0.4392  0.0835 -0.5579
 3441SOL    HW121959   4.178   0.229   5.816 -0.8539 -1.1667 -0.5403
 3441SOL    HW221960   4.311   0.212   5.826 -2.4034 -1.7315  1.4034
 3442SOL     OW21961   0.796   1.365  12.235  0.8168 -0.0409  0.0165
 3442SOL    HW121962   0.828   1.434  12.293 -0.7345  1.0417 -0.4258
 3442SOL    HW221963   0.809   1.298  12.302 -0.4089  0.8520  1.1452
 3443SOL     OW21964   3.888   2.856   1.408  0.2991 -0.6789 -0.2647
 3443SOL    HW121965   3.979   2.839   1.430  0.2067  0.2693  0.8511
 3443SOL    HW221966   3.875   2.788   1.341 -0.2922  0.7594 -1.6235
 3444SOL     OW21967   1.242   0.429   7.105 -0.2024 -0.0127  0.3713
 3444SOL    HW121968   1.280   0.344   7.127 -2.2646 -1.0738 -0.1107
 3444SOL    HW221969   1.221   0.401   7.016 -1.6046  1.8515  0.1184
 3445SOL     OW21970   1.492   0.541   7.378  0.1260  0.8905  0.3238
 3445SOL    HW121971   1.491   0.499   7.464 -0.0578 -1.1483 -0.6790
 3445SOL    HW221972   1.517   0.466   7.324  0.7571  0.9241  0.5661
 3446SOL     OW21973   3.277   4.593   0.802 -0.4222  0.1900  0.0610
 3446SOL    HW121974   3.209   4.530   0.827 -1.3481  0.7863 -0.9819
 3446SOL    HW221975   3.296   4.570   0.712  1.9946  1.2544  0.3195
 3447SOL     OW21976   1.462   3.251   1.582 -0.2762 -0.1346 -0.5637
 3447SOL    HW121977   1.471   3.251   1.487  0.6938  0.1607 -0.4738
 3447SOL    HW221978   1.538   3.303   1.609  0.0332 -0.8016 -0.1566
 3448SOL     OW21979   2.556   1.257   6.225 -0.3633 -0.2733 -0.3861
 3448SOL    HW121980   2.517   1.314   6.158 -0.0307 -2.5949 -2.5742
 3448SOL    HW221981   2.552   1.312   6.303  0.2308  1.2590 -1.4464
 3449SOL     OW21982   0.669   4.246  11.315 -0.1626  0.4942 -0.6827
 3449SOL    HW121983   0.596   4.264  11.374  0.9918  0.5289  0.7286
 3449SOL    HW221984   0.652   4.313  11.248 -1.7226  0.8624  0.0745
 3450SOL     OW21985   2.761   0.652  13.273  0.5160  0.4528 -0.0319
 3450SOL    HW121986   2.734   0.740  13.246  0.8572 -0.4822 -3.4251
 3450SOL    HW221987   2.725   0.604  13.198  0.9861  1.4656 -0.9161
 3451SOL     OW21988   0.878   4.290   7.273  0.2310  0.4198 -0.1015
 3451SOL    HW121989   0.932   4.314   7.349 -2.1930 -0.7467  2.0022
 3451SOL    HW221990   0.842   4.374   7.244  0.0261  1.1759  2.3508
 3452SOL     OW21991   2.613   3.832   3.870 -0.1542  0.2502  0.0108
 3452SOL    HW121992   2.562   3.913   3.863  1.2623  1.1898  0.6680
 3452SOL    HW221993   2.681   3.846   3.804 -0.2459  0.6710  0.0066
 3453SOL     OW21994   0.619   0.305   2.203 -0.1722  0.2410  0.8192
 3453SOL    HW121995   0.532   0.277   2.233  0.2563 -0.9991  0.9219
 3453SOL    HW221996   0.607   0.284   2.110 -0.7165 -1.7014  1.3118
 3454SOL     OW21997   4.191   2.712  14.418 -0.0612  0.3672  0.1085
 3454SOL    HW121998   4.199   2.807  14.424  0.1126  0.3358  0.3638
 3454SOL    HW221999   4.120   2.706  14.354  0.1510  1.7486 -0.2346
 3455SOL     OW22000   4.303   2.010  10.495 -0.2368  0.2330  0.2361
 3455SOL    HW122001   4.317   2.097  10.457 -0.5962  0.0014 -0.4324
 3455SOL    HW222002   4.212   1.991  10.469  0.0345 -1.4549  0.5524
 3456SOL     OW22003   1.391   4.277   2.907  0.3879 -0.0788 -0.1335
 3456SOL    HW122004   1.445   4.355   2.919  0.6265  0.1002 -2.3836
 3456SOL    HW222005   1.302   4.310   2.921  1.2302  1.5265  1.3617
 3457SOL     OW22006   0.206   2.811   4.838 -0.3780 -0.3432  0.3981
 3457SOL    HW122007   0.204   2.718   4.862 -1.6545 -0.3735  0.1365
 3457SOL    HW222008   0.178   2.801   4.747 -0.6472  0.1101  0.4348
 3458SOL     OW22009   2.310   0.963   7.905  0.2238 -0.5424 -0.4092
 3458SOL    HW122010   2.298   1.028   7.975 -0.3003  0.4965 -1.4639
 3458SOL    HW222011   2.315   0.878   7.948  1.4634  0.6098  1.7695
 3459SOL     OW22012   3.834   0.400   5.994  0.0270 -0.5938  0.3211
 3459SOL    HW122013   3.921   0.362   6.003  0.7583  1.1350  0.5609
 3459SOL    HW222014   3.808   0.356   5.913 -2.4649  2.7840 -0.7429
 3460SOL     OW22015   3.747   1.915   4.513 -0.0366  0.0862  0.2351
 3460SOL    HW122016   3.757   1.819   4.513  0.0189  0.0949  1.1729
 3460SOL    HW222017   3.813   1.935   4.580 -0.7634 -0.7549  1.2000
 3461SOL     OW22018   3.612   0.367   7.376  0.1172  0.1277 -0.0397
 3461SOL    HW122019   3.606   0.281   7.418 -0.5900  0.1931 -0.0166
 3461SOL    HW222020   3.689   0.368   7.318 -1.6321  1.4595 -2.3342
 3462SOL     OW22021   2.923   0.421  16.985  0.0089  0.4117 -0.4317
 3462SOL    HW122022   3.014   0.398  17.002  0.0886 -0.4211 -2.0356
 3462SOL    HW222023   2.936   0.514  16.970 -2.0001  0.7184 -0.2966
 3463SOL     OW22024   1.423   3.646   5.385  0.3224  0.1712 -0.2349
 3463SOL    HW122025   1.364   3.691   5.446  1.3337  1.2152 -0.0304
 3463SOL    HW222026   1.403   3.553   5.398  0.0929  0.6176  2.6563
 3464SOL     OW22027   1.747   4.210  14.829  0.2399  0.6876 -0.0285
 3464SOL    HW122028   1.692   4.132  14.825  1.0358  0.1833 -1.0852
 3464SOL    HW222029   1.750   4.238  14.921  1.0928  2.0378 -0.4743
 3465SOL     OW22030   2.674   2.612   2.562  0.1140  1.4173  0.1527
 3465SOL    HW122031   2.760   2.647   2.586  1.4507 -1.5216 -0.3491
 3465SOL    HW222032   2.622   2.685   2.596 -2.7122 -0.4819 -0.0278
 3466SOL     OW22033   3.744   4.184  17.106  0.7450 -0.0461  0.2585
 3466SOL    HW122034   3.781   4.153  17.189  1.4559  0.3775  0.1051
 3466SOL    HW222035   3.673   4.121  17.096  2.3576 -2.1228  1.7908
 3467SOL     OW22036   3.339   1.107   6.400  0.2375 -0.2252  0.7970
 3467SOL    HW122037   3.424   1.074   6.431  0.4717 -0.2347  0.1424
 3467SOL    HW222038   3.287   1.036   6.438  1.3108 -1.2093  0.4409
 3468SOL     OW22039   4.338   1.667  10.439  0.2162 -0.8676  0.0339
 3468SOL    HW122040   4.369   1.736  10.498  1.6690 -3.2284  2.0828
 3468SOL    HW222041   4.258   1.696  10.395  1.8362  0.4763 -2.0209
 3469SOL     OW22042   3.550   0.761   9.086 -0.0840  0.4121  0.1862
 3469SOL    HW122043   3.585   0.735   9.171 -1.3103 -0.4093  0.4283
 3469SOL    HW222044   3.464   0.786   9.119  0.0512 -0.9978  1.5912
 3470SOL     OW22045   0.809   3.072   8.447 -0.7175 -0.0803 -0.1040
 3470SOL    HW122046   0.836   3.160   8.472 -1.4652 -0.1485  0.9380
 3470SOL    HW222047   0.731   3.089   8.393 -2.5613 -2.0632  1.9222
 3471SOL     OW22048   2.387   1.943   2.219  0.2256  0.3938  0.0606
 3471SOL    HW122049   2.401   1.850   2.203 -2.6939 -0.2927  1.3799
 3471SOL    HW222050   2.423   1.956   2.307  0.7631  0.3879 -0.1612
 3472SOL     OW22051   2.287   0.595  16.789  0.5460  0.1070 -0.9946
 3472SOL    HW122052   2.311   0.522  16.847  0.3675  0.0401 -1.0033
 3472SOL    HW222053   2.203   0.559  16.760  0.0533  0.2186  0.2852
 3473SOL     OW22054   3.855   4.065  17.334 -0.2519  0.2603 -0.0783
 3473SOL    HW122055   3.862   3.996  17.268  2.0475 -1.1676  1.6749
 3473SOL    HW222056   3.830   4.022  17.415  2.4752  1.6872  1.5312
 3474SOL     OW22057   0.483   4.499   6.606  0.0491 -0.3133 -0.8568
 3474SOL    HW122058   0.395   4.486   6.640 -0.9031  0.3097 -3.1430
 3474SOL    HW222059   0.527   4.415   6.624  1.1969  0.3689 -0.4979
 3475SOL     OW22060   2.421   1.480   8.309  0.1126 -0.3055  0.4305
 3475SOL    HW122061   2.459   1.524   8.386 -0.7494 -1.6083  1.5912
 3475SOL    HW222062   2.344   1.533   8.288  0.0149  0.4465  2.6466
 3476SOL     OW22063   2.727   0.278  16.535  0.4730  0.0265 -0.0596
 3476SOL    HW122064   2.814   0.312  16.553  0.9064 -1.0612 -0.1276
 3476SOL    HW222065   2.717   0.239  16.622 -1.1891 -0.3199 -0.4071
 3477SOL     OW22066   2.061   2.994   5.982  0.3514  0.2499 -0.0870
 3477SOL    HW122067   2.123   2.921   5.975  2.1447  1.9486 -2.2975
 3477SOL    HW222068   2.008   2.992   5.902  0.1670  2.6666 -0.0201
 3478SOL     OW22069   0.469   1.486   2.798 -0.1359  0.1477 -0.1700
 3478SOL    HW122070   0.520   1.412   2.765 -0.7471 -0.4000  0.1252
 3478SOL    HW222071   0.469   1.552   2.729 -2.5859 -0.0683 -0.3732
 3479SOL     OW22072   0.721   0.156  12.460 -0.0835  0.0055 -0.5314
 3479SOL    HW122073   0.629   0.174  12.479  0.1967 -0.4804  1.2647
 3479SOL    HW222074   0.760   0.243  12.450  0.6090 -0.4356 -1.6897
 3480SOL     OW22075   1.595   2.969   4.366 -0.0617  0.2225 -0.3339
 3480SOL    HW122076   1.678   3.017   4.360  1.0043 -1.4578  0.8762
 3480SOL    HW222077   1.571   3.001   4.453 -3.9073 -1.0038 -0.9872
 3481SOL     OW22078   4.028   2.311  15.268  0.0684  0.5959  0.8289
 3481SOL    HW122079   4.119   2.335  15.285  0.4869 -0.9029  0.7475
 3481SOL    HW222080   3.979   2.320  15.350  0.6549  0.8372  1.1483
 3482SOL     OW22081   3.182   0.486   5.702  0.7082  0.5188  0.3692
 3482SOL    HW122082   3.186   0.485   5.606 -0.5025 -0.6549  0.3287
 3482SOL    HW222083   3.263   0.533   5.723  0.2298  1.7824 -0.5867
 3483SOL     OW22084   4.184   3.862   5.352  0.7608 -0.8547 -0.0298
 3483SOL    HW122085   4.146   3.940   5.312 -0.0361 -1.2642 -0.0723
 3483SOL    HW222086   4.144   3.794   5.299  5.0740 -2.7928 -0.7893
 3484SOL     OW22087   3.230   3.086  11.438  0.4091  0.1527 -0.0337
 3484SOL    HW122088   3.223   3.065  11.531 -0.4887  0.2750 -0.0737
 3484SOL    HW222089   3.218   2.998  11.402  1.1754  0.5373 -1.2637
 3485SOL     OW22090   4.400   1.546   3.877  0.0462 -0.0185  0.6928
 3485SOL    HW122091   4.369   1.615   3.936 -2.0958  0.1095 -0.5492
 3485SOL    HW222092   4.367   1.592   3.799 -0.9214 -1.3405  0.3114
 3486SOL     OW22093   2.244   3.245  17.149  0.3964 -0.0794 -0.2614
 3486SOL    HW122094   2.339   3.252  17.149  0.1599  2.9739  0.7271
 3486SOL    HW222095   2.217   3.199  17.070 -2.2019 -0.1824  0.6640
 3487SOL     OW22096   0.817   4.464   1.252 -0.4242  0.8106 -0.0815
 3487SOL    HW122097   0.840   4.400   1.184  0.5926  0.6747  0.3929
 3487SOL    HW222098   0.878   4.441   1.323  0.8633  1.8604 -0.8587
 3488SOL     OW22099   3.383   1.679   6.820  0.3276  0.2032 -0.1839
 3488SOL    HW122100   3.417   1.769   6.822  0.6846  0.0628 -0.0276
 3488SOL    HW222101   3.319   1.679   6.891  0.4801  2.0856 -0.0538
 3489SOL     OW22102   0.448   3.956   9.800 -0.2638  0.0505  0.2161
 3489SOL    HW122103   0.388   3.948   9.725  0.8731 -2.1563 -0.4540
 3489SOL    HW222104   0.386   3.990   9.864 -0.4003  0.7836 -0.3098
 3490SOL     OW22105   2.492   3.117   8.781 -0.8228 -0.1653  0.5533
 3490SOL    HW122106   2.537   3.185   8.731 -0.7966  2.0944  3.6520
 3490SOL    HW222107   2.499   3.151   8.871 -0.5461  2.2214 -0.3636
 3491SOL     OW22108   2.723   0.481   9.887  0.0141 -0.6521  0.0068
 3491SOL    HW122109   2.734   0.431   9.968 -1.1416  0.2590  0.7408
 3491SOL    HW222110   2.684   0.563   9.920  3.4788 -0.2671  3.1364
 3492SOL     OW22111   0.431   3.442   2.115 -0.6217 -0.9147  0.4636
 3492SOL    HW122112   0.500   3.434   2.182 -0.0279 -1.2226 -0.1821
 3492SOL    HW222113   0.363   3.487   2.165  0.6790  0.4821  1.0128
 3493SOL     OW22114   2.575   2.098   7.899 -0.2564 -0.6693  0.2179
 3493SOL    HW122115   2.579   2.030   7.966 -2.4643  0.8083  1.8269
 3493SOL    HW222116   2.519   2.163   7.941 -0.0018  0.9192 -1.9013
 3494SOL     OW22117   3.502   2.746   3.310  0.3269  0.0183 -0.0235
 3494SOL    HW122118   3.437   2.719   3.375 -0.7438 -1.3663 -1.6875
 3494SOL    HW222119   3.470   2.833   3.286  0.8421  0.1047 -0.3969
 3495SOL     OW22120   0.164   1.064   8.862 -0.1066 -0.4411 -0.2363
 3495SOL    HW122121   0.243   1.030   8.820 -0.9634 -3.0901  0.2870
 3495SOL    HW222122   0.205   1.115   8.932 -0.5170  0.5259 -0.7079
 3496SOL     OW22123   3.956   3.111   4.608  0.4191  0.6446 -0.0752
 3496SOL    HW122124   3.882   3.053   4.593  0.0426  0.5013  2.2879
 3496SOL    HW222125   3.967   3.136   4.516  1.2985  1.2008  0.1851
 3497SOL     OW22126   0.851   2.014   3.941 -0.3242 -0.2545  0.2292
 3497SOL    HW122127   0.848   2.073   4.016  1.5708 -1.2469  1.1056
 3497SOL    HW222128   0.815   2.075   3.877  0.3510 -0.9675 -0.8371
 3498SOL     OW22129   3.984   0.961   5.091  0.0063 -0.1739 -0.1824
 3498SOL    HW122130   3.896   0.923   5.091  0.8529 -2.1432  0.6155
 3498SOL    HW222131   3.967   1.026   5.159 -0.4578  0.7352 -1.1699
 3499SOL     OW22132   1.410   1.328  17.191 -0.1132  0.4361  0.0640
 3499SOL    HW122133   1.329   1.364  17.228 -0.0484 -0.1225  0.7612
 3499SOL    HW222134   1.445   1.290  17.272 -1.6533 -1.2269 -0.0528
 3500SOL     OW22135   4.707   3.333  16.072  0.0233  0.3225  0.1711
 3500SOL    HW122136   0.007   3.418  16.051 -1.6241  1.0959  0.4617
 3500SOL    HW222137   0.023   3.308  16.148 -0.2441  2.7070  1.1384
 3501SOL     OW22138   3.222   1.974   2.808  0.2358 -0.5586 -0.0837
 3501SOL    HW122139   3.252   2.002   2.722 -0.5511  0.3159 -0.0721
 3501SOL    HW222140   3.203   1.884   2.782  1.2956  0.2253 -3.5791
 3502SOL     OW22141   0.449   4.470   0.130  0.0855  0.1210 -0.0785
 3502SOL    HW122142   0.409   4.430   0.052  0.2524  2.8017 -1.5413
 3502SOL    HW222143   0.538   4.437   0.127  0.4724  1.2023 -0.6220
 3503SOL     OW22144   0.088   0.452   2.242 -0.0414 -0.5471 -0.1379
 3503SOL    HW122145   0.127   0.400   2.311  1.6222  1.2829  0.2907
 3503SOL    HW222146   0.156   0.488   2.185 -1.6758  1.3557 -0.9271
 3504SOL     OW22147   1.683   1.473  14.857 -0.1269  0.1746  0.0949
 3504SOL    HW122148   1.602   1.423  14.867  0.0736  0.0645  1.1356
 3504SOL    HW222149   1.728   1.403  14.809  0.2634 -0.4463  1.3717
 3505SOL     OW22150   3.078   3.222   1.127  0.0302  0.1911 -0.0016
 3505SOL    HW122151   3.119   3.288   1.071 -0.9894 -0.9808 -2.1657
 3505SOL    HW222152   3.111   3.245   1.213  4.1459 -2.7192 -0.7885
 3506SOL     OW22153   0.957   0.959   5.689  0.0601  0.2863  0.1764
 3506SOL    HW122154   1.037   0.983   5.642 -0.8774 -1.3586 -2.2439
 3506SOL    HW222155   0.922   0.900   5.622  1.3039  0.5446 -0.7116
 3507SOL     OW22156   3.739   1.738   7.321  0.4005 -0.4869  0.4100
 3507SOL    HW122157   3.683   1.797   7.270  2.3319 -0.4638 -1.7045
 3507SOL    HW222158   3.692   1.655   7.321 -1.1438  0.3866  0.5164
 3508SOL     OW22159   0.277   2.489   1.454 -0.4842 -0.2787  0.3900
 3508SOL    HW122160   0.356   2.531   1.420 -0.6110 -1.8296 -1.7805
 3508SOL    HW222161   0.301   2.396   1.461 -1.0304 -0.3592  1.2102
 3509SOL     OW22162   1.306   2.635  15.935 -0.2059 -0.6625  0.6540
 3509SOL    HW122163   1.254   2.589  16.001 -0.8499 -2.6175 -1.1991
 3509SOL    HW222164   1.255   2.627  15.854  1.8067  0.0156 -0.6761
 3510SOL     OW22165   3.712   1.105   7.847  0.0907 -0.4580 -0.2080
 3510SOL    HW122166   3.743   1.017   7.867 -0.6530 -1.3315 -3.0483
 3510SOL    HW222167   3.665   1.083   7.767  0.0574  0.2518 -0.3817
 3511SOL     OW22168   2.119   3.588  12.306 -0.0641  0.4528  0.1421
 3511SOL    HW122169   2.155   3.568  12.392 -2.5326  0.7986  1.2488
 3511SOL    HW222170   2.036   3.540  12.303  2.4560 -3.9549  1.2436
 3512SOL     OW22171   3.358   0.186   6.880  0.1205  0.0389  0.0793
 3512SOL    HW122172   3.432   0.184   6.819 -0.4680 -2.4172 -0.5534
 3512SOL    HW222173   3.290   0.150   6.824  1.7077 -2.9848  0.0693
 3513SOL     OW22174   0.097   0.387  10.369 -0.5207 -0.3103  0.4408
 3513SOL    HW122175   0.127   0.469  10.408  1.0138 -0.0535 -1.2731
 3513SOL    HW222176   0.180   0.339  10.374  0.0492  0.5909 -0.3355
 3514SOL     OW22177   0.626   1.843   2.609  0.6928 -0.4571  0.4292
 3514SOL    HW122178   0.577   1.919   2.643 -1.1120 -1.3060 -0.2710
 3514SOL    HW222179   0.717   1.873   2.620  0.0535  2.0189 -0.9774
 3515SOL     OW22180   0.264   4.438   7.063 -0.4343 -0.1031  0.3186
 3515SOL    HW122181   0.220   4.429   7.148 -1.6535  1.0471 -0.1925
 3515SOL    HW222182   0.286   4.531   7.055  1.1691 -0.4321  0.8023
 3516SOL     OW22183   1.380   1.098   7.909  0.9734  0.1890  0.1795
 3516SOL    HW122184   1.442   1.032   7.938  1.2667  2.2714  4.2348
 3516SOL    HW222185   1.431   1.165   7.863 -1.6676  1.7682 -0.4427
 3517SOL     OW22186   2.045   2.823   1.923 -0.7517 -0.0810 -0.6919
 3517SOL    HW122187   2.049   2.769   1.844 -0.2181 -0.3825 -0.4599
 3517SOL    HW222188   2.116   2.784   1.975 -0.6187  0.4645 -0.4662
 3518SOL     OW22189   0.436   4.105   9.004  0.4504  0.1116  0.3394
 3518SOL    HW122190   0.493   4.081   8.931 -0.0502  1.6274 -0.5572
 3518SOL    HW222191   0.486   4.092   9.084  1.0564 -0.0137 -0.0582
 3519SOL     OW22192   3.893   1.204   1.965  0.2202 -0.3928 -0.1516
 3519SOL    HW122193   3.917   1.297   1.971  0.4356 -0.4526 -0.0637
 3519SOL    HW222194   3.834   1.199   1.891  0.2276  2.7794 -0.3599
 3520SOL     OW22195   2.234   4.577  15.139 -0.6783  0.6048 -0.4003
 3520SOL    HW122196   2.243   4.603  15.230  1.1645 -4.0420  0.7486
 3520SOL    HW222197   2.247   4.662  15.097  1.3164 -0.4176 -1.8571
 3521SOL     OW22198   1.372   4.003   1.936  0.8415  0.4087 -0.0004
 3521SOL    HW122199   1.290   3.992   1.889  1.2979 -1.9791 -0.2206
 3521SOL    HW222200   1.418   4.041   1.861  1.6468 -1.9208 -0.6914
 3522SOL     OW22201   4.534   2.681   4.885  1.0281 -0.1731  0.0130
 3522SOL    HW122202   4.555   2.632   4.806  0.0908 -0.0493 -0.3196
 3522SOL    HW222203   4.471   2.735   4.836 -0.6513 -1.4925  0.7105
 3523SOL     OW22204   0.923   2.914   2.255  0.4364  0.2553  0.3593
 3523SOL    HW122205   0.884   2.889   2.172  2.0096  0.4313 -0.4445
 3523SOL    HW222206   0.989   2.975   2.222  2.1235 -1.5152  0.4543
 3524SOL     OW22207   4.113   3.194   8.777  0.2233 -0.0375 -0.0784
 3524SOL    HW122208   4.034   3.224   8.732 -0.1873 -1.7498 -0.4775
 3524SOL    HW222209   4.170   3.269   8.797 -0.0159  0.6619 -2.0631
 3525SOL     OW22210   1.044   0.242  17.151  0.4610  0.7341 -0.1428
 3525SOL    HW122211   1.131   0.205  17.137  0.2092  0.3258 -0.6089
 3525SOL    HW222212   1.030   0.275  17.062 -2.3712 -1.7998 -0.6468
 3526SOL     OW22213   2.527   0.741   2.360  0.2579  0.1699 -0.4218
 3526SOL    HW122214   2.508   0.733   2.267  0.0862  0.0097 -0.3724
 3526SOL    HW222215   2.490   0.827   2.380 -1.0448 -0.3033 -0.7546
 3527SOL     OW22216   0.804   3.839  14.579  0.1958  0.4266 -0.3244
 3527SOL    HW122217   0.726   3.784  14.573  0.1186  0.8174 -2.8538
 3527SOL    HW222218   0.839   3.809  14.663 -0.1350 -0.2483 -0.4291
 3528SOL     OW22219   1.202   0.366   6.825  0.0833  0.5888  0.4948
 3528SOL    HW122220   1.260   0.426   6.778  1.1673 -1.1989 -0.4441
 3528SOL    HW222221   1.207   0.286   6.773  0.3798 -1.1838  3.2473
 3529SOL     OW22222   0.938   4.462   5.475  0.2043 -0.4692  0.2567
 3529SOL    HW122223   0.941   4.556   5.489 -1.8597 -0.6019  1.5333
 3529SOL    HW222224   0.935   4.432   5.566 -0.9016  0.7030  0.6056
 3530SOL     OW22225   2.787   4.328  13.098  0.3594  0.5413 -0.0401
 3530SOL    HW122226   2.717   4.298  13.040 -0.1607  0.0322  0.8545
 3530SOL    HW222227   2.826   4.410  13.069  1.1756 -0.3325 -1.3885
 3531SOL     OW22228   4.541   3.452   8.737 -0.4034  0.4273  0.2727
 3531SOL    HW122229   4.583   3.424   8.656  0.4423  0.6752  0.6248
 3531SOL    HW222230   4.616   3.438   8.795  1.2888  3.5038 -1.1924
 3532SOL     OW22231   3.986   1.013   7.497 -0.0056 -0.2125  0.2464
 3532SOL    HW122232   3.986   0.919   7.479 -0.8959 -0.3972  1.2188
 3532SOL    HW222233   4.051   1.006   7.566  0.5298  0.9163 -0.1395
 3533SOL     OW22234   2.321   3.260  14.207  0.2697 -0.2735 -0.3863
 3533SOL    HW122235   2.395   3.305  14.166  1.0087 -2.1796 -1.1455
 3533SOL    HW222236   2.251   3.259  14.142  1.5525  0.9236 -1.7804
 3534SOL     OW22237   3.403   4.500   2.137 -0.8909  0.1720  0.0794
 3534SOL    HW122238   3.427   4.408   2.123 -0.1221  0.5769 -1.3071
 3534SOL    HW222239   3.345   4.498   2.061  0.7619 -1.5877 -1.1474
 3535SOL     OW22240   3.832   2.798  17.671 -0.0411 -0.7798 -0.5456
 3535SOL    HW122241   3.754   2.800  17.726 -1.0421  1.8989 -2.0836
 3535SOL    HW222242   3.805   2.844  17.591 -1.4773 -2.9453 -1.3222
 3536SOL     OW22243   1.456   2.561   5.678 -0.5720  0.1526 -0.0645
 3536SOL    HW122244   1.401   2.615   5.735  0.0094  1.2473 -0.5398
 3536SOL    HW222245   1.526   2.623   5.658 -0.8824  0.1887 -1.0442
 3537SOL     OW22246   3.102   3.449   8.809 -0.3860  0.4265  0.1492
 3537SOL    HW122247   3.068   3.523   8.759  0.6275  1.7931  1.4850
 3537SOL    HW222248   3.095   3.380   8.743  0.9310 -0.5308  1.0104
 3538SOL     OW22249   0.676   4.669  17.675 -0.5287  0.2019 -0.6403
 3538SOL    HW122250   0.678   4.640  17.584 -0.1872 -0.6644 -0.3569
 3538SOL    HW222251   0.588   4.704  17.683 -0.5531 -0.3155  1.2487
 3539SOL     OW22252   2.897   2.852   9.437  0.0027  0.3187  0.5918
 3539SOL    HW122253   2.958   2.799   9.385 -1.6348 -1.1462  0.2083
 3539SOL    HW222254   2.810   2.833   9.403  0.3780  1.7095 -1.2253
 3540SOL     OW22255   0.941   3.272   2.268 -0.4057  0.1985 -0.1482
 3540SOL    HW122256   0.922   3.344   2.328 -0.2311  0.8819 -0.9027
 3540SOL    HW222257   0.984   3.220   2.336  0.2978  1.0750  0.0918
 3541SOL     OW22258   4.734   0.291   1.633 -0.9800  0.7125  0.3229
 3541SOL    HW122259   4.653   0.241   1.623 -1.3389  1.1973  0.7841
 3541SOL    HW222260   0.046   0.251   1.561 -1.1670  0.8391  0.1240
 3542SOL     OW22261   2.288   0.464   5.557 -0.0285 -0.6941 -0.0877
 3542SOL    HW122262   2.376   0.499   5.559  0.1075 -1.1531  1.6239
 3542SOL    HW222263   2.306   0.370   5.560 -2.3584 -1.1233  0.4951
 3543SOL     OW22264   2.993   0.652  10.658 -0.3651  0.4561 -0.2688
 3543SOL    HW122265   3.078   0.607  10.667 -0.4837  0.3438  0.3143
 3543SOL    HW222266   2.963   0.679  10.745 -1.2005  1.0888 -0.7551
 3544SOL     OW22267   0.100   2.803   3.034  0.0169 -0.0580 -0.0358
 3544SOL    HW122268   0.057   2.800   3.119  1.7532  2.4742  0.9352
 3544SOL    HW222269   0.021   2.817   2.982  0.3852 -2.6889 -1.3193
 3545SOL     OW22270   1.734   2.543   2.613 -0.2042  0.7569 -0.0756
 3545SOL    HW122271   1.735   2.635   2.639  2.8017  0.3083  1.4258
 3545SOL    HW222272   1.789   2.537   2.534 -0.2358 -0.1477 -0.0313
 3546SOL     OW22273   1.333   4.364   9.265 -1.1231  0.4950  0.0600
 3546SOL    HW122274   1.426   4.344   9.272 -1.0075  1.4064  1.1531
 3546SOL    HW222275   1.315   4.346   9.172  2.0757  1.0385 -0.6462
 3547SOL     OW22276   4.420   2.884   3.596 -0.3921 -0.4895 -0.1958
 3547SOL    HW122277   4.345   2.872   3.537 -0.3004  1.5116 -0.7021
 3547SOL    HW222278   4.480   2.817   3.561  2.7514  0.5531  3.2492
 3548SOL     OW22279   2.488   2.100   3.040 -0.2821 -0.7622  0.6187
 3548SOL    HW122280   2.580   2.106   3.015  0.6721 -0.6962  4.1178
 3548SOL    HW222281   2.474   2.195   3.036 -0.3836 -0.7803  0.5452
 3549SOL     OW22282   4.524   1.928  15.190 -0.0157  0.1104 -1.1178
 3549SOL    HW122283   4.464   1.909  15.262  2.9236  0.4750  1.4166
 3549SOL    HW222284   4.603   1.935  15.243  0.6658  0.9608 -2.2253
 3550SOL     OW22285   2.199   2.914   7.982 -0.2432  0.2447 -0.0358
 3550SOL    HW122286   2.162   2.914   8.070 -1.1624  0.3190 -0.4213
 3550SOL    HW222287   2.267   2.980   7.989  0.0323 -0.2008  1.4600
 3551SOL     OW22288   0.838   4.618   8.000  0.3732  0.5638 -0.0812
 3551SOL    HW122289   0.929   4.645   7.996  0.6741 -0.4605 -0.1364
 3551SOL    HW222290   0.799   4.699   8.033 -2.9124 -0.8892 -0.3475
 3552SOL     OW22291   3.265   2.325  17.637 -0.1994 -0.1718 -0.1259
 3552SOL    HW122292   3.333   2.354  17.576 -0.8119  0.5932 -0.4378
 3552SOL    HW222293   3.223   2.260  17.581 -0.3251  0.5023 -0.8006
 3553SOL     OW22294   4.186   1.084   6.683 -0.1990  0.2060 -0.2412
 3553SOL    HW122295   4.247   1.099   6.611  0.4984 -0.4255  0.2128
 3553SOL    HW222296   4.105   1.092   6.633  0.8208 -0.9338 -2.0620
 3554SOL     OW22297   1.880   0.801   8.422  0.0991  0.1494 -0.1897
 3554SOL    HW122298   1.856   0.756   8.503 -1.8060  0.7434 -0.4175
 3554SOL    HW222299   1.840   0.885   8.446  2.3458  1.3732 -0.7059
 3555SOL     OW22300   4.237   2.230   5.445 -0.7338 -0.3160  0.4561
 3555SOL    HW122301   4.177   2.277   5.387 -1.4515 -1.7642  0.0161
 3555SOL    HW222302   4.176   2.215   5.517 -2.2892 -1.2586 -1.0440
 3556SOL     OW22303   4.028   0.748   5.882 -0.1294  0.5217 -0.0139
 3556SOL    HW122304   3.948   0.717   5.925 -0.6981  0.2529 -1.2609
 3556SOL    HW222305   4.091   0.723   5.950  0.7912 -1.7625 -1.7331
 3557SOL     OW22306   3.200   1.465   4.431 -0.2342  0.9513  0.2713
 3557SOL    HW122307   3.189   1.399   4.362 -0.9442  0.4788  0.8388
 3557SOL    HW222308   3.260   1.527   4.389 -1.3389  2.0240  0.2769
 3558SOL     OW22309   4.042   0.958   3.988 -0.2379 -0.1012 -0.4649
 3558SOL    HW122310   4.065   1.042   3.948  1.1881 -0.5369 -0.5462
 3558SOL    HW222311   4.098   0.896   3.941  0.7409 -0.3661  1.0633
 3559SOL     OW22312   2.996   2.602   8.801 -0.0215  0.5152  0.3012
 3559SOL    HW122313   2.999   2.681   8.854  1.6720 -2.1977  4.2456
 3559SOL    HW222314   2.931   2.549   8.848 -0.4045 -0.7531 -1.6293
 3560SOL     OW22315   2.139   3.265  13.461 -0.2057  0.2101  0.1758
 3560SOL    HW122316   2.070   3.290  13.399  0.3496  0.1306 -0.4797
 3560SOL    HW222317   2.179   3.346  13.493  0.1849  0.5961 -1.2579
 3561SOL     OW22318   3.293   1.401   2.355  0.2514  0.8412  0.2217
 3561SOL    HW122319   3.241   1.482   2.355 -0.9593  0.0587 -1.5708
 3561SOL    HW222320   3.343   1.410   2.274  0.9330  1.5706  0.7208
 3562SOL     OW22321   2.866   4.504  11.678 -0.3078 -0.1335  0.6019
 3562SOL    HW122322   2.859   4.541  11.590  0.1335 -0.6109  0.3671
 3562SOL    HW222323   2.938   4.441  11.669 -1.6752 -1.4123 -1.2327
 3563SOL     OW22324   3.872   2.509   2.688  0.7979  0.4479  0.0885
 3563SOL    HW122325   3.783   2.511   2.723  0.9506 -0.3869  0.5065
 3563SOL    HW222326   3.881   2.594   2.644 -0.9119  0.4145 -0.3310
 3564SOL     OW22327   3.178   1.798   3.283 -0.2477 -0.4428  0.2034
 3564SOL    HW122328   3.239   1.765   3.349  0.6068  0.2460 -0.2351
 3564SOL    HW222329   3.244   1.843   3.230  0.3713  0.2782  1.5928
 3565SOL     OW22330   2.642   1.599  16.094 -0.3682  0.0910  0.1780
 3565SOL    HW122331   2.641   1.519  16.145 -2.6466  0.4653  0.6902
 3565SOL    HW222332   2.576   1.588  16.026 -1.5168 -0.6991  1.4437
 3566SOL     OW22333   0.914   0.621   3.091  0.8555 -0.3449  0.2522
 3566SOL    HW122334   0.882   0.705   3.124  0.3798  0.3686 -2.0631
 3566SOL    HW222335   0.999   0.645   3.054  0.5625 -0.4329 -0.4669
 3567SOL     OW22336   3.215   1.259   4.250  0.3452  0.0290  0.2633
 3567SOL    HW122337   3.255   1.177   4.280 -2.2186 -2.0919 -2.0143
 3567SOL    HW222338   3.281   1.286   4.186 -0.0108  0.5153  0.1010
 3568SOL     OW22339   3.807   0.455  10.442 -0.0119 -0.1340 -0.0828
 3568SOL    HW122340   3.734   0.417  10.395  0.4620  0.7822 -1.5524
 3568SOL    HW222341   3.846   0.520  10.382 -3.2359 -0.2412 -2.2511
 3569SOL     OW22342   3.456   0.659   2.249 -0.1396 -0.0154 -0.5810
 3569SOL    HW122343   3.490   0.628   2.165 -1.1040  0.2744 -1.0731
 3569SOL    HW222344   3.543   0.663   2.289 -1.4609 -1.8542  2.4927
 3570SOL     OW22345   2.574   2.202   3.873  0.1357  0.2604  0.5429
 3570SOL    HW122346   2.582   2.169   3.962 -1.4654 -1.1278  0.1642
 3570SOL    HW222347   2.539   2.288   3.894 -1.5465  0.0787 -1.4394
 3571SOL     OW22348   3.163   1.996   7.463  0.0823 -0.6754  0.2750
 3571SOL    HW122349   3.160   1.957   7.550 -1.3927  1.6217  1.2472
 3571SOL    HW222350   3.138   2.088   7.472 -0.5488 -1.0145  1.9814
 3572SOL     OW22351   0.571   1.385   7.486 -0.4631 -0.5556 -0.2606
 3572SOL    HW122352   0.524   1.379   7.403 -0.7302  1.1369 -0.2318
 3572SOL    HW222353   0.660   1.355   7.467  0.3969  1.5782  0.4444
 3573SOL     OW22354   1.750   1.394   3.078 -0.4099 -0.2043  0.5188
 3573SOL    HW122355   1.797   1.446   3.014 -0.9661  0.2624  0.4889
 3573SOL    HW222356   1.713   1.324   3.024  0.3604 -1.8897  2.1860
 3574SOL     OW22357   3.677   2.299   3.606  0.3856 -0.5131  0.0951
 3574SOL    HW122358   3.590   2.271   3.635 -0.5109  0.5954 -1.5134
 3574SOL    HW222359   3.649   2.389   3.591  0.3922 -0.5521 -0.1566
 3575SOL     OW22360   0.174   0.269   3.322 -0.3539 -0.2532 -0.1382
 3575SOL    HW122361   0.161   0.347   3.375 -2.4349  0.6660 -2.0279
 3575SOL    HW222362   0.251   0.297   3.272 -0.4059 -0.2903 -0.2402
 3576SOL     OW22363   3.831   2.423   7.718 -0.2134 -0.8966  0.2123
 3576SOL    HW122364   3.779   2.392   7.793 -0.8687 -0.2618  0.0166
 3576SOL    HW222365   3.791   2.368   7.651 -0.4157  1.3210 -1.4796
 3577SOL     OW22366   1.614   4.114  13.934 -0.0154  0.4714 -0.3297
 3577SOL    HW122367   1.660   4.048  13.882  0.3190  0.4795 -0.0396
 3577SOL    HW222368   1.525   4.101  13.901  0.2299 -0.8299 -0.4940
 3578SOL     OW22369   2.526   2.511   0.137  0.0253 -0.6673 -0.6718
 3578SOL    HW122370   2.552   2.599   0.164 -0.1452 -1.0378  0.7102
 3578SOL    HW222371   2.583   2.491   0.063  2.6717 -3.3429  2.0777
 3579SOL     OW22372   4.165   1.188   4.995  0.1649 -0.3646  0.2589
 3579SOL    HW122373   4.244   1.174   5.048 -0.3092 -1.1830  0.7464
 3579SOL    HW222374   4.167   1.101   4.954 -1.3152 -0.5705  0.6630
 3580SOL     OW22375   1.274   1.860   1.870 -0.0586  0.0548  0.5516
 3580SOL    HW122376   1.305   1.806   1.797  0.9701  0.1057  0.9533
 3580SOL    HW222377   1.181   1.880   1.860  0.4678  1.7983 -0.8051
 3581SOL     OW22378   1.059   1.556  15.124  0.3341  0.0815  0.5400
 3581SOL    HW122379   1.143   1.549  15.169  0.8746  1.0210 -0.3006
 3581SOL    HW222380   1.003   1.530  15.197  0.4041 -0.9040  0.2369
 3582SOL     OW22381   4.054   4.065   2.517 -0.4859  0.0767 -0.1043
 3582SOL    HW122382   4.032   4.158   2.529 -1.4119 -0.1449 -0.0401
 3582SOL    HW222383   4.020   4.028   2.598 -1.2740  0.3477 -0.3062
 3583SOL     OW22384   3.553   2.529   3.879  0.1456 -0.7201  0.8912
 3583SOL    HW122385   3.508   2.446   3.865  0.4243 -0.7350  0.0248
 3583SOL    HW222386   3.602   2.548   3.798 -1.0899  0.5151  0.4280
 3584SOL     OW22387   1.461   3.034   2.212 -0.7493  0.0990 -0.4436
 3584SOL    HW122388   1.513   2.966   2.255  0.3877  0.4746 -1.2481
 3584SOL    HW222389   1.511   3.102   2.258  0.8317 -0.6215 -1.1247
 3585SOL     OW22390   0.379   2.718   0.883  0.1215 -0.3650  0.1882
 3585SOL    HW122391   0.352   2.709   0.974  1.0497  2.8010  0.7703
 3585SOL    HW222392   0.300   2.697   0.833  0.5031  1.6990 -1.2862
 3586SOL     OW22393   4.508   2.415   8.858  0.4121 -0.3267 -0.5903
 3586SOL    HW122394   4.526   2.338   8.913  1.2647 -0.8076 -1.5396
 3586SOL    HW222395   4.561   2.485   8.896  1.1743 -0.2859 -1.7239
 3587SOL     OW22396   4.119   2.721   1.877  0.4960  0.0976  0.2893
 3587SOL    HW122397   4.046   2.781   1.892  0.5375  0.2649 -0.1538
 3587SOL    HW222398   4.090   2.643   1.923  1.6766 -0.5083  0.0024
 3588SOL     OW22399   2.189   3.184   2.767 -0.5924 -0.6439 -0.0248
 3588SOL    HW122400   2.242   3.140   2.833 -0.6938 -1.4482 -0.4677
 3588SOL    HW222401   2.214   3.130   2.691  1.8765  0.1861  0.2042
 3589SOL     OW22402   4.125   1.240   6.348 -0.7403  0.6712  0.1609
 3589SOL    HW122403   4.102   1.328   6.380 -3.0173  0.3049 -0.4330
 3589SOL    HW222404   4.080   1.194   6.419 -0.0143 -1.2782 -0.6528
 3590SOL     OW22405   1.692   2.389  14.894 -0.1849 -1.0816 -0.1225
 3590SOL    HW122406   1.718   2.307  14.937 -1.3537 -0.5628  1.6047
 3590SOL    HW222407   1.716   2.457  14.957  1.5919 -1.0051 -0.8829
 3591SOL     OW22408   0.975   0.541   6.182 -0.1362  0.3892 -0.0183
 3591SOL    HW122409   1.042   0.508   6.243  0.1257 -2.4598 -1.8365
 3591SOL    HW222410   1.024   0.576   6.107 -1.9128  0.3758 -1.1651
 3592SOL     OW22411   2.778   3.911   2.116 -0.0076  0.2632 -0.1249
 3592SOL    HW122412   2.716   3.977   2.083 -0.9174  0.7891  2.6186
 3592SOL    HW222413   2.718   3.839   2.137  0.7550 -0.6788 -1.1763
 3593SOL     OW22414   3.938   0.756   2.148 -0.2755  0.2583  0.3387
 3593SOL    HW122415   3.994   0.813   2.095  0.5008 -0.2356  0.6461
 3593SOL    HW222416   3.874   0.725   2.083  0.3691 -0.9040  0.2636
 3594SOL     OW22417   0.381   2.228   1.415  0.6686 -0.5021 -0.1211
 3594SOL    HW122418   0.451   2.178   1.372  0.2746 -1.1173 -0.0399
 3594SOL    HW222419   0.316   2.161   1.434  0.6045 -0.0064  1.3735
 3595SOL     OW22420   2.105   2.234   5.760  0.4544  0.2651  0.6582
 3595SOL    HW122421   2.191   2.203   5.787  1.2996 -0.1605 -2.5331
 3595SOL    HW222422   2.089   2.196   5.674 -1.3366  0.6646  0.8024
 3596SOL     OW22423   1.834   1.470   8.225  0.2504  0.1658 -0.5008
 3596SOL    HW122424   1.907   1.421   8.187  2.4639  3.9199 -1.1175
 3596SOL    HW222425   1.763   1.426   8.178  2.1325 -0.4855 -2.7314
 3597SOL     OW22426   4.581   1.569   7.139 -0.2948  0.2213  0.0324
 3597SOL    HW122427   4.654   1.508   7.140 -0.3618  0.1207 -1.2838
 3597SOL    HW222428   4.581   1.602   7.049  1.1180  1.5784  0.5130
 3598SOL     OW22429   0.314   2.205   6.311  0.1196  0.2779 -0.5713
 3598SOL    HW122430   0.221   2.184   6.308 -0.1228  1.3892 -0.9421
 3598SOL    HW222431   0.337   2.208   6.218  0.5350 -3.0470 -0.5768
 3599SOL     OW22432   0.640   2.959   4.338 -0.2251  0.1453 -0.2143
 3599SOL    HW122433   0.662   2.900   4.410 -0.5955  0.6814  0.3446
 3599SOL    HW222434   0.569   2.922   4.285  2.3008 -0.1993 -3.3488
 3600SOL     OW22435   0.891   1.270   9.368 -0.4480 -0.1629  0.1095
 3600SOL    HW122436   0.874   1.300   9.457  0.9996  2.7821 -0.6040
 3600SOL    HW222437   0.967   1.328   9.355 -0.7142  0.5321  1.7053
 3601SOL     OW22438   4.561   0.538   3.412 -0.4634  0.0018 -0.5692
 3601SOL    HW122439   4.637   0.579   3.371  1.5225 -2.8475  0.3068
 3601SOL    HW222440   4.603   0.454   3.429  2.3027  1.6804  1.0730
 3602SOL     OW22441   3.214   0.468   7.543 -0.1489 -0.4210 -0.0930
 3602SOL    HW122442   3.310   0.460   7.547  0.0151  1.2818 -0.6357
 3602SOL    HW222443   3.203   0.563   7.540 -1.6931 -0.5405  1.9346
 3603SOL     OW22444   2.855   1.541   5.289  0.0136 -0.2593 -0.1072
 3603SOL    HW122445   2.767   1.556   5.256 -0.2137 -0.3465  0.4433
 3603SOL    HW222446   2.891   1.629   5.291  0.5695 -0.4819 -0.3274
 3604SOL     OW22447   0.157   3.318   7.776  0.5960  0.4493 -0.0938
 3604SOL    HW122448   0.188   3.356   7.694 -1.6268 -0.4271 -1.3387
 3604SOL    HW222449   0.135   3.229   7.749 -0.8469  0.2260  1.7634
 3605SOL     OW22450   0.442   1.647   5.724 -0.0058  0.1473 -0.0732
 3605SOL    HW122451   0.412   1.723   5.674  0.6939  0.5743  0.1568
 3605SOL    HW222452   0.379   1.654   5.796 -0.5913  0.9558 -0.6626
 3606SOL     OW22453   3.519   3.870   8.003  0.6858 -0.2465 -0.0651
 3606SOL    HW122454   3.610   3.848   7.982  1.1624  1.3169  0.3998
 3606SOL    HW222455   3.517   3.847   8.096  0.3700 -2.5108 -0.6294
 3607SOL     OW22456   3.910   1.223  17.413  0.0297 -0.3588 -0.5662
 3607SOL    HW122457   3.954   1.165  17.474  1.3010  0.4551 -0.7058
 3607SOL    HW222458   3.917   1.175  17.331 -0.5293  0.6693 -1.2196
 3608SOL     OW22459   3.454   4.012   1.941  0.0419 -0.3561 -0.7465
 3608SOL    HW122460   3.433   3.983   1.853 -0.7978  0.6578 -0.8705
 3608SOL    HW222461   3.490   3.928   1.972 -0.0269  0.1448  0.7073
 3609SOL     OW22462   2.052   4.327   1.091 -0.4797  0.2757 -0.0864
 3609SOL    HW122463   2.135   4.318   1.045 -1.3383  0.2703 -1.6483
 3609SOL    HW222464   2.003   4.343   1.010  3.9809  0.8589 -2.6415
 3610SOL     OW22465   4.051   1.773   7.585  0.1947 -0.3329 -0.4605
 3610SOL    HW122466   4.062   1.762   7.491  1.9016 -0.4620 -0.2522
 3610SOL    HW222467   4.095   1.692   7.614  2.6023  0.7245 -1.1623
 3611SOL     OW22468   0.227   3.303  11.746 -0.1383 -0.0808  0.1336
 3611SOL    HW122469   0.175   3.379  11.721  2.0547  0.9875 -1.1510
 3611SOL    HW222470   0.175   3.281  11.823 -1.6296  2.9692 -0.0073
 3612SOL     OW22471   0.285   0.661   3.387  0.1052  0.3216  0.4480
 3612SOL    HW122472   0.264   0.736   3.442  1.2444 -0.2517  1.6379
 3612SOL    HW222473   0.280   0.595   3.455  2.7739 -1.1673 -0.8122
 3613SOL     OW22474   1.149   2.638   1.899  0.5167 -0.9822 -0.6664
 3613SOL    HW122475   1.244   2.642   1.894  0.6017 -1.9182  0.1919
 3613SOL    HW222476   1.124   2.731   1.897 -0.4068 -1.2248 -0.6357
 3614SOL     OW22477   4.675   0.115   8.255  0.2373 -0.1014  0.1972
 3614SOL    HW122478   4.615   0.138   8.183  1.7059  1.7177 -0.4427
 3614SOL    HW222479   0.018   0.152   8.216  0.9628 -0.4696  1.3472
 3615SOL     OW22480   1.208   2.943   5.201 -0.3300  0.6618 -0.2313
 3615SOL    HW122481   1.247   2.887   5.268 -2.1831 -1.2495 -0.7317
 3615SOL    HW222482   1.163   2.879   5.146  0.2158 -0.7203  0.9283
 3616SOL     OW22483   1.870   0.395   8.323 -0.0223  0.0479 -0.5081
 3616SOL    HW122484   1.799   0.414   8.385  0.3754 -1.5087  0.4181
 3616SOL    HW222485   1.949   0.422   8.370 -1.9857 -1.0685  3.4759
 3617SOL     OW22486   0.552   3.847  17.279  0.2986  0.8713  0.4850
 3617SOL    HW122487   0.553   3.904  17.202 -0.4409 -1.6257 -1.3847
 3617SOL    HW222488   0.613   3.781  17.245 -2.1251 -0.2535 -1.7114
 3618SOL     OW22489   1.504   4.502  10.846 -0.0552  0.0981  0.3818
 3618SOL    HW122490   1.441   4.513  10.918 -2.1288 -1.8721 -1.1034
 3618SOL    HW222491   1.577   4.557  10.874 -0.6729  1.1787 -0.1394
 3619SOL     OW22492   2.855   3.749  15.178 -0.3831 -0.5252 -0.0748
 3619SOL    HW122493   2.879   3.756  15.086 -2.6955  1.1599 -0.5394
 3619SOL    HW222494   2.760   3.760  15.175 -0.2747  0.8030  0.8920
 3620SOL     OW22495   1.275   3.966   0.305 -0.0250  0.5915  0.6629
 3620SOL    HW122496   1.304   3.981   0.215  0.1776 -0.4481  0.5530
 3620SOL    HW222497   1.314   3.882   0.328 -0.0753  0.3695 -0.0449
 3621SOL     OW22498   1.163   0.798   6.753  0.1644  0.1537 -0.4911
 3621SOL    HW122499   1.070   0.775   6.755  0.8995 -2.8288 -0.2217
 3621SOL    HW222500   1.165   0.888   6.719 -0.5825  0.8107  1.2012
 3622SOL     OW22501   0.712   0.550   4.139  0.0431  0.0527  0.1269
 3622SOL    HW122502   0.721   0.621   4.203  1.1783 -0.0369  0.0778
 3622SOL    HW222503   0.744   0.484   4.200  0.1632 -0.1012 -0.1029
 3623SOL     OW22504   2.754   4.478   1.833 -0.2818  0.0916  0.0396
 3623SOL    HW122505   2.742   4.481   1.928  0.4555  1.3059  0.1041
 3623SOL    HW222506   2.746   4.385   1.814 -0.5686  0.3282 -1.0103
 3624SOL     OW22507   4.177   4.591  16.042  0.1514  0.2950 -0.0541
 3624SOL    HW122508   4.168   4.675  15.997 -1.9409  0.9232  1.4947
 3624SOL    HW222509   4.270   4.595  16.063  0.4219 -0.5162 -1.1126
 3625SOL     OW22510   1.954   4.018   5.042 -0.2065  0.0393  0.6276
 3625SOL    HW122511   2.002   3.960   4.983 -0.1145  0.8088 -0.0586
 3625SOL    HW222512   1.977   4.105   5.008 -0.0120  0.6045  2.2033
 3626SOL     OW22513   3.071   0.197   8.228  0.9266  0.6131  0.0565
 3626SOL    HW122514   3.058   0.291   8.214  0.6041  0.6238  0.4474
 3626SOL    HW222515   3.135   0.176   8.160  0.6589 -1.6030  0.4903
 3627SOL     OW22516   3.500   1.073   5.589  0.8010 -0.6882 -0.4106
 3627SOL    HW122517   3.415   1.055   5.629  1.5446  0.2115  1.5945
 3627SOL    HW222518   3.527   1.158   5.625 -2.6622  0.1845  0.1231
 3628SOL     OW22519   0.779   1.004   3.707  0.5122 -0.4681  0.3698
 3628SOL    HW122520   0.848   0.980   3.769  1.4872 -0.4013 -0.6940
 3628SOL    HW222521   0.807   1.092   3.683  0.6714 -1.0022 -1.4421
 3629SOL     OW22522   1.726   4.080   4.026  0.6159  0.1523 -0.0698
 3629SOL    HW122523   1.719   4.175   4.021 -2.1941 -0.0611 -0.1188
 3629SOL    HW222524   1.751   4.061   4.117  0.4886 -2.9611 -0.6852
 3630SOL     OW22525   1.337   2.049   6.712  0.5242  0.2631 -0.4326
 3630SOL    HW122526   1.344   1.956   6.691 -2.2014  0.6063 -2.8781
 3630SOL    HW222527   1.243   2.065   6.705  0.3869 -0.1005  0.4977
 3631SOL     OW22528   2.987   4.573   6.749  0.1655  0.1045 -0.2953
 3631SOL    HW122529   2.896   4.587   6.774  0.0942  1.7469 -1.4819
 3631SOL    HW222530   3.019   4.531   6.829 -2.3313  0.7367  1.0112
 3632SOL     OW22531   3.292   4.547  15.013 -0.2455  0.0523 -0.2089
 3632SOL    HW122532   3.209   4.510  15.043 -0.9870  1.1195 -0.9988
 3632SOL    HW222533   3.285   4.627  15.065 -1.2688  2.0588 -3.4336
 3633SOL     OW22534   2.196   3.083   8.960 -1.2063 -0.4471  0.6714
 3633SOL    HW122535   2.233   2.996   8.974 -0.3756 -0.4505 -1.4991
 3633SOL    HW222536   2.220   3.109   9.049 -2.9990  0.8397  0.7735
 3634SOL     OW22537   4.128   1.690  13.537 -0.4736  0.7303 -0.6202
 3634SOL    HW122538   4.055   1.752  13.535 -0.6090  0.6106  0.6252
 3634SOL    HW222539   4.197   1.740  13.493  1.9566 -2.0773 -0.0436
 3635SOL     OW22540   3.199   2.983   6.700  0.4655 -0.0859 -0.1846
 3635SOL    HW122541   3.250   2.906   6.724  1.5053  0.6030 -0.1794
 3635SOL    HW222542   3.162   2.958   6.616 -0.4647 -1.2799  0.5761
 3636SOL     OW22543   1.787   4.082   7.748  0.1968  0.0773 -0.0153
 3636SOL    HW122544   1.762   4.065   7.657 -0.0201 -2.3789  0.5161
 3636SOL    HW222545   1.811   4.173   7.732 -0.2598  0.0201 -1.0368
 3637SOL     OW22546   3.378   2.661   7.765  0.5174 -0.4586 -0.5878
 3637SOL    HW122547   3.446   2.600   7.737  0.0865  0.0940 -2.8268
 3637SOL    HW222548   3.336   2.674   7.680  0.4264 -0.3989 -0.5343
 3638SOL     OW22549   0.275   1.854   7.434  0.1763  0.1489  0.1843
 3638SOL    HW122550   0.369   1.838   7.436  0.1915  0.0511 -1.1869
 3638SOL    HW222551   0.244   1.819   7.518 -3.6728 -0.1487 -1.3322
 3639SOL     OW22552   0.129   0.691   4.527 -0.7397 -0.2850  0.0306
 3639SOL    HW122553   0.211   0.653   4.496 -0.4961 -1.1587  1.7124
 3639SOL    HW222554   0.069   0.632   4.482 -1.7227  1.9850 -1.6246
 3640SOL     OW22555   2.227   1.577   0.491  0.9126  0.1340  0.2333
 3640SOL    HW122556   2.247   1.524   0.414  0.5895  1.5865 -0.8302
 3640SOL    HW222557   2.271   1.661   0.480  1.2930  0.0799  1.2961
 3641SOL     OW22558   1.645   1.273   8.389 -0.3775  0.3888 -0.1919
 3641SOL    HW122559   1.692   1.280   8.306  1.1359 -1.3453  0.5332
 3641SOL    HW222560   1.560   1.273   8.345 -1.5265  0.5515  2.0222
 3642SOL     OW22561   1.435   0.762   8.613 -0.2333  0.1086 -0.4066
 3642SOL    HW122562   1.522   0.722   8.609 -0.0472  0.6729 -2.1277
 3642SOL    HW222563   1.465   0.853   8.602 -0.4937  0.1689 -0.6150
 3643SOL     OW22564   4.037   4.381  13.748 -0.0172  0.8891  0.1373
 3643SOL    HW122565   3.955   4.355  13.790  0.4372 -1.9595 -0.7799
 3643SOL    HW222566   4.098   4.312  13.774  1.5243  2.6964  1.4153
 3644SOL     OW22567   1.127   2.076   9.888 -0.2226 -0.1820 -0.3184
 3644SOL    HW122568   1.109   2.123   9.807 -1.3481 -0.3549 -0.1668
 3644SOL    HW222569   1.113   2.144   9.953 -1.0585 -0.2152 -0.4645
 3645SOL     OW22570   2.747   0.895   6.797  0.3789  0.1795  0.0051
 3645SOL    HW122571   2.692   0.955   6.847 -1.1861 -1.7583  0.6189
 3645SOL    HW222572   2.691   0.878   6.721  1.6120 -1.3214 -0.5695
 3646SOL     OW22573   2.283   2.951   3.578 -0.1104  0.3420 -0.3642
 3646SOL    HW122574   2.325   2.865   3.580  0.2482  0.4783 -1.6771
 3646SOL    HW222575   2.192   2.924   3.568  0.1583 -0.9068  0.6123
 3647SOL     OW22576   2.383   2.563   5.874  0.0544  0.5453 -0.4623
 3647SOL    HW122577   2.466   2.542   5.832  1.1284 -0.3769  2.1413
 3647SOL    HW222578   2.419   2.556   5.962  0.6874 -0.2714 -0.7825
 3648SOL     OW22579   1.963   1.143   2.864 -0.3966 -0.3470 -0.8133
 3648SOL    HW122580   1.977   1.157   2.770  0.8512  0.5901 -0.4947
 3648SOL    HW222581   1.989   1.054   2.886  2.3158  1.0336  1.6392
 3649SOL     OW22582   1.664   0.064   0.509  0.0688 -0.2608 -0.1143
 3649SOL    HW122583   1.629   4.714   0.490 -0.8381  0.0695  0.0318
 3649SOL    HW222584   1.610   0.102   0.440  0.4701  0.3822 -0.0753
 3650SOL     OW22585   4.553   4.402   3.269 -0.1906 -0.4515  0.9242
 3650SOL    HW122586   4.545   4.439   3.181 -1.0163 -1.0226  0.7511
 3650SOL    HW222587   4.459   4.388   3.281  0.0713 -1.2905  1.9876
 3651SOL     OW22588   3.898   3.066   7.165  0.3316  0.4153  0.1271
 3651SOL    HW122589   3.846   2.999   7.210  0.6347  0.3320  0.3506
 3651SOL    HW222590   3.834   3.137   7.177 -0.8768 -0.1538 -2.8960
 3652SOL     OW22591   1.596   3.971   3.795  0.0580 -0.3885 -0.5509
 3652SOL    HW122592   1.687   3.965   3.763 -0.0696  0.2070 -1.0233
 3652SOL    HW222593   1.613   3.986   3.888  0.4123  2.7287 -1.1003
 3653SOL     OW22594   2.862   3.841  16.337  0.0232 -0.2894  0.3074
 3653SOL    HW122595   2.795   3.794  16.287 -0.5312  1.0698 -0.2262
 3653SOL    HW222596   2.940   3.832  16.282 -2.0367  1.6994 -2.9347
 3654SOL     OW22597   2.679   4.172   5.515  0.1741  0.0200 -0.6850
 3654SOL    HW122598   2.700   4.265   5.505  2.5171 -0.4423 -0.1392
 3654SOL    HW222599   2.594   4.172   5.471  1.0951 -1.2257 -2.4818
 3655SOL     OW22600   3.078   0.352   6.775 -0.2155  0.0770 -0.2890
 3655SOL    HW122601   3.019   0.346   6.849 -1.1092 -1.6932 -1.1585
 3655SOL    HW222602   3.022   0.350   6.697 -1.5721  0.8188  0.6623
 3656SOL     OW22603   4.269   3.293   2.792  0.2580 -0.0268 -0.9460
 3656SOL    HW122604   4.213   3.223   2.825  2.1788 -1.2172 -0.1697
 3656SOL    HW222605   4.354   3.249   2.785  0.2758 -0.3095  1.0867
 3657SOL     OW22606   3.773   3.465   1.959  0.1313  0.2352 -0.3507
 3657SOL    HW122607   3.803   3.429   1.875 -0.0689 -2.5031  0.7345
 3657SOL    HW222608   3.708   3.530   1.933  1.4726  1.8198  0.3281
 3658SOL     OW22609   1.095   1.447  17.645  0.5713 -0.3649  0.0162
 3658SOL    HW122610   1.062   1.412  17.728 -0.4708  1.5608  0.4161
 3658SOL    HW222611   1.014   1.438  17.596 -0.5589 -0.1424  1.8122
 3659SOL     OW22612   1.906   4.042   3.551  0.4020 -0.0765  1.1966
 3659SOL    HW122613   1.881   3.950   3.549  0.0957  0.0444 -0.3578
 3659SOL    HW222614   1.820   4.079   3.531  1.6103  2.3673  0.5690
 3660SOL     OW22615   3.173   1.624   8.296 -0.1539 -0.0288 -0.3207
 3660SOL    HW122616   3.235   1.645   8.366 -1.4909 -0.2760  0.9516
 3660SOL    HW222617   3.188   1.697   8.237  0.4521 -0.9403 -1.3031
 3661SOL     OW22618   1.084   4.137   1.338 -0.0381  0.0305 -0.2513
 3661SOL    HW122619   1.044   4.161   1.254  0.2836 -0.2492 -0.4836
 3661SOL    HW222620   0.997   4.132   1.379  1.1327 -3.4616  1.7739
 3662SOL     OW22621   4.292   4.425   5.894  0.3757  0.0646  0.2143
 3662SOL    HW122622   4.260   4.394   5.809 -0.5757 -1.1292  1.0009
 3662SOL    HW222623   4.291   4.338   5.935  1.1215 -0.4716 -0.9003
 3663SOL     OW22624   1.222   3.480   3.327 -0.3101 -0.2585  0.4303
 3663SOL    HW122625   1.150   3.517   3.378 -0.1830  1.3795 -0.5723
 3663SOL    HW222626   1.184   3.402   3.287  1.1992 -0.8761  0.1919
 3664SOL     OW22627   1.914   2.443  11.591  0.1853  0.0924 -0.0842
 3664SOL    HW122628   1.948   2.436  11.501  0.8515  1.0014  0.0887
 3664SOL    HW222629   1.989   2.475  11.641  0.9191 -0.5315 -0.7794
 3665SOL     OW22630   2.479   4.672   1.625  0.0708  0.1731 -0.3518
 3665SOL    HW122631   2.384   4.675   1.617 -0.1240 -0.6823  1.7630
 3665SOL    HW222632   2.501   0.023   1.657  0.7770  0.4153 -1.4807
 3666SOL     OW22633   0.082   1.343  10.072 -0.1229  0.1405  0.3527
 3666SOL    HW122634   0.101   1.362  10.163  3.2593  2.4487 -0.8418
 3666SOL    HW222635   0.006   1.398  10.056  1.2412  2.4987  2.0708
 3667SOL     OW22636   3.839   4.726   8.026  0.2304 -0.1777  0.2946
 3667SOL    HW122637   3.804   0.060   7.973 -0.9940 -0.6132  0.5078
 3667SOL    HW222638   3.807   4.653   7.972  1.5141 -0.9448  0.5662
 3668SOL     OW22639   1.121   4.506   8.899  0.0851  0.0743  0.8563
 3668SOL    HW122640   1.041   4.476   8.940 -0.8466 -0.5866 -1.4140
 3668SOL    HW222641   1.162   4.421   8.884 -0.8010 -0.0738 -0.7549
 3669SOL     OW22642   1.004   4.390   1.458  0.3336 -0.0873  0.0310
 3669SOL    HW122643   1.090   4.371   1.421  0.9841  1.6876  0.6066
 3669SOL    HW222644   1.016   4.466   1.516  1.3711 -0.1052 -0.1608
 3670SOL     OW22645   4.056   1.510  14.215  0.0904 -0.7235 -0.3010
 3670SOL    HW122646   4.027   1.530  14.304  0.2008 -2.6783  0.1683
 3670SOL    HW222647   3.975   1.499  14.166  0.2269 -3.6098  0.0973
 3671SOL     OW22648   0.966   1.457   4.028  0.5978 -0.0696 -0.1583
 3671SOL    HW122649   1.033   1.456   4.097 -0.8078  1.2886  1.2319
 3671SOL    HW222650   0.896   1.453   4.092  0.6455 -0.3246 -0.1223
 3672SOL     OW22651   2.407   3.849   9.325  0.7468 -0.6732  0.0570
 3672SOL    HW122652   2.321   3.857   9.367  1.0041  0.0140  0.4577
 3672SOL    HW222653   2.454   3.931   9.339 -1.4393  0.6231 -0.2184
 3673SOL     OW22654   0.186   1.299   0.518 -0.2563  0.1785 -0.7394
 3673SOL    HW122655   0.243   1.251   0.457  0.0397 -3.4154  2.3608
 3673SOL    HW222656   0.129   1.228   0.550  2.5622 -1.5239  0.4705
 3674SOL     OW22657   2.552   1.773   6.126  0.1160 -0.3285 -0.0267
 3674SOL    HW122658   2.522   1.864   6.123  3.1615  0.6172 -1.5361
 3674SOL    HW222659   2.495   1.743   6.056  0.9225  2.2299 -1.7736
 3675SOL     OW22660   3.440   3.172   5.455 -0.2678 -0.1405 -0.0417
 3675SOL    HW122661   3.532   3.146   5.455  0.5824  2.8539  1.1701
 3675SOL    HW222662   3.429   3.236   5.525 -0.4682  0.9923 -1.1076
 3676SOL     OW22663   2.411   4.311   3.106  0.0391  0.3049  0.4408
 3676SOL    HW122664   2.401   4.393   3.058 -0.0244  0.3138  0.4695
 3676SOL    HW222665   2.464   4.254   3.051 -1.4082 -0.8066  0.2132
 3677SOL     OW22666   0.048   4.551  13.353  0.5349  0.4183 -0.0876
 3677SOL    HW122667   0.038   4.645  13.367 -0.0245 -0.2723  4.2599
 3677SOL    HW222668   0.139   4.549  13.382  0.4088  0.4632  0.3102
 3678SOL     OW22669   0.465   1.117   6.009  0.0193  0.5915  0.3885
 3678SOL    HW122670   0.551   1.150   6.036 -0.8075  2.1471  1.0691
 3678SOL    HW222671   0.484   1.056   5.937 -1.4129  1.8140 -1.0118
 3679SOL     OW22672   0.970   2.267   0.803 -0.2487  0.2804  0.1430
 3679SOL    HW122673   0.912   2.192   0.791 -0.8031  0.5329  1.2756
 3679SOL    HW222674   1.053   2.227   0.776  0.0750  0.0502  1.4609
 3680SOL     OW22675   2.160   1.476   3.738 -0.0571  0.1964  0.6978
 3680SOL    HW122676   2.184   1.569   3.736 -0.5697  0.3178  0.3351
 3680SOL    HW222677   2.244   1.439   3.710 -1.2414 -1.7746 -0.1925
 3681SOL     OW22678   1.084   2.981   1.793 -0.4347  0.3985  0.0775
 3681SOL    HW122679   1.053   3.024   1.873  0.4593 -3.0532  2.2983
 3681SOL    HW222680   1.002   2.953   1.754 -1.2050 -1.4838  3.0552
 3682SOL     OW22681   3.555   0.070   8.129 -0.5338 -0.1880 -0.4887
 3682SOL    HW122682   3.562   0.067   8.033  0.8878 -0.4514 -0.3823
 3682SOL    HW222683   3.516   4.722   8.147 -2.1534  0.8121  0.6624
 3683SOL     OW22684   4.539   0.680   5.922 -0.0517  0.3265 -0.1285
 3683SOL    HW122685   4.621   0.728   5.924  0.4974 -0.6052 -0.4449
 3683SOL    HW222686   4.483   0.757   5.936  0.3517  0.8809 -1.5019
 3684SOL     OW22687   1.454   3.192  13.016  0.2951 -0.0806 -0.1802
 3684SOL    HW122688   1.429   3.129  12.948 -2.2056  0.8685 -0.1806
 3684SOL    HW222689   1.464   3.132  13.090 -0.9422 -0.3293 -0.2148
 3685SOL     OW22690   2.205   3.476   2.762 -0.3863 -0.2885  0.2887
 3685SOL    HW122691   2.204   3.380   2.758  0.7888 -0.1967 -1.8934
 3685SOL    HW222692   2.161   3.499   2.680 -1.4831 -1.9500  0.4162
 3686SOL     OW22693   1.263   2.199   1.101  0.6647 -0.1041 -0.4798
 3686SOL    HW122694   1.353   2.225   1.084  0.6545  0.2743  0.0418
 3686SOL    HW222695   1.223   2.265   1.157 -0.8909 -0.1151 -1.5789
 3687SOL     OW22696   2.371   2.192  10.447 -0.3113  0.0720  0.2996
 3687SOL    HW122697   2.296   2.154  10.493 -1.4381  1.4987 -0.3482
 3687SOL    HW222698   2.401   2.254  10.512  3.7803 -2.2753  0.6614
 3688SOL     OW22699   1.406   1.264   3.194 -0.0395 -0.1637 -0.2962
 3688SOL    HW122700   1.314   1.274   3.168  0.0714 -1.0427 -1.0156
 3688SOL    HW222701   1.436   1.353   3.175  0.1845  0.2337  1.8793
 3689SOL     OW22702   0.549   3.837   4.292  0.1474 -0.2501 -0.3141
 3689SOL    HW122703   0.628   3.859   4.243  0.7685 -0.6708  0.5046
 3689SOL    HW222704   0.592   3.796   4.367 -0.3411  0.9793  0.6313
 3690SOL     OW22705   0.027   0.345   2.730 -0.3620 -0.0323  0.2545
 3690SOL    HW122706   0.041   0.250   2.727 -3.3846 -0.3555 -4.0460
 3690SOL    HW222707   4.692   0.355   2.793 -2.1911 -3.4280 -1.2555
 3691SOL     OW22708   0.456   2.308   2.874  0.6343  0.6245 -0.1546
 3691SOL    HW122709   0.480   2.399   2.858 -0.1790  0.8682  0.0009
 3691SOL    HW222710   0.364   2.314   2.899  0.9723 -1.2304  1.5253
 3692SOL     OW22711   1.248   1.216   3.622 -0.2097  0.2225  0.0853
 3692SOL    HW122712   1.217   1.287   3.679 -1.7255 -1.0925  0.9266
 3692SOL    HW222713   1.162   1.193   3.587 -1.0623  0.9550  1.6850
 3693SOL     OW22714   2.842   4.232   6.146 -0.2667 -0.0075 -0.1198
 3693SOL    HW122715   2.866   4.208   6.057 -0.3598  2.3118 -0.7553
 3693SOL    HW222716   2.885   4.317   6.149  0.7796 -0.5988  1.8539
 3694SOL     OW22717   4.021   4.733   3.877  0.5609 -0.1535  0.5923
 3694SOL    HW122718   4.095   0.056   3.886  0.4047  0.1292 -0.0485
 3694SOL    HW222719   4.033   4.706   3.786  0.9514 -0.8625  0.8486
 3695SOL     OW22720   4.468   2.902   6.829 -0.2660 -0.2911  0.4141
 3695SOL    HW122721   4.438   2.992   6.819 -0.1601 -0.3558 -0.4569
 3695SOL    HW222722   4.431   2.861   6.751  0.6028  1.3174 -0.8347
 3696SOL     OW22723   4.164   2.954   1.623 -0.0737 -0.3213  0.2064
 3696SOL    HW122724   4.121   2.868   1.626  0.4934 -0.5917  0.6148
 3696SOL    HW222725   4.253   2.936   1.654  0.0912 -0.0169 -0.0953
 3697SOL     OW22726   3.922   3.002   1.157 -0.4853  0.6997  0.2954
 3697SOL    HW122727   3.903   2.964   1.243 -2.0995 -0.8951 -0.7544
 3697SOL    HW222728   3.894   3.093   1.164  1.7825  1.4114  0.0592
 3698SOL     OW22729   2.088   1.112   1.196 -0.6486  0.2309  0.3251
 3698SOL    HW122730   2.010   1.160   1.222 -0.2693  0.2080  1.4794
 3698SOL    HW222731   2.151   1.178   1.226 -0.0059  0.4139 -1.4168
 3699SOL     OW22732   2.187   3.546   6.475 -0.3092 -0.8986 -0.4275
 3699SOL    HW122733   2.278   3.571   6.495  0.6832 -3.1411 -2.1931
 3699SOL    HW222734   2.178   3.457   6.508  0.6429 -0.4432  1.1168
 3700SOL     OW22735   1.960   0.441  13.288  0.1132 -0.0412 -0.2597
 3700SOL    HW122736   1.930   0.353  13.265 -0.0849 -0.4838  1.6743
 3700SOL    HW222737   2.039   0.435  13.235  0.5673  0.3563  0.3815
 3701SOL     OW22738   1.014   0.016  11.752  0.2899 -0.0946 -0.3380
 3701SOL    HW122739   0.967   0.097  11.769  1.8315  0.3460  1.8453
 3701SOL    HW222740   0.951   4.682  11.765  0.1966  0.0604  0.0317
 3702SOL     OW22741   2.103   1.552  11.391 -0.2447  0.1146  0.0503
 3702SOL    HW122742   2.141   1.485  11.335 -0.4739  0.4510 -0.5020
 3702SOL    HW222743   2.178   1.602  11.422  0.6892 -2.0657  1.3462
 3703SOL     OW22744   4.555   0.843  13.493  0.1449  0.1882 -0.4883
 3703SOL    HW122745   4.637   0.801  13.520 -1.0246 -1.2504  0.8021
 3703SOL    HW222746   4.572   0.849  13.399  1.8050 -0.0387 -0.2040
 3704SOL     OW22747   3.517   1.736   2.103  0.2598  0.0590  0.0320
 3704SOL    HW122748   3.495   1.646   2.128  1.0900 -0.5375 -1.4172
 3704SOL    HW222749   3.484   1.795   2.172 -1.0474  0.4216 -0.8973
 3705SOL     OW22750   1.601   2.968  11.596 -0.3965 -0.5841  0.0560
 3705SOL    HW122751   1.689   2.945  11.566 -0.7320 -1.7525 -0.0478
 3705SOL    HW222752   1.609   3.042  11.656 -1.1378 -0.8376  0.4616
 3706SOL     OW22753   0.848   3.759   2.954 -0.4031 -0.5983  0.0715
 3706SOL    HW122754   0.772   3.794   3.001  0.1031  1.0085 -0.3225
 3706SOL    HW222755   0.871   3.842   2.913 -0.7281 -1.7212 -2.3838
 3707SOL     OW22756   2.025   3.399   3.422  0.0518 -0.0837  0.4986
 3707SOL    HW122757   1.979   3.477   3.453 -0.9325  0.6996 -2.8874
 3707SOL    HW222758   1.956   3.339   3.395 -1.1699  1.5728 -0.0336
 3708SOL     OW22759   3.223   1.556   2.979  0.0174 -0.2681  0.0725
 3708SOL    HW122760   3.287   1.540   2.910  0.5981  2.4492 -0.0069
 3708SOL    HW222761   3.166   1.479   2.986 -0.0617 -0.2200 -0.0224
 3709SOL     OW22762   0.453   3.907  10.559 -0.0642 -0.8387 -0.1903
 3709SOL    HW122763   0.495   3.959  10.490  1.1055  0.7675  1.7258
 3709SOL    HW222764   0.523   3.887  10.621 -1.4471 -2.6495  0.8019
 3710SOL     OW22765   4.444   0.115   2.652 -0.1210  0.3235 -0.1674
 3710SOL    HW122766   4.377   0.140   2.588 -0.7538  0.5975  0.6063
 3710SOL    HW222767   4.524   0.123   2.600  0.9935 -0.7220  1.3676
 3711SOL     OW22768   2.923   0.742   8.502 -0.3512  0.2939 -0.2463
 3711SOL    HW122769   2.948   0.748   8.595  2.9004 -0.4378 -1.0724
 3711SOL    HW222770   2.924   0.834   8.479 -0.4093  0.0780 -1.0866
 3712SOL     OW22771   0.860   1.473  14.953 -0.2561  0.5532 -0.2044
 3712SOL    HW122772   0.928   1.513  15.007 -1.9158 -1.2770  3.2115
 3712SOL    HW222773   0.871   1.521  14.870  1.5630  0.1742 -0.1837
 3713SOL     OW22774   1.191   2.658   9.918  0.3440 -0.3439 -0.1363
 3713SOL    HW122775   1.249   2.726   9.883 -1.5109  0.6976 -1.1776
 3713SOL    HW222776   1.137   2.708   9.979  0.7019 -1.4898  1.1064
 3714SOL     OW22777   2.393   3.241   7.548  0.4694  0.1544  0.3971
 3714SOL    HW122778   2.317   3.188   7.524 -0.6944  0.6932  2.9178
 3714SOL    HW222779   2.349   3.321   7.576  0.3348  0.4646 -0.6936
 3715SOL     OW22780   3.383   3.474   2.368 -0.2471 -0.6858  0.0488
 3715SOL    HW122781   3.304   3.470   2.313 -0.3243  2.0134 -0.0285
 3715SOL    HW222782   3.422   3.387   2.355 -1.3800 -1.0370 -1.0597
 3716SOL     OW22783   2.101   4.256   4.943 -0.1605  0.1990  0.0427
 3716SOL    HW122784   2.127   4.282   4.854  2.7506 -0.2193  0.7704
 3716SOL    HW222785   2.181   4.216   4.976  1.3110  0.6622 -2.8867
 3717SOL     OW22786   4.440   3.902   5.994  1.0594 -0.6517 -0.2411
 3717SOL    HW122787   4.355   3.882   6.032  0.8789 -0.9590 -0.8118
 3717SOL    HW222788   4.486   3.829   5.952  2.9349  0.1353  0.4000
 3718SOL     OW22789   3.919   3.517  10.045 -0.0076  0.1274  0.0142
 3718SOL    HW122790   3.977   3.521  10.121  0.1888  3.1496 -0.2981
 3718SOL    HW222791   3.980   3.543   9.975 -0.6112  1.6359  0.0639
 3719SOL     OW22792   2.915   1.985   6.881  0.4654 -0.5305  0.0930
 3719SOL    HW122793   2.973   2.039   6.936 -1.3340 -0.1636  1.6467
 3719SOL    HW222794   2.980   1.948   6.821 -0.5418  0.0321 -1.3399
 3720SOL     OW22795   2.378   1.056  10.453  0.3095 -0.0066  0.1953
 3720SOL    HW122796   2.332   0.972  10.460 -2.3680  1.2982 -1.6355
 3720SOL    HW222797   2.465   1.036  10.488 -0.5147  0.6067  2.5984
 3721SOL     OW22798   1.864   4.407   5.053 -0.6354  0.0528 -0.0850
 3721SOL    HW122799   1.928   4.474   5.028 -0.5924 -0.1340 -0.4638
 3721SOL    HW222800   1.836   4.442   5.138  0.3282  0.3852  0.0956
 3722SOL     OW22801   0.034   4.257   1.495 -0.1885 -0.4080  0.0181
 3722SOL    HW122802   0.025   4.212   1.578 -1.3749  2.4255  1.4286
 3722SOL    HW222803   0.020   4.177   1.444 -0.3316  0.1536 -0.8253
 3723SOL     OW22804   0.680   4.695   0.244 -0.0593  0.5517 -0.3854
 3723SOL    HW122805   0.643   4.623   0.194 -0.0473 -1.5366  2.6204
 3723SOL    HW222806   0.627   0.032   0.216  0.4827  1.2602  0.4261
 3724SOL     OW22807   0.609   3.362  10.118 -0.1089 -0.6220  0.5041
 3724SOL    HW122808   0.551   3.437  10.107 -1.3553 -1.6863 -0.1299
 3724SOL    HW222809   0.680   3.381  10.055  0.6184  1.2922  1.8906
 3725SOL     OW22810   1.516   2.398   6.274  0.1670  0.1696  0.1383
 3725SOL    HW122811   1.485   2.327   6.219 -1.2792  0.4486  0.5730
 3725SOL    HW222812   1.607   2.368   6.269  0.0335 -0.7819  2.9263
 3726SOL     OW22813   0.708   4.708   0.528 -0.1317  0.0484 -0.3452
 3726SOL    HW122814   0.735   4.616   0.531  0.3209  0.2959  3.2956
 3726SOL    HW222815   0.703   4.723   0.434 -0.4705  0.9367 -0.1836
 3727SOL     OW22816   3.864   3.735   5.492  0.2898  0.6740  0.4941
 3727SOL    HW122817   3.849   3.671   5.562  2.4752 -0.7701 -0.3493
 3727SOL    HW222818   3.796   3.795   5.523  0.6777 -0.0729  2.8296
 3728SOL     OW22819   2.278   2.836   5.597  0.8399 -0.0604  0.3798
 3728SOL    HW122820   2.199   2.782   5.596  1.1787 -0.5274 -1.1028
 3728SOL    HW222821   2.258   2.892   5.522  2.0165  0.0508  0.1486
 3729SOL     OW22822   0.963   1.556   7.080  0.3175 -0.0233  0.1771
 3729SOL    HW122823   0.974   1.575   6.986 -1.3484 -3.4727 -0.7322
 3729SOL    HW222824   0.948   1.644   7.114  1.8787  0.4165 -0.2642
 3730SOL     OW22825   1.571   1.668  16.184  0.2568 -0.7036 -0.7036
 3730SOL    HW122826   1.567   1.583  16.229  4.1224  1.0279  2.9217
 3730SOL    HW222827   1.597   1.715  16.263 -2.9779 -0.7713  0.3901
 3731SOL     OW22828   3.746   0.456  14.882 -0.5500  0.0129 -0.5980
 3731SOL    HW122829   3.814   0.523  14.877  0.3219 -0.9638 -1.6467
 3731SOL    HW222830   3.766   0.412  14.965 -0.5668  0.9822 -0.0668
 3732SOL     OW22831   0.947   3.614  11.542  0.1683 -0.9833 -0.1380
 3732SOL    HW122832   0.860   3.580  11.562 -0.2922  0.6215  0.6416
 3732SOL    HW222833   0.976   3.645  11.628  0.9764  0.9996 -1.1029
 3733SOL     OW22834   3.457   4.144   3.988  0.0439  0.1051  0.8755
 3733SOL    HW122835   3.479   4.064   4.035  0.9920  0.0668  0.3836
 3733SOL    HW222836   3.529   4.199   4.021 -2.3337  3.0081  1.1797
 3734SOL     OW22837   3.178   4.428   2.592  0.0632 -0.3121 -0.5560
 3734SOL    HW122838   3.175   4.334   2.574  1.1512 -0.2276 -1.1104
 3734SOL    HW222839   3.190   4.469   2.507  1.2236  0.7208  0.1120
 3735SOL     OW22840   4.729   3.723   5.688  0.0272 -0.1564  0.3698
 3735SOL    HW122841   4.666   3.731   5.616  0.3514  1.7015  0.3068
 3735SOL    HW222842   4.672   3.678   5.750 -1.8911 -1.1370 -2.1073
 3736SOL     OW22843   3.461   0.594   6.840 -0.2316 -0.1484  0.3445
 3736SOL    HW122844   3.382   0.542   6.847 -0.8718  0.7911  0.1327
 3736SOL    HW222845   3.510   0.537   6.899 -0.2216 -1.3243 -0.8064
 3737SOL     OW22846   2.150   2.708   2.600 -0.4634 -0.3197  0.0930
 3737SOL    HW122847   2.173   2.622   2.564 -0.2279 -1.5520  3.2515
 3737SOL    HW222848   2.072   2.707   2.545  0.3414 -0.1416 -1.0490
 3738SOL     OW22849   4.666   0.428  15.506 -0.1478 -0.3386 -0.0343
 3738SOL    HW122850   0.016   0.426  15.546  0.0475  1.3210 -0.3747
 3738SOL    HW222851   4.658   0.346  15.458 -0.2753 -0.6511  0.5206
 3739SOL     OW22852   4.426   2.296   9.130 -0.6500 -0.5065 -0.0947
 3739SOL    HW122853   4.456   2.334   9.212  2.6106 -0.6855 -1.1818
 3739SOL    HW222854   4.362   2.365   9.111 -1.7544 -1.2336  1.0027
 3740SOL     OW22855   4.644   2.482  16.045  0.5856  0.6348 -0.1621
 3740SOL    HW122856   4.651   2.412  15.980 -4.5090 -1.1628  1.2510
 3740SOL    HW222857   4.647   2.565  15.998  0.1113 -0.2978 -1.8620
 3741SOL     OW22858   3.958   2.692   4.350 -0.0209  0.1785 -0.3571
 3741SOL    HW122859   3.929   2.633   4.421  0.4154 -0.2611 -0.5427
 3741SOL    HW222860   3.899   2.676   4.276  0.8951 -1.2086 -0.7905
 3742SOL     OW22861   1.317   4.713   8.985 -0.0044 -0.3553  0.6519
 3742SOL    HW122862   1.282   4.631   8.950 -0.0012 -0.3145  0.5516
 3742SOL    HW222863   1.253   0.045   8.966 -2.2134 -1.2339  5.1409
 3743SOL     OW22864   0.233   2.934   1.647  0.1082  0.1646 -0.5462
 3743SOL    HW122865   0.254   2.851   1.604  1.3794 -0.1319  0.6682
 3743SOL    HW222866   0.307   2.993   1.631 -0.9462  1.8611  0.7873
 3744SOL     OW22867   0.074   2.284   0.968 -0.2902 -0.1607  0.3027
 3744SOL    HW122868   0.052   2.214   1.030  2.2044  0.1842  1.5801
 3744SOL    HW222869   0.071   2.236   0.885 -1.6780 -0.5968  0.6137
 3745SOL     OW22870   3.560   0.889   4.334  0.2029 -0.2928 -0.5960
 3745SOL    HW122871   3.585   0.872   4.243 -0.4563 -3.7599 -0.1116
 3745SOL    HW222872   3.634   0.860   4.387 -0.7557 -0.3109  0.7412
 3746SOL     OW22873   3.867   2.066   7.700 -0.9366 -0.4185 -0.1305
 3746SOL    HW122874   3.838   2.132   7.637 -0.9525  0.7080  1.0496
 3746SOL    HW222875   3.921   2.006   7.649  1.6980  3.2645 -1.6364
 3747SOL     OW22876   2.955   2.769   8.192  0.3273  0.2990  0.1929
 3747SOL    HW122877   2.922   2.850   8.230  1.9974  0.1062  2.0955
 3747SOL    HW222878   3.036   2.772   8.243  1.1778  0.5386 -1.1535
 3748SOL     OW22879   2.469   3.549  15.701  0.2445  0.6395 -0.0679
 3748SOL    HW122880   2.511   3.463  15.694  1.9225  1.6344 -2.0634
 3748SOL    HW222881   2.541   3.607  15.677  2.4080 -2.3884 -0.8439
 3749SOL     OW22882   0.276   2.584   0.106 -0.0209  0.1657 -0.0747
 3749SOL    HW122883   0.346   2.649   0.116 -0.0033 -0.0135  0.9393
 3749SOL    HW222884   0.222   2.611   0.180 -1.2601  0.6605 -1.1689
 3750SOL     OW22885   1.010   4.497  10.518  0.2792  0.2681  0.7016
 3750SOL    HW122886   0.977   4.522  10.605 -0.9890  1.9030 -0.2688
 3750SOL    HW222887   1.026   4.404  10.533  1.7303  0.3082 -0.5536
 3751SOL     OW22888   0.177   4.019   8.948  0.3977 -0.1133  0.0590
 3751SOL    HW122889   0.141   4.072   8.877 -1.1362  0.5860  1.3460
 3751SOL    HW222890   0.266   4.054   8.957  0.4581 -0.1797 -0.2753
 3752SOL     OW22891   1.208   1.874  16.257  0.0487 -0.4065  0.7056
 3752SOL    HW122892   1.174   1.897  16.344 -2.2551  0.9683 -0.5543
 3752SOL    HW222893   1.258   1.950  16.227 -0.0605 -1.4324 -2.0640
 3753SOL     OW22894   2.642   2.772  12.421  0.2971 -0.0518 -0.0607
 3753SOL    HW122895   2.704   2.842  12.439  0.4759 -0.6999  1.8343
 3753SOL    HW222896   2.565   2.828  12.407  0.7435  0.5649 -0.0028
 3754SOL     OW22897   0.313   3.911  13.128  0.0191  0.5974  0.3798
 3754SOL    HW122898   0.337   3.858  13.052 -1.8756  0.3650 -0.0560
 3754SOL    HW222899   0.234   3.952  13.095  0.5457  1.4163  0.1367
 3755SOL     OW22900   2.823   4.436  11.343  0.2111 -0.1306  0.3378
 3755SOL    HW122901   2.731   4.453  11.360  0.5605  1.4707  0.6361
 3755SOL    HW222902   2.802   4.373  11.274 -2.1174 -0.8629  1.7299
 3756SOL     OW22903   0.532   2.849   9.617  0.5169 -0.2372 -0.4329
 3756SOL    HW122904   0.563   2.832   9.528  1.3100 -2.4907  0.2725
 3756SOL    HW222905   0.565   2.937   9.638 -0.2708  0.0204 -0.2868
 3757SOL     OW22906   0.172   0.311   5.600 -0.5696 -0.1355  0.3470
 3757SOL    HW122907   0.096   0.366   5.621  0.7139  1.9736 -0.5941
 3757SOL    HW222908   0.145   0.274   5.515 -2.1293  2.1598 -0.1810
 3758SOL     OW22909   1.156   2.427   1.225 -0.2755 -0.0728 -0.4247
 3758SOL    HW122910   1.104   2.480   1.285  1.0773  0.4896  0.2475
 3758SOL    HW222911   1.198   2.505   1.188 -0.5142  1.5215  2.6986
 3759SOL     OW22912   0.577   3.924   4.824 -0.5341 -0.0822 -1.0485
 3759SOL    HW122913   0.576   3.830   4.807 -1.3829 -0.3884  0.5921
 3759SOL    HW222914   0.640   3.933   4.896  0.1274 -2.5435 -1.3219
 3760SOL     OW22915   2.086   3.006  14.179 -0.3349 -0.0947  0.1466
 3760SOL    HW122916   2.058   3.091  14.210  0.3898 -0.1958  1.0644
 3760SOL    HW222917   2.170   3.006  14.224 -1.8384 -0.4771  2.9210
 3761SOL     OW22918   0.875   0.014   4.232 -0.2621  0.3569 -0.0167
 3761SOL    HW122919   0.951   0.071   4.246  1.1946 -1.5750 -0.0180
 3761SOL    HW222920   0.834   0.022   4.318  1.9441 -0.4908  1.1014
 3762SOL     OW22921   0.045   2.738  10.937  0.1339 -0.5317  0.2735
 3762SOL    HW122922   0.007   2.650  10.940 -1.6282  0.1782 -1.4278
 3762SOL    HW222923   0.079   2.744  10.848 -0.3963 -0.1071  0.1007
 3763SOL     OW22924   1.869   2.949   7.522 -0.4206  0.7536  1.0175
 3763SOL    HW122925   1.821   2.999   7.587 -1.0863  0.8288  0.4646
 3763SOL    HW222926   1.888   3.018   7.457 -0.4278 -0.0923  0.1169
 3764SOL     OW22927   0.684   0.084   9.408 -0.1121 -0.3095 -0.0470
 3764SOL    HW122928   0.684   4.733   9.446  1.2961 -0.3726 -0.1996
 3764SOL    HW222929   0.777   0.101   9.417 -0.5530  1.5841  1.0654
 3765SOL     OW22930   3.539   0.742   6.600  0.1187  0.2580 -0.7181
 3765SOL    HW122931   3.487   0.707   6.672 -0.3084  0.7613 -0.7727
 3765SOL    HW222932   3.532   0.666   6.542 -1.8310 -0.1264  0.0241
 3766SOL     OW22933   0.007   3.908   6.169  0.7693  0.1946  0.3122
 3766SOL    HW122934   0.079   3.969   6.188  0.6870  0.1277  0.8459
 3766SOL    HW222935   0.035   3.875   6.084  0.9239  0.3740  0.2923
 3767SOL     OW22936   3.229   1.995   0.277 -0.4029 -0.4336  0.1331
 3767SOL    HW122937   3.313   2.011   0.234 -1.0957  0.9718 -0.7245
 3767SOL    HW222938   3.204   2.088   0.282  0.5958 -0.1354 -0.4181
 3768SOL     OW22939   3.071   4.315  11.417 -0.3243  0.1904 -0.2678
 3768SOL    HW122940   3.128   4.297  11.342 -1.2017 -0.6651 -0.7366
 3768SOL    HW222941   3.017   4.386  11.382 -1.6326 -0.6110  0.1196
 3769SOL     OW22942   3.980   2.956  16.913 -0.6427 -0.6967 -0.4555
 3769SOL    HW122943   4.002   3.019  16.844 -1.3722 -1.1310 -1.0727
 3769SOL    HW222944   4.067   2.930  16.943 -1.0358 -2.0790 -0.5236
 3770SOL     OW22945   3.727   1.154   3.539  0.7340  0.1630  0.3860
 3770SOL    HW122946   3.728   1.215   3.466  0.5385  1.0089  1.0860
 3770SOL    HW222947   3.795   1.184   3.599  1.2934 -1.1507  0.3961
 3771SOL     OW22948   4.676   1.918   0.260  0.4847  0.2357  0.1134
 3771SOL    HW122949   4.694   1.999   0.307 -2.6404  1.2926 -0.5505
 3771SOL    HW222950   4.617   1.946   0.190  1.4034  0.9419 -0.3778
 3772SOL     OW22951   2.447   2.561   7.915  0.5464  0.1765  0.1451
 3772SOL    HW122952   2.457   2.575   8.009 -0.7950  1.0584  0.1502
 3772SOL    HW222953   2.486   2.638   7.875 -0.1901  0.4131 -0.1080
 3773SOL     OW22954   1.111   1.440   4.950 -0.1083 -0.1896  0.1861
 3773SOL    HW122955   1.181   1.403   5.004 -0.0397 -2.6961 -1.6054
 3773SOL    HW222956   1.035   1.393   4.983 -0.7812 -1.0102 -2.5121
 3774SOL     OW22957   2.546   2.962   6.725 -0.4133  0.3096  0.3266
 3774SOL    HW122958   2.557   3.051   6.692 -1.4450  0.3520  0.0956
 3774SOL    HW222959   2.545   2.972   6.821  2.2845  0.0423  0.3912
 3775SOL     OW22960   2.818   4.426   7.009 -0.3358 -0.1921  0.2194
 3775SOL    HW122961   2.866   4.425   7.092  2.2937  1.6655 -1.3138
 3775SOL    HW222962   2.746   4.487   7.027  1.4027  0.5892  4.6080
 3776SOL     OW22963   1.440   2.983   3.442 -0.1871  0.0335  0.3945
 3776SOL    HW122964   1.391   3.038   3.382 -2.1794 -1.7722  0.3459
 3776SOL    HW222965   1.427   2.894   3.408  0.6568  0.8702 -2.1276
 3777SOL     OW22966   3.900   1.151  13.378  0.1095 -0.5167 -0.2558
 3777SOL    HW122967   3.881   1.094  13.453  0.1144 -0.1653  0.0173
 3777SOL    HW222968   3.984   1.118  13.347  1.4840  1.5433  1.2331
 3778SOL     OW22969   1.280   1.622  16.143  0.0648 -0.3376 -0.4353
 3778SOL    HW122970   1.223   1.690  16.179  2.0269  1.8566 -1.4832
 3778SOL    HW222971   1.362   1.669  16.155 -0.6443  0.5953  0.8382
 3779SOL     OW22972   0.684   3.331   5.597 -0.5094 -0.3249  0.1464
 3779SOL    HW122973   0.654   3.336   5.506 -1.1897 -1.8460  0.2921
 3779SOL    HW222974   0.619   3.383   5.645  0.8321  1.4197  0.0933
 3780SOL     OW22975   1.567   3.616   0.516 -0.2262 -0.3683 -0.5066
 3780SOL    HW122976   1.556   3.620   0.611 -1.5910  0.1555 -0.6835
 3780SOL    HW222977   1.647   3.564   0.507  1.1490  1.5878  0.5522
 3781SOL     OW22978   1.687   2.374  15.444  0.0891  0.8361 -0.0555
 3781SOL    HW122979   1.652   2.362  15.532 -0.3309 -0.2033 -0.3661
 3781SOL    HW222980   1.638   2.449  15.410 -1.6453 -0.2338  0.0792
 3782SOL     OW22981   3.902   3.156   8.236 -0.0540 -0.1603 -0.0073
 3782SOL    HW122982   3.937   3.233   8.281  1.3665  0.0028 -1.3782
 3782SOL    HW222983   3.981   3.132   8.187 -0.3472  1.4635 -1.3036
 3783SOL     OW22984   3.245   2.266   7.271  0.0390 -0.3526  0.2830
 3783SOL    HW122985   3.152   2.258   7.252 -0.1705  0.9241  0.7799
 3783SOL    HW222986   3.233   2.262   7.366 -0.3520  0.3100  0.2626
 3784SOL     OW22987   2.314   3.214   9.677  0.0359  0.0454 -0.0059
 3784SOL    HW122988   2.285   3.141   9.731  0.7149 -0.2501 -0.0425
 3784SOL    HW222989   2.310   3.288   9.738 -0.9095 -2.5840  3.0743
 3785SOL     OW22990   1.140   3.663  14.855  0.1315 -0.0535 -0.7173
 3785SOL    HW122991   1.196   3.721  14.804 -0.6715  0.7027 -0.7256
 3785SOL    HW222992   1.051   3.697  14.848  0.5422  1.0926 -0.3815
 3786SOL     OW22993   0.115   2.376   8.988  0.1992  0.7192  0.2517
 3786SOL    HW122994   0.060   2.300   9.009 -0.2007  0.9281 -0.0410
 3786SOL    HW222995   0.093   2.391   8.896  1.1652 -0.7982 -0.2420
 3787SOL     OW22996   2.881   0.076   2.446  0.7474 -0.2921 -0.4740
 3787SOL    HW122997   2.867   4.723   2.415  0.1149 -0.0269 -0.9572
 3787SOL    HW222998   2.787   0.091   2.457  0.9088 -0.5590  1.2042
 3788SOL     OW22999   2.266   0.386   7.502  0.3762 -0.7734 -0.7822
 3788SOL    HW123000   2.187   0.347   7.538 -0.1272 -1.1450 -2.2749
 3788SOL    HW223001   2.241   0.370   7.411  0.6653 -2.0928 -0.6273
 3789SOL     OW23002   1.127   4.419  16.544  0.9954  0.2180  0.5271
 3789SOL    HW123003   1.218   4.421  16.516  1.0286 -0.1649  0.6071
 3789SOL    HW223004   1.105   4.510  16.561 -2.1130 -0.2148 -1.0890
 3790SOL     OW23005   3.619   2.061   5.211  0.2474  0.6354  0.0494
 3790SOL    HW123006   3.532   2.092   5.236 -0.3101 -1.1035  0.2568
 3790SOL    HW223007   3.597   1.970   5.188 -0.1403  0.8027 -0.2340
 3791SOL     OW23008   3.823   1.400   5.151 -0.4491  0.1534  0.4454
 3791SOL    HW123009   3.839   1.426   5.060  1.8696 -0.3574  0.7028
 3791SOL    HW223010   3.800   1.307   5.152 -0.1376  0.0854  2.8400
 3792SOL     OW23011   1.011   3.784   5.785 -0.4031  0.0796 -0.2085
 3792SOL    HW123012   1.053   3.709   5.826 -0.0753 -0.3435 -1.3096
 3792SOL    HW223013   1.009   3.852   5.852 -0.1790  2.1076 -2.2516
 3793SOL     OW23014   3.372   4.276   1.997 -0.3693  0.2359 -0.2397
 3793SOL    HW123015   3.391   4.185   1.978 -2.0043  0.0173 -0.8333
 3793SOL    HW223016   3.391   4.314   1.912 -1.4397  1.5941  0.1207
 3794SOL     OW23017   3.741   2.032  12.900 -0.1696 -0.4439 -0.2178
 3794SOL    HW123018   3.714   1.942  12.919 -0.0922 -0.1408  1.2593
 3794SOL    HW223019   3.836   2.031  12.905 -0.3444 -2.7365  2.4887
 3795SOL     OW23020   0.466   0.438   3.757 -0.0913 -0.1762  0.6850
 3795SOL    HW123021   0.456   0.415   3.850  0.0639  0.8252  0.9490
 3795SOL    HW223022   0.549   0.485   3.759 -0.4066  0.3475  1.5139
 3796SOL     OW23023   2.099   1.886   2.512 -0.1415  0.1288  0.4359
 3796SOL    HW123024   2.168   1.920   2.569  1.8387 -0.1961 -1.7638
 3796SOL    HW223025   2.070   1.811   2.565  0.1034 -0.1969  0.1086
 3797SOL     OW23026   1.986   2.027   6.106 -0.6487 -0.3478 -0.1712
 3797SOL    HW123027   1.926   1.967   6.152 -1.0781  0.5988  0.5065
 3797SOL    HW223028   1.918   2.089   6.078 -0.3723  0.3406  0.6733
 3798SOL     OW23029   4.156   2.450   7.463 -0.0690 -0.3265  0.1237
 3798SOL    HW123030   4.230   2.396   7.432 -2.3876 -2.5976 -1.4518
 3798SOL    HW223031   4.211   2.525   7.486 -0.0102 -0.7946  1.5295
 3799SOL     OW23032   1.812   1.231   4.865  0.2697 -0.2818  0.0142
 3799SOL    HW123033   1.845   1.171   4.797  0.7580  0.9756 -0.8596
 3799SOL    HW223034   1.855   1.311   4.834  3.6360 -1.1945  2.3453
 3800SOL     OW23035   0.368   0.490   5.665 -0.4108 -0.1911 -0.6332
 3800SOL    HW123036   0.312   0.567   5.672  0.8784  0.6913 -0.1942
 3800SOL    HW223037   0.298   0.426   5.649 -0.0350 -1.1469  1.4241
 3801SOL     OW23038   0.882   0.545   7.154 -0.4234  0.2588  0.1529
 3801SOL    HW123039   0.858   0.637   7.158 -3.0812 -0.4960  0.9673
 3801SOL    HW223040   0.837   0.511   7.231  0.3285  2.3476  1.5179
 3802SOL     OW23041   1.821   1.802   8.669 -0.0557 -0.4947 -0.0979
 3802SOL    HW123042   1.877   1.876   8.643 -1.3804  0.2384 -0.8617
 3802SOL    HW223043   1.756   1.834   8.732 -0.2741 -1.3558  0.1187
 3803SOL     OW23044   3.599   4.312   9.010  0.1194  0.1901  0.3251
 3803SOL    HW123045   3.602   4.408   9.010  1.4002  0.1405 -0.6989
 3803SOL    HW223046   3.689   4.294   8.985 -0.2311 -1.5817  0.3624
 3804SOL     OW23047   1.038   0.046  16.020 -0.1860 -0.3969  0.4501
 3804SOL    HW123048   0.999   0.060  15.934 -1.0723  0.3886  0.9754
 3804SOL    HW223049   1.084   0.125  16.051  2.1052 -1.5870  0.0775
 3805SOL     OW23050   0.174   3.055   6.284 -0.6347  0.3175  0.2042
 3805SOL    HW123051   0.197   3.045   6.192 -0.9198  0.6261  0.1045
 3805SOL    HW223052   0.188   2.966   6.317 -1.1334  0.4355  0.7431
 3806SOL     OW23053   1.686   1.028   2.293  0.5293  0.8476  0.1280
 3806SOL    HW123054   1.626   1.103   2.290  0.1242  0.4795 -1.0560
 3806SOL    HW223055   1.643   0.969   2.354  0.4746 -1.0830 -1.7709
 3807SOL     OW23056   0.185   0.405   4.533  0.0219  0.5149 -0.0296
 3807SOL    HW123057   0.178   0.327   4.477 -1.2647  2.0429 -2.0332
 3807SOL    HW223058   0.133   0.374   4.607  2.4491 -0.6758  1.1700
 3808SOL     OW23059   0.531   3.156   6.718  0.5189 -0.1577 -0.1504
 3808SOL    HW123060   0.476   3.215   6.769 -2.0223 -1.7965 -1.0099
 3808SOL    HW223061   0.485   3.141   6.635  1.0201  1.2106 -0.6744
 3809SOL     OW23062   1.736   4.476   2.504 -0.1664  0.4467 -0.0294
 3809SOL    HW123063   1.677   4.532   2.454  1.2682 -0.7987 -3.0782
 3809SOL    HW223064   1.691   4.391   2.503 -0.6511  0.7501 -2.7350
 3810SOL     OW23065   3.879   1.419  11.101 -0.7369  0.4519 -0.7117
 3810SOL    HW123066   3.936   1.379  11.167  0.3162  2.9170 -0.1361
 3810SOL    HW223067   3.870   1.342  11.045  0.4175  0.4746 -0.9249
 3811SOL     OW23068   2.780   3.011   0.962 -0.8614 -0.3203 -0.5014
 3811SOL    HW123069   2.750   3.096   0.931 -1.5571 -0.5615 -0.4851
 3811SOL    HW223070   2.770   3.033   1.054  1.7788 -1.7014  0.1304
 3812SOL     OW23071   2.081   2.146   2.147 -0.4377 -0.1255 -0.3147
 3812SOL    HW123072   2.067   2.077   2.083 -2.3230  0.2137 -0.2726
 3812SOL    HW223073   2.175   2.139   2.163 -0.8571 -2.8832  0.9238
 3813SOL     OW23074   0.428   4.568   4.789  0.7014 -0.0106  0.7117
 3813SOL    HW123075   0.415   4.540   4.879 -1.9156 -0.9973  0.0354
 3813SOL    HW223076   0.355   4.628   4.773  1.1008  1.1405  3.3668
 3814SOL     OW23077   2.985   4.681   5.117  0.5377  0.1367  0.6141
 3814SOL    HW123078   3.022   0.005   5.052  0.1217 -0.3059 -0.0357
 3814SOL    HW223079   3.057   4.618   5.113 -0.1816 -0.6193 -0.4343
 3815SOL     OW23080   0.027   2.675   0.704 -0.8033 -0.3419 -0.1374
 3815SOL    HW123081   0.055   2.733   0.775 -1.2754 -1.5470  1.0294
 3815SOL    HW223082   0.074   2.717   0.632 -0.6613 -0.1045  0.0923
 3816SOL     OW23083   2.166   4.027   8.592  0.0540  0.4581 -0.0679
 3816SOL    HW123084   2.168   4.122   8.584  1.2073  0.2595 -2.2085
 3816SOL    HW223085   2.186   4.015   8.684  1.3326 -1.9756 -0.6530
 3817SOL     OW23086   2.259   3.829   4.640 -0.2068  0.4053  0.2019
 3817SOL    HW123087   2.242   3.771   4.566 -1.0925  1.6250 -0.5411
 3817SOL    HW223088   2.346   3.795   4.663  0.2956  0.3637 -1.7481
 3818SOL     OW23089   2.767   0.693   3.908  1.2811  0.4594  0.0835
 3818SOL    HW123090   2.674   0.710   3.893  0.7347 -0.7105  1.9980
 3818SOL    HW223091   2.769   0.689   4.004  2.8019 -2.0526 -0.0460
 3819SOL     OW23092   2.476   1.112   6.506 -0.0251 -0.0274 -0.1071
 3819SOL    HW123093   2.566   1.085   6.523 -0.0421  0.2884  0.4684
 3819SOL    HW223094   2.474   1.083   6.415  4.2375 -0.4771 -0.0714
 3820SOL     OW23095   2.888   2.106   1.437  0.4339  0.0834 -0.3390
 3820SOL    HW123096   2.880   2.094   1.532  0.0612 -1.1807 -0.5281
 3820SOL    HW223097   2.973   2.148   1.430 -1.0352  3.2676  1.0972
 3821SOL     OW23098   2.713   0.793   6.528  0.5903  0.2621 -0.3653
 3821SOL    HW123099   2.692   0.732   6.456 -1.1034  1.3731 -0.8152
 3821SOL    HW223100   2.734   0.724   6.590 -4.2123 -0.2161  0.7874
 3822SOL     OW23101   3.501   1.457   3.667 -0.6633 -0.9924 -0.3524
 3822SOL    HW123102   3.540   1.488   3.585  0.5127 -0.9221  0.2280
 3822SOL    HW223103   3.511   1.531   3.727 -0.0875 -1.7358  0.4652
 3823SOL     OW23104   2.705   2.725   1.991  0.1360  0.1099  0.4170
 3823SOL    HW123105   2.626   2.733   2.045  2.0752  2.0667  3.0272
 3823SOL    HW223106   2.717   2.630   1.993  0.1806  0.0767 -2.0583
 3824SOL     OW23107   2.527   0.118  16.860  0.1984  0.0452 -0.3147
 3824SOL    HW123108   2.606   0.077  16.895 -0.5671  0.2264  1.6805
 3824SOL    HW223109   2.486   0.054  16.803  1.2120 -0.5635 -0.3602
 3825SOL     OW23110   1.601   2.399   3.262  0.2006 -0.1887 -0.2789
 3825SOL    HW123111   1.579   2.316   3.218 -0.3411 -0.7313  1.0189
 3825SOL    HW223112   1.570   2.462   3.198 -1.3301  0.7407  1.3848
 3826SOL     OW23113   0.237   3.356   9.881  0.3056 -0.5390 -0.2143
 3826SOL    HW123114   0.185   3.277   9.890  0.3249 -0.6442 -0.9807
 3826SOL    HW223115   0.171   3.416   9.915  0.1224 -0.1094 -1.3197
 3827SOL     OW23116   1.053   0.410   2.247  0.3276 -0.2890 -0.1338
 3827SOL    HW123117   1.050   0.378   2.337  3.9270 -1.8478 -0.5603
 3827SOL    HW223118   0.996   0.355   2.193  0.6205  0.3948 -1.1211
 3828SOL     OW23119   0.232   4.309   8.365  0.1449  0.1661  0.2131
 3828SOL    HW123120   0.309   4.253   8.357  1.1942  1.3390  2.1830
 3828SOL    HW223121   0.184   4.285   8.445 -1.1031 -1.2190 -0.9513
 3829SOL     OW23122   3.908   0.905  11.240 -0.7089 -0.4475  0.4627
 3829SOL    HW123123   3.874   0.994  11.243  1.9246  0.5580  1.2660
 3829SOL    HW223124   4.003   0.917  11.245 -0.5062 -1.2067 -1.6068
 3830SOL     OW23125   4.209   0.771  10.894 -0.2376 -0.2645  0.1315
 3830SOL    HW123126   4.218   0.695  10.837  0.4357  0.9867 -1.4296
 3830SOL    HW223127   4.115   0.781  10.911 -0.3738 -0.0026 -0.7813
 3831SOL     OW23128   0.635   0.570   0.495  0.8370  0.1320 -0.1825
 3831SOL    HW123129   0.623   0.489   0.445 -2.1753 -0.2386  1.1961
 3831SOL    HW223130   0.613   0.539   0.582 -1.4926 -1.4487 -1.3304
 3832SOL     OW23131   1.236   4.601   3.790  0.0685 -0.7824  0.4313
 3832SOL    HW123132   1.148   4.586   3.756  0.0529 -2.4168  1.1940
 3832SOL    HW223133   1.288   4.562   3.720 -0.3827 -0.0856 -0.2996
 3833SOL     OW23134   4.338   0.558   3.241 -0.2471 -0.5832 -0.8383
 3833SOL    HW123135   4.365   0.627   3.179 -0.3000  0.3819  0.2166
 3833SOL    HW223136   4.406   0.548   3.307  0.1368  1.3650 -0.9380
 3834SOL     OW23137   0.500   0.731   8.175  0.1178  0.2109 -0.5092
 3834SOL    HW123138   0.464   0.815   8.203  0.9187  0.0227  1.1164
 3834SOL    HW223139   0.591   0.759   8.183  0.3836 -1.1109  1.1712
 3835SOL     OW23140   3.657   3.637   2.906  0.9718  0.3361  0.0778
 3835SOL    HW123141   3.591   3.704   2.892 -0.2552 -0.9003 -0.0075
 3835SOL    HW223142   3.610   3.555   2.920 -2.1387  2.7217  3.6539
 3836SOL     OW23143   0.898   4.346   9.027 -0.0354  0.1539  0.6471
 3836SOL    HW123144   0.847   4.409   9.077 -1.2413  0.4237 -0.9134
 3836SOL    HW223145   0.832   4.282   9.001 -0.4830  0.5658  0.7756
 3837SOL     OW23146   1.980   2.009   8.628 -0.4587 -0.1830 -0.4970
 3837SOL    HW123147   2.051   2.042   8.682  0.6409 -2.7532 -0.3734
 3837SOL    HW223148   2.025   1.970   8.553 -1.9767  0.0070 -1.5218
 3838SOL     OW23149   3.417   2.476   5.109 -0.6237 -0.1732 -0.0533
 3838SOL    HW123150   3.415   2.432   5.024 -0.7525 -1.0306  0.3915
 3838SOL    HW223151   3.332   2.450   5.145 -1.4695 -0.3993 -2.2107
 3839SOL     OW23152   3.679   2.012  14.627  0.0172 -0.1055 -0.0830
 3839SOL    HW123153   3.663   2.100  14.594 -2.3779  0.3962  2.4558
 3839SOL    HW223154   3.744   2.024  14.696  0.4857  0.1052 -0.5621
 3840SOL     OW23155   0.790   2.911   4.971 -0.0183 -0.3124  0.6050
 3840SOL    HW123156   0.730   2.863   4.913  0.6294  0.7674 -0.9664
 3840SOL    HW223157   0.828   2.962   4.900 -2.7160  1.5732  0.5045
 3841SOL     OW23158   0.711   4.057   5.929  0.2213  0.0884  0.3279
 3841SOL    HW123159   0.724   4.129   5.867  0.3470 -0.0933  0.1457
 3841SOL    HW223160   0.689   4.105   6.009  0.9445 -2.1909  1.9070
 3842SOL     OW23161   1.530   2.381   3.636  0.6143 -0.5532  0.1055
 3842SOL    HW123162   1.507   2.344   3.551  1.7417  0.0577 -0.4636
 3842SOL    HW223163   1.446   2.360   3.678  1.3241 -1.2121  1.1912
 3843SOL     OW23164   3.964   1.810   2.447  0.4331  0.0242 -0.2780
 3843SOL    HW123165   3.986   1.751   2.376 -3.7751 -1.0608 -0.6660
 3843SOL    HW223166   3.885   1.843   2.405  1.3262  0.6239 -1.4958
 3844SOL     OW23167   4.099   4.607  16.402  0.2669  0.1634 -0.2575
 3844SOL    HW123168   4.024   4.651  16.362 -0.1987  0.0193  0.4587
 3844SOL    HW223169   4.102   4.527  16.349  0.7226 -0.4026  0.6251
 3845SOL     OW23170   1.551   1.939   4.253  0.1564 -0.0746 -0.5952
 3845SOL    HW123171   1.578   1.974   4.169  0.6065 -1.5388 -1.0734
 3845SOL    HW223172   1.546   1.845   4.236  0.4734  0.2247 -2.3045
 3846SOL     OW23173   4.371   2.421   9.969  0.2128 -0.1518  0.0959
 3846SOL    HW123174   4.396   2.424  10.061  1.4620  1.9104 -0.3114
 3846SOL    HW223175   4.423   2.485   9.920  1.7693 -1.8419 -0.4795
 3847SOL     OW23176   1.293   2.647   1.145 -0.7343 -0.0228  0.2915
 3847SOL    HW123177   1.341   2.584   1.092 -1.0211  0.7984 -0.9316
 3847SOL    HW223178   1.361   2.698   1.189  0.1378 -0.5087 -0.4992
 3848SOL     OW23179   0.922   2.561   1.783 -0.0753 -0.1008 -0.5219
 3848SOL    HW123180   0.935   2.607   1.700 -2.0912 -0.4704 -1.0498
 3848SOL    HW223181   1.008   2.574   1.821 -0.2940  0.8659 -0.3601
 3849SOL     OW23182   4.288   2.035   8.723  0.5926  1.0829  0.2464
 3849SOL    HW123183   4.356   2.038   8.656  1.1970 -0.3550  0.7892
 3849SOL    HW223184   4.219   2.091   8.687  0.0009 -0.3547 -0.8745
 3850SOL     OW23185   3.061   2.194   8.103  0.8707  0.4335 -0.6725
 3850SOL    HW123186   3.071   2.281   8.065 -1.8962  0.8964 -0.3904
 3850SOL    HW223187   3.136   2.186   8.162 -1.7332 -0.7605  2.4749
 3851SOL     OW23188   0.752   3.631   4.783 -0.1847 -0.4666  0.1927
 3851SOL    HW123189   0.713   3.594   4.862 -2.6456  0.6288 -0.5266
 3851SOL    HW223190   0.843   3.619   4.811  0.1179 -2.0524 -1.4233
 3852SOL     OW23191   2.345   2.363   6.772  0.2997 -0.2425 -0.9198
 3852SOL    HW123192   2.430   2.328   6.744  1.1307  0.8289  0.2629
 3852SOL    HW223193   2.325   2.312   6.851  1.0740 -2.0921 -1.8999
 3853SOL     OW23194   1.497   0.088  13.648  0.4886  0.2805  0.4560
 3853SOL    HW123195   1.523   0.036  13.724 -1.0140 -0.9879  0.0860
 3853SOL    HW223196   1.405   0.112  13.660 -0.1832 -1.6720 -0.8555
 3854SOL     OW23197   0.916   0.743  17.341  0.5227 -0.1116 -0.1937
 3854SOL    HW123198   0.960   0.662  17.365 -0.0914 -0.4756 -0.2916
 3854SOL    HW223199   0.935   0.749  17.248 -1.1313  1.0392 -0.4604
 3855SOL     OW23200   3.370   0.791   7.303  0.0824 -0.1600 -0.2935
 3855SOL    HW123201   3.430   0.865   7.297  0.3792 -0.4834 -1.1708
 3855SOL    HW223202   3.369   0.762   7.212 -0.1498  0.4068 -0.4706
 3856SOL     OW23203   1.453   0.349   5.348  0.1552  0.5058 -0.3960
 3856SOL    HW123204   1.511   0.400   5.404  2.1297 -1.8652 -0.3202
 3856SOL    HW223205   1.521   0.297   5.306  1.2957  1.8938 -0.2730
 3857SOL     OW23206   0.786   1.785   6.769 -0.6430 -0.1301 -0.3028
 3857SOL    HW123207   0.863   1.728   6.765 -0.1146  0.6376 -1.2254
 3857SOL    HW223208   0.724   1.738   6.714 -0.5152  0.5650 -1.0434
 3858SOL     OW23209   2.724   2.520   4.038  0.0936  0.0183 -0.4568
 3858SOL    HW123210   2.664   2.484   4.103  0.9789 -0.9969 -0.2020
 3858SOL    HW223211   2.740   2.609   4.069  1.5199  0.0188 -1.1755
 3859SOL     OW23212   4.382   3.543   2.867  0.4303 -0.3548  0.1166
 3859SOL    HW123213   4.347   3.456   2.849 -0.4841 -0.6058  3.1715
 3859SOL    HW223214   4.309   3.596   2.897  0.2093  0.0785 -1.1613
 3860SOL     OW23215   4.655   4.349   3.662  0.1592 -0.2593  0.7430
 3860SOL    HW123216   4.733   4.398   3.691  0.2163 -0.1072  0.3309
 3860SOL    HW223217   4.676   4.312   3.577 -0.0333 -0.1094  0.6285
 3861SOL     OW23218   2.489   1.091   4.345  0.5827 -0.0057  0.3722
 3861SOL    HW123219   2.470   1.019   4.284 -0.3011  2.9218 -2.8496
 3861SOL    HW223220   2.570   1.133   4.316  0.5733  0.3469  0.8635
 3862SOL     OW23221   0.835   0.053  17.177 -0.2340 -0.3283  0.2152
 3862SOL    HW123222   0.919   0.079  17.140 -0.2581 -1.3655 -0.5747
 3862SOL    HW223223   0.792   0.136  17.156 -0.3038  0.1485  2.2444
 3863SOL     OW23224   3.733   0.737   3.252  0.0326 -0.2428 -0.1981
 3863SOL    HW123225   3.725   0.814   3.196 -0.8432  0.2566  0.6117
 3863SOL    HW223226   3.642   0.716   3.276  0.2238  0.3118  0.9688
 3864SOL     OW23227   0.157   3.674   5.295 -0.0552  0.4556 -0.1681
 3864SOL    HW123228   0.203   3.604   5.248 -2.3836 -0.4064 -1.1830
 3864SOL    HW223229   0.085   3.690   5.233  0.1346  2.5759  0.1716
 3865SOL     OW23230   1.212   2.229  16.798  0.3805 -0.5593  0.3732
 3865SOL    HW123231   1.224   2.249  16.705  1.2040  0.9418  0.7976
 3865SOL    HW223232   1.117   2.226  16.811  0.8780  0.5036  4.1501
 3866SOL     OW23233   2.166   0.429   6.614 -0.2031  1.1429 -0.6881
 3866SOL    HW123234   2.204   0.429   6.702  0.1105 -0.8019 -0.8180
 3866SOL    HW223235   2.075   0.408   6.636 -0.1102  1.1255 -0.3246
 3867SOL     OW23236   2.751   0.853   7.151 -0.0581 -0.3022 -0.3876
 3867SOL    HW123237   2.689   0.910   7.103 -0.5258 -0.6618 -0.2075
 3867SOL    HW223238   2.699   0.826   7.227 -1.9149  0.4433 -1.3704
 3868SOL     OW23239   2.328   2.370   8.286  0.6987  0.1808  0.2726
 3868SOL    HW123240   2.306   2.300   8.224  0.1137 -0.9923  1.8100
 3868SOL    HW223241   2.283   2.338   8.364 -0.3239  3.0721  0.8737
 3869SOL     OW23242   4.065   4.616   7.480 -0.6764 -0.1077 -0.4622
 3869SOL    HW123243   4.060   4.559   7.557 -2.5147 -2.7994 -2.5478
 3869SOL    HW223244   4.123   4.686   7.510 -0.9139  0.8003 -2.1093
 3870SOL     OW23245   0.719   0.552   8.855 -0.0634 -0.3026  0.7677
 3870SOL    HW123246   0.671   0.592   8.782 -0.9754  0.3439  1.7229
 3870SOL    HW223247   0.699   0.460   8.841  0.6399 -0.3626  0.1613
 3871SOL     OW23248   2.938   3.547   6.531  0.2704  0.3002  0.3820
 3871SOL    HW123249   2.892   3.591   6.602 -0.9115 -1.0765  0.4818
 3871SOL    HW223250   2.969   3.477   6.588  3.7785  0.8276 -0.8667
 3872SOL     OW23251   4.440   0.022   6.733 -0.2379 -0.0527 -0.5611
 3872SOL    HW123252   4.354   4.718   6.720 -1.3963  1.9467  0.8998
 3872SOL    HW223253   4.490   4.696   6.680 -2.4869 -1.6459 -0.8226
 3873SOL     OW23254   4.455   0.955   4.089 -0.2751  0.1484 -0.2839
 3873SOL    HW123255   4.482   1.020   4.025  0.5917 -1.9151 -2.0113
 3873SOL    HW223256   4.398   0.892   4.044  0.4213 -0.0836 -0.8249
 3874SOL     OW23257   3.673   3.817   0.613  1.1192 -0.5644  0.3160
 3874SOL    HW123258   3.687   3.746   0.676  0.0381  0.0143  1.2036
 3874SOL    HW223259   3.761   3.826   0.576  1.3505  0.1867  1.0466
 3875SOL     OW23260   4.022   3.683   2.461 -0.4870  0.6184 -0.1616
 3875SOL    HW123261   3.980   3.767   2.483  1.3726  1.0769  1.6544
 3875SOL    HW223262   4.008   3.645   2.548 -0.7184  0.5238 -0.2401
 3876SOL     OW23263   0.020   0.447  14.175  0.3640  0.6801 -0.2217
 3876SOL    HW123264   4.672   0.438  14.220  0.3597 -2.4929 -0.9101
 3876SOL    HW223265   0.020   0.543  14.174 -0.8464  0.6623 -1.4410
 3877SOL     OW23266   3.402   2.532   2.931 -0.2354  0.4056  0.1082
 3877SOL    HW123267   3.375   2.619   2.961 -1.6803  0.0935 -0.2858
 3877SOL    HW223268   3.351   2.469   2.983  0.3030  1.6733  2.1957
 3878SOL     OW23269   1.444   2.391  16.759 -0.0910 -0.5780 -0.5396
 3878SOL    HW123270   1.358   2.376  16.798  0.0845  2.3977  1.0121
 3878SOL    HW223271   1.418   2.427  16.674  0.1064  0.6273 -0.0909
 3879SOL     OW23272   1.124   0.959   4.235  0.6880  0.8413  0.7110
 3879SOL    HW123273   1.176   0.999   4.165  0.8425 -0.6925 -0.0498
 3879SOL    HW223274   1.147   1.020   4.305  1.6329  0.7884  0.4549
 3880SOL     OW23275   1.812   1.597   2.357 -0.4461 -0.2512 -0.7265
 3880SOL    HW123276   1.804   1.517   2.304 -0.6615  0.6015 -1.9904
 3880SOL    HW223277   1.903   1.592   2.386 -1.0416  0.6809  1.2990
 3881SOL     OW23278   4.506   4.582   3.810  0.1780  0.0242 -0.1705
 3881SOL    HW123279   4.556   4.507   3.779 -0.9376 -0.9892  0.4614
 3881SOL    HW223280   4.529   4.652   3.750  4.2765 -2.3105 -1.3213
 3882SOL     OW23281   1.820   0.911   9.731 -0.7070  0.0788  0.7626
 3882SOL    HW123282   1.874   0.929   9.809  0.8760 -0.3074 -0.2329
 3882SOL    HW223283   1.834   0.817   9.727 -0.0396  0.2147 -0.1656
 3883SOL     OW23284   3.653   0.588  16.126 -0.0243 -0.2653  0.2605
 3883SOL    HW123285   3.691   0.617  16.043  0.4902 -1.2141  0.1601
 3883SOL    HW223286   3.707   0.518  16.162 -0.0858  0.1456  1.1500
 3884SOL     OW23287   3.814   0.969   8.713 -0.7750  0.2640 -0.2460
 3884SOL    HW123288   3.893   0.923   8.683 -0.4981  1.9398 -2.0524
 3884SOL    HW223289   3.742   0.910   8.689 -0.9962  0.9976 -1.3761
 3885SOL     OW23290   1.941   3.388  13.324  0.6222 -0.4444  0.7312
 3885SOL    HW123291   1.868   3.446  13.299  0.1562 -1.4595 -0.2781
 3885SOL    HW223292   2.009   3.417  13.263 -2.2516  1.9029 -1.4079
 3886SOL     OW23293   3.361   2.951   4.295  0.1851 -0.3762  0.0801
 3886SOL    HW123294   3.310   2.892   4.350  1.3853  0.2809  1.8759
 3886SOL    HW223295   3.449   2.913   4.295  0.2302 -0.2674  1.1518
 3887SOL     OW23296   2.617   0.556   1.988 -0.1431  0.0233 -0.3690
 3887SOL    HW123297   2.553   0.626   2.002 -1.4841 -1.5108  1.2189
 3887SOL    HW223298   2.603   0.537   1.896 -0.1886 -0.8422 -0.1820
 3888SOL     OW23299   1.144   1.792  13.768 -0.3592  0.6043 -0.4784
 3888SOL    HW123300   1.126   1.826  13.680  0.5627  2.3358  0.0104
 3888SOL    HW223301   1.206   1.859  13.796 -0.4198  0.6814 -0.5268
 3889SOL     OW23302   0.605   0.444   0.751 -0.3671 -0.6633 -0.6994
 3889SOL    HW123303   0.571   0.424   0.839 -3.7894 -1.1197 -2.1490
 3889SOL    HW223304   0.605   0.353   0.720  0.1015 -0.8763 -0.0845
 3890SOL     OW23305   4.181   0.683   4.651 -0.3973  0.5856 -0.1593
 3890SOL    HW123306   4.203   0.642   4.734  1.6315 -0.2834 -1.1441
 3890SOL    HW223307   4.090   0.653   4.648 -0.1946  0.2130 -2.6052
 3891SOL     OW23308   1.332   3.719  11.482 -0.0104  0.2725  0.6571
 3891SOL    HW123309   1.273   3.667  11.537 -1.4446 -0.0879 -1.2012
 3891SOL    HW223310   1.388   3.757  11.549 -1.5579 -0.7838  2.5495
 3892SOL     OW23311   0.995   1.210   3.473 -0.4482  0.1742 -0.7355
 3892SOL    HW123312   0.973   1.128   3.428  0.6195 -1.3230  1.4649
 3892SOL    HW223313   0.906   1.237   3.496  0.4576  1.9994  0.5492
 3893SOL     OW23314   4.520   0.181   3.181  0.9875 -0.2807  0.0110
 3893SOL    HW123315   4.563   0.202   3.098  1.0060  0.6031  0.2422
 3893SOL    HW223316   4.443   0.238   3.178  0.1633 -1.4516 -1.2868
 3894SOL     OW23317   1.600   0.799  16.454  0.3522 -0.2124 -0.9033
 3894SOL    HW123318   1.540   0.729  16.427  1.0918 -0.8043 -1.0411
 3894SOL    HW223319   1.547   0.873  16.423  1.1243 -0.6018 -3.1978
 3895SOL     OW23320   1.202   0.330   7.846 -0.1028  0.7881 -0.0334
 3895SOL    HW123321   1.211   0.403   7.907  2.0645  0.2700  0.2667
 3895SOL    HW223322   1.284   0.287   7.872 -0.6153  0.9030  1.7774
 3896SOL     OW23323   2.885   1.435  13.977 -0.0153 -0.0053  0.6800
 3896SOL    HW123324   2.817   1.413  13.913  0.9230 -2.1492  0.4121
 3896SOL    HW223325   2.889   1.359  14.035 -2.6929 -0.5491  0.1552
 3897SOL     OW23326   3.061   2.130   6.298  0.0155  0.6826 -0.3698
 3897SOL    HW123327   3.006   2.053   6.283 -0.6956  0.8956  1.1547
 3897SOL    HW223328   3.000   2.203   6.286 -1.3124 -0.5649 -1.3391
 3898SOL     OW23329   0.232   2.692  17.126 -0.3923 -0.1292  0.0977
 3898SOL    HW123330   0.182   2.627  17.175 -1.7389  0.7499 -0.1382
 3898SOL    HW223331   0.226   2.761  17.192  1.2456 -0.0839  0.2163
 3899SOL     OW23332   0.325   2.599   4.589  0.3608 -0.1854  0.1304
 3899SOL    HW123333   0.319   2.695   4.594 -1.3658 -0.2244 -1.2743
 3899SOL    HW223334   0.237   2.564   4.600  0.1979 -0.0186 -0.6802
 3900SOL     OW23335   3.392   3.841   5.069  0.8838 -0.4251 -0.2359
 3900SOL    HW123336   3.364   3.850   5.160  2.2138 -0.0160  0.1389
 3900SOL    HW223337   3.420   3.932   5.059 -2.9620  0.9071  1.0691
 3901SOL     OW23338   2.934   4.479   1.562 -0.0040 -0.0665 -0.5813
 3901SOL    HW123339   2.968   4.567   1.549 -0.7344  0.1891 -0.7686
 3901SOL    HW223340   2.845   4.498   1.591  0.3970  0.3055  0.3693
 3902SOL     OW23341   2.669   3.146  12.442  0.0063 -0.5597 -0.3489
 3902SOL    HW123342   2.599   3.094  12.401  0.6484 -0.4770 -1.5564
 3902SOL    HW223343   2.723   3.069  12.459 -1.2161 -2.0077 -2.9178
 3903SOL     OW23344   1.225   4.347   2.218 -0.3789 -0.0510  0.0819
 3903SOL    HW123345   1.172   4.269   2.200  0.5722 -0.7295  0.2554
 3903SOL    HW223346   1.311   4.310   2.236  1.1813  3.2473 -0.6200
 3904SOL     OW23347   1.863   0.123   7.861  0.1974 -0.1884 -0.2356
 3904SOL    HW123348   1.943   0.171   7.884 -0.4210  0.8141 -0.2093
 3904SOL    HW223349   1.840   0.158   7.775  1.3129  1.4740  0.1429
 3905SOL     OW23350   2.803   1.997   2.398 -0.0801 -0.3235  0.4755
 3905SOL    HW123351   2.729   2.054   2.377  0.3244  0.2924  0.7386
 3905SOL    HW223352   2.776   1.954   2.479 -1.4453 -0.0812  0.1534
 3906SOL     OW23353   4.483   0.588   8.182 -0.3962  0.2591 -0.4209
 3906SOL    HW123354   4.550   0.549   8.126  1.9539  0.0473  2.5196
 3906SOL    HW223355   4.476   0.532   8.259 -1.7069  1.8788  0.6557
 3907SOL     OW23356   1.554   4.170  17.524  0.3755 -0.8184  0.1029
 3907SOL    HW123357   1.567   4.232  17.452 -0.4041 -1.3216 -0.4700
 3907SOL    HW223358   1.544   4.089  17.474 -1.4470  1.1036 -2.6676
 3908SOL     OW23359   4.156   0.771   2.488  0.8903  0.0279  0.0836
 3908SOL    HW123360   4.172   0.680   2.462  0.8418 -0.4994  1.9207
 3908SOL    HW223361   4.094   0.746   2.557  0.4235  3.6533  0.9586
 3909SOL     OW23362   1.033   2.443   2.341 -0.7158 -0.2131  0.0771
 3909SOL    HW123363   1.096   2.415   2.408 -1.2646  0.4958  0.8791
 3909SOL    HW223364   1.010   2.528   2.377  0.8069  0.6672 -1.0139
 3910SOL     OW23365   2.512   4.566   2.748 -0.2040 -0.3518  0.2559
 3910SOL    HW123366   2.461   4.584   2.827 -2.2416 -1.6484 -0.7641
 3910SOL    HW223367   2.598   4.605   2.763  0.3779 -0.5566 -2.4881
 3911SOL     OW23368   1.988   3.081  14.464  0.1906  0.0486 -0.3426
 3911SOL    HW123369   1.972   3.149  14.399 -0.6834 -0.4264 -0.6202
 3911SOL    HW223370   2.060   3.118  14.516 -2.2748  3.6034  0.4865
 3912SOL     OW23371   3.230   2.386   3.074 -0.0305 -0.0178  0.0721
 3912SOL    HW123372   3.137   2.378   3.095 -0.4819 -1.3403 -2.5185
 3912SOL    HW223373   3.253   2.300   3.039  2.7219  0.5445  0.4950
 3913SOL     OW23374   4.324   0.276  10.798 -0.0280 -0.3460 -0.4831
 3913SOL    HW123375   4.361   0.359  10.827 -1.3452  0.4859 -1.2164
 3913SOL    HW223376   4.351   0.223  10.873  2.3113 -0.6140 -1.5197
 3914SOL     OW23377   0.379   2.164   8.525  0.7379 -0.1307  0.4821
 3914SOL    HW123378   0.311   2.140   8.589  1.6964 -2.7147  0.5382
 3914SOL    HW223379   0.383   2.087   8.467  0.2284  0.1376  0.0901
 3915SOL     OW23380   3.675   2.345   2.409  0.6971 -0.5030  0.4417
 3915SOL    HW123381   3.734   2.352   2.334  2.5003 -2.2164  1.7010
 3915SOL    HW223382   3.716   2.272   2.455  0.6731  1.0793  2.9730
 3916SOL     OW23383   1.789   1.068   8.529 -0.2488 -0.1432  0.2326
 3916SOL    HW123384   1.758   1.132   8.465  1.8044  2.7816  2.1388
 3916SOL    HW223385   1.827   1.134   8.587 -0.2013 -0.8690  1.0250
 3917SOL     OW23386   1.019   2.623   2.721 -0.1156 -0.2422  0.0976
 3917SOL    HW123387   0.961   2.563   2.674 -1.4912 -0.2848  1.8375
 3917SOL    HW223388   1.103   2.583   2.696 -0.2197 -2.0576  2.6241
 3918SOL     OW23389   3.825   3.231  15.311  0.2824  0.2337 -0.2707
 3918SOL    HW123390   3.874   3.168  15.258  1.9199  1.2774  0.0096
 3918SOL    HW223391   3.847   3.191  15.395 -0.0989  1.8775  0.6026
 3919SOL     OW23392   2.001   3.093   4.754  0.2100 -0.0035 -0.2008
 3919SOL    HW123393   2.010   3.186   4.734 -0.0439  0.0342 -0.1385
 3919SOL    HW223394   1.924   3.091   4.810  0.0617  4.0680 -0.2156
 3920SOL     OW23395   2.392   4.290   1.210  0.1870 -0.6512 -0.7131
 3920SOL    HW123396   2.350   4.217   1.256  0.7498 -0.8698 -0.5395
 3920SOL    HW223397   2.313   4.339   1.189 -0.4098 -1.8648 -1.3113
 3921SOL     OW23398   3.747   3.962  16.038 -0.0466 -0.4006 -0.1342
 3921SOL    HW123399   3.676   3.902  16.018 -0.6630 -0.2537  1.7247
 3921SOL    HW223400   3.697   4.040  16.060  0.2142 -0.2934  0.0782
 3922SOL     OW23401   4.528   1.639  12.440  0.0676 -0.2531  0.8345
 3922SOL    HW123402   4.481   1.709  12.484  0.6391 -0.5490  1.9220
 3922SOL    HW223403   4.603   1.627  12.498  0.2644  2.2772  1.1127
 3923SOL     OW23404   1.584   1.105   7.499  0.6590 -0.3028  0.6884
 3923SOL    HW123405   1.633   1.146   7.428 -0.5216 -0.9458 -0.5084
 3923SOL    HW223406   1.648   1.046   7.540  0.2602 -1.2137  0.0099
 3924SOL     OW23407   0.172   4.306   1.942  0.2074  0.3038 -0.4441
 3924SOL    HW123408   0.164   4.261   1.858  0.5440  0.3517 -0.5041
 3924SOL    HW223409   0.151   4.232   2.000  1.6197  0.5684  0.4070
 3925SOL     OW23410   1.140   1.049   4.817  0.4558  0.7870 -0.3813
 3925SOL    HW123411   1.071   1.055   4.883 -1.2060  0.2313 -2.0656
 3925SOL    HW223412   1.118   0.959   4.793 -0.0348  0.2522  2.0800
 3926SOL     OW23413   1.609   1.008   1.485 -0.4040  0.5921 -0.4544
 3926SOL    HW123414   1.664   1.019   1.563  0.0209 -0.2762 -0.6291
 3926SOL    HW223415   1.543   1.077   1.485 -1.1749 -0.1454  0.0820
 3927SOL     OW23416   2.559   1.964  11.766 -0.0643  0.0727  0.6037
 3927SOL    HW123417   2.568   2.059  11.765  0.8014 -0.0292 -1.9073
 3927SOL    HW223418   2.533   1.950  11.857 -0.8852 -1.3303  0.1389
 3928SOL     OW23419   1.065   3.809  16.701 -0.1837 -0.5488 -0.0136
 3928SOL    HW123420   1.137   3.763  16.658  1.3369  0.9257  0.9701
 3928SOL    HW223421   1.053   3.878  16.636  2.4602 -2.2566 -2.3146
 3929SOL     OW23422   3.142   3.142   5.943  0.0226  0.5648  0.0693
 3929SOL    HW123423   3.189   3.213   5.987  2.0411 -1.2080  0.7612
 3929SOL    HW223424   3.063   3.191   5.920 -0.0751  0.6159  0.5125
 3930SOL     OW23425   2.849   0.081   8.024  0.2550 -0.2151  0.3846
 3930SOL    HW123426   2.833   0.104   7.933 -2.8507 -3.4098  0.1112
 3930SOL    HW223427   2.943   0.088   8.035  0.4391 -1.0523 -0.7517
 3931SOL     OW23428   0.587   1.824   4.335  0.3519  0.4287 -0.2491
 3931SOL    HW123429   0.558   1.770   4.262 -2.2701  1.5322 -0.0175
 3931SOL    HW223430   0.554   1.907   4.302 -1.5151 -0.4278 -0.4988
 3932SOL     OW23431   4.247   2.102  14.587 -0.0563  0.0481 -0.1327
 3932SOL    HW123432   4.229   2.042  14.515  1.0136  0.7400 -0.9851
 3932SOL    HW223433   4.163   2.132  14.623 -1.6565 -0.4077 -3.4044
 3933SOL     OW23434   1.192   2.602   7.460  0.7434 -0.2313  0.0377
 3933SOL    HW123435   1.120   2.657   7.489 -0.6389 -1.3516 -1.3262
 3933SOL    HW223436   1.246   2.593   7.539  0.3700  0.5347  0.3762
 3934SOL     OW23437   4.476   3.812   7.272 -0.3497  0.3322 -0.1561
 3934SOL    HW123438   4.387   3.781   7.288 -0.9357  1.3914 -1.4237
 3934SOL    HW223439   4.509   3.812   7.362 -0.2481 -1.2842 -0.1821
 3935SOL     OW23440   1.318   1.754  15.775 -0.0592  0.2220  0.5490
 3935SOL    HW123441   1.387   1.728  15.836  2.6492 -0.0631 -2.6351
 3935SOL    HW223442   1.284   1.667  15.754  0.1582  0.4789 -0.8853
 3936SOL     OW23443   4.550   2.491  15.642 -0.4479 -0.2370 -0.1841
 3936SOL    HW123444   4.520   2.578  15.615  0.0287  0.6398  2.0812
 3936SOL    HW223445   4.506   2.432  15.582 -1.9295  1.4317 -0.7432
 3937SOL     OW23446   0.212   2.132   8.745  0.2786 -0.0835  0.3126
 3937SOL    HW123447   0.118   2.122   8.728  0.3286  2.2101 -1.2414
 3937SOL    HW223448   0.219   2.227   8.739  0.7717 -0.0172  1.8342
 3938SOL     OW23449   2.928   4.418  13.340 -0.5578  0.4734  0.1309
 3938SOL    HW123450   2.889   4.361  13.274  0.3864 -0.4819  0.3970
 3938SOL    HW223451   2.842   4.455  13.361 -0.3884  0.7898  0.2676
 3939SOL     OW23452   4.490   1.252   2.515  0.0823  0.1284  0.3558
 3939SOL    HW123453   4.547   1.281   2.586  1.3822  2.4514 -1.6314
 3939SOL    HW223454   4.552   1.236   2.444 -2.2077  0.5704 -1.7600
 3940SOL     OW23455   4.527   4.063   6.193  0.3203  0.3218  0.6402
 3940SOL    HW123456   4.607   4.015   6.172  0.0058 -0.4354  1.1788
 3940SOL    HW223457   4.469   4.016   6.134  1.0460  0.6691 -0.3557
 3941SOL     OW23458   3.395   4.063  16.281  0.5311 -0.1209 -0.1609
 3941SOL    HW123459   3.407   4.074  16.376 -1.1584 -1.1323  0.1785
 3941SOL    HW223460   3.379   3.969  16.270  0.9951 -0.1304 -0.7189
 3942SOL     OW23461   2.127   1.228   9.567  0.0041  0.0338  0.5165
 3942SOL    HW123462   2.044   1.188   9.592 -0.7737 -0.2113 -2.4323
 3942SOL    HW223463   2.087   1.315   9.555  1.1306  0.2096 -1.9934
 3943SOL     OW23464   2.270   0.546  11.409 -0.0097  0.3014  0.1527
 3943SOL    HW123465   2.329   0.479  11.374  0.7950  0.9880  0.1947
 3943SOL    HW223466   2.269   0.603  11.333  1.0450  0.1268  0.0175
 3944SOL     OW23467   4.249   1.721   4.049 -0.1524  0.6052  0.8097
 3944SOL    HW123468   4.172   1.776   4.036  0.4685  0.9692 -1.3475
 3944SOL    HW223469   4.231   1.683   4.135  1.0964 -0.8319  0.4299
 3945SOL     OW23470   4.589   3.661   7.096 -0.1118 -0.3042  0.3855
 3945SOL    HW123471   4.517   3.601   7.074 -0.2486  0.3401 -0.9045
 3945SOL    HW223472   4.550   3.720   7.161 -0.3764  0.2546 -0.2767
 3946SOL     OW23473   4.314   4.096  17.458 -0.8281 -0.0513 -0.4804
 3946SOL    HW123474   4.283   4.042  17.385  1.3266 -2.0123  0.0303
 3946SOL    HW223475   4.383   4.145  17.414  0.7590  1.1544  3.3704
 3947SOL     OW23476   1.673   0.573   0.175  0.6807  0.0306  0.0851
 3947SOL    HW123477   1.763   0.599   0.196  0.0565  1.5882  0.7408
 3947SOL    HW223478   1.667   0.480   0.196  0.7806  0.5499  2.3434
 3948SOL     OW23479   4.096   0.270   5.997 -0.0745 -0.3805 -0.2054
 3948SOL    HW123480   4.157   0.300   6.064 -0.6387 -0.4863  0.3624
 3948SOL    HW223481   4.031   0.218   6.045 -1.2557 -0.4867 -1.9239
 3949SOL     OW23482   3.587   3.511   0.504  0.5313 -0.1156  0.0478
 3949SOL    HW123483   3.547   3.491   0.589  1.4427 -0.8391  0.3082
 3949SOL    HW223484   3.563   3.442   0.443  1.9626  0.8109 -1.5689
 3950SOL     OW23485   0.654   1.690   0.227 -0.2489  0.1310  0.7259
 3950SOL    HW123486   0.638   1.621   0.291 -0.6565 -0.4805 -0.0331
 3950SOL    HW223487   0.560   1.699   0.207 -0.0982 -0.2123 -0.1416
 3951SOL     OW23488   4.104   1.004   2.792  0.7925 -0.3398  0.0901
 3951SOL    HW123489   4.063   1.013   2.706 -0.9484 -0.7484  0.8793
 3951SOL    HW223490   4.197   0.988   2.780  0.8410 -0.4087  0.5608
 3952SOL     OW23491   0.492   0.555   7.310 -0.0213  0.4171 -0.3708
 3952SOL    HW123492   0.472   0.615   7.382  0.8663  0.0199  0.2003
 3952SOL    HW223493   0.432   0.589   7.244 -0.7593  1.0458  0.6208
 3953SOL     OW23494   2.367   2.101  15.281  0.0902  0.2209  0.1824
 3953SOL    HW123495   2.406   2.093  15.368 -0.1594  0.2948  0.3003
 3953SOL    HW223496   2.417   2.035  15.234  0.2024 -0.6648  1.5569
 3954SOL     OW23497   2.553   0.495   2.783 -0.3665 -0.2597 -0.2610
 3954SOL    HW123498   2.474   0.510   2.835 -2.2088 -0.4865 -2.9890
 3954SOL    HW223499   2.614   0.446   2.838 -2.2197 -2.8978 -0.5619
 3955SOL     OW23500   1.938   2.928   5.726 -0.3149  0.1874  0.8549
 3955SOL    HW123501   1.950   2.846   5.678 -0.6802 -0.1897  1.4071
 3955SOL    HW223502   1.988   2.997   5.682 -0.0041  0.8588  2.2677
 3956SOL     OW23503   1.150   1.783   7.020  0.2302 -0.1582  0.3615
 3956SOL    HW123504   1.111   1.729   6.951 -0.7623 -2.5185  2.7479
 3956SOL    HW223505   1.244   1.765   7.016  0.2104 -0.4433  1.0001
 3957SOL     OW23506   4.208   3.113   3.322 -0.0681  0.0016  0.2017
 3957SOL    HW123507   4.174   3.133   3.235 -1.8153 -1.1900  0.6013
 3957SOL    HW223508   4.207   3.018   3.309  1.4510  0.0859 -0.4626
 3958SOL     OW23509   2.576   1.724  14.937  0.7938  0.1592  0.1868
 3958SOL    HW123510   2.633   1.648  14.929  2.0760  1.1134  0.1711
 3958SOL    HW223511   2.494   1.679  14.956  1.0601 -0.5311 -0.3126
 3959SOL     OW23512   2.643   2.688   2.969  0.2954 -0.4012 -0.4566
 3959SOL    HW123513   2.673   2.610   2.923  0.1677 -0.1026 -1.0453
 3959SOL    HW223514   2.551   2.669   2.987  0.3910  0.3682  0.8466
 3960SOL     OW23515   2.491   3.920  12.849 -0.1881 -0.6105 -0.0334
 3960SOL    HW123516   2.555   3.941  12.918 -0.9892 -0.3824  0.6417
 3960SOL    HW223517   2.418   3.978  12.871  0.0291  0.1316 -1.2826
 3961SOL     OW23518   2.056   0.704   7.994  0.2773  0.0085  0.1036
 3961SOL    HW123519   2.099   0.729   7.912  1.1606  1.4728  0.9987
 3961SOL    HW223520   2.124   0.734   8.055  1.1993  0.0705 -0.9570
 3962SOL     OW23521   4.248   4.732   4.210  0.0922  0.1288  0.0739
 3962SOL    HW123522   4.326   0.035   4.249  1.0283  0.5787 -2.2931
 3962SOL    HW223523   4.275   4.712   4.121 -1.2509 -1.2818 -0.0249
 3963SOL     OW23524   4.685   3.267   4.921 -0.1212  0.5712 -0.0206
 3963SOL    HW123525   4.730   3.196   4.876 -1.7134 -0.5006  0.0477
 3963SOL    HW223526   4.656   3.318   4.845 -0.9321  0.2174  0.0510
 3964SOL     OW23527   3.429   2.569   2.605  0.0418  0.5212  0.4507
 3964SOL    HW123528   3.492   2.635   2.633  0.3535  0.3750  0.0912
 3964SOL    HW223529   3.445   2.582   2.512  1.5343  1.1421  0.7850
 3965SOL     OW23530   0.290   2.430   0.754 -0.4795  0.3202 -0.5230
 3965SOL    HW123531   0.364   2.416   0.814 -0.4743  1.7806 -0.1948
 3965SOL    HW223532   0.223   2.401   0.816 -1.6564  3.5840 -0.2947
 3966SOL     OW23533   2.150   3.190  14.671 -0.0611  0.0811  0.3754
 3966SOL    HW123534   2.150   3.237  14.754 -2.0397  3.7040 -1.6347
 3966SOL    HW223535   2.190   3.256  14.614 -0.0647  1.7832  2.3515
 3967SOL     OW23536   2.565   4.540   7.108 -0.2986  0.5699  0.8581
 3967SOL    HW123537   2.487   4.514   7.060  0.3978 -1.0964  0.6025
 3967SOL    HW223538   2.537   4.500   7.191 -1.0492  1.4857  1.0340
 3968SOL     OW23539   1.177   0.871   7.683  0.1904 -0.3677 -0.1255
 3968SOL    HW123540   1.240   0.814   7.727  0.9002  0.4116 -0.1137
 3968SOL    HW223541   1.233   0.946   7.660  0.7194 -0.8458 -0.4134
 3969SOL     OW23542   3.924   3.552  12.896  0.2203  0.0512  0.2050
 3969SOL    HW123543   3.882   3.514  12.974 -1.5944  2.4906  0.4190
 3969SOL    HW223544   3.957   3.471  12.859  2.1997  1.4241 -1.0412
 3970SOL     OW23545   2.607   1.702   8.871 -0.0090 -0.6019  0.4563
 3970SOL    HW123546   2.616   1.754   8.951 -1.8260 -1.6377  1.3341
 3970SOL    HW223547   2.687   1.713   8.820  0.1678  1.5045  1.1925
 3971SOL     OW23548   0.559   0.170  16.144  0.3417  0.1896  0.3872
 3971SOL    HW123549   0.640   0.212  16.114  0.5163 -0.6814 -0.3653
 3971SOL    HW223550   0.574   0.187  16.237  2.4882  1.0429 -0.1030
 3972SOL     OW23551   0.497   0.781   0.430 -0.2641 -0.9720 -0.2810
 3972SOL    HW123552   0.547   0.863   0.442 -1.7720 -0.5247  2.9434
 3972SOL    HW223553   0.555   0.712   0.462  0.3612 -1.1182 -1.7536
 3973SOL     OW23554   4.703   3.003   0.419  0.0731  0.0535  0.1314
 3973SOL    HW123555   4.640   2.939   0.387  0.2943 -0.4248  0.6428
 3973SOL    HW223556   0.046   2.950   0.428  0.3946  0.5210  0.0300
 3974SOL     OW23557   3.789   2.224  14.271 -0.3292 -0.7274  0.4079
 3974SOL    HW123558   3.815   2.307  14.233 -2.3974 -0.3780 -0.2883
 3974SOL    HW223559   3.792   2.170  14.191  2.7259  1.3344 -0.8520
 3975SOL     OW23560   0.226   1.179   8.552 -0.0976  0.1464 -0.0805
 3975SOL    HW123561   0.254   1.116   8.618  2.0309  1.1081 -0.0539
 3975SOL    HW223562   0.182   1.114   8.497 -0.8400 -0.2391  0.9541
 3976SOL     OW23563   0.407   1.204   4.957  0.3618  0.3939  0.9084
 3976SOL    HW123564   0.419   1.113   4.985  1.1091  0.1873 -0.0978
 3976SOL    HW223565   0.454   1.243   5.032 -0.2890  0.7176  1.1533
 3977SOL     OW23566   0.862   1.020   4.302  0.2802  0.5999  0.2941
 3977SOL    HW123567   0.929   0.993   4.240 -0.0565 -2.3485  1.1969
 3977SOL    HW223568   0.897   1.101   4.338  0.5964 -0.4218  2.2641
 3978SOL     OW23569   3.727   3.678   4.910  0.1041  0.1185  0.3590
 3978SOL    HW123570   3.769   3.607   4.862 -1.3482 -0.2585 -0.3505
 3978SOL    HW223571   3.710   3.633   4.993 -4.1958  2.4160  0.7402
 3979SOL     OW23572   0.307   0.385   7.515 -0.3887 -0.3323 -0.5536
 3979SOL    HW123573   0.344   0.423   7.435 -0.3742  0.5615 -0.1182
 3979SOL    HW223574   0.361   0.423   7.585 -0.4497  0.5833 -1.0001
 3980SOL     OW23575   4.388   3.131   4.106 -0.3541  0.9351 -0.1641
 3980SOL    HW123576   4.421   3.042   4.096 -1.8663  0.3371  0.0909
 3980SOL    HW223577   4.426   3.151   4.191 -4.0387 -2.4335  2.2699
 3981SOL     OW23578   3.859   3.354   5.487  0.2626  0.1898  0.4124
 3981SOL    HW123579   3.914   3.331   5.562  0.0834  1.2666  0.8800
 3981SOL    HW223580   3.805   3.432   5.503  0.1794  0.2010  0.0663
 3982SOL     OW23581   4.130   0.062   8.241 -0.2423 -0.0101 -0.2621
 3982SOL    HW123582   4.046   0.100   8.265  0.0171  0.2518  0.2470
 3982SOL    HW223583   4.144   0.093   8.152  1.3429 -0.2590 -0.1037
 3983SOL     OW23584   4.167   3.313   6.035 -0.2890 -0.3087  0.8196
 3983SOL    HW123585   4.164   3.239   6.095 -1.5921 -2.0907 -1.4418
 3983SOL    HW223586   4.250   3.337   6.076 -1.1068  2.1291  1.0212
 3984SOL     OW23587   3.089   3.031  14.096 -0.0546 -0.0831  0.8042
 3984SOL    HW123588   3.043   2.997  14.019  1.1168  0.4021 -0.1031
 3984SOL    HW223589   3.081   3.126  14.090 -1.0923 -0.1046  1.7487
 3985SOL     OW23590   1.304   1.448   7.630  0.1185  0.3427  0.2873
 3985SOL    HW123591   1.325   1.413   7.544 -0.0160  0.1900  0.3168
 3985SOL    HW223592   1.378   1.505   7.650  1.1110  0.0420 -2.5181
 3986SOL     OW23593   3.638   0.954   2.042 -0.1841 -0.0352  0.3882
 3986SOL    HW123594   3.684   1.033   2.073  0.3398 -1.7192  3.8234
 3986SOL    HW223595   3.554   0.961   2.086  0.7628 -0.8090  2.3193
 3987SOL     OW23596   3.621   4.548  10.634  0.3146  0.0482 -0.8277
 3987SOL    HW123597   3.671   4.469  10.614  0.4862 -0.6894  2.4644
 3987SOL    HW223598   3.556   4.512  10.695  2.8282 -0.7682  1.3756
 3988SOL     OW23599   2.436   2.029   7.296 -0.1304 -0.5728  0.0895
 3988SOL    HW123600   2.437   2.123   7.282  3.6274 -0.7180 -0.6202
 3988SOL    HW223601   2.404   2.005   7.209  0.8380 -1.8655  0.0765
 3989SOL     OW23602   2.817   4.650  15.655  0.0579 -0.5174  0.4987
 3989SOL    HW123603   2.839   4.605  15.573 -0.0853  2.0497 -0.9388
 3989SOL    HW223604   2.886   4.613  15.711  1.5921  1.9831  0.2535
 3990SOL     OW23605   3.304   3.707   2.199  0.4699  0.2206  0.2348
 3990SOL    HW123606   3.255   3.781   2.236  1.2199  0.1131  1.4297
 3990SOL    HW223607   3.338   3.665   2.278 -1.2268 -0.3322  0.6625
 3991SOL     OW23608   2.848   3.807   5.905  0.4203  0.1360 -1.1279
 3991SOL    HW123609   2.894   3.798   5.989 -0.4705  0.2507 -0.6234
 3991SOL    HW223610   2.762   3.841   5.931  1.3693  0.8731  1.0288
 3992SOL     OW23611   1.791   3.222   7.652 -0.1280 -0.2784  0.1977
 3992SOL    HW123612   1.793   3.271   7.570 -1.8139  0.5384  0.6437
 3992SOL    HW223613   1.700   3.236   7.678  0.4288 -0.2686  2.1034
 3993SOL     OW23614   3.233   2.857  11.290 -0.2111 -0.8923 -0.4098
 3993SOL    HW123615   3.232   2.885  11.198 -0.8928  3.0786  0.7881
 3993SOL    HW223616   3.185   2.775  11.279  0.0952 -1.1787  0.3997
 3994SOL     OW23617   2.537   3.360   6.446  0.3297  0.1588 -0.3813
 3994SOL    HW123618   2.505   3.445   6.477 -1.9072 -1.0221  0.5356
 3994SOL    HW223619   2.474   3.348   6.375 -0.7201 -0.5732  0.6558
 3995SOL     OW23620   4.091   2.022   6.598 -0.2256 -0.2145 -0.4921
 3995SOL    HW123621   4.053   2.039   6.512  0.0902 -0.5096 -0.6957
 3995SOL    HW223622   4.015   1.976   6.633 -0.3280  2.3407  2.6416
 3996SOL     OW23623   1.432   2.291  15.918  0.2753  0.0060 -0.0658
 3996SOL    HW123624   1.405   2.201  15.900  1.1865 -0.1061 -0.8474
 3996SOL    HW223625   1.380   2.305  15.997  3.8285 -1.2029  2.4404
 3997SOL     OW23626   1.158   2.074   3.831 -0.1585 -0.4428  0.1751
 3997SOL    HW123627   1.123   1.994   3.871 -0.2028 -1.8049 -2.6010
 3997SOL    HW223628   1.110   2.135   3.887 -3.0287 -1.8928 -0.6965
 3998SOL     OW23629   4.714   3.280  14.930  0.2500  0.3648 -0.8393
 3998SOL    HW123630   4.638   3.221  14.928  0.3528  0.2226 -0.5430
 3998SOL    HW223631   0.023   3.243  14.855 -1.2665 -0.2988 -1.4454
 3999SOL     OW23632   1.518   2.321   1.762  0.0694  0.3263  0.1652
 3999SOL    HW123633   1.439   2.269   1.777 -1.9765  3.4650  0.1966
 3999SOL    HW223634   1.475   2.406   1.755 -1.6889 -0.6211 -0.6018
 4000SOL     OW23635   1.762   0.613   0.500  0.2864 -0.0251  0.0885
 4000SOL    HW123636   1.720   0.530   0.481 -0.3629  0.3395 -0.0615
 4000SOL    HW223637   1.807   0.588   0.580  1.0507  0.3905 -0.2074
 4001SOL     OW23638   3.553   2.693   7.122 -0.3813 -0.1786  0.7412
 4001SOL    HW123639   3.549   2.650   7.036 -1.7369 -2.2530  1.8335
 4001SOL    HW223640   3.499   2.627   7.166  1.5101 -1.5392  1.0504
 4002SOL     OW23641   2.289   3.979   2.100  0.3916  0.3383 -0.0508
 4002SOL    HW123642   2.243   3.915   2.045  1.4727  2.1547 -3.0870
 4002SOL    HW223643   2.224   4.017   2.159  2.0292  0.2021  1.8545
 4003SOL     OW23644   0.658   2.559   6.217  0.3089  0.3148 -0.1702
 4003SOL    HW123645   0.723   2.532   6.151  1.8511  1.0983  1.0365
 4003SOL    HW223646   0.584   2.593   6.168 -1.2600 -1.2557  1.1132
 4004SOL     OW23647   4.321   1.414   6.602 -0.0196  0.3535  0.0958
 4004SOL    HW123648   4.326   1.414   6.698  1.4098 -1.1418  0.0278
 4004SOL    HW223649   4.296   1.501   6.571  2.8649  0.5543 -1.5947
 4005SOL     OW23650   0.109   3.198   1.540  0.1526 -0.2367  0.5933
 4005SOL    HW123651   0.020   3.204   1.574 -1.0415  1.7230 -2.8377
 4005SOL    HW223652   0.161   3.210   1.619 -1.1994  1.6682  1.1799
 4006SOL     OW23653   4.217   3.418   3.242 -0.0403 -0.4226  0.3062
 4006SOL    HW123654   4.287   3.399   3.179  0.0935 -1.4570  0.7595
 4006SOL    HW223655   4.153   3.353   3.209 -1.2867 -0.1032  2.1018
 4007SOL     OW23656   0.550   4.612   2.004 -0.0285  0.3404  0.3947
 4007SOL    HW123657   0.486   4.555   2.047  0.7696  0.1233  1.2760
 4007SOL    HW223658   0.524   4.585   1.916 -1.3301  1.2107  0.5079
 4008SOL     OW23659   0.309   1.420   7.675  0.1267 -0.0912  0.0753
 4008SOL    HW123660   0.396   1.452   7.698  0.5273  0.1459 -1.7497
 4008SOL    HW223661   0.329   1.340   7.625  0.9458  0.0548  0.1663
 4009SOL     OW23662   0.248   1.321   4.341 -0.1647 -0.4253  0.3322
 4009SOL    HW123663   0.272   1.388   4.278 -2.1571  1.5644  1.6853
 4009SOL    HW223664   0.308   1.348   4.410 -0.3761  0.5004  0.1608
 4010SOL     OW23665   4.310   4.657   3.945 -0.0573  0.1091 -0.6460
 4010SOL    HW123666   4.255   4.578   3.942 -0.5415  0.4568 -1.0661
 4010SOL    HW223667   4.384   4.628   3.892  0.6921 -1.2283  1.1351
 4011SOL     OW23668   1.881   1.616   4.585 -0.5390 -0.0571 -0.9603
 4011SOL    HW123669   1.793   1.632   4.619 -0.0249  0.3108  0.1901
 4011SOL    HW223670   1.914   1.539   4.632  2.6814  1.7091 -0.3637
 4012SOL     OW23671   1.747   2.050   9.242  0.1862 -0.5843 -0.0911
 4012SOL    HW123672   1.662   2.092   9.257  0.5139 -0.5715  1.7358
 4012SOL    HW223673   1.791   2.105   9.177  0.0534  0.8209  1.0075
 4013SOL     OW23674   0.238   4.522   1.456  0.1986 -0.0549  0.3540
 4013SOL    HW123675   0.172   4.453   1.458  1.4836 -1.3440 -2.2487
 4013SOL    HW223676   0.320   4.474   1.463 -0.1523 -0.8261 -0.9848
 4014SOL     OW23677   4.707   0.427   6.336  0.3000  0.0288 -0.5645
 4014SOL    HW123678   4.708   0.423   6.241 -0.1424  0.0279 -0.5665
 4014SOL    HW223679   0.058   0.458   6.359  0.0399  1.4317 -1.4780
 4015SOL     OW23680   3.240   3.842  16.458 -0.2145  0.1537 -0.0560
 4015SOL    HW123681   3.206   3.817  16.371 -1.6630  0.6342  0.3694
 4015SOL    HW223682   3.300   3.770  16.478  1.2256  1.8508  1.6896
 4016SOL     OW23683   3.886   1.299   3.074 -0.2118  0.3803  0.1102
 4016SOL    HW123684   3.943   1.226   3.098 -0.5023 -0.6639 -2.4345
 4016SOL    HW223685   3.917   1.309   2.984  2.8926 -2.3711  0.8883
 4017SOL     OW23686   2.965   2.271   0.698  0.4142 -0.5713 -0.0677
 4017SOL    HW123687   3.016   2.344   0.663  0.1549  0.0643  0.8584
 4017SOL    HW223688   3.022   2.198   0.674  2.6713  1.2314 -0.2476
 4018SOL     OW23689   2.478   2.127   6.594 -0.4766  0.5573  0.3843
 4018SOL    HW123690   2.550   2.184   6.623 -0.3283 -0.0228  1.1523
 4018SOL    HW223691   2.517   2.056   6.544 -1.3295  1.1587 -1.1394
 4019SOL     OW23692   2.035   1.558  10.622 -0.3649  0.7501 -0.3777
 4019SOL    HW123693   2.111   1.612  10.644 -1.7699  2.5565  0.0398
 4019SOL    HW223694   2.065   1.502  10.551 -0.7523  0.5668 -0.3999
 4020SOL     OW23695   3.316   1.317   5.298  0.1042  0.0133 -0.5089
 4020SOL    HW123696   3.375   1.242   5.297  1.0003  0.7080  0.7485
 4020SOL    HW223697   3.253   1.284   5.362 -0.5076  0.5763 -0.8181
 4021SOL     OW23698   3.788   4.374   6.373 -0.3462  0.0036 -0.3869
 4021SOL    HW123699   3.797   4.463   6.405 -0.9085  0.4208 -1.4005
 4021SOL    HW223700   3.841   4.331   6.441 -0.0552  1.5932  0.3780
 4022SOL     OW23701   2.539   3.405   3.469  0.0176  0.1090  0.0287
 4022SOL    HW123702   2.498   3.467   3.529  1.3687  0.8842  0.1545
 4022SOL    HW223703   2.586   3.352   3.534  1.6749  1.6476  0.0904
 4023SOL     OW23704   2.491   4.609   9.031 -0.1308 -0.3664  0.5023
 4023SOL    HW123705   2.448   4.527   9.056  0.5812 -1.0929 -0.6783
 4023SOL    HW223706   2.445   4.670   9.089  1.0765  0.2642  0.7882
 4024SOL     OW23707   3.201   1.238   8.868  0.4105  0.0674  0.2044
 4024SOL    HW123708   3.246   1.262   8.788 -0.6152 -1.5731 -0.8642
 4024SOL    HW223709   3.266   1.178   8.906  0.5873 -0.3914 -0.8210
 4025SOL     OW23710   4.404   2.857   2.804  0.3926 -0.1498  0.4845
 4025SOL    HW123711   4.428   2.851   2.711 -0.5269 -3.3031  0.4544
 4025SOL    HW223712   4.314   2.824   2.806 -0.4581  2.2086  0.8653
 4026SOL     OW23713   1.553   1.880   7.433  0.0826 -0.2933  0.7990
 4026SOL    HW123714   1.628   1.829   7.464 -0.1481 -0.7057  0.6838
 4026SOL    HW223715   1.473   1.833   7.457  1.3206 -1.6313  2.3162
 4027SOL     OW23716   3.544   0.394   1.806  0.0283 -0.2151 -0.9259
 4027SOL    HW123717   3.613   0.426   1.748  1.2627 -1.2552 -0.0237
 4027SOL    HW223718   3.604   0.346   1.863 -3.0267 -1.0380  1.5905
 4028SOL     OW23719   1.598   1.028   7.090 -0.5182 -0.7959 -0.5535
 4028SOL    HW123720   1.655   1.102   7.069  0.8812 -2.3364 -2.1513
 4028SOL    HW223721   1.654   0.959   7.055  1.0161 -0.4009  1.1322
 4029SOL     OW23722   2.035   2.592   7.556  0.1376 -0.5475  0.4599
 4029SOL    HW123723   1.991   2.643   7.488  0.3403  0.9991  1.4961
 4029SOL    HW223724   2.021   2.653   7.628 -1.2788 -1.2740  0.8101
 4030SOL     OW23725   0.048   2.950  11.076 -0.4153  0.1732 -0.2384
 4030SOL    HW123726   0.047   2.861  11.039 -0.7031 -0.6580  1.7643
 4030SOL    HW223727   0.113   2.989  11.018 -0.0875  0.1908  0.1397
 4031SOL     OW23728   2.630   4.583   7.835 -0.2315  0.2505  0.1807
 4031SOL    HW123729   2.706   4.566   7.780 -1.2457 -2.0111 -0.4848
 4031SOL    HW223730   2.662   4.586   7.926 -1.5667 -0.9907  0.6839
 4032SOL     OW23731   4.138   1.676   1.649  0.0913  0.0259 -0.3786
 4032SOL    HW123732   4.064   1.735   1.660 -1.6483 -2.5454  1.3941
 4032SOL    HW223733   4.096   1.591   1.659  1.3614 -0.2744  2.4511
 4033SOL     OW23734   1.734   2.280  16.344  0.1091 -0.1760 -0.0471
 4033SOL    HW123735   1.754   2.368  16.312  0.2150 -0.4355 -0.7089
 4033SOL    HW223736   1.670   2.250  16.279 -3.5430  1.0242  2.9678
 4034SOL     OW23737   0.561   4.639  13.779 -0.7273 -0.6193  0.3692
 4034SOL    HW123738   0.578   4.556  13.735 -2.3793  0.1317 -1.6366
 4034SOL    HW223739   0.499   4.676  13.716 -0.2604  2.0763  1.4768
 4035SOL     OW23740   0.193   3.756   6.733 -0.0456  0.1045  0.3312
 4035SOL    HW123741   0.202   3.833   6.788  2.6885 -1.3138  1.8814
 4035SOL    HW223742   0.112   3.720   6.768 -0.1868  0.7054  0.6248
 4036SOL     OW23743   1.288   1.494  15.729  0.6211  0.1322 -0.1725
 4036SOL    HW123744   1.214   1.434  15.725  0.6817  0.1735 -1.9981
 4036SOL    HW223745   1.360   1.433  15.716  0.1118 -0.9247  2.0115
 4037SOL     OW23746   4.295   2.925   5.151 -0.7554  0.5018  0.0650
 4037SOL    HW123747   4.323   2.969   5.071 -0.5979  0.3102  0.0158
 4037SOL    HW223748   4.352   2.849   5.152 -0.8867  0.3963 -0.3552
 4038SOL     OW23749   0.246   4.706   3.257 -0.1915  0.0641 -0.0080
 4038SOL    HW123750   0.282   4.687   3.171 -2.2121  0.6054 -0.9538
 4038SOL    HW223751   0.303   0.042   3.283 -0.1828  0.0566 -0.0063
 4039SOL     OW23752   1.894   2.694   3.282  0.1960  1.1785  0.0524
 4039SOL    HW123753   1.959   2.624   3.290 -0.5928  0.2979 -1.0294
 4039SOL    HW223754   1.861   2.676   3.193 -0.4326 -2.0026  0.8996
 4040SOL     OW23755   0.523   2.758   5.532 -0.2987  1.0442 -0.8539
 4040SOL    HW123756   0.440   2.750   5.486 -0.0985  2.2191 -1.4143
 4040SOL    HW223757   0.533   2.853   5.540  2.7308  0.6445  0.5887
 4041SOL     OW23758   4.363   0.433   0.844 -0.4594  0.0042  0.1502
 4041SOL    HW123759   4.439   0.464   0.795 -0.3877 -2.9385 -1.6049
 4041SOL    HW223760   4.325   0.367   0.786  0.6527 -0.2635 -0.2788
 4042SOL     OW23761   4.430   1.737   5.081 -0.5257  0.2465  0.2978
 4042SOL    HW123762   4.382   1.767   5.158  0.4184 -0.1316  1.0347
 4042SOL    HW223763   4.499   1.683   5.118  0.2147  0.3590 -0.9032
 4043SOL     OW23764   0.468   3.309   0.105  0.2915 -0.2056  0.1085
 4043SOL    HW123765   0.554   3.345   0.126 -0.1852 -0.7279  3.0182
 4043SOL    HW223766   0.405   3.362   0.155  0.4504  0.4636 -0.3996
 4044SOL     OW23767   2.534   1.008   7.075  0.7336 -0.3786 -0.0754
 4044SOL    HW123768   2.492   1.007   6.989  0.2003 -1.4189  0.2042
 4044SOL    HW223769   2.477   1.068   7.123  1.4323 -0.1124  0.4127
 4045SOL     OW23770   4.272   1.513   9.238 -0.3952  0.5165 -0.0971
 4045SOL    HW123771   4.260   1.603   9.207  0.6206  1.2960  1.7831
 4045SOL    HW223772   4.311   1.493   9.153  0.5964 -0.2709  0.5421
 4046SOL     OW23773   0.158   1.392   4.822 -0.7055  0.3264  0.0060
 4046SOL    HW123774   0.252   1.397   4.807 -0.6233  1.8991  1.0997
 4046SOL    HW223775   0.129   1.302   4.806 -0.4337 -0.0515  1.7330
 4047SOL     OW23776   0.115   0.135   5.062 -0.0822 -0.1957  0.7586
 4047SOL    HW123777   0.154   0.221   5.051 -0.0737 -0.2228  0.5728
 4047SOL    HW223778   0.194   0.081   5.057  0.8253  1.3157 -1.2879
 4048SOL     OW23779   1.281   2.663   6.049 -0.0968  0.0324 -0.6333
 4048SOL    HW123780   1.212   2.624   5.994 -0.3171 -1.1041  0.4558
 4048SOL    HW223781   1.305   2.742   6.001 -0.2738  0.7245  0.4189
 4049SOL     OW23782   3.924   3.286  12.189  0.5538 -0.7029  0.2631
 4049SOL    HW123783   3.872   3.326  12.259  0.3876  2.1547 -1.4940
 4049SOL    HW223784   3.956   3.370  12.156 -1.2106 -1.1323 -2.5198
 4050SOL     OW23785   4.037   0.930   0.259 -0.1994  0.0481 -0.1334
 4050SOL    HW123786   3.988   0.885   0.328 -1.5557  1.8099  0.0699
 4050SOL    HW223787   3.968   0.987   0.224  1.8575  3.0189  0.6897
 4051SOL     OW23788   2.962   1.160   1.161  0.7087  0.2661  0.2104
 4051SOL    HW123789   2.960   1.066   1.175  0.3234  0.2907  0.3244
 4051SOL    HW223790   3.044   1.189   1.201 -0.7361  1.1223  2.5230
 4052SOL     OW23791   2.374   0.172   3.455  0.6471  0.0241  0.1642
 4052SOL    HW123792   2.426   0.106   3.409 -0.5055  0.2132 -1.4233
 4052SOL    HW223793   2.312   0.197   3.386  0.0339 -0.7318  0.4418
 4053SOL     OW23794   2.301   1.759  10.958 -0.6874  0.4338  0.0466
 4053SOL    HW123795   2.288   1.789  11.048  3.5244  0.2605  0.7190
 4053SOL    HW223796   2.218   1.718  10.936  0.2931 -1.8242  0.5083
 4054SOL     OW23797   0.832   4.233   3.753  0.3379  0.5311  0.7244
 4054SOL    HW123798   0.811   4.268   3.666 -2.0674 -0.8182  0.7561
 4054SOL    HW223799   0.768   4.164   3.774 -0.7305  1.1747 -0.4366
 4055SOL     OW23800   1.092   4.000   7.938 -0.4357  0.7119  0.7424
 4055SOL    HW123801   1.031   4.024   7.868  0.3728 -0.9488 -0.5110
 4055SOL    HW223802   1.085   4.072   8.002  1.8086 -0.5040  2.3426
 4056SOL     OW23803   4.045   3.315   7.569  0.3715  0.3839 -0.2826
 4056SOL    HW123804   4.011   3.285   7.653  0.1557  0.5411 -0.3147
 4056SOL    HW223805   3.982   3.382   7.545 -2.0325 -1.5374  0.7318
 4057SOL     OW23806   4.234   2.218   4.328 -0.3251  0.1889 -0.4030
 4057SOL    HW123807   4.147   2.178   4.321 -1.0951  1.7723 -0.0913
 4057SOL    HW223808   4.262   2.208   4.237 -1.8892  0.4940 -0.9212
 4058SOL     OW23809   0.346   0.200   4.259 -0.0210  0.4382 -0.4452
 4058SOL    HW123810   0.254   0.196   4.285  0.6718  0.8344  2.0835
 4058SOL    HW223811   0.345   0.134   4.190 -0.7471  1.1419 -1.1114
 4059SOL     OW23812   1.389   0.731   7.847  0.3067  0.3869  0.0599
 4059SOL    HW123813   1.463   0.676   7.820 -0.7601 -0.6501 -0.7347
 4059SOL    HW223814   1.438   0.795   7.900  1.5560  1.0625 -1.8853
 4060SOL     OW23815   2.485   2.039   2.501  0.4462  0.1720  0.3316
 4060SOL    HW123816   2.563   1.985   2.517  1.0444  1.9111  3.1651
 4060SOL    HW223817   2.441   2.036   2.586  0.8412  0.4944  0.5450
 4061SOL     OW23818   1.038   1.986   5.955  0.4412 -0.0203  0.0541
 4061SOL    HW123819   1.035   2.081   5.965 -1.7705  0.0930 -1.4303
 4061SOL    HW223820   1.016   1.984   5.861 -1.0720 -0.6613  0.4197
 4062SOL     OW23821   2.176   3.585   6.874  0.0233  0.0961  0.0064
 4062SOL    HW123822   2.259   3.610   6.834 -0.0442 -0.5057 -0.5182
 4062SOL    HW223823   2.184   3.490   6.887  0.7997  0.1077 -0.4113
 4063SOL     OW23824   3.823   4.193   6.978 -0.0436  0.6011  0.3259
 4063SOL    HW123825   3.738   4.234   6.995 -0.5730 -0.7517  0.9221
 4063SOL    HW223826   3.795   4.123   6.918 -0.6818  1.0057  0.1510
 4064SOL     OW23827   4.511   1.573  14.643  0.1575  0.5427 -0.0977
 4064SOL    HW123828   4.417   1.560  14.655  0.2490 -0.0875 -0.0715
 4064SOL    HW223829   4.533   1.577  14.736 -0.7947 -2.2060  0.2413
 4065SOL     OW23830   1.083   4.350   0.930  0.2121 -0.2617 -0.4283
 4065SOL    HW123831   1.145   4.364   1.001 -1.3377 -0.4708  0.9582
 4065SOL    HW223832   1.141   4.308   0.866 -0.6939 -2.4000  0.1560
 4066SOL     OW23833   1.691   2.242   3.866  0.4271 -0.2524  0.6916
 4066SOL    HW123834   1.656   2.327   3.840 -0.1673 -1.0341 -1.0126
 4066SOL    HW223835   1.716   2.205   3.782  1.8914  0.7439  0.6836
 4067SOL     OW23836   1.563   0.856  17.411 -0.0707 -0.1314  0.2883
 4067SOL    HW123837   1.470   0.836  17.407  0.1620 -0.6057 -2.4797
 4067SOL    HW223838   1.602   0.784  17.461 -2.0193 -2.0824 -1.0195
 4068SOL     OW23839   1.051   2.234   0.175  0.0095 -0.1443  0.8389
 4068SOL    HW123840   1.023   2.326   0.183  0.7216  0.1281  0.2507
 4068SOL    HW223841   1.031   2.229   0.081 -2.3369  0.1856  1.3087
 4069SOL     OW23842   3.471   0.652   7.983 -0.5603  0.2701 -0.4484
 4069SOL    HW123843   3.458   0.712   8.056 -0.7189  0.2851 -0.4879
 4069SOL    HW223844   3.558   0.622   8.008 -2.2088 -3.1770  1.0504
 4070SOL     OW23845   2.703   0.634   2.533 -0.2927  0.2474  0.1917
 4070SOL    HW123846   2.658   0.678   2.461  0.7778 -0.7000 -1.0693
 4070SOL    HW223847   2.647   0.633   2.611 -0.0027 -1.6140  0.3868
 4071SOL     OW23848   1.964   2.717  15.460  0.1211 -0.0378 -0.6736
 4071SOL    HW123849   2.003   2.731  15.374  1.7242  1.0926  0.2379
 4071SOL    HW223850   1.989   2.629  15.487  1.1070  0.8006  1.1374
 4072SOL     OW23851   4.250   1.899  14.198 -0.3918 -0.1113 -0.3281
 4072SOL    HW123852   4.193   1.829  14.164  0.2568  0.4473 -2.5717
 4072SOL    HW223853   4.182   1.966  14.204  1.2808  1.5184  0.1174
 4073SOL     OW23854   1.962   0.328   3.558  0.1311 -0.0197  0.2059
 4073SOL    HW123855   2.028   0.280   3.608 -1.1273 -0.7905  1.1171
 4073SOL    HW223856   1.953   0.401   3.618  0.9780 -0.4054  0.8085
 4074SOL     OW23857   1.459   2.218   7.215 -0.4488 -0.3647 -0.4513
 4074SOL    HW123858   1.387   2.259   7.262  0.9611 -1.0091  2.2254
 4074SOL    HW223859   1.410   2.192   7.136  1.6307  2.0450 -2.5332
 4075SOL     OW23860   1.399   2.829   5.370  0.2540  0.0245 -0.2621
 4075SOL    HW123861   1.461   2.768   5.330  0.7272 -0.4902  1.2493
 4075SOL    HW223862   1.375   2.793   5.456 -0.4109  2.0223  0.3926
 4076SOL     OW23863   2.055   2.047   4.641 -0.3368 -0.0781  0.4063
 4076SOL    HW123864   2.096   2.062   4.727 -1.0029  1.4353  0.4719
 4076SOL    HW223865   1.964   2.037   4.668 -0.5020  0.4022  0.0187
 4077SOL     OW23866   4.432   2.268  16.477  0.4344 -0.3057 -0.4644
 4077SOL    HW123867   4.441   2.330  16.405 -1.7372 -0.2933 -0.7244
 4077SOL    HW223868   4.500   2.302  16.534  1.4755 -0.1997 -1.7676
 4078SOL     OW23869   2.341   4.341   5.909  0.1070 -0.3483 -0.4174
 4078SOL    HW123870   2.341   4.387   5.993 -1.3871 -0.9465 -0.0877
 4078SOL    HW223871   2.432   4.358   5.886 -0.4442  3.0411 -0.0509
 4079SOL     OW23872   3.209   0.500   4.679 -0.6702 -0.4717 -0.2857
 4079SOL    HW123873   3.234   0.467   4.593  0.8001 -2.1318  0.7911
 4079SOL    HW223874   3.168   0.583   4.654  0.7187 -0.9050 -3.8877
 4080SOL     OW23875   3.234   0.004  14.659  0.1712  0.0019 -0.5013
 4080SOL    HW123876   3.178   0.081  14.651  2.5267  1.5155 -2.3103
 4080SOL    HW223877   3.196   4.694  14.733  0.4501  0.0388 -0.3355
 4081SOL     OW23878   3.389   1.844   7.505  0.1699  0.0296  0.7416
 4081SOL    HW123879   3.315   1.890   7.463  0.8250  0.6867  0.3012
 4081SOL    HW223880   3.382   1.753   7.476  0.9000  0.0964  0.3456
 4082SOL     OW23881   4.567   2.263  12.175  0.0264 -0.0262 -0.1531
 4082SOL    HW123882   4.637   2.259  12.110  0.8233  0.9259  0.6377
 4082SOL    HW223883   4.604   2.221  12.253  2.5629  0.0419 -1.3194
 4083SOL     OW23884   4.318   3.452   7.984  0.5825 -0.4773 -0.3792
 4083SOL    HW123885   4.245   3.509   8.009 -0.7498 -2.0861 -0.5589
 4083SOL    HW223886   4.377   3.501   7.928  0.0710 -0.1928 -0.6684
 4084SOL     OW23887   3.975   2.108   8.380 -0.3247  0.1440  0.4190
 4084SOL    HW123888   4.028   2.146   8.450  2.1227 -2.0321 -0.2547
 4084SOL    HW223889   4.045   2.096   8.316 -1.5505 -1.7969 -0.5420
 4085SOL     OW23890   2.664   0.633   6.261 -0.2292  0.0490  0.0662
 4085SOL    HW123891   2.662   0.559   6.322  0.8777  0.7697  0.9713
 4085SOL    HW223892   2.573   0.636   6.233 -0.2381  2.7420  0.3815
 4086SOL     OW23893   3.165   0.048   6.722 -0.1036 -0.0785 -0.4934
 4086SOL    HW123894   3.089   0.106   6.728 -0.5181 -0.9982  3.5906
 4086SOL    HW223895   3.125   4.698   6.732  2.3369 -0.9126  2.0312
 4087SOL     OW23896   1.009   0.483   3.911 -0.4374 -0.2641  0.2890
 4087SOL    HW123897   1.032   0.532   3.832 -1.0490 -1.1264 -0.4182
 4087SOL    HW223898   0.913   0.484   3.909 -0.4445 -2.0763 -0.1085
 4088SOL     OW23899   2.597   0.151   8.486  0.4082  0.0116  0.0996
 4088SOL    HW123900   2.548   0.081   8.442 -0.2112  0.5356 -0.0503
 4088SOL    HW223901   2.680   0.146   8.439 -0.2583 -2.7781 -0.7798
 4089SOL     OW23902   0.535   2.373   3.685 -0.0352  0.2830 -0.0329
 4089SOL    HW123903   0.548   2.418   3.602 -0.9544  0.3947 -0.1144
 4089SOL    HW223904   0.442   2.390   3.694 -0.1676 -0.5703  0.2955
 4090SOL     OW23905   2.524   0.265  15.065  0.4223 -0.5810 -0.2002
 4090SOL    HW123906   2.510   0.340  15.008  0.8431  0.8205  1.5163
 4090SOL    HW223907   2.476   0.294  15.143  0.2216  1.3898 -1.0607
 4091SOL     OW23908   1.762   2.600  11.803  0.8204  0.2199 -0.3815
 4091SOL    HW123909   1.771   2.605  11.707  1.7077  0.5359 -0.2851
 4091SOL    HW223910   1.820   2.529  11.829 -0.3679 -0.0911  1.3488
 4092SOL     OW23911   0.269   3.866   4.705 -0.1782 -0.0341 -0.4742
 4092SOL    HW123912   0.317   3.942   4.674  0.1738 -0.9009 -2.0441
 4092SOL    HW223913   0.343   3.819   4.743 -1.0109 -1.8324 -1.0589
 4093SOL     OW23914   2.650   3.639   1.585  0.0984  0.5362 -0.5108
 4093SOL    HW123915   2.693   3.669   1.665  0.4976 -1.4610  0.0363
 4093SOL    HW223916   2.668   3.713   1.527 -2.3935 -0.7404 -2.9479
 4094SOL     OW23917   4.111   2.736  12.646  0.2590 -0.5124 -0.3980
 4094SOL    HW123918   4.187   2.688  12.612 -0.5674 -3.3565  1.7040
 4094SOL    HW223919   4.140   2.826  12.638 -0.0432 -0.6786 -3.4120
 4095SOL     OW23920   0.577   4.555   7.514 -0.1022 -0.9993 -0.2168
 4095SOL    HW123921   0.601   4.592   7.429 -3.3045  0.4101 -0.5148
 4095SOL    HW223922   0.556   4.631   7.568  1.0415 -0.1403 -0.9930
 4096SOL     OW23923   2.783   3.092   5.750  0.6058  0.1704 -0.2647
 4096SOL    HW123924   2.856   3.056   5.701  1.1739  1.2654 -0.2306
 4096SOL    HW223925   2.789   3.187   5.742 -1.3241  0.1840 -1.6467
 4097SOL     OW23926   3.385   3.235   1.712 -0.6045  0.0544  0.0266
 4097SOL    HW123927   3.374   3.325   1.742 -2.8468 -0.2481  0.1208
 4097SOL    HW223928   3.355   3.188   1.790 -0.1105  3.7125  2.4090
 4098SOL     OW23929   2.827   1.917   8.518  0.5755  0.2673 -0.6464
 4098SOL    HW123930   2.890   1.944   8.451  0.5674 -0.2934 -0.8804
 4098SOL    HW223931   2.737   1.925   8.487  0.5229 -2.6426 -1.2391
 4099SOL     OW23932   4.306   1.837   3.373  0.0891 -0.4781 -0.1968
 4099SOL    HW123933   4.307   1.929   3.345 -1.1856 -0.5401 -0.4162
 4099SOL    HW223934   4.214   1.816   3.362 -0.2625 -0.7301  3.4486
 4100SOL     OW23935   2.835   2.307   2.197  0.0931  0.3315 -0.3180
 4100SOL    HW123936   2.883   2.342   2.271  0.2046 -1.1139  0.2920
 4100SOL    HW223937   2.750   2.290   2.238  0.8270  0.3442  1.1755
 4101SOL     OW23938   1.084   3.132  11.447  0.3728  0.6016 -0.5847
 4101SOL    HW123939   1.159   3.149  11.503 -0.7481  0.5353  0.9251
 4101SOL    HW223940   1.011   3.182  11.484  0.9765  1.3846 -0.4465
 4102SOL     OW23941   3.857   4.519  15.445  0.4354 -0.5699 -1.1101
 4102SOL    HW123942   3.870   4.581  15.373 -0.7956  0.2541 -0.6331
 4102SOL    HW223943   3.923   4.547  15.508 -0.6804  1.3498 -0.7781
 4103SOL     OW23944   2.666   4.569   3.561 -0.2559  0.1432 -0.2033
 4103SOL    HW123945   2.745   4.616   3.588 -0.2278  0.0940 -0.2001
 4103SOL    HW223946   2.648   4.610   3.476 -0.5371 -0.8108 -0.5980
 4104SOL     OW23947   4.548   2.413  17.689  0.4024 -0.5885  0.8848
 4104SOL    HW123948   4.605   2.337  17.697 -1.0777 -1.8249 -0.4757
 4104SOL    HW223949   4.478   2.384   0.003 -0.2669  0.3486  0.5507
 4105SOL     OW23950   2.491   0.512  15.524 -0.4952 -0.2960 -0.2552
 4105SOL    HW123951   2.575   0.532  15.564  0.2353 -1.8965 -1.0062
 4105SOL    HW223952   2.457   0.442  15.580 -1.2717  0.7476  0.5668
 4106SOL     OW23953   1.275   3.490   2.685 -0.2819 -0.4047 -0.2719
 4106SOL    HW123954   1.353   3.436   2.680 -0.1413 -0.1843 -0.4380
 4106SOL    HW223955   1.206   3.426   2.669 -0.6812 -0.3882  1.4422
 4107SOL     OW23956   3.481   0.031   9.493  0.0372 -0.1463  0.0160
 4107SOL    HW123957   3.464   0.027   9.587 -0.9867  1.4875 -0.0880
 4107SOL    HW223958   3.485   0.127   9.485  1.1417 -0.2074 -0.1701
 4108SOL     OW23959   3.176   0.942   3.938  0.7154 -0.3514 -0.4337
 4108SOL    HW123960   3.081   0.946   3.937  0.9213  4.1450  0.4224
 4108SOL    HW223961   3.194   0.991   3.858  0.7459  0.6676  0.2010
 4109SOL     OW23962   1.171   0.809   1.642  0.1630  0.3847 -0.7011
 4109SOL    HW123963   1.195   0.889   1.690  2.1709 -0.2007 -0.7352
 4109SOL    HW223964   1.251   0.757   1.634 -0.2372  0.0500 -2.5109
 4110SOL     OW23965   0.325   2.418   5.740  0.3381 -0.3140  0.2316
 4110SOL    HW123966   0.257   2.420   5.674  0.9775 -0.2101 -0.4241
 4110SOL    HW223967   0.311   2.335   5.785 -0.7679 -1.8892 -3.0438
 4111SOL     OW23968   1.571   2.336  15.679  0.0888 -0.2276  0.2245
 4111SOL    HW123969   1.496   2.299  15.726 -0.4081  1.2878  0.6188
 4111SOL    HW223970   1.577   2.424  15.716 -2.8200  1.0030 -2.1592
 4112SOL     OW23971   3.247   3.586   6.181 -0.2185  0.6104  0.6235
 4112SOL    HW123972   3.214   3.506   6.220  1.7426 -1.2190 -1.4746
 4112SOL    HW223973   3.338   3.557   6.193 -0.7897 -1.6943 -0.7055
 4113SOL     OW23974   2.000   3.425   2.303 -0.1857  0.4760 -0.4598
 4113SOL    HW123975   1.967   3.451   2.217  1.2379 -0.3518 -1.2552
 4113SOL    HW223976   2.020   3.332   2.287  1.2234  0.3187  2.2138
 4114SOL     OW23977   3.400   1.696   4.356 -0.1933 -0.3439  0.3709
 4114SOL    HW123978   3.452   1.750   4.296 -0.3601  0.0626  0.5938
 4114SOL    HW223979   3.320   1.687   4.305  0.0266  1.8619 -0.3691
 4115SOL     OW23980   0.421   0.591   1.424  0.1927 -0.1503 -0.1378
 4115SOL    HW123981   0.488   0.568   1.488 -0.2016 -3.2141 -0.8070
 4115SOL    HW223982   0.379   0.508   1.402  0.0933 -0.2513  0.4392
 4116SOL     OW23983   1.519   4.031   5.442  0.2839 -0.2074  0.0214
 4116SOL    HW123984   1.606   4.026   5.481  0.2617  1.5782  0.3029
 4116SOL    HW223985   1.456   4.010   5.511  1.1638  1.0181  1.1793
 4117SOL     OW23986   0.110   2.292   8.183  0.7432 -0.0884  0.0796
 4117SOL    HW123987   0.020   2.319   8.167  1.9287  3.0022 -1.3213
 4117SOL    HW223988   0.130   2.222   8.122  2.8777  0.1305  0.5231
 4118SOL     OW23989   2.518   4.634   6.186 -0.0193 -0.7147  0.5349
 4118SOL    HW123990   2.496   4.725   6.166  3.0060 -0.4082 -1.3515
 4118SOL    HW223991   2.534   4.629   6.280 -0.6362 -1.0529  0.6239
 4119SOL     OW23992   3.991   1.616  15.097  0.0517  0.1532  0.6375
 4119SOL    HW123993   3.972   1.672  15.172  1.9640 -0.7936  1.8207
 4119SOL    HW223994   3.904   1.624  15.057  0.9135 -0.4932 -1.3710
 4120SOL     OW23995   1.118   0.127   7.675  0.1752 -0.7597 -0.1003
 4120SOL    HW123996   1.118   0.201   7.736 -0.7610 -1.1419  0.3766
 4120SOL    HW223997   1.176   0.074   7.729  2.1005  1.3152 -0.1186
 4121SOL     OW23998   2.824   3.111   7.082  0.3339 -0.2653  0.7435
 4121SOL    HW123999   2.859   3.051   7.147  3.0466  2.6878  2.0062
 4121SOL    HW224000   2.780   3.176   7.136 -1.2407  0.4088 -1.3307
 4122SOL     OW24001   1.114   0.816  12.528 -0.0456  0.5655  0.7043
 4122SOL    HW124002   1.031   0.824  12.481  1.0755  2.3733 -0.9806
 4122SOL    HW224003   1.105   0.900  12.574  1.5878  0.9925  0.2366
 4123SOL     OW24004   3.886   3.011   3.259  0.1818  0.8152 -0.9307
 4123SOL    HW124005   3.835   2.935   3.230  0.2857  0.0157  0.9655
 4123SOL    HW224006   3.965   3.006   3.204  0.3893  0.6754 -0.6239
 4124SOL     OW24007   2.244   2.214   3.198 -0.0918 -0.2488 -0.3833
 4124SOL    HW124008   2.280   2.134   3.160 -0.2712 -0.7083  0.4302
 4124SOL    HW224009   2.192   2.176   3.269 -0.5579 -0.1839 -0.6864
 4125SOL     OW24010   4.542   4.407   2.566 -0.0476  0.0578  0.0247
 4125SOL    HW124011   4.588   4.428   2.647 -2.3104  0.0370  1.3102
 4125SOL    HW224012   4.578   4.472   2.504 -0.6606 -2.0367 -2.5311
 4126SOL     OW24013   0.263   0.958   3.502 -0.0817 -0.1653  0.3082
 4126SOL    HW124014   0.299   1.047   3.498 -1.5771  0.3809 -0.8739
 4126SOL    HW224015   0.344   0.918   3.533 -0.8618 -0.9349  1.3532
 4127SOL     OW24016   3.764   3.092  16.387 -0.2169  0.2987  0.0845
 4127SOL    HW124017   3.849   3.073  16.347  0.5108 -0.9026  2.1352
 4127SOL    HW224018   3.715   3.147  16.327 -0.1264  0.2678 -0.0193
 4128SOL     OW24019   1.784   3.193   6.060  0.4112  0.2806 -0.0008
 4128SOL    HW124020   1.825   3.225   6.141  0.8098  1.7315 -0.7708
 4128SOL    HW224021   1.818   3.104   6.050 -0.7140 -0.2552  0.9340
 4129SOL     OW24022   4.024   3.077   2.861 -0.6825 -0.9093 -0.3441
 4129SOL    HW124023   4.034   3.115   2.774 -2.6743  0.3806 -0.0039
 4129SOL    HW224024   3.952   3.132   2.891 -0.7353 -1.4684  0.5660
 4130SOL     OW24025   2.740   3.046   3.065 -0.2044 -0.0675 -0.1885
 4130SOL    HW124026   2.694   3.104   3.127  1.5641  0.1922  0.8694
 4130SOL    HW224027   2.831   3.073   3.057 -0.1437  0.1826  1.3082
 4131SOL     OW24028   2.195   3.629  10.426 -0.1604 -0.1078 -0.3353
 4131SOL    HW124029   2.231   3.685  10.495  0.4164 -1.3159  0.3549
 4131SOL    HW224030   2.276   3.584  10.401  1.2908  2.2747  0.0854
 4132SOL     OW24031   3.807   1.338   6.228  0.0487  0.1015 -0.1426
 4132SOL    HW124032   3.724   1.290   6.224  0.1507  0.0109 -1.3299
 4132SOL    HW224033   3.825   1.351   6.321 -0.4471 -0.7104  0.0731
 4133SOL     OW24034   2.965   0.671   4.367  0.3522  1.1172 -0.4141
 4133SOL    HW124035   3.021   0.705   4.438  1.3694  2.2544 -1.7574
 4133SOL    HW224036   2.998   0.731   4.300  0.5932  0.4576 -0.8867
 4134SOL     OW24037   3.028   2.643   6.102  0.7837  0.1477 -0.2640
 4134SOL    HW124038   2.994   2.718   6.151 -0.2762 -0.0808 -0.6625
 4134SOL    HW224039   3.095   2.687   6.050 -0.4741 -2.0100 -3.6401
 4135SOL     OW24040   0.063   0.059   2.715 -0.0452 -0.2380  0.1486
 4135SOL    HW124041   0.079   0.077   2.623 -0.2470  0.6318  0.2817
 4135SOL    HW224042   0.078   4.702   2.702  0.3746  0.0986 -1.7595
 4136SOL     OW24043   2.613   2.616  17.467  0.3831  0.3672 -0.6232
 4136SOL    HW124044   2.549   2.684  17.481 -0.3095 -0.2174 -0.9492
 4136SOL    HW224045   2.565   2.546  17.422 -2.6139  1.1562  1.4429
 4137SOL     OW24046   4.589   0.076   8.995 -0.4693  0.1237  0.5466
 4137SOL    HW124047   4.671   0.110   9.030  0.3511 -1.3531  0.0349
 4137SOL    HW224048   4.612   0.075   8.902 -1.2018  0.2578  0.3662
 4138SOL     OW24049   2.156   2.747  10.701  0.2365 -0.4231  0.5098
 4138SOL    HW124050   2.086   2.799  10.661  2.2703  0.2688 -2.1406
 4138SOL    HW224051   2.106   2.701  10.769  1.3169 -0.0166  1.5827
 4139SOL     OW24052   2.981   1.785   5.806 -0.0343 -0.4857 -0.1867
 4139SOL    HW124053   2.908   1.747   5.854  0.0316 -0.2117  0.1309
 4139SOL    HW224054   2.972   1.743   5.720  0.5567  0.5719 -0.7696
 4140SOL     OW24055   0.147   0.216   8.070  0.2115 -0.4223  0.2860
 4140SOL    HW124056   0.186   0.128   8.065  2.0921  0.5083 -1.0152
 4140SOL    HW224057   0.223   0.265   8.040  0.1725 -0.4346  0.1668
 4141SOL     OW24058   4.507   1.400   3.589 -0.4757  0.1199  0.7421
 4141SOL    HW124059   4.562   1.456   3.643 -0.5861  1.0642 -0.1246
 4141SOL    HW224060   4.466   1.464   3.531  0.5228 -1.6296 -1.9358
 4142SOL     OW24061   4.707   3.146  12.759  0.4453 -0.0056  0.4329
 4142SOL    HW124062   4.658   3.103  12.689  0.7157  1.3053 -0.5616
 4142SOL    HW224063   0.018   3.076  12.804  1.4930  0.2350 -0.2949
 4143SOL     OW24064   2.940   4.372   2.757 -0.2975  0.0118 -1.1416
 4143SOL    HW124065   2.930   4.464   2.733  1.5701  0.3618 -0.5284
 4143SOL    HW224066   3.025   4.388   2.796 -0.7467  0.1837 -0.2429
 4144SOL     OW24067   1.664   3.816   3.505  0.4277 -0.1643 -0.4176
 4144SOL    HW124068   1.618   3.900   3.498 -0.7085 -0.7524 -0.1421
 4144SOL    HW224069   1.591   3.767   3.544  1.2921  1.2607  2.9861
 4145SOL     OW24070   0.981   3.949   5.507 -0.1482  0.6045 -0.5533
 4145SOL    HW124071   1.048   3.998   5.553 -0.3242  0.0267  0.3179
 4145SOL    HW224072   0.971   3.872   5.563 -0.4760  0.9732 -0.1101
 4146SOL     OW24073   0.589   0.331   4.301  0.2316 -0.0362  0.0675
 4146SOL    HW124074   0.547   0.377   4.373  0.7788  2.5119 -1.2321
 4146SOL    HW224075   0.516   0.277   4.271 -0.9527  0.0370  2.9065
 4147SOL     OW24076   1.583   4.307   6.886 -0.1068 -0.4700  0.3273
 4147SOL    HW124077   1.548   4.258   6.812 -0.8154  1.6191 -0.7340
 4147SOL    HW224078   1.638   4.378   6.852 -0.4083 -2.1510 -3.7499
 4148SOL     OW24079   3.255   2.222   7.832  0.0782 -0.3546 -0.4757
 4148SOL    HW124080   3.349   2.230   7.850  0.5841  0.9205 -3.7114
 4148SOL    HW224081   3.216   2.294   7.881 -0.9458 -1.2812  0.0640
 4149SOL     OW24082   4.112   0.542   5.053  0.2610 -0.1202  0.6145
 4149SOL    HW124083   4.156   0.484   5.114  0.2233  0.0289  0.7829
 4149SOL    HW224084   4.170   0.531   4.978  0.5028 -2.6695  1.1828
 4150SOL     OW24085   1.099   3.879   8.474  0.4182 -0.7559 -0.2803
 4150SOL    HW124086   1.030   3.823   8.438 -0.3528  0.4630 -0.7013
 4150SOL    HW224087   1.041   3.918   8.540  0.0787 -2.1382  0.2407
 4151SOL     OW24088   1.234   1.193  17.668 -0.6009 -0.0372  0.4603
 4151SOL    HW124089   1.233   1.270  17.611  0.9695  0.3039  0.9067
 4151SOL    HW224090   1.308   1.215  17.725 -0.6315  2.5536 -0.5017
 4152SOL     OW24091   4.102   0.068   5.283  0.3601  0.0589 -0.4141
 4152SOL    HW124092   4.095   0.109   5.369 -1.0186 -0.0573 -0.4695
 4152SOL    HW224093   4.193   0.043   5.272 -0.1609 -1.9457 -0.1476
 4153SOL     OW24094   3.928   2.781   2.369  0.3764 -0.1287  0.7041
 4153SOL    HW124095   3.872   2.834   2.313  0.7326 -1.6178 -1.0417
 4153SOL    HW224096   4.011   2.762   2.325 -0.7853 -1.7085 -0.8064
 4154SOL     OW24097   3.544   2.594   2.359  0.3911 -0.9695 -0.2477
 4154SOL    HW124098   3.600   2.519   2.380  2.2963  0.7344  0.7448
 4154SOL    HW224099   3.518   2.576   2.269  2.1537  0.0398 -0.9497
 4155SOL     OW24100   2.391   3.222  15.248 -0.5872 -0.0124 -0.3872
 4155SOL    HW124101   2.306   3.216  15.292 -0.7584  0.3534 -0.6681
 4155SOL    HW224102   2.444   3.224  15.328 -0.1757 -0.5161 -0.6505
 4156SOL     OW24103   0.526   4.311  13.981  1.1129  0.6696  0.2543
 4156SOL    HW124104   0.452   4.364  13.951 -0.1457 -0.9820  0.4093
 4156SOL    HW224105   0.538   4.335  14.073 -0.3923  0.7498  0.4329
 4157SOL     OW24106   0.308   2.148   2.078  0.0776 -0.9463 -0.1742
 4157SOL    HW124107   0.260   2.206   2.018  2.2864  0.7649 -0.2936
 4157SOL    HW224108   0.380   2.205   2.104  0.2363 -1.4284  0.4372
 4158SOL     OW24109   3.486   1.935  10.883 -0.0169  0.3815  0.0770
 4158SOL    HW124110   3.447   1.993  10.818 -2.6678 -3.8787 -2.1573
 4158SOL    HW224111   3.417   1.890  10.931  0.5776 -0.7686 -0.1589
 4159SOL     OW24112   2.088   1.835   5.595 -0.1996 -0.2100 -0.0495
 4159SOL    HW124113   2.023   1.768   5.571 -0.7366 -0.2868  1.6483
 4159SOL    HW224114   2.053   1.841   5.683  0.0969  0.7495 -0.0046
 4160SOL     OW24115   2.319   3.306   4.564  0.3674  0.0915  0.0743
 4160SOL    HW124116   2.354   3.390   4.537  0.1586 -0.4009 -1.7121
 4160SOL    HW224117   2.234   3.331   4.600 -1.1866 -4.5328 -0.3372
 4161SOL     OW24118   1.947   0.866   7.169 -0.2861 -0.4735  0.3177
 4161SOL    HW124119   2.000   0.916   7.230  1.7244 -0.7975 -1.1787
 4161SOL    HW224120   1.998   0.890   7.091 -0.1029  2.7682  1.4434
 4162SOL     OW24121   1.981   1.157   2.571 -0.5857 -0.2891  0.4174
 4162SOL    HW124122   2.058   1.119   2.529 -0.2965 -0.5184  1.1643
 4162SOL    HW224123   1.923   1.082   2.589  2.0721 -2.3851  0.3290
 4163SOL     OW24124   0.354   2.449   9.488 -0.5561  0.0249  0.2275
 4163SOL    HW124125   0.408   2.499   9.426  0.1943  0.1966  1.0193
 4163SOL    HW224126   0.374   2.494   9.570 -0.5123 -0.0790  0.2731
 4164SOL     OW24127   1.599   4.047  10.935  0.3367  0.1952 -0.2501
 4164SOL    HW124128   1.677   4.087  10.896 -0.0015  1.5027  0.4208
 4164SOL    HW224129   1.539   4.058  10.862 -0.0346  2.9387  0.4536
 4165SOL     OW24130   1.030   0.823   5.930  1.1062 -0.2771 -0.5888
 4165SOL    HW124131   0.988   0.741   5.905  0.5817 -0.4628  0.8848
 4165SOL    HW224132   1.027   0.874   5.849  1.7382 -0.0748 -0.4849
 4166SOL     OW24133   3.697   0.861  13.191  0.4162 -0.0851 -0.1992
 4166SOL    HW124134   3.643   0.880  13.268 -0.9361 -1.6034 -0.7733
 4166SOL    HW224135   3.710   0.946  13.148  0.4581 -0.1282 -0.2719
 4167SOL     OW24136   1.017   3.248   5.045 -0.3349 -0.6963  0.8189
 4167SOL    HW124137   1.110   3.228   5.055 -0.0591 -0.5089 -1.3107
 4167SOL    HW224138   0.995   3.248   5.138  0.3230  0.4057  0.9832
 4168SOL     OW24139   2.938   1.452   2.784  0.8292 -0.0060  0.1349
 4168SOL    HW124140   2.883   1.506   2.726 -0.4445 -0.9158  0.4885
 4168SOL    HW224141   3.019   1.455   2.734  0.5894  1.3901 -0.1689
 4169SOL     OW24142   2.740   2.376  17.737 -0.1076 -0.0224  0.1651
 4169SOL    HW124143   2.776   2.380  17.649 -2.4391  2.9380 -0.6409
 4169SOL    HW224144   2.723   2.283   0.010  0.0937  0.0942  0.9462
 4170SOL     OW24145   4.306   4.460   8.089  0.4245 -0.0111  0.4196
 4170SOL    HW124146   4.306   4.504   8.174 -2.6808  0.8001  0.0106
 4170SOL    HW224147   4.226   4.493   8.049  1.6508  0.6304 -1.4411
 4171SOL     OW24148   3.108   2.178  17.483 -0.0062  0.8622  0.1725
 4171SOL    HW124149   3.103   2.172  17.388  3.1567  0.4592  0.0376
 4171SOL    HW224150   3.106   2.085  17.503  0.2570  0.7499 -0.3122
 4172SOL     OW24151   1.150   2.877  16.500 -0.6286 -0.7488  0.0288
 4172SOL    HW124152   1.079   2.815  16.485 -1.2616 -0.0046 -0.0515
 4172SOL    HW224153   1.176   2.834  16.581  0.5115 -0.8782 -0.4025
 4173SOL     OW24154   1.232   2.485   2.588 -0.6993 -0.2242 -0.4918
 4173SOL    HW124155   1.319   2.506   2.621 -1.4465 -1.1785  2.1257
 4173SOL    HW224156   1.250   2.479   2.494 -0.8750 -0.4398 -0.5102
 4174SOL     OW24157   1.098   2.153   6.756  0.3488  0.2150  0.1064
 4174SOL    HW124158   1.028   2.093   6.783  0.8502 -0.1173  0.6748
 4174SOL    HW224159   1.081   2.224   6.818 -1.1630 -0.9236  1.0049
 4175SOL     OW24160   2.188   4.346   5.654  0.0959  0.0957  0.7000
 4175SOL    HW124161   2.235   4.268   5.625 -0.9716 -0.1999 -0.2392
 4175SOL    HW224162   2.216   4.361   5.744 -0.0770  0.4972  0.6901
 4176SOL     OW24163   3.508   1.224   3.824 -0.1548  0.0734  0.2662
 4176SOL    HW124164   3.521   1.310   3.784  0.1573  0.2154  0.6705
 4176SOL    HW224165   3.465   1.175   3.754 -0.8808 -0.3110  0.9807
 4177SOL     OW24166   3.703   4.647   5.950  0.4117  0.4339 -0.0680
 4177SOL    HW124167   3.674   4.561   5.920 -0.5834 -0.4569  3.3443
 4177SOL    HW224168   3.640   4.658   6.022 -1.7010  3.7611 -2.4673
 4178SOL     OW24169   2.530   4.024  16.399 -0.3705  0.5385 -0.7025
 4178SOL    HW124170   2.552   4.056  16.486  2.3144  1.5602 -1.7217
 4178SOL    HW224171   2.463   3.961  16.423  0.6597 -0.1755  0.3046
 4179SOL     OW24172   0.158   0.682   5.682 -0.2655 -0.5066  0.3443
 4179SOL    HW124173   0.086   0.630   5.717 -1.4295  0.8559 -0.0013
 4179SOL    HW224174   0.118   0.769   5.676  0.1488 -0.2473  1.4568
 4180SOL     OW24175   0.312   0.154   9.477  0.0289  0.7808  0.0762
 4180SOL    HW124176   0.387   0.201   9.440  1.3808 -0.7948  0.7829
 4180SOL    HW224177   0.316   0.185   9.568 -0.2859  3.8146 -0.9851
 4181SOL     OW24178   1.712   1.225  13.699 -0.3729  0.7435 -0.2511
 4181SOL    HW124179   1.677   1.143  13.664 -1.1378  0.2763  1.5833
 4181SOL    HW224180   1.626   1.264  13.719 -0.5527  1.4147 -2.3357
 4182SOL     OW24181   0.938   3.462   2.445  0.6432  0.1202 -0.0573
 4182SOL    HW124182   0.963   3.408   2.519  2.5783 -1.6718 -2.0391
 4182SOL    HW224183   0.965   3.552   2.467  2.2534 -0.2099 -0.6940
 4183SOL     OW24184   2.538   3.233   5.403  0.1960  0.2388 -0.0423
 4183SOL    HW124185   2.541   3.240   5.307  3.2007 -0.1828  0.0385
 4183SOL    HW224186   2.595   3.157   5.406  1.2574  1.0505  0.4775
 4184SOL     OW24187   1.567   2.636   5.259 -0.0159 -0.1949 -0.0157
 4184SOL    HW124188   1.610   2.645   5.173  2.7441 -2.6846  1.1125
 4184SOL    HW224189   1.646   2.625   5.312 -0.3191 -0.4426  0.3849
 4185SOL     OW24190   2.911   0.256   5.755 -0.1105 -0.2294  0.3040
 4185SOL    HW124191   2.941   0.347   5.760  0.2099 -0.2127 -2.4422
 4185SOL    HW224192   2.947   0.227   5.672  0.0540  1.9689 -0.3928
 4186SOL     OW24193   2.881   2.211   3.851  0.0278 -0.1438  0.1257
 4186SOL    HW124194   2.894   2.190   3.943 -1.5429 -1.6388  0.0199
 4186SOL    HW224195   2.795   2.252   3.853  0.1186  0.0449  0.1516
 4187SOL     OW24196   0.905   3.202   7.844  0.2085 -0.0395  0.1770
 4187SOL    HW124197   0.933   3.206   7.753 -2.5096  0.2337 -0.6504
 4187SOL    HW224198   0.965   3.263   7.887  2.0131 -2.0898  0.5687
 4188SOL     OW24199   3.013   1.389   3.043  0.4661  0.2097  0.5450
 4188SOL    HW124200   2.968   1.438   3.112  1.9132  1.5458  0.5501
 4188SOL    HW224201   2.978   1.427   2.962  0.5551  1.1710  0.9608
 4189SOL     OW24202   2.470   2.004  11.179  0.1023 -0.3498  0.2738
 4189SOL    HW124203   2.456   2.052  11.097  0.0195  1.4338  1.3172
 4189SOL    HW224204   2.525   1.935  11.142  1.4762  0.1277  1.4529
 4190SOL     OW24205   1.735   3.489   4.894  0.0995 -0.4028 -0.0026
 4190SOL    HW124206   1.817   3.527   4.924  0.8284 -0.8415 -1.4080
 4190SOL    HW224207   1.675   3.533   4.954 -1.3397 -0.8039 -1.1361
 4191SOL     OW24208   4.413   1.346  13.998  0.7662  0.1390  0.4148
 4191SOL    HW124209   4.467   1.335  14.076  1.5281 -1.6962 -0.3718
 4191SOL    HW224210   4.442   1.435  13.977 -0.7604 -0.1263 -2.7654
 4192SOL     OW24211   0.927   2.297   2.974 -0.1892 -0.2997 -0.0002
 4192SOL    HW124212   0.899   2.207   2.987 -1.7667 -0.2317 -2.8938
 4192SOL    HW224213   0.953   2.286   2.882 -1.0033  1.0136 -0.3837
 4193SOL     OW24214   1.596   0.300   6.145  0.3015 -0.2508 -0.1602
 4193SOL    HW124215   1.558   0.224   6.101 -0.0521 -0.5904  0.7321
 4193SOL    HW224216   1.598   0.277   6.238  0.0613  0.2868 -0.0203
 4194SOL     OW24217   3.324   1.675   4.761  0.6370  0.0658  0.3587
 4194SOL    HW124218   3.261   1.690   4.831  0.5954  2.0658 -0.0920
 4194SOL    HW224219   3.268   1.687   4.684  1.3030 -0.2669 -0.1791
 4195SOL     OW24220   2.383   4.718   7.896  0.4731 -0.2938  0.1591
 4195SOL    HW124221   2.344   0.001   7.811 -0.6477  0.7706  0.9227
 4195SOL    HW224222   2.459   4.663   7.876 -0.3637 -0.9817 -1.0581
 4196SOL     OW24223   2.419   4.656   4.876  0.3989 -0.3055 -0.0282
 4196SOL    HW124224   2.415   4.596   4.801  0.8945 -1.4491  0.8672
 4196SOL    HW224225   2.333   4.699   4.874 -0.4054 -2.0331 -3.3251
 4197SOL     OW24226   3.252   3.357   2.153 -0.1135 -0.2213  0.3485
 4197SOL    HW124227   3.229   3.265   2.165 -2.3210  0.3832  0.8668
 4197SOL    HW224228   3.166   3.393   2.131 -0.2948 -0.1198  1.1989
 4198SOL     OW24229   1.362   1.021   9.214 -0.4214  0.7572 -0.0635
 4198SOL    HW124230   1.343   1.084   9.283  0.1498 -0.1467  0.9078
 4198SOL    HW224231   1.291   0.956   9.219 -0.5134  0.8809  0.2176
 4199SOL     OW24232   0.616   2.550   1.776  0.0216  0.2130  0.4089
 4199SOL    HW124233   0.572   2.474   1.737  0.9868 -0.4474  0.6169
 4199SOL    HW224234   0.702   2.512   1.758 -0.6010 -2.3412  2.8488
 4200SOL     OW24235   2.391   1.474   0.305  0.6024 -0.4782 -0.1636
 4200SOL    HW124236   2.351   1.472   0.218  1.2730 -2.3118 -0.4363
 4200SOL    HW224237   2.479   1.459   0.270  0.7369  0.4338 -0.2348
 4201SOL     OW24238   0.497   0.131   3.221  0.5801 -0.5772 -0.3793
 4201SOL    HW124239   0.519   0.196   3.288  1.1999 -1.6098  0.4207
 4201SOL    HW224240   0.582   0.086   3.220 -0.3015 -2.1854 -2.3119
 4202SOL     OW24241   3.378   2.354   3.797 -0.3439  0.6652 -0.2879
 4202SOL    HW124242   3.291   2.348   3.756 -0.6578  0.5007  0.4125
 4202SOL    HW224243   3.390   2.259   3.792  2.4839  1.0423 -0.9518
 4203SOL     OW24244   1.238   0.586  17.278  0.5044 -0.1288 -0.5334
 4203SOL    HW124245   1.265   0.675  17.299 -0.2711  0.2821 -1.2622
 4203SOL    HW224246   1.292   0.535  17.339  0.4685 -0.7947 -1.0541
 4204SOL     OW24247   3.526   2.643  17.572 -0.1456  0.5812  1.2144
 4204SOL    HW124248   3.451   2.637  17.513  0.4940 -2.1511  0.6772
 4204SOL    HW224249   3.601   2.638  17.512 -0.2983 -2.5654  1.2778
 4205SOL     OW24250   3.495   1.718  10.390 -0.0329 -0.3636 -0.0498
 4205SOL    HW124251   3.423   1.774  10.360  0.4103  0.6021  0.6715
 4205SOL    HW224252   3.472   1.637  10.345  0.6450 -0.0626 -0.9306
 4206SOL     OW24253   0.059   2.997   1.867 -0.0295  0.3881 -0.4451
 4206SOL    HW124254   0.076   3.000   1.772  0.5046 -2.4833 -0.4544
 4206SOL    HW224255   0.124   2.931   1.891 -0.5305 -0.5778 -1.7364
 4207SOL     OW24256   2.595   1.141   7.480 -0.0482 -0.6430  0.5519
 4207SOL    HW124257   2.546   1.218   7.450  1.3025  0.1814  0.4603
 4207SOL    HW224258   2.681   1.177   7.498 -0.9942  1.6414  0.5716
 4208SOL     OW24259   1.936   0.604   7.275  0.0813  0.2699 -0.2166
 4208SOL    HW124260   1.918   0.698   7.282  0.1510  0.2537  0.1595
 4208SOL    HW224261   2.004   0.602   7.209 -0.9084  1.7349 -1.2794
 4209SOL     OW24262   4.091   2.319   9.012  0.4226  0.3327 -0.1310
 4209SOL    HW124263   4.068   2.353   8.925 -0.9946 -1.2923 -0.3793
 4209SOL    HW224264   4.134   2.237   8.990 -0.3664 -0.3589  0.9398
 4210SOL     OW24265   1.970   3.234   2.918 -0.2745 -0.3405 -0.4078
 4210SOL    HW124266   2.011   3.236   3.004 -4.0922  1.2820  1.3901
 4210SOL    HW224267   2.042   3.215   2.858  0.4008  0.3833  0.1715
 4211SOL     OW24268   0.147   1.569   6.801 -0.1788  0.2521  0.2754
 4211SOL    HW124269   0.213   1.512   6.840  0.0063  1.3872  1.6050
 4211SOL    HW224270   0.124   1.507   6.731  2.6824 -0.7488  0.1992
 4212SOL     OW24271   1.994   4.528  12.399 -0.4451  0.3955 -0.1034
 4212SOL    HW124272   1.995   4.572  12.484 -1.0900  0.3775 -0.0897
 4212SOL    HW224273   2.088   4.541  12.385 -0.6092  0.6797 -0.9917
 4213SOL     OW24274   1.649   2.120   5.214  1.0447  0.6781  0.4186
 4213SOL    HW124275   1.636   2.068   5.293 -2.1985 -0.8530 -1.1106
 4213SOL    HW224276   1.669   2.046   5.157 -1.3884 -1.2560  2.1216
 4214SOL     OW24277   3.240   0.048   3.919  0.0782  0.0177 -0.0685
 4214SOL    HW124278   3.268   0.120   3.863  0.2533 -0.0693 -0.0955
 4214SOL    HW224279   3.242   0.086   4.007 -2.4998  0.3826 -0.1751
 4215SOL     OW24280   0.568   0.018   5.066  0.1308  0.0629  0.1271
 4215SOL    HW124281   0.642   4.707   5.104  0.7104 -0.7633 -2.0432
 4215SOL    HW224282   0.489   4.703   5.074 -0.9815  1.7932  0.3165
 4216SOL     OW24283   3.020   1.122   7.965  0.1590  0.0506 -0.2311
 4216SOL    HW124284   3.086   1.101   8.031 -0.5696 -1.5376 -0.0055
 4216SOL    HW224285   3.055   1.080   7.886 -0.3663 -1.5598  0.3802
 4217SOL     OW24286   1.959   1.491   4.137 -0.6095 -0.0042  0.4026
 4217SOL    HW124287   1.892   1.515   4.201  0.1379  0.4127  1.0280
 4217SOL    HW224288   2.026   1.442   4.186 -0.2707  0.8973  0.8352
 4218SOL     OW24289   2.236   1.576  11.710  0.7353 -0.1656 -0.1198
 4218SOL    HW124290   2.184   1.601  11.786 -1.1033  0.7778 -1.6723
 4218SOL    HW224291   2.247   1.664  11.674  0.8850 -0.6981 -1.3753
 4219SOL     OW24292   2.064   2.415   2.021  0.3800 -0.4713  0.2439
 4219SOL    HW124293   2.124   2.418   1.946  0.9651 -3.8830  0.5648
 4219SOL    HW224294   2.068   2.326   2.056  0.4131 -0.9266 -0.8853
 4220SOL     OW24295   2.909   3.763   3.964 -0.2059  0.0253 -0.0454
 4220SOL    HW124296   2.888   3.856   3.962  1.2608  0.3604  0.3768
 4220SOL    HW224297   2.990   3.765   3.912  0.6427 -0.5316  1.2775
 4221SOL     OW24298   0.068   2.831   0.978 -0.0396  0.1574  0.1419
 4221SOL    HW124299   4.724   2.825   1.030 -0.0595  0.4364  0.1409
 4221SOL    HW224300   0.128   2.786   1.037  0.7085 -0.6114 -1.2123
 4222SOL     OW24301   2.767   1.054   1.463  0.2256  0.0002  0.2024
 4222SOL    HW124302   2.816   1.009   1.394 -0.2046 -1.8877  1.1498
 4222SOL    HW224303   2.838   1.065   1.526 -1.8908  2.2385  2.1904
 4223SOL     OW24304   3.317   1.320   8.635 -0.0265  0.2519 -0.2989
 4223SOL    HW124305   3.341   1.393   8.578  1.9165 -1.1053 -1.2183
 4223SOL    HW224306   3.390   1.259   8.632 -0.3246 -0.0529 -1.0758
 4224SOL     OW24307   3.990   1.775  10.049 -0.3010  0.8106 -0.2011
 4224SOL    HW124308   3.905   1.752  10.087  0.2862 -1.5128 -0.2884
 4224SOL    HW224309   3.960   1.850   9.997 -0.6130 -0.7971 -2.3365
 4225SOL     OW24310   2.897   1.418  11.612 -0.0404 -0.2257 -0.3108
 4225SOL    HW124311   2.917   1.332  11.647 -0.5661 -0.7081 -1.2036
 4225SOL    HW224312   2.801   1.416  11.610 -0.0896  1.6884  0.2651
 4226SOL     OW24313   0.864   4.599  16.413  0.0013  0.1145 -0.0721
 4226SOL    HW124314   0.880   4.674  16.356 -3.5699  1.2219  0.3891
 4226SOL    HW224315   0.903   4.630  16.495  1.5488 -0.7382 -0.5006
 4227SOL     OW24316   4.050   1.722   3.348 -0.1195 -0.1439  0.4119
 4227SOL    HW124317   4.052   1.628   3.330 -3.0057 -1.2493  5.7599
 4227SOL    HW224318   3.969   1.735   3.299 -1.4132  1.2113  2.8871
 4228SOL     OW24319   4.493   1.090  12.849  0.6900  0.1302 -0.3042
 4228SOL    HW124320   4.426   1.119  12.911 -0.2099 -0.9775 -0.7618
 4228SOL    HW224321   4.569   1.147  12.861 -0.1911  1.5924 -1.6062
 4229SOL     OW24322   3.129   2.020   1.637  0.1774  0.3785 -0.4560
 4229SOL    HW124323   3.177   2.027   1.554  0.2176  1.3174 -0.3536
 4229SOL    HW224324   3.191   2.061   1.697 -0.3508 -2.1366  1.8045
 4230SOL     OW24325   0.052   1.393   3.351 -0.3423  0.4805  0.1884
 4230SOL    HW124326   4.730   1.318   3.341  2.8282 -2.2224  1.8343
 4230SOL    HW224327   0.120   1.374   3.287  1.4991  0.5890  2.1308
 4231SOL     OW24328   4.364   1.694   0.054 -0.0655 -0.2740  0.3464
 4231SOL    HW124329   4.397   1.668   0.140 -1.9558 -1.8474  0.5972
 4231SOL    HW224330   4.296   1.628   0.038 -2.0713  1.8635  0.0533
 4232SOL     OW24331   1.529   3.744   8.628 -0.5694 -0.2982  0.4040
 4232SOL    HW124332   1.614   3.708   8.605 -0.9364 -0.3033 -0.9473
 4232SOL    HW224333   1.506   3.795   8.550  1.1794 -0.0126  0.0929
 4233SOL     OW24334   2.327   4.515   6.981  0.2517 -0.5879  0.4285
 4233SOL    HW124335   2.277   4.594   6.963 -1.0617 -0.7782  3.2540
 4233SOL    HW224336   2.262   4.445   6.967  1.6052 -2.1462  1.8670
 4234SOL     OW24337   2.028   0.583  11.038  0.6862 -0.3420  0.3204
 4234SOL    HW124338   2.025   0.675  11.064 -1.2097 -0.7613  1.5577
 4234SOL    HW224339   2.122   0.566  11.033  0.9369  1.2172 -0.4525
 4235SOL     OW24340   4.093   2.431   7.724 -0.0454 -0.5147  0.1250
 4235SOL    HW124341   4.110   2.439   7.630 -0.4563  1.9900  0.2780
 4235SOL    HW224342   3.998   2.414   7.724 -0.0426 -0.4525  2.3448
 4236SOL     OW24343   2.909   0.622   5.301 -0.4815 -0.3089  0.7141
 4236SOL    HW124344   2.981   0.608   5.239 -2.9242  0.3453 -2.3171
 4236SOL    HW224345   2.836   0.622   5.239  0.1771 -0.1451 -0.0655
 4237SOL     OW24346   1.554   0.415   9.944  0.3565  0.2679 -0.1622
 4237SOL    HW124347   1.642   0.386   9.969  0.4183  0.7584  0.2174
 4237SOL    HW224348   1.557   0.507   9.973 -3.4794 -0.0696  1.2607
 4238SOL     OW24349   2.436   2.424   6.461  0.0058  0.4892  0.7332
 4238SOL    HW124350   2.514   2.387   6.502  1.8896  2.9790 -0.5951
 4238SOL    HW224351   2.372   2.437   6.531  0.6903  3.6142  0.7795
 4239SOL     OW24352   2.520   2.978   7.002 -0.3140 -0.2031  0.3634
 4239SOL    HW124353   2.596   2.950   7.053  0.0982 -0.7543 -0.5369
 4239SOL    HW224354   2.542   3.071   7.005 -0.2789 -0.2256  0.8408
 4240SOL     OW24355   0.355   2.248   7.822  0.3274  0.3440  0.0681
 4240SOL    HW124356   0.317   2.313   7.764  2.1283  0.4509 -0.9929
 4240SOL    HW224357   0.278   2.211   7.865 -0.2614 -0.5451 -1.7527
 4241SOL     OW24358   0.411   0.009  17.391  0.4075 -0.0595  0.4830
 4241SOL    HW124359   0.360   4.698  17.456 -0.6508  0.1776 -0.1710
 4241SOL    HW224360   0.359   4.730  17.311  1.1644 -0.6402  0.1084
 4242SOL     OW24361   0.610   1.006   2.297  0.3607  0.6323 -0.2001
 4242SOL    HW124362   0.633   1.059   2.373 -1.1934 -0.0117  0.7290
 4242SOL    HW224363   0.688   0.951   2.293 -0.1543 -0.2501  1.7762
 4243SOL     OW24364   0.897   0.049  14.776  0.2641 -0.0907  0.1352
 4243SOL    HW124365   0.977   4.734  14.784  0.8971  0.7333 -0.8822
 4243SOL    HW224366   0.872   0.066  14.867  0.6599 -1.8787  0.5739
 4244SOL     OW24367   4.066   3.024   6.971  0.1233  0.7399  0.4161
 4244SOL    HW124368   4.006   3.039   7.044  0.5681  1.7770  0.5707
 4244SOL    HW224369   4.120   2.955   7.009  2.2057  2.3903  0.4640
 4245SOL     OW24370   2.027   0.342  15.186 -0.4304  0.4983  0.5277
 4245SOL    HW124371   1.999   0.380  15.103 -0.9452  0.3650  0.6398
 4245SOL    HW224372   2.004   0.405  15.254  1.4571  0.1016  1.5402
 4246SOL     OW24373   4.036   3.203  16.039 -0.4204  0.3683  0.5436
 4246SOL    HW124374   4.115   3.224  15.991 -0.0422 -0.7393  0.6843
 4246SOL    HW224375   4.011   3.126  15.988  1.0338  0.2762 -0.0094
 4247SOL     OW24376   3.989   2.698   6.351 -0.5578 -0.1935  0.3991
 4247SOL    HW124377   3.938   2.766   6.306  0.3480 -0.5401 -1.1487
 4247SOL    HW224378   3.976   2.615   6.304 -0.2766 -1.0506  1.8472
 4248SOL     OW24379   1.478   3.094  16.172  0.1408 -0.5901 -0.4595
 4248SOL    HW124380   1.458   3.105  16.265  2.3855  1.5362 -0.2255
 4248SOL    HW224381   1.445   3.004  16.170  0.8008 -0.7524 -3.8399
 4249SOL     OW24382   0.355   3.269   3.828 -0.2801 -0.0117 -0.2843
 4249SOL    HW124383   0.298   3.296   3.755  1.0899 -1.4483 -1.8693
 4249SOL    HW224384   0.352   3.338   3.894 -1.1532 -1.8933  1.6371
 4250SOL     OW24385   1.181   3.046   7.275  0.9537  0.5066 -0.4568
 4250SOL    HW124386   1.208   2.961   7.240 -2.7147 -1.3434  1.2285
 4250SOL    HW224387   1.098   3.018   7.313  0.6670  1.3228 -0.4995
 4251SOL     OW24388   4.533   2.176   2.252 -0.5150  0.2988  0.1805
 4251SOL    HW124389   4.561   2.147   2.338 -1.9133 -0.5072  0.3564
 4251SOL    HW224390   4.457   2.119   2.242  0.9729 -1.3789 -1.4703
 4252SOL     OW24391   3.375   3.341   5.650 -0.0723 -0.5914  0.0678
 4252SOL    HW124392   3.434   3.403   5.694 -1.6450  0.5569  0.5904
 4252SOL    HW224393   3.292   3.388   5.657  0.3278  0.1848 -0.3496
 4253SOL     OW24394   1.805   3.686   4.321  0.1038 -0.1437 -0.0856
 4253SOL    HW124395   1.816   3.763   4.264 -2.2484  1.8790  2.1940
 4253SOL    HW224396   1.875   3.626   4.298  0.9364  0.7390  0.1328
 4254SOL     OW24397   4.624   1.523   7.427 -0.2378 -0.4526 -0.0124
 4254SOL    HW124398   4.595   1.518   7.336  0.3208 -0.3903 -0.1946
 4254SOL    HW224399   4.717   1.505   7.410 -0.2308  1.3812 -1.9774
 4255SOL     OW24400   4.167   3.781  17.250  0.0821  0.3972 -0.0225
 4255SOL    HW124401   4.210   3.736  17.322  1.1696  1.3672 -0.0742
 4255SOL    HW224402   4.243   3.835  17.231  0.5637 -0.5537 -0.8030
 4256SOL     OW24403   0.051   3.613   9.729 -0.1908  0.0327  0.5212
 4256SOL    HW124404   0.022   3.552   9.661  1.9125  0.2165 -0.5758
 4256SOL    HW224405   0.140   3.637   9.700 -0.4474 -0.8565 -1.0447
 4257SOL     OW24406   1.526   2.640  16.354 -0.2841  1.2236  0.3221
 4257SOL    HW124407   1.615   2.609  16.338 -0.8839 -0.2388 -0.1548
 4257SOL    HW224408   1.530   2.713  16.292 -1.0997  1.6887  0.8241
 4258SOL     OW24409   1.144   3.868   6.380 -0.2543 -0.3586  0.1154
 4258SOL    HW124410   1.115   3.778   6.397 -0.9247 -0.2389 -0.3942
 4258SOL    HW224411   1.066   3.922   6.392 -0.4363 -0.4841 -0.4736
 4259SOL     OW24412   2.308   3.617  14.287 -0.2117  0.1129 -0.0985
 4259SOL    HW124413   2.280   3.696  14.333 -0.5361 -0.1163  0.0962
 4259SOL    HW224414   2.243   3.602  14.218  0.0346  0.6275 -0.4405
 4260SOL     OW24415   4.287   2.996   8.790  0.3736 -0.4336  0.2773
 4260SOL    HW124416   4.364   3.035   8.833 -0.5749  2.3139 -0.5104
 4260SOL    HW224417   4.230   3.070   8.770  0.5660 -0.7911 -1.5836
 4261SOL     OW24418   1.045   3.262  14.223 -0.2432 -0.4208  0.2488
 4261SOL    HW124419   0.967   3.314  14.244 -0.2139  0.0127 -0.7409
 4261SOL    HW224420   1.071   3.237  14.312  0.3633 -1.0178 -0.1005
 4262SOL     OW24421   3.911   1.116  16.705  0.0634 -0.8100  0.0016
 4262SOL    HW124422   3.860   1.056  16.650 -0.0498 -2.9175  2.4098
 4262SOL    HW224423   3.847   1.149  16.769  0.9416 -0.6314  0.7846
 4263SOL     OW24424   4.611   1.591  14.385  0.1306 -0.1846 -0.1520
 4263SOL    HW124425   4.541   1.654  14.370  0.6591  0.7081  1.1923
 4263SOL    HW224426   4.574   1.564  14.468  1.6201 -1.7333  0.0131
 4264SOL     OW24427   1.796   4.571   6.334  0.4946 -0.0472  0.7554
 4264SOL    HW124428   1.849   4.576   6.254  1.1102 -0.0151  1.1656
 4264SOL    HW224429   1.708   4.573   6.297  1.9377 -1.5339 -2.7377
 4265SOL     OW24430   3.123   3.412   6.956 -0.1957  0.1330  0.2090
 4265SOL    HW124431   3.064   3.449   7.022 -0.1568 -0.8428  0.7871
 4265SOL    HW224432   3.203   3.407   7.008 -0.3136 -0.8406  0.2940
 4266SOL     OW24433   0.960   0.617  15.913  0.5979  0.3223  0.0974
 4266SOL    HW124434   1.016   0.647  15.841 -1.1445 -0.8640 -1.7478
 4266SOL    HW224435   1.027   0.599  15.979 -0.0608  0.8761  0.9150
 4267SOL     OW24436   0.639   4.528   0.857 -0.2625 -0.0563  0.3684
 4267SOL    HW124437   0.575   4.577   0.805  0.5802  2.9908  2.2113
 4267SOL    HW224438   0.608   4.531   0.948  1.2079  0.7368  0.8417
 4268SOL     OW24439   1.612   0.278   6.438  0.1817  0.5735  0.3636
 4268SOL    HW124440   1.573   0.202   6.481 -4.0481  1.7395 -1.4506
 4268SOL    HW224441   1.684   0.299   6.498  0.7528  1.4175 -0.6020
 4269SOL     OW24442   1.710   1.140  10.226  0.0949 -0.0057 -0.1748
 4269SOL    HW124443   1.616   1.123  10.218  0.0844  0.3373 -0.8375
 4269SOL    HW224444   1.710   1.215  10.285 -1.2892  0.5184 -0.8476
 4270SOL     OW24445   3.726   1.711  11.997  0.2823 -0.0047  0.8310
 4270SOL    HW124446   3.773   1.658  12.062  0.4870 -1.1238 -0.2182
 4270SOL    HW224447   3.644   1.728  12.043 -1.0500 -2.5202 -0.5855
 4271SOL     OW24448   1.154   3.784  13.525  0.3172  0.7440 -0.0342
 4271SOL    HW124449   1.094   3.818  13.592  0.9569 -0.0220  0.9261
 4271SOL    HW224450   1.157   3.851  13.457  2.2947 -0.4529 -1.1377
 4272SOL     OW24451   1.049   3.583   6.247 -0.7264  0.7796 -0.2824
 4272SOL    HW124452   1.122   3.618   6.196 -1.5213  0.8833 -1.3575
 4272SOL    HW224453   0.981   3.596   6.180 -1.0974  0.3635  0.0135
 4273SOL     OW24454   0.673   3.154   2.712  0.3560 -0.3440 -0.9000
 4273SOL    HW124455   0.736   3.224   2.698  0.8493 -0.0617  2.6438
 4273SOL    HW224456   0.656   3.110   2.629 -0.1681 -1.0093 -0.4385
 4274SOL     OW24457   4.139   1.871  16.843 -0.6344 -0.0618 -0.5504
 4274SOL    HW124458   4.211   1.875  16.780 -0.8520 -0.7819 -0.8415
 4274SOL    HW224459   4.159   1.957  16.881 -0.1527 -0.0041 -0.9386
 4275SOL     OW24460   1.640   3.905   6.720  0.0114  0.1824  0.1872
 4275SOL    HW124461   1.624   3.879   6.630  1.0458 -1.2025  0.4093
 4275SOL    HW224462   1.733   3.887   6.735 -0.0069 -1.0370 -1.2375
 4276SOL     OW24463   2.217   0.572  12.222 -0.4371 -0.3948  0.2095
 4276SOL    HW124464   2.183   0.630  12.154  0.1358 -2.6822 -2.0173
 4276SOL    HW224465   2.304   0.611  12.216 -0.3850 -0.8092 -1.7438
 4277SOL     OW24466   1.897   2.359   7.453  0.2749 -0.1520 -0.3425
 4277SOL    HW124467   1.817   2.388   7.496 -0.1144  1.2811 -2.0273
 4277SOL    HW224468   1.968   2.392   7.508 -0.2952 -1.8576  1.4156
 4278SOL     OW24469   2.117   4.161   1.933 -0.2064  0.1276 -0.3428
 4278SOL    HW124470   2.194   4.135   1.882  0.1178 -1.1100  0.7808
 4278SOL    HW224471   2.150   4.241   1.971 -0.6966  0.8363 -1.3925
 4279SOL     OW24472   2.112   2.621  11.737 -0.0435  0.0623 -0.2687
 4279SOL    HW124473   2.130   2.707  11.699  2.4637 -0.1924  0.3156
 4279SOL    HW224474   2.205   2.598  11.746  0.1539  0.6902 -0.6827
 4280SOL     OW24475   3.378   2.057   7.119 -0.3997 -0.5349  0.2380
 4280SOL    HW124476   3.396   2.138   7.167 -2.2571  1.0502 -1.7236
 4280SOL    HW224477   3.289   2.038   7.148 -1.3764  2.2013 -0.9130
 4281SOL     OW24478   1.670   4.500   3.115 -0.0807  0.4783  0.1689
 4281SOL    HW124479   1.658   4.465   3.204 -0.2030  3.5925  1.3881
 4281SOL    HW224480   1.749   4.552   3.127 -0.1866  0.3251  1.6304
 4282SOL     OW24481   1.661   4.311   8.981 -0.2885  0.2487 -0.1761
 4282SOL    HW124482   1.613   4.273   8.907  0.1422 -1.6616  0.5086
 4282SOL    HW224483   1.631   4.263   9.058  1.4951  1.2344  1.1495
 4283SOL     OW24484   2.471   1.474   8.819  1.2138 -0.3727 -0.1274
 4283SOL    HW124485   2.388   1.497   8.779  1.7470  1.2231 -0.3062
 4283SOL    HW224486   2.518   1.555   8.841  1.3124 -0.4049 -0.2235
 4284SOL     OW24487   3.283   0.130   7.305 -0.2498 -0.4627 -0.2784
 4284SOL    HW124488   3.200   0.112   7.260  0.6115 -1.1193 -1.5946
 4284SOL    HW224489   3.328   0.045   7.303  2.8771  1.2091 -0.3467
 4285SOL     OW24490   3.241   1.319   8.008  0.4335  0.4941 -0.5335
 4285SOL    HW124491   3.149   1.336   7.987  0.1661  0.5241  0.6558
 4285SOL    HW224492   3.231   1.328   8.103 -1.6505  2.1941 -0.8991
 4286SOL     OW24493   2.201   4.675   1.637 -0.5142  0.1690 -0.0048
 4286SOL    HW124494   2.163   0.021   1.666  1.3524  0.5701  1.3377
 4286SOL    HW224495   2.147   4.662   1.560  0.3704 -0.2708 -0.5595
 4287SOL     OW24496   3.084   0.736   4.652  0.4460 -0.7933 -0.7310
 4287SOL    HW124497   3.036   0.759   4.732 -1.0171 -0.6296 -1.6493
 4287SOL    HW224498   3.149   0.805   4.663  0.1463 -0.6693  0.2572
 4288SOL     OW24499   2.025   4.420  14.775 -0.6527  0.9523 -0.2658
 4288SOL    HW124500   2.008   4.362  14.701 -1.0848  1.0433 -0.2373
 4288SOL    HW224501   2.073   4.368  14.839 -1.7419  0.2998  0.0232
 4289SOL     OW24502   3.333   4.198   6.560 -0.3425  0.1727 -0.3311
 4289SOL    HW124503   3.360   4.285   6.589  0.4821 -0.4177  0.7222
 4289SOL    HW224504   3.371   4.195   6.472  0.2924 -0.4879 -0.0448
 4290SOL     OW24505   0.137   3.671   7.553 -0.0880 -0.2254  0.1113
 4290SOL    HW124506   0.186   3.723   7.489 -0.4096  0.1261  0.1481
 4290SOL    HW224507   0.154   3.700   7.642 -0.1108  1.9698 -0.6013
 4291SOL     OW24508   2.705   2.865  14.981 -0.4063  0.0339 -0.7639
 4291SOL    HW124509   2.750   2.784  15.005  2.1331  1.0466 -2.0718
 4291SOL    HW224510   2.635   2.829  14.927 -0.1666 -1.6273  0.0392
 4292SOL     OW24511   2.130   4.136   2.932 -0.1013 -0.6132 -0.1790
 4292SOL    HW124512   2.076   4.094   2.866  2.8341 -1.8916 -1.7650
 4292SOL    HW224513   2.191   4.178   2.871 -1.4641  1.2100 -0.2933
 4293SOL     OW24514   0.857   0.010   0.778  0.1240 -0.2866 -0.5222
 4293SOL    HW124515   0.788   0.077   0.772 -0.6421 -0.9866  0.3604
 4293SOL    HW224516   0.854   4.702   0.694  0.4585  1.5090 -1.4906
 4294SOL     OW24517   1.534   4.142  12.851 -0.2535 -0.3327 -0.0941
 4294SOL    HW124518   1.585   4.141  12.770  0.3531 -1.2245  0.2856
 4294SOL    HW224519   1.450   4.134  12.806 -0.8607  3.0032  0.4354
 4295SOL     OW24520   3.424   2.034  10.133 -0.3934 -0.0628  0.3018
 4295SOL    HW124521   3.353   2.061  10.076  0.5756 -0.7293 -1.2190
 4295SOL    HW224522   3.492   2.074  10.079  0.0604  1.0341  1.6704
 4296SOL     OW24523   1.945   0.456   7.760  0.0112 -0.1093  0.4631
 4296SOL    HW124524   1.886   0.473   7.833 -1.2242  1.0460 -0.8117
 4296SOL    HW224525   1.881   0.470   7.690 -0.7604  1.0772  1.3983
 4297SOL     OW24526   2.297   1.069   4.847  0.6664  0.2793 -0.4940
 4297SOL    HW124527   2.276   1.024   4.765 -0.1635 -0.9318  0.3738
 4297SOL    HW224528   2.315   0.997   4.908  0.7695  0.0326 -0.8147
 4298SOL     OW24529   2.666   2.391   8.103 -0.2772 -0.0955 -0.1782
 4298SOL    HW124530   2.707   2.337   8.035 -0.4471  0.6688 -0.8782
 4298SOL    HW224531   2.714   2.365   8.182  0.8169 -1.1893 -1.2122
 4299SOL     OW24532   4.073   3.463   3.791 -0.5636 -0.2220  0.5240
 4299SOL    HW124533   4.121   3.396   3.839  0.8436  1.4419  1.4528
 4299SOL    HW224534   3.999   3.482   3.849 -0.6526 -2.0020  0.9819
 4300SOL     OW24535   1.924   4.041   2.095  0.4206  0.3567  0.2646
 4300SOL    HW124536   1.843   4.034   2.045  1.0157  0.1986 -0.6620
 4300SOL    HW224537   1.982   4.092   2.039 -0.3900  0.1922 -0.7108
 4301SOL     OW24538   4.272   4.279   9.928  0.0236 -0.2021  0.0844
 4301SOL    HW124539   4.227   4.214   9.983  1.2591 -2.6469 -1.7962
 4301SOL    HW224540   4.357   4.289   9.971  1.0195 -0.3664 -1.8274
 4302SOL     OW24541   1.703   2.502  15.987  0.3707  0.4796  0.1454
 4302SOL    HW124542   1.781   2.488  15.933 -0.1272  0.8345 -0.6630
 4302SOL    HW224543   1.630   2.527  15.930 -0.5949  1.4810  1.8448
 4303SOL     OW24544   1.402   3.078   2.559  0.5455 -0.5701  0.1215
 4303SOL    HW124545   1.478   3.091   2.502  1.5516  0.4860  1.6985
 4303SOL    HW224546   1.404   2.982   2.562  1.9832 -0.4959  1.7174
 4304SOL     OW24547   2.834   3.117   4.735  0.1587  0.3038 -0.4268
 4304SOL    HW124548   2.796   3.199   4.700 -1.7214 -0.7434 -0.8434
 4304SOL    HW224549   2.928   3.128   4.725  0.2452  0.0541  0.1164
 4305SOL     OW24550   3.639   4.588   9.047 -0.3879  0.3722 -0.2273
 4305SOL    HW124551   3.582   4.625   8.980  1.5721  0.7630 -1.6543
 4305SOL    HW224552   3.591   4.627   9.120  0.2028 -0.9086  0.8515
 4306SOL     OW24553   1.069   3.273   7.189 -0.0486 -0.5563 -0.0053
 4306SOL    HW124554   1.146   3.316   7.152  0.1943  0.1952  1.3877
 4306SOL    HW224555   1.100   3.194   7.233 -2.1363 -0.7037  1.1544
 4307SOL     OW24556   2.349   4.169   4.992 -0.0824  0.7983  0.0212
 4307SOL    HW124557   2.440   4.193   4.979  0.1899  1.4856  3.1284
 4307SOL    HW224558   2.360   4.076   5.013 -2.2550  0.2360 -1.2650
 4308SOL     OW24559   1.772   1.088  12.474  0.0506 -0.1189  0.5194
 4308SOL    HW124560   1.860   1.065  12.443  0.5809  2.9588 -0.2866
 4308SOL    HW224561   1.725   1.134  12.405  1.9896  1.7019  0.4000
 4309SOL     OW24562   2.469   0.034  11.081 -0.1392  0.5252  0.2243
 4309SOL    HW124563   2.425   0.043  11.165  1.1209  1.4578  0.7773
 4309SOL    HW224564   2.527   0.110  11.083  1.0496 -0.4040  1.0062
 4310SOL     OW24565   2.550   1.491   8.062 -0.1658 -0.4310  0.2875
 4310SOL    HW124566   2.491   1.458   8.130 -0.8027  1.7838  0.8057
 4310SOL    HW224567   2.593   1.563   8.108  1.1365 -2.5189  2.3927
 4311SOL     OW24568   3.435   1.586   1.263  0.2976  0.5115 -0.6256
 4311SOL    HW124569   3.461   1.601   1.172  3.7484  0.9244  0.4149
 4311SOL    HW224570   3.365   1.649   1.278 -0.8998 -0.4366 -2.1984
 4312SOL     OW24571   3.031   0.341  12.066  0.4779  0.0678 -0.3530
 4312SOL    HW124572   2.984   0.350  12.149 -1.0046 -1.2742 -1.0628
 4312SOL    HW224573   3.022   0.432  12.037 -2.3845  0.3954  1.5031
 4313SOL     OW24574   1.239   2.058   4.124  0.0743 -0.3185  0.4560
 4313SOL    HW124575   1.207   2.148   4.122 -1.7269 -0.9970 -1.0470
 4313SOL    HW224576   1.334   2.073   4.128 -0.0244  0.8878 -1.8848
 4314SOL     OW24577   2.010   4.468  15.841  0.8339 -0.0310  0.4482
 4314SOL    HW124578   2.057   4.515  15.910 -0.7959  2.9257 -0.4785
 4314SOL    HW224579   1.939   4.532  15.843  0.3005 -0.6406  0.9597
 4315SOL     OW24580   3.222   3.921   7.726  0.7167 -0.6138  0.2354
 4315SOL    HW124581   3.153   3.874   7.679 -0.4077  0.5183  0.7269
 4315SOL    HW224582   3.219   3.892   7.817  0.8841  0.7651  0.6899
 4316SOL     OW24583   2.663   4.087   8.158 -0.2940 -0.1982  0.0296
 4316SOL    HW124584   2.671   4.017   8.093  0.8225 -1.3129  1.3465
 4316SOL    HW224585   2.642   4.039   8.239 -2.3175  0.6641  0.0142
 4317SOL     OW24586   2.387   1.247  10.147 -0.1057 -0.0979  0.4655
 4317SOL    HW124587   2.372   1.314  10.213  0.2112 -0.3040  0.7450
 4317SOL    HW224588   2.473   1.214  10.173 -0.5429 -0.7480  1.0585
 4318SOL     OW24589   0.861   1.360   2.679 -0.1590  0.3033 -0.5433
 4318SOL    HW124590   0.850   1.451   2.709 -0.7523 -0.2284  0.8700
 4318SOL    HW224591   0.818   1.325   2.757  0.2826 -2.9107 -1.7583
 4319SOL     OW24592   4.312   3.953   7.622  0.3037  0.1324  0.4406
 4319SOL    HW124593   4.372   3.917   7.687  0.2473 -0.2354  0.2905
 4319SOL    HW224594   4.370   3.991   7.556 -0.0604  0.3406  0.2366
 4320SOL     OW24595   2.163   0.032  11.851 -0.1886 -1.0823  0.5479
 4320SOL    HW124596   2.073   0.015  11.879  0.3078  0.7748  3.2518
 4320SOL    HW224597   2.207   0.016  11.935  2.2149 -1.3400 -0.7646
 4321SOL     OW24598   1.142   3.552   5.852  0.1818  1.0067 -0.3098
 4321SOL    HW124599   1.121   3.466   5.816 -2.0944  0.6180  1.9638
 4321SOL    HW224600   1.238   3.545   5.851  0.1724  0.3585  3.6049
 4322SOL     OW24601   0.033   0.727   5.086 -0.5440 -0.0990  0.2335
 4322SOL    HW124602   4.675   0.717   5.083 -0.4333 -0.8600 -0.4027
 4322SOL    HW224603   0.043   0.783   5.163 -1.3685  0.1824  0.1353
 4323SOL     OW24604   2.853   4.509   2.390  0.7203 -0.8051 -0.4591
 4323SOL    HW124605   2.810   4.467   2.464 -1.3600  1.0241 -0.6231
 4323SOL    HW224606   2.930   4.455   2.370  0.9056 -1.0295  0.8688
 4324SOL     OW24607   1.315   4.270   2.646  0.0162 -0.5712  0.6982
 4324SOL    HW124608   1.250   4.339   2.662 -0.1661 -1.3451  3.4217
 4324SOL    HW224609   1.353   4.259   2.733  0.3136  0.7845  0.7365
 4325SOL     OW24610   1.701   3.387   5.260 -0.4001  0.0585  0.1696
 4325SOL    HW124611   1.777   3.444   5.265 -0.2469  0.0235 -1.7518
 4325SOL    HW224612   1.688   3.356   5.350 -0.8704 -0.7492 -0.1750
 4326SOL     OW24613   2.682   1.470   0.571 -0.5899  0.1592 -0.4001
 4326SOL    HW124614   2.716   1.410   0.636 -0.7320  1.6517  1.0587
 4326SOL    HW224615   2.588   1.466   0.589 -0.6028  1.3625 -0.1384
 4327SOL     OW24616   2.379   3.092  15.018 -0.1349  0.2161 -0.0396
 4327SOL    HW124617   2.422   3.010  15.043 -0.8758  0.9068  3.5353
 4327SOL    HW224618   2.395   3.143  15.098  1.1443  0.5833 -0.5291
 4328SOL     OW24619   1.877   1.153   7.111 -0.1234  0.0247  0.0484
 4328SOL    HW124620   1.937   1.079   7.100  0.0741  0.4591 -1.7868
 4328SOL    HW224621   1.867   1.159   7.206 -1.3114 -0.8770 -0.0194
 4329SOL     OW24622   0.495   2.884   8.239 -0.8440 -0.2570 -0.0549
 4329SOL    HW124623   0.485   2.938   8.160 -0.7671  1.9827  1.4763
 4329SOL    HW224624   0.538   2.954   8.288 -0.8752  0.6510 -1.3067
 4330SOL     OW24625   1.077   1.369  12.100 -0.1381  0.3529  0.0869
 4330SOL    HW124626   1.127   1.448  12.080  1.0634 -0.2362  0.7765
 4330SOL    HW224627   1.151   1.311  12.083 -1.1205 -1.3289  1.3951
 4331SOL     OW24628   4.558   4.031   2.186  0.1212  0.5673 -0.0575
 4331SOL    HW124629   4.595   4.059   2.269 -3.4242  0.6695  1.5026
 4331SOL    HW224630   4.465   4.050   2.199  0.4888  0.9612  2.0330
 4332SOL     OW24631   1.418   0.318   1.507  0.2208  0.2517 -0.8140
 4332SOL    HW124632   1.333   0.362   1.499 -1.0610 -2.2870 -1.4009
 4332SOL    HW224633   1.425   0.273   1.423 -0.9431  0.2979 -0.9375
 4333SOL     OW24634   4.421   1.499   7.806 -0.0158  0.2524 -0.6004
 4333SOL    HW124635   4.506   1.528   7.839  0.0951 -0.3622 -0.3453
 4333SOL    HW224636   4.408   1.436   7.878 -0.8732 -0.2226 -1.1647
 4334SOL     OW24637   0.314   0.636   7.089 -0.0559 -0.3126  0.6944
 4334SOL    HW124638   0.288   0.601   7.004  0.6999  0.9969 -0.0638
 4334SOL    HW224639   0.330   0.728   7.071 -3.2441 -0.1673 -1.4103
 4335SOL     OW24640   2.836   2.411  11.510  0.2823  0.3001  0.3335
 4335SOL    HW124641   2.869   2.349  11.444 -1.4238  0.1432 -0.3662
 4335SOL    HW224642   2.901   2.481  11.519 -0.5075  1.2925 -1.7176
 4336SOL     OW24643   4.181   1.805  11.390  0.1335  0.2395 -0.1106
 4336SOL    HW124644   4.233   1.767  11.461  0.7683 -2.4553 -1.9998
 4336SOL    HW224645   4.097   1.762  11.405  0.3293  0.1266  0.6755
 4337SOL     OW24646   3.302   1.354  12.103 -0.0005 -0.0168 -0.4524
 4337SOL    HW124647   3.366   1.282  12.107  0.2426  0.0296 -4.2665
 4337SOL    HW224648   3.360   1.430  12.094  0.0658 -0.0316 -0.1665
 4338SOL     OW24649   0.724   2.969  16.904  0.0261  0.0360 -0.6018
 4338SOL    HW124650   0.703   2.904  16.837  2.3710 -1.2248 -0.1250
 4338SOL    HW224651   0.816   2.945  16.914 -1.1286 -4.2452 -0.2149
 4339SOL     OW24652   2.091   1.099   6.477 -0.3058 -0.6757  0.1422
 4339SOL    HW124653   2.161   1.041   6.447  0.0056  0.4590 -1.3410
 4339SOL    HW224654   2.070   1.147   6.397  0.2917  0.3077  0.5735
 4340SOL     OW24655   3.069   1.701   8.569 -0.3530  0.5996 -0.1685
 4340SOL    HW124656   3.154   1.688   8.528 -0.4026 -0.2472 -0.0092
 4340SOL    HW224657   3.035   1.778   8.524 -0.6121  1.3290  1.2724
 4341SOL     OW24658   0.027   4.585  17.356 -0.0658  0.1281 -0.1190
 4341SOL    HW124659   0.114   4.605  17.390  0.7895  1.0002 -2.8487
 4341SOL    HW224660   4.724   4.537  17.428  2.2267 -0.1310  0.9730
 4342SOL     OW24661   4.091   4.312   0.131 -0.1863  0.6838  0.3474
 4342SOL    HW124662   4.131   4.273   0.053 -2.6852  0.4048 -0.8012
 4342SOL    HW224663   4.128   4.265   0.206  0.6094  1.9435  0.7363
 4343SOL     OW24664   2.998   3.501  14.737  0.3266  0.9243  0.1545
 4343SOL    HW124665   3.018   3.516  14.645 -1.5702  1.0958 -0.2319
 4343SOL    HW224666   2.980   3.407  14.732  1.4363  0.6472  1.4757
 4344SOL     OW24667   3.009   3.568  14.485 -0.4396 -0.1140 -0.7095
 4344SOL    HW124668   2.993   3.497  14.422 -1.4848 -2.5391  2.3161
 4344SOL    HW224669   2.948   3.632  14.447 -2.2339 -0.3434  1.7998
 4345SOL     OW24670   1.801   2.176   2.167  0.2057  0.1044 -0.0199
 4345SOL    HW124671   1.895   2.196   2.170  0.1242  0.1241  2.0009
 4345SOL    HW224672   1.788   2.188   2.073 -2.3003  2.3312  0.6376
 4346SOL     OW24673   0.818   4.348  10.966  0.2020  0.0877  0.0906
 4346SOL    HW124674   0.795   4.397  11.045  2.8155  1.2043  0.1823
 4346SOL    HW224675   0.750   4.281  10.976 -0.4987  0.9551  1.1494
 4347SOL     OW24676   3.940   1.820  14.563 -0.1723  0.6837  0.5554
 4347SOL    HW124677   4.024   1.845  14.604 -0.3966 -0.0595  1.4828
 4347SOL    HW224678   3.899   1.905  14.547 -0.1727  0.1124 -2.3194
 4348SOL     OW24679   3.906   3.752   2.001  0.1329 -0.0391 -0.2803
 4348SOL    HW124680   3.891   3.803   2.080  1.1205  0.8104 -0.6419
 4348SOL    HW224681   3.970   3.693   2.042 -0.9916 -1.3666 -0.4402
 4349SOL     OW24682   4.294   1.654   3.122 -0.5342 -0.7194 -0.4194
 4349SOL    HW124683   4.332   1.739   3.141  1.0325 -0.9366 -2.5220
 4349SOL    HW224684   4.321   1.611   3.203 -0.3985 -0.2905 -0.2368
 4350SOL     OW24685   2.516   2.046  13.614 -0.0655 -0.1523 -0.4272
 4350SOL    HW124686   2.445   2.011  13.668  2.0302 -0.3884  2.1477
 4350SOL    HW224687   2.478   2.120  13.566  2.0111  1.6839  0.7480
 4351SOL     OW24688   2.852   0.237  16.788  0.1425  0.0578  0.2793
 4351SOL    HW124689   2.877   0.305  16.851  1.4833  0.7772 -1.0231
 4351SOL    HW224690   2.929   0.181  16.793  0.5590  0.7141  1.1979
 4352SOL     OW24691   0.364   0.169  15.860  0.1782  0.7154 -0.5299
 4352SOL    HW124692   0.437   0.223  15.831  0.3218 -0.3482 -2.1068
 4352SOL    HW224693   0.379   0.199  15.950 -0.5002  0.5641 -0.3596
 4353SOL     OW24694   3.331   1.759   5.531  0.3403 -0.1651 -0.4684
 4353SOL    HW124695   3.313   1.814   5.608  0.5564  1.6798 -1.7284
 4353SOL    HW224696   3.315   1.831   5.469  0.4753 -1.5685 -2.1295
 4354SOL     OW24697   0.113   2.577  11.756  0.2180  0.0915 -0.2183
 4354SOL    HW124698   0.020   2.581  11.733  0.2448  0.7685 -0.1978
 4354SOL    HW224699   0.150   2.662  11.730  0.8713 -0.0610  0.2108
 4355SOL     OW24700   2.309   0.525   1.923  0.3263 -0.2871 -0.0559
 4355SOL    HW124701   2.364   0.521   1.845 -0.3980  1.9076 -0.6781
 4355SOL    HW224702   2.320   0.437   1.960 -2.4341 -0.0103  1.4050
 4356SOL     OW24703   2.919   4.073   2.439  0.4151  0.2639 -0.4466
 4356SOL    HW124704   2.853   4.127   2.482 -0.8358 -1.1985 -0.5551
 4356SOL    HW224705   2.874   4.002   2.394 -0.7303 -0.8508  2.4913
 4357SOL     OW24706   4.513   3.531   5.133  0.1357  0.2906 -0.4197
 4357SOL    HW124707   4.552   3.616   5.154  1.8457 -0.5294 -0.2913
 4357SOL    HW224708   4.489   3.551   5.042 -0.8284 -2.3634 -0.7550
 4358SOL     OW24709   1.771   0.514   7.569 -0.0609  0.3782  0.6121
 4358SOL    HW124710   1.811   0.536   7.485  0.3715 -0.5033  0.5871
 4358SOL    HW224711   1.687   0.559   7.560  0.5078  1.0272 -1.3698
 4359SOL     OW24712   1.643   1.248   6.082  0.0240 -0.2499 -0.1363
 4359SOL    HW124713   1.554   1.283   6.078  0.0066 -0.2721  0.0575
 4359SOL    HW224714   1.653   1.229   5.989  1.3823 -4.6927  0.8908
 4360SOL     OW24715   1.317   2.774   9.128  0.1454  0.0255  0.8847
 4360SOL    HW124716   1.392   2.794   9.183  0.6111  4.1155 -1.2719
 4360SOL    HW224717   1.263   2.848   9.156  1.2639  1.6036 -1.0903
 4361SOL     OW24718   2.922   3.744   6.747  0.3006  0.1793 -0.0072
 4361SOL    HW124719   3.005   3.715   6.710 -0.2410  0.4859 -1.4313
 4361SOL    HW224720   2.913   3.824   6.696  0.2344 -0.7912 -1.5190
 4362SOL     OW24721   4.480   1.469   1.902  0.3142 -0.4520  0.0879
 4362SOL    HW124722   4.519   1.403   1.845  1.5086 -1.0293  1.5762
 4362SOL    HW224723   4.545   1.489   1.969 -2.3419  0.5485  2.3832
 4363SOL     OW24724   3.246   1.031   5.695  0.4625  0.3263 -0.2075
 4363SOL    HW124725   3.164   0.988   5.720 -0.1316  2.8858  2.2701
 4363SOL    HW224726   3.304   1.014   5.769 -3.0068  0.0717  2.4847
 4364SOL     OW24727   2.557   1.846   8.432 -0.1223  0.0737 -0.7092
 4364SOL    HW124728   2.480   1.873   8.382 -0.1236  4.5110  1.6618
 4364SOL    HW224729   2.532   1.756   8.453  2.2936 -0.5432 -0.5616
 4365SOL     OW24730   4.331   2.084  15.516 -0.1953  0.3496  0.1499
 4365SOL    HW124731   4.380   2.001  15.511 -0.3508  0.2373  0.4723
 4365SOL    HW224732   4.240   2.059  15.500  0.1934 -1.1129  0.1826
 4366SOL     OW24733   1.024   0.355   3.179 -0.1851 -0.5873 -0.4615
 4366SOL    HW124734   0.949   0.408   3.203  0.9819  1.2688 -0.8568
 4366SOL    HW224735   1.096   0.417   3.192  0.7338 -1.7976  0.3152
 4367SOL     OW24736   3.118   3.986  11.550 -0.3044  0.3200  0.4315
 4367SOL    HW124737   3.138   3.937  11.471  0.8496  0.6707  0.5013
 4367SOL    HW224738   3.034   4.027  11.530 -0.0602  1.4120  1.6154
 4368SOL     OW24739   2.196   3.893  12.011  0.6303  0.3424 -0.3316
 4368SOL    HW124740   2.171   3.844  11.933 -0.3485  2.0789 -1.1198
 4368SOL    HW224741   2.162   3.982  12.001 -2.4557 -0.5058  2.3918
 4369SOL     OW24742   3.447   0.657   4.864  0.8266  0.1260 -0.4945
 4369SOL    HW124743   3.422   0.719   4.796  0.9885  0.2157 -0.4723
 4369SOL    HW224744   3.488   0.585   4.816  2.9283 -0.2684  1.8677
 4370SOL     OW24745   2.689   0.468  15.240 -0.1152  0.3995 -0.2603
 4370SOL    HW124746   2.744   0.536  15.201  0.6219  1.2521  2.2501
 4370SOL    HW224747   2.652   0.443  15.155  1.3778 -0.6457 -0.6170
 4371SOL     OW24748   4.382   3.982   8.614 -0.3756 -0.3618 -0.2394
 4371SOL    HW124749   4.420   3.912   8.667  0.6245  0.5561  0.2742
 4371SOL    HW224750   4.463   4.030   8.594 -0.4646  0.7588  2.0021
 4372SOL     OW24751   1.067   3.367   3.008  0.0899  0.9184  0.4825
 4372SOL    HW124752   1.159   3.353   2.985 -0.6742 -0.7303 -1.4553
 4372SOL    HW224753   1.040   3.434   2.945 -1.2595 -1.5473 -1.5060
 4373SOL     OW24754   1.001   0.868   8.330 -0.1444 -0.1321  0.0941
 4373SOL    HW124755   1.023   0.905   8.245  0.1325  0.0059  0.2265
 4373SOL    HW224756   1.084   0.832   8.362 -0.2147  0.1377  0.5814
 4374SOL     OW24757   4.020   0.138  16.140 -0.1161 -0.5462  0.1068
 4374SOL    HW124758   4.102   0.088  16.142  0.3722  0.1749 -1.7791
 4374SOL    HW224759   3.963   0.067  16.168 -1.6365  1.1732  1.3687
 4375SOL     OW24760   3.509   0.192   8.817 -0.4735  0.5198 -0.8691
 4375SOL    HW124761   3.539   0.237   8.895  2.5903 -0.7623 -1.3312
 4375SOL    HW224762   3.581   0.223   8.762 -0.1004  0.8830 -0.1651
 4376SOL     OW24763   0.645   0.831   6.068  0.0615  0.0160 -0.2576
 4376SOL    HW124764   0.556   0.826   6.104  0.4686  0.9344  0.8846
 4376SOL    HW224765   0.625   0.830   5.974  0.5605 -2.0462 -0.3321
 4377SOL     OW24766   3.695   3.478   1.297 -0.2072 -0.5833  0.1806
 4377SOL    HW124767   3.739   3.495   1.381 -0.4412 -2.3721  0.6647
 4377SOL    HW224768   3.761   3.492   1.229 -1.1703 -2.4617 -1.1426
 4378SOL     OW24769   4.375   2.599   5.621 -0.1702 -0.4935 -0.1575
 4378SOL    HW124770   4.297   2.591   5.567  0.9738  0.4724 -1.9459
 4378SOL    HW224771   4.412   2.679   5.585 -0.4163 -0.7033 -0.8971
 4379SOL     OW24772   4.185   1.650   4.954 -0.9587 -0.1199 -0.1394
 4379SOL    HW124773   4.124   1.637   5.026  1.1535 -1.1844  1.4521
 4379SOL    HW224774   4.271   1.621   4.984 -1.8530 -0.4494  2.0364
 4380SOL     OW24775   4.392   0.401  15.563  0.8829  0.1263  0.1745
 4380SOL    HW124776   4.345   0.478  15.596  0.1467 -0.0510 -0.4542
 4380SOL    HW224777   4.482   0.430  15.551  1.0750 -1.2503 -1.7048
 4381SOL     OW24778   2.264   2.512  10.535 -0.0485 -0.8341 -0.4726
 4381SOL    HW124779   2.186   2.489  10.484 -0.5775 -1.6794  0.7041
 4381SOL    HW224780   2.239   2.594  10.577 -0.7844 -1.6545  0.6897
 4382SOL     OW24781   2.625   2.370   6.689 -0.1127  0.1992 -0.3890
 4382SOL    HW124782   2.656   2.309   6.756  1.0695  0.4113 -0.7502
 4382SOL    HW224783   2.683   2.446   6.694  0.2257 -0.1051  0.3213
 4383SOL     OW24784   1.367   0.774   1.361  0.1041  0.3360  0.9012
 4383SOL    HW124785   1.386   0.711   1.430 -0.7218 -0.8543  0.0378
 4383SOL    HW224786   1.449   0.802   1.321 -1.1019  2.9867  0.3058
 4384SOL     OW24787   2.128   2.113   5.539 -0.1834 -0.2567 -0.1890
 4384SOL    HW124788   2.154   2.022   5.525 -3.2006 -1.0998 -0.3504
 4384SOL    HW224789   2.188   2.161   5.482 -0.7495  0.0837 -0.5034
 4385SOL     OW24790   0.800   0.063   1.948  0.2384 -0.3496 -0.3772
 4385SOL    HW124791   0.837   0.073   1.861 -0.0147 -0.3651 -0.4883
 4385SOL    HW224792   0.710   0.097   1.943 -0.2281 -1.7233 -1.2303
 4386SOL     OW24793   2.676   1.186  10.282 -0.3583  0.1500  0.1905
 4386SOL    HW124794   2.737   1.219  10.216  0.3749  0.2142  0.9100
 4386SOL    HW224795   2.632   1.269  10.302  0.8984  1.1946 -1.4362
 4387SOL     OW24796   0.146   3.782   2.132 -0.1424 -0.4767 -0.3219
 4387SOL    HW124797   0.186   3.784   2.219  0.3674 -1.7102 -0.5164
 4387SOL    HW224798   0.107   3.695   2.134  0.3019 -0.7372 -2.2214
 4388SOL     OW24799   2.889   4.265   1.396 -0.1192 -0.1960 -0.0947
 4388SOL    HW124800   2.816   4.279   1.336  0.7562 -2.1367 -1.6157
 4388SOL    HW224801   2.918   4.356   1.405 -2.1969  0.4841 -0.3921
 4389SOL     OW24802   3.096   2.311   1.445  0.7153  0.5184  0.3538
 4389SOL    HW124803   3.037   2.364   1.391  1.0392 -0.2436 -0.7453
 4389SOL    HW224804   3.160   2.377   1.475  1.3665 -0.8174  1.8765
 4390SOL     OW24805   2.732   2.568  11.269 -0.5150 -0.4521  0.5943
 4390SOL    HW124806   2.808   2.536  11.318 -1.0523 -1.0136  1.0549
 4390SOL    HW224807   2.670   2.496  11.283  0.1056 -1.1418 -0.2711
 4391SOL     OW24808   3.439   2.925  15.270 -0.0761  0.3745  0.7366
 4391SOL    HW124809   3.521   2.971  15.288  1.1747 -0.6086 -2.4564
 4391SOL    HW224810   3.468   2.834  15.278  0.9064  0.4427 -2.2917
 4392SOL     OW24811   4.327   1.281  16.402  0.4964  0.3938  0.1176
 4392SOL    HW124812   4.313   1.369  16.369  2.2301 -0.4399 -2.9124
 4392SOL    HW224813   4.281   1.282  16.486 -0.8455  1.7990 -0.6385
 4393SOL     OW24814   3.676   1.203   2.463  0.8369 -0.7624  0.0546
 4393SOL    HW124815   3.738   1.194   2.391  0.8387 -4.2833  0.4770
 4393SOL    HW224816   3.672   1.298   2.458 -0.4969 -0.7916  0.3355
 4394SOL     OW24817   3.129   1.345   8.265  0.7361  0.0617  0.2146
 4394SOL    HW124818   3.049   1.292   8.268  0.3154  0.6700 -0.4655
 4394SOL    HW224819   3.093   1.433   8.275 -2.0300 -1.1760  1.0961
 4395SOL     OW24820   2.434   2.157   4.970 -0.0490 -0.3836 -0.2221
 4395SOL    HW124821   2.360   2.211   4.946 -1.4570 -2.5539 -0.7602
 4395SOL    HW224822   2.417   2.131   5.061 -0.7591  1.6102  0.1950
 4396SOL     OW24823   2.362   4.342   2.736  0.5384  0.3300 -0.4012
 4396SOL    HW124824   2.405   4.420   2.702 -2.2492  1.1712 -2.0355
 4396SOL    HW224825   2.285   4.341   2.679  0.0355 -1.5844  0.3218
 4397SOL     OW24826   1.544   3.933  12.325  0.5088 -0.7368 -0.4811
 4397SOL    HW124827   1.633   3.902  12.343  0.5421 -0.4281 -0.1142
 4397SOL    HW224828   1.537   3.985  12.405 -0.9079  0.2781 -1.2578
 4398SOL     OW24829   0.962   3.830   6.934  0.1144 -0.3166 -0.1689
 4398SOL    HW124830   1.057   3.823   6.946  0.1367  2.4750  1.2616
 4398SOL    HW224831   0.954   3.768   6.862 -1.3313 -0.6455  0.2904
 4399SOL     OW24832   2.503   3.260   9.009 -0.1565  0.0535  0.2615
 4399SOL    HW124833   2.459   3.239   9.091 -2.4141 -0.6529 -1.1121
 4399SOL    HW224834   2.520   3.354   9.010 -0.5603  0.1198  1.1095
 4400SOL     OW24835   0.498   0.621   6.384 -0.2830  0.5102 -0.4758
 4400SOL    HW124836   0.459   0.681   6.321  0.9022 -1.2855 -2.8989
 4400SOL    HW224837   0.570   0.589   6.330  2.4478  2.9227  1.7667
 4401SOL     OW24838   1.640   0.361   2.436 -0.1097  0.7042  0.0490
 4401SOL    HW124839   1.563   0.405   2.400 -0.5441  0.3248  0.5093
 4401SOL    HW224840   1.708   0.412   2.392  1.9440 -1.2857  0.8950
 4402SOL     OW24841   3.243   1.152   1.238  0.0994 -0.2544  0.1408
 4402SOL    HW124842   3.314   1.214   1.217 -1.1459  1.0035 -0.3592
 4402SOL    HW224843   3.289   1.097   1.301 -1.2470 -2.9290 -1.2197
 4403SOL     OW24844   0.667   2.044  12.841  0.6562 -0.5392 -0.2467
 4403SOL    HW124845   0.691   2.048  12.749  1.8888 -0.8960  0.0699
 4403SOL    HW224846   0.574   2.067  12.832  1.2847  2.2481  0.5669
 4404SOL     OW24847   0.618   2.576   8.235  0.1439  0.2394 -0.1533
 4404SOL    HW124848   0.669   2.652   8.264  2.3896 -0.5204 -2.1132
 4404SOL    HW224849   0.606   2.526   8.315 -0.3626  1.9559  0.8564
 4405SOL     OW24850   3.280   3.477   0.406  0.3973 -0.3499 -0.1068
 4405SOL    HW124851   3.243   3.405   0.457 -2.4346  1.4299  0.3702
 4405SOL    HW224852   3.342   3.439   0.345  2.5802  2.4400  0.3708
 4406SOL     OW24853   3.801   1.494  17.610 -0.5633  0.4349  0.8163
 4406SOL    HW124854   3.779   1.587  17.605  0.2000  0.4517 -2.0996
 4406SOL    HW224855   3.806   1.467  17.518 -1.0045  1.0793  0.6062
 4407SOL     OW24856   2.706   1.034   9.097 -0.2334  0.3736 -0.2536
 4407SOL    HW124857   2.769   1.007   9.164 -1.5641 -0.0350  0.8476
 4407SOL    HW224858   2.747   1.101   9.043  0.9456 -0.9675 -1.0227
 4408SOL     OW24859   2.847   1.791   7.613  0.3333 -0.0764 -0.3585
 4408SOL    HW124860   2.820   1.816   7.701 -0.4379  1.7814 -1.1108
 4408SOL    HW224861   2.942   1.804   7.620  0.1917  0.9080 -0.1740
 4409SOL     OW24862   2.660   2.186  14.514 -0.3986 -0.5973  0.2252
 4409SOL    HW124863   2.707   2.269  14.504  0.6832 -1.2569 -0.1682
 4409SOL    HW224864   2.708   2.124  14.459 -3.0902 -3.0252  0.6241
 4410SOL     OW24865   1.380   1.309   5.479  0.1867 -0.3033  0.0306
 4410SOL    HW124866   1.333   1.261   5.547 -6.1092  0.9442 -3.4377
 4410SOL    HW224867   1.390   1.238   5.415 -1.3027  1.1241 -1.7875
 4411SOL     OW24868   3.477   3.114   3.542  0.5313  0.1808  0.2598
 4411SOL    HW124869   3.443   3.117   3.632  0.1436  2.4171  0.0403
 4411SOL    HW224870   3.422   3.047   3.502 -0.6314  1.8170 -0.8787
 4412SOL     OW24871   0.768   4.342   4.712  0.0763  0.1187  0.1269
 4412SOL    HW124872   0.833   4.389   4.764 -1.7901  1.1240  1.5091
 4412SOL    HW224873   0.712   4.301   4.778 -0.6642 -0.1471 -0.6753
 4413SOL     OW24874   1.794   3.868   2.283  0.7057  0.1399 -0.0390
 4413SOL    HW124875   1.782   3.837   2.193 -1.2025  4.3188 -1.2137
 4413SOL    HW224876   1.856   3.939   2.268 -0.5538  0.6705 -2.7480
 4414SOL     OW24877   1.758   4.725   2.368 -0.8733  0.1738  0.1195
 4414SOL    HW124878   1.835   0.044   2.380  1.1019 -2.4391 -0.4288
 4414SOL    HW224879   1.779   4.691   2.281  4.4572  2.1475  0.6114
 4415SOL     OW24880   4.693   1.111   3.869  0.5467 -0.3845 -0.7662
 4415SOL    HW124881   4.692   1.137   3.776 -1.2677  0.8547 -0.4022
 4415SOL    HW224882   4.680   1.198   3.905  3.5213 -0.7746  1.2255
 4416SOL     OW24883   3.404   0.498   2.994 -0.2417  0.3517  0.0249
 4416SOL    HW124884   3.355   0.451   3.062 -2.5068  1.4201 -0.8749
 4416SOL    HW224885   3.409   0.583   3.038  0.3774 -0.3913  1.3957
 4417SOL     OW24886   0.482   3.863   2.910 -0.0755 -0.1100 -0.2408
 4417SOL    HW124887   0.532   3.811   2.973  0.2900  1.5800  0.8637
 4417SOL    HW224888   0.445   3.922   2.976 -1.7894 -2.5153  0.9548
 4418SOL     OW24889   1.353   4.432   4.810  0.1161  0.2540  0.1543
 4418SOL    HW124890   1.437   4.450   4.852 -1.3534  3.2840  1.8932
 4418SOL    HW224891   1.296   4.498   4.851  0.4104  0.7756 -0.2741
 4419SOL     OW24892   3.103   3.600  15.303  0.0712  0.2100 -0.1961
 4419SOL    HW124893   3.047   3.647  15.241 -1.4185 -0.3054  0.7422
 4419SOL    HW224894   3.098   3.509  15.272  1.5542  0.1623 -0.2882
 4420SOL     OW24895   1.321   0.045   4.900 -0.6413 -0.2764  0.1237
 4420SOL    HW124896   1.293   0.116   4.842  0.8061 -0.0549 -0.3237
 4420SOL    HW224897   1.251   4.717   4.897  0.6951 -1.7555  0.4035
 4421SOL     OW24898   1.847   4.568  12.160 -0.1597 -0.4579  0.3345
 4421SOL    HW124899   1.897   4.538  12.236  1.7410  1.2921 -0.2000
 4421SOL    HW224900   1.819   4.483  12.128  0.3087 -0.3320 -0.4254
 4422SOL     OW24901   4.579   4.713  17.688  0.0041  0.4578  0.1933
 4422SOL    HW124902   4.564   0.030  17.611 -1.5976  1.6618  1.3393
 4422SOL    HW224903   4.488   4.698  17.714 -0.1520  2.9160  1.1321
 4423SOL     OW24904   2.230   0.365   3.895  0.3701  0.3158 -0.0353
 4423SOL    HW124905   2.196   0.450   3.867  2.5265  0.8175 -1.1181
 4423SOL    HW224906   2.157   0.311   3.865  0.9389 -1.4136  1.7029
 4424SOL     OW24907   0.788   4.117   5.419 -0.5974 -0.5870  0.7526
 4424SOL    HW124908   0.861   4.059   5.443  0.4948  0.7835  0.7280
 4424SOL    HW224909   0.726   4.050   5.392  3.9264 -3.9972 -1.2187
 4425SOL     OW24910   1.205   2.764   9.444  0.0793  0.1816 -0.6503
 4425SOL    HW124911   1.203   2.850   9.487 -0.3571 -2.3957  4.4286
 4425SOL    HW224912   1.214   2.791   9.352 -0.3996  1.1302 -0.4242
 4426SOL     OW24913   0.568   2.197   9.446  0.1436 -0.0260 -0.2838
 4426SOL    HW124914   0.514   2.276   9.455  0.4644  0.1411  0.1293
 4426SOL    HW224915   0.552   2.139   9.520  0.8663  1.0618  0.7155
 4427SOL     OW24916   2.228   0.012   6.647 -0.0636  0.1467 -0.1361
 4427SOL    HW124917   2.254   0.033   6.737 -1.4390 -0.9890  0.5114
 4427SOL    HW224918   2.149   0.062   6.628 -1.3437 -1.7433  0.2490
 4428SOL     OW24919   1.342   2.937  13.065 -0.6862 -0.3471 -0.5818
 4428SOL    HW124920   1.250   2.960  13.072  0.1155  3.3109 -1.9777
 4428SOL    HW224921   1.339   2.842  13.079 -1.6145  0.2111  2.8841
 4429SOL     OW24922   2.906   3.571  10.432  0.6488 -0.3096 -0.1948
 4429SOL    HW124923   2.964   3.565  10.509 -1.1588  0.4491  1.2466
 4429SOL    HW224924   2.874   3.481  10.425  1.6891 -0.6582 -0.3843
 4430SOL     OW24925   0.399   2.832  14.590 -0.4419 -0.1349  0.8672
 4430SOL    HW124926   0.484   2.829  14.634 -0.2646 -0.9144  0.4541
 4430SOL    HW224927   0.416   2.781  14.512 -0.3921  0.4719  0.4825
 4431SOL     OW24928   1.065   3.270  11.200 -0.3149 -0.4100 -0.1852
 4431SOL    HW124929   1.110   3.226  11.273  0.7156  1.3907  0.2614
 4431SOL    HW224930   1.027   3.332  11.262 -1.2181 -0.4034 -0.7506
 4432SOL     OW24931   3.686   2.157   3.307  0.4244  0.4292 -0.2363
 4432SOL    HW124932   3.687   2.208   3.388  0.6650 -0.5851  0.3910
 4432SOL    HW224933   3.639   2.210   3.242 -1.6782 -0.7916  0.2852
 4433SOL     OW24934   1.563   1.943  16.812  0.1049 -0.8068  0.0111
 4433SOL    HW124935   1.639   1.994  16.839 -1.5329  1.2857  0.6526
 4433SOL    HW224936   1.499   1.992  16.863  0.0922  1.2518 -1.9571
 4434SOL     OW24937   1.044   4.578   0.364  0.2780  0.0624 -0.5033
 4434SOL    HW124938   1.009   4.508   0.308 -0.9343  0.3003 -0.0385
 4434SOL    HW224939   1.047   4.531   0.447  2.2777  0.2726 -0.4558
 4435SOL     OW24940   1.111   1.516   1.502  0.6177  0.1124  0.2698
 4435SOL    HW124941   1.082   1.476   1.420 -0.2321  0.1422  0.5533
 4435SOL    HW224942   1.168   1.445   1.532  0.1113 -0.4952 -0.1960
 4436SOL     OW24943   2.361   0.923   3.596  0.1410  0.0453 -0.7663
 4436SOL    HW124944   2.372   0.828   3.602 -1.3974 -0.0895  0.1263
 4436SOL    HW224945   2.304   0.949   3.669 -0.7297 -1.0363 -1.0500
 4437SOL     OW24946   4.116   0.581   6.678 -0.1491 -0.2398 -0.2314
 4437SOL    HW124947   4.069   0.612   6.601  0.9203 -0.7200 -1.0862
 4437SOL    HW224948   4.150   0.663   6.712  0.1338  0.2559 -1.7015
 4438SOL     OW24949   0.057   4.599   5.503 -0.2392 -0.0879 -0.4387
 4438SOL    HW124950   0.134   4.553   5.536 -0.4361 -0.2235 -0.1611
 4438SOL    HW224951   0.089   4.681   5.466 -2.5677 -0.1941 -2.6820
 4439SOL     OW24952   1.682   2.347   4.189  0.0626 -0.0302  0.4318
 4439SOL    HW124953   1.685   2.333   4.094 -0.7249  1.9924  0.1081
 4439SOL    HW224954   1.706   2.440   4.188  0.8133 -0.2189  1.5037
 4440SOL     OW24955   2.305   0.998   4.036 -0.3808  0.0161 -0.5391
 4440SOL    HW124956   2.266   0.979   4.121 -0.3104  0.1842 -0.4679
 4440SOL    HW224957   2.382   0.942   4.045 -0.9367 -0.9597 -2.0058
 4441SOL     OW24958   2.398   2.603   1.892 -0.4031  0.3234 -0.4372
 4441SOL    HW124959   2.349   2.596   1.810 -0.9930 -0.6131  0.0003
 4441SOL    HW224960   2.342   2.668   1.934  0.1684  0.2699  0.3887
 4442SOL     OW24961   4.373   0.216   2.894 -0.0122  0.6105  0.0494
 4442SOL    HW124962   4.403   0.306   2.881  0.0319  0.8874  2.1686
 4442SOL    HW224963   4.418   0.175   2.820 -2.4275 -1.2307 -0.4070
 4443SOL     OW24964   2.757   3.854   8.468 -0.3570 -0.7672  0.0849
 4443SOL    HW124965   2.770   3.855   8.563 -2.6732 -1.9743  0.4272
 4443SOL    HW224966   2.848   3.847   8.440  0.1856 -1.8275  2.1109
 4444SOL     OW24967   3.272   3.079   8.480 -0.0288 -0.0417 -0.3279
 4444SOL    HW124968   3.365   3.095   8.465 -0.2695  1.5968 -0.1199
 4444SOL    HW224969   3.249   3.032   8.399 -0.5950 -1.1602  0.4871
 4445SOL     OW24970   1.835   1.344  16.618 -0.1643 -0.1690  0.3975
 4445SOL    HW124971   1.924   1.358  16.650 -0.5544  1.2107  0.8590
 4445SOL    HW224972   1.838   1.259  16.573 -0.4220 -0.3246  0.6786
 4446SOL     OW24973   1.727   3.331   7.424 -0.1942  0.5962 -0.3887
 4446SOL    HW124974   1.754   3.418   7.394 -0.4508  1.1193  0.9015
 4446SOL    HW224975   1.635   3.327   7.399 -0.6261  0.1470  1.2594
 4447SOL     OW24976   3.260   0.198   6.488 -0.4250 -0.4283  0.2298
 4447SOL    HW124977   3.185   0.167   6.437 -0.6555 -0.5975  0.6779
 4447SOL    HW224978   3.242   0.161   6.574 -0.6783  1.1111  0.8359
 4448SOL     OW24979   2.731   0.264  15.413  0.0865  0.2851 -0.5497
 4448SOL    HW124980   2.723   0.344  15.361 -1.7593  0.3641 -0.1277
 4448SOL    HW224981   2.645   0.261  15.453  0.5388  1.8203  0.5580
 4449SOL     OW24982   3.222   1.660   6.587 -0.2829 -0.5869 -0.1717
 4449SOL    HW124983   3.239   1.645   6.680  1.1172  0.8804 -0.1889
 4449SOL    HW224984   3.298   1.715   6.565 -0.4135 -0.2430  0.2271
 4450SOL     OW24985   2.287   1.136   8.115 -0.9487 -0.3935 -0.1279
 4450SOL    HW124986   2.213   1.146   8.176 -1.9917 -0.9984 -1.3054
 4450SOL    HW224987   2.329   1.067   8.167  0.1075  0.2680 -0.1100
 4451SOL     OW24988   3.107   3.180   1.529  0.3216  0.1415 -0.2664
 4451SOL    HW124989   3.112   3.265   1.486 -1.1030  1.1584  1.6170
 4451SOL    HW224990   3.146   3.199   1.614 -0.9932  0.3349  0.3022
 4452SOL     OW24991   4.171   4.398   3.862  0.7992  0.5342 -0.0977
 4452SOL    HW124992   4.104   4.389   3.794 -1.2784  0.7973  1.8993
 4452SOL    HW224993   4.236   4.344   3.817  1.1813  1.8355 -1.0993
 4453SOL     OW24994   4.672   3.706   7.947  0.0159 -0.4745  0.1073
 4453SOL    HW124995   4.654   3.619   7.913  1.5050 -1.3529  1.5924
 4453SOL    HW224996   4.671   3.688   8.041 -1.3860 -1.3859 -0.0783
 4454SOL     OW24997   0.935   2.960   5.317 -0.1644 -0.2448  0.4746
 4454SOL    HW124998   0.877   2.892   5.352 -0.7936 -0.6952 -1.4574
 4454SOL    HW224999   0.957   2.919   5.234 -0.0632  0.7651  0.0083
 4455SOL     OW25000   1.654   3.434   4.386 -0.4249 -0.1371 -0.3926
 4455SOL    HW125001   1.669   3.517   4.340  2.5986 -1.4038 -1.6979
 4455SOL    HW225002   1.726   3.389   4.341  0.4777  1.6489 -0.7329
 4456SOL     OW25003   3.221   3.733   1.087 -0.4542 -0.0478  0.3787
 4456SOL    HW125004   3.288   3.679   1.127 -0.7874  0.0736  1.0915
 4456SOL    HW225005   3.138   3.704   1.126 -0.0919 -1.1397  0.3344
 4457SOL     OW25006   4.150   0.950   4.865  0.9635 -0.3264 -0.3421
 4457SOL    HW125007   4.238   0.924   4.893  2.1053  2.3931 -1.3736
 4457SOL    HW225008   4.100   0.895   4.924  0.4278 -0.9012 -1.3252
 4458SOL     OW25009   2.095   2.237  15.498  0.4196  0.0988 -0.5777
 4458SOL    HW125010   2.114   2.145  15.517 -1.2303 -0.1586 -0.1695
 4458SOL    HW225011   2.171   2.257  15.443  0.5580 -1.7083 -1.0522
 4459SOL     OW25012   4.024   0.777  12.443 -0.1782 -0.1410  0.3114
 4459SOL    HW125013   3.974   0.858  12.454 -0.2718 -0.2145  0.4361
 4459SOL    HW225014   3.966   0.730  12.384  1.0468 -3.4785  1.7444
 4460SOL     OW25015   2.576   2.034   4.783 -0.2527  0.2594  0.2051
 4460SOL    HW125016   2.508   2.084   4.830 -0.5967  0.7338 -0.7909
 4460SOL    HW225017   2.650   2.036   4.844 -0.0295  0.4953 -0.0691
 4461SOL     OW25018   4.555   4.082   5.105  0.5217  0.6219  0.2043
 4461SOL    HW125019   4.462   4.057   5.103  0.6839  0.0187  0.0065
 4461SOL    HW225020   4.572   4.115   5.018  2.5225  1.4136  0.9069
 4462SOL     OW25021   1.193   3.124  15.783 -0.2359  0.8232  0.3458
 4462SOL    HW125022   1.277   3.124  15.829  0.4092  0.2977 -0.8475
 4462SOL    HW225023   1.223   3.091  15.698  1.0860  0.6539  0.8815
 4463SOL     OW25024   3.047   3.504   9.487  0.7076 -0.2025  0.3038
 4463SOL    HW125025   3.096   3.443   9.542 -1.6504 -3.1201 -0.8209
 4463SOL    HW225026   3.022   3.442   9.418  1.5053  0.5734 -0.6634
 4464SOL     OW25027   0.153   2.285   9.349  0.3595  0.4911 -0.5205
 4464SOL    HW125028   0.198   2.331   9.420 -1.5225  0.5139  0.6385
 4464SOL    HW225029   0.226   2.286   9.287  1.7797 -2.0782  1.0644
 4465SOL     OW25030   1.541   0.785   0.433 -0.2918 -0.1727  0.0306
 4465SOL    HW125031   1.449   0.770   0.455 -0.6531  2.3714  0.1763
 4465SOL    HW225032   1.573   0.695   0.436  0.6871  0.1140 -1.5598
 4466SOL     OW25033   1.774   3.425   2.933  0.6852 -0.0462  0.6070
 4466SOL    HW125034   1.838   3.353   2.929  0.8198  0.2325 -1.9504
 4466SOL    HW225035   1.810   3.474   2.859  0.4064  1.5147  1.5058
 4467SOL     OW25036   3.100   1.843   4.902 -0.2057  0.1350 -0.3935
 4467SOL    HW125037   3.083   1.836   4.808  1.4266  0.4168 -0.7089
 4467SOL    HW225038   3.092   1.751   4.926 -0.9247  0.4101  0.4465
 4468SOL     OW25039   0.514   4.273  15.216 -0.0691 -0.6828 -0.9034
 4468SOL    HW125040   0.516   4.231  15.129 -1.5375 -0.2563 -1.1368
 4468SOL    HW225041   0.458   4.348  15.198  0.2190 -0.2331  0.1282
 4469SOL     OW25042   1.177   1.519   7.256 -0.3856  0.2168  0.3384
 4469SOL    HW125043   1.093   1.492   7.217  0.2587 -0.1950 -0.7669
 4469SOL    HW225044   1.233   1.515   7.178 -1.7852  0.6797 -0.6922
 4470SOL     OW25045   3.536   1.955  14.247 -0.6517 -0.3815  0.2382
 4470SOL    HW125046   3.472   1.949  14.317 -1.4131 -0.9823 -0.5034
 4470SOL    HW225047   3.583   1.871  14.253  1.0029  0.4585 -0.7701
 4471SOL     OW25048   1.195   2.583  17.212  0.0830 -0.7268 -0.3044
 4471SOL    HW125049   1.171   2.491  17.197  0.9086 -1.3528  2.2330
 4471SOL    HW225050   1.258   2.569  17.283  0.5518 -1.0089 -0.7767
 4472SOL     OW25051   4.095   3.982   7.181  0.3751 -0.2072 -0.1210
 4472SOL    HW125052   4.162   3.982   7.113 -0.4404  0.8082 -0.9503
 4472SOL    HW225053   4.058   4.069   7.165  1.5303  0.1858 -0.6435
 4473SOL     OW25054   3.652   0.282  11.575  0.0532  0.2027 -0.5056
 4473SOL    HW125055   3.673   0.373  11.556  0.5878 -0.1229 -1.4641
 4473SOL    HW225056   3.722   0.240  11.525 -0.0040  0.1829 -0.5680
 4474SOL     OW25057   0.767   2.941   5.915 -0.0842 -0.2952  0.5626
 4474SOL    HW125058   0.755   2.854   5.878  0.4854  0.1956 -0.7920
 4474SOL    HW225059   0.739   3.000   5.845  0.3196 -2.2389 -1.2199
 4475SOL     OW25060   3.178   1.320   6.325 -0.5898 -0.0665 -0.2050
 4475SOL    HW125061   3.242   1.251   6.339 -0.5150  0.0425  0.0003
 4475SOL    HW225062   3.175   1.330   6.230  2.0375  3.0028  0.0202
 4476SOL     OW25063   4.242   1.595   2.445  0.0632  0.0281 -0.0333
 4476SOL    HW125064   4.274   1.668   2.499 -1.4291  0.6904 -0.0406
 4476SOL    HW225065   4.322   1.543   2.444  0.3202  0.5025 -2.3959
 4477SOL     OW25066   1.501   2.617   8.070  0.1233  0.2691  0.0369
 4477SOL    HW125067   1.406   2.630   8.080  0.0764  0.5018 -0.7085
 4477SOL    HW225068   1.505   2.524   8.047  0.2864  0.6841 -1.5525
 4478SOL     OW25069   3.955   0.424   8.342 -0.2969  0.2108  0.0397
 4478SOL    HW125070   3.901   0.348   8.319  2.1718 -0.7969 -2.4925
 4478SOL    HW225071   3.966   0.399   8.434 -2.5472 -1.9328 -0.2785
 4479SOL     OW25072   1.045   0.036  11.479  0.5364 -0.1749  0.0782
 4479SOL    HW125073   1.029   0.131  11.482 -1.6902 -0.5629  0.2087
 4479SOL    HW225074   1.041   0.024  11.574 -0.0944  2.0624  0.3420
 4480SOL     OW25075   1.611   3.123   1.979 -0.0841  0.1304 -0.3563
 4480SOL    HW125076   1.575   3.103   2.066  2.0761  1.5142  0.8696
 4480SOL    HW225077   1.532   3.148   1.932  0.1538 -1.7568 -1.7648
 4481SOL     OW25078   2.654   1.924   6.519 -0.4507  0.3069  0.5209
 4481SOL    HW125079   2.625   1.845   6.474 -0.4210  1.7195 -1.9798
 4481SOL    HW225080   2.711   1.878   6.581  1.1590 -0.4156 -1.4674
 4482SOL     OW25081   2.128   3.396   4.900  0.7902  0.1676  0.4699
 4482SOL    HW125082   2.059   3.447   4.943  1.6475  1.4333  0.3468
 4482SOL    HW225083   2.092   3.378   4.813 -2.2717 -1.8080  2.1668
 4483SOL     OW25084   2.628   1.967  15.246  0.2237 -0.3302 -0.0295
 4483SOL    HW125085   2.650   2.048  15.291 -1.4365  0.6991 -1.0760
 4483SOL    HW225086   2.679   1.967  15.165  1.3513  3.1091  0.7228
 4484SOL     OW25087   2.439   2.260  13.025 -0.4582  0.2475  0.5232
 4484SOL    HW125088   2.448   2.207  13.104 -2.5002  0.3643  0.8323
 4484SOL    HW225089   2.357   2.215  13.003 -0.4941 -0.4064  1.9821
 4485SOL     OW25090   4.251   3.243   4.686  0.0306 -0.3952 -0.1558
 4485SOL    HW125091   4.204   3.194   4.754  2.1975  0.5926  2.0532
 4485SOL    HW225092   4.280   3.168   4.634  2.2639  0.8866 -0.7564
 4486SOL     OW25093   0.807   2.751   1.118 -0.6271  0.5104  0.2087
 4486SOL    HW125094   0.791   2.667   1.161 -2.1024  0.6493 -0.0592
 4486SOL    HW225095   0.797   2.819   1.185  1.5953 -1.4284  2.5290
 4487SOL     OW25096   3.732   3.363   6.702 -0.3924 -0.4865 -0.2343
 4487SOL    HW125097   3.786   3.285   6.716  0.7143  0.3609  0.2212
 4487SOL    HW225098   3.659   3.348   6.763 -1.0434 -0.2152 -0.9373
 4488SOL     OW25099   2.663   1.039  12.207  0.4713 -0.6528  0.1999
 4488SOL    HW125100   2.677   1.097  12.282 -0.0271 -2.7630  1.9305
 4488SOL    HW225101   2.679   0.953  12.246 -2.2290 -0.9431  0.6812
 4489SOL     OW25102   0.794   0.046   2.384  0.0850  0.4409  0.1797
 4489SOL    HW125103   0.810   4.689   2.395  2.8321  0.9286  0.4669
 4489SOL    HW225104   0.700   0.036   2.369  0.3552 -0.2904 -1.0179
 4490SOL     OW25105   0.876   4.514   2.476  0.1159 -0.1292 -0.4643
 4490SOL    HW125106   0.823   4.436   2.494 -1.2085  1.3879  2.2468
 4490SOL    HW225107   0.932   4.486   2.404 -1.2267 -1.0814 -1.1341
 4491SOL     OW25108   1.398   0.993   4.601 -0.6967  0.5386 -0.5294
 4491SOL    HW125109   1.337   0.935   4.647 -0.7724  1.2604  0.2882
 4491SOL    HW225110   1.456   1.023   4.671 -0.0137  0.3133 -1.0023
 4492SOL     OW25111   2.034   1.725  16.791  0.3131  0.3029 -0.2616
 4492SOL    HW125112   2.044   1.739  16.697  1.0980 -0.6062 -0.3119
 4492SOL    HW225113   1.939   1.731  16.804  0.2495 -2.1204  0.3943
 4493SOL     OW25114   1.373   3.410  14.299 -0.1920  0.4190 -0.1267
 4493SOL    HW125115   1.302   3.473  14.314 -0.2572  0.4536 -0.5795
 4493SOL    HW225116   1.451   3.459  14.325  1.2635 -1.5653 -0.7321
 4494SOL     OW25117   3.912   4.695  15.251 -0.9770  0.4093 -0.5865
 4494SOL    HW125118   3.923   0.038  15.302 -0.7404 -2.1239  3.2717
 4494SOL    HW225119   3.990   4.707  15.197  0.7488 -2.3185  1.3007
 4495SOL     OW25120   3.120   1.579   4.918  0.1289 -0.2912 -0.0475
 4495SOL    HW125121   3.144   1.512   4.982  0.3999  0.2381  0.4052
 4495SOL    HW225122   3.136   1.519   4.844 -2.7608  0.3578 -1.2043
 4496SOL     OW25123   4.655   4.556   2.384 -0.0089  0.1212  0.1094
 4496SOL    HW125124   4.703   4.626   2.340 -0.2672 -0.5819 -1.3086
 4496SOL    HW225125   4.629   4.509   2.305  0.0622 -1.6109  1.1078
 4497SOL     OW25126   0.019   2.936   2.627 -0.5317 -0.4043 -0.3522
 4497SOL    HW125127   0.113   2.927   2.611 -0.5305  1.3104 -1.3904
 4497SOL    HW225128   4.726   2.846   2.637  0.6819 -0.8696 -1.0052
 4498SOL     OW25129   0.586   1.470   8.680  0.5461  0.1673 -0.0470
 4498SOL    HW125130   0.607   1.399   8.741 -1.9456  0.6895  1.3903
 4498SOL    HW225131   0.614   1.433   8.596  0.5556 -2.3261  1.0548
 4499SOL     OW25132   2.006   2.523   7.044 -0.0848 -0.4497  0.0790
 4499SOL    HW125133   1.942   2.466   7.088 -1.8810  0.0671 -1.8475
 4499SOL    HW225134   1.982   2.601   7.092 -1.0173 -0.7514  0.1067
 4500SOL     OW25135   0.823   3.925   1.591 -0.0863  0.4031  0.3535
 4500SOL    HW125136   0.881   4.001   1.585 -0.4832  0.6070 -1.0078
 4500SOL    HW225137   0.788   3.911   1.679  2.1625  2.4709  1.5743
 4501SOL     OW25138   1.216   3.193   0.020 -0.3094 -0.4865 -0.6184
 4501SOL    HW125139   1.213   3.120  17.703 -1.2303 -0.4179 -0.6551
 4501SOL    HW225140   1.232   3.127   0.087 -3.9898 -0.4960  0.2331
 4502SOL     OW25141   2.294   2.667   3.558  0.5351 -0.1401 -0.0006
 4502SOL    HW125142   2.202   2.643   3.550  0.1877  0.5772  1.7329
 4502SOL    HW225143   2.324   2.617   3.634  0.1879 -0.8679 -0.3423
 4503SOL     OW25144   1.333   3.309   2.908 -0.2802 -0.2421  0.3260
 4503SOL    HW125145   1.395   3.347   2.845 -0.0841 -2.4667 -0.8150
 4503SOL    HW225146   1.299   3.233   2.861 -2.3157 -0.0442  1.4880
 4504SOL     OW25147   1.303   2.416  11.275  0.6187 -0.2719 -0.1558
 4504SOL    HW125148   1.365   2.380  11.338 -2.3697 -1.5500  2.0455
 4504SOL    HW225149   1.279   2.342  11.220 -4.0474 -0.0130  1.4460
 4505SOL     OW25150   2.271   1.396   6.229  0.5472 -0.1909 -0.2027
 4505SOL    HW125151   2.226   1.354   6.303 -0.1997  1.3126  0.1939
 4505SOL    HW225152   2.200   1.399   6.166 -0.0184  1.2029  0.4854
 4506SOL     OW25153   4.142   1.428   3.977  0.0901 -0.0132 -0.1320
 4506SOL    HW125154   4.222   1.469   3.944 -0.5039  1.5949  0.4323
 4506SOL    HW225155   4.173   1.399   4.063  0.3053 -0.8756 -0.4975
 4507SOL     OW25156   0.533   0.748   3.023 -0.5505 -0.1133  0.1690
 4507SOL    HW125157   0.570   0.805   2.956 -0.5659  0.5396  0.7145
 4507SOL    HW225158   0.540   0.802   3.101  0.2639  1.4752 -1.0047
 4508SOL     OW25159   0.384   0.656   5.030 -0.2878 -0.3047  0.0850
 4508SOL    HW125160   0.321   0.638   5.100 -1.4288  1.0101 -0.5983
 4508SOL    HW225161   0.327   0.682   4.957 -2.0412 -0.9782  1.2135
 4509SOL     OW25162   0.081   1.603   3.589  0.0598  0.5837 -0.0727
 4509SOL    HW125163   0.085   1.550   3.509  0.8458  0.0218  0.3285
 4509SOL    HW225164   0.024   1.552   3.648 -0.4780  1.7986  0.4470
 4510SOL     OW25165   0.586   3.027   5.103  0.0453 -0.3966  0.0490
 4510SOL    HW125166   0.648   2.991   5.039 -0.6678  1.6213 -1.8020
 4510SOL    HW225167   0.513   2.974   5.071 -1.1169 -0.0427  2.1082
 4511SOL     OW25168   2.271   4.297   0.920  0.0540  0.2467  0.3491
 4511SOL    HW125169   2.263   4.292   0.825 -0.1699  0.1358  0.3747
 4511SOL    HW225170   2.359   4.334   0.921 -0.0905  0.6281 -1.4440
 4512SOL     OW25171   4.454   0.004   7.947 -0.2871  0.1813  0.2480
 4512SOL    HW125172   4.453   4.652   7.983  1.6010 -1.0813 -2.7395
 4512SOL    HW225173   4.480   4.723   7.856  0.3279 -2.3075  0.9239
 4513SOL     OW25174   2.070   1.079   9.252 -0.2848  0.3340 -0.0305
 4513SOL    HW125175   2.018   1.069   9.332  1.9659  0.2973  1.4086
 4513SOL    HW225176   2.118   1.160   9.271  1.2902 -0.3929 -1.0003
 4514SOL     OW25177   4.041   2.098  17.481  0.3219  0.8843  0.5781
 4514SOL    HW125178   4.114   2.117  17.540 -0.7292  2.8862  1.2097
 4514SOL    HW225179   3.961   2.112  17.531  0.7642  0.8977  1.2845
 4515SOL     OW25180   0.553   4.151   4.049  0.2683 -0.4286 -0.1176
 4515SOL    HW125181   0.585   4.156   3.959  1.3749  0.7511  0.3397
 4515SOL    HW225182   0.629   4.116   4.097 -0.0086 -1.1823 -0.2275
 4516SOL     OW25183   1.579   2.828   2.376  0.1556  0.2180  0.4086
 4516SOL    HW125184   1.532   2.766   2.321 -0.2126  1.1804 -0.3618
 4516SOL    HW225185   1.541   2.801   2.460 -0.8691  2.2993  0.6309
 4517SOL     OW25186   1.938   3.686  16.540  0.2522 -0.5917 -0.0291
 4517SOL    HW125187   2.016   3.732  16.508 -0.4303  0.5191 -0.1035
 4517SOL    HW225188   1.880   3.704  16.466  0.4906  0.8112  0.1294
 4518SOL     OW25189   3.501   1.884   7.749 -0.2320 -1.3220  0.1206
 4518SOL    HW125190   3.442   1.864   7.676  0.3618 -1.7128 -0.2482
 4518SOL    HW225191   3.585   1.848   7.722  0.6286 -1.0018  2.3150
 4519SOL     OW25192   2.117   1.821   7.603  0.0106  0.4334  0.0776
 4519SOL    HW125193   2.192   1.876   7.623 -0.1649  0.8427 -0.4085
 4519SOL    HW225194   2.049   1.881   7.635 -0.1552 -0.5710  1.5968
 4520SOL     OW25195   0.622   3.672   9.806 -0.4666  0.1706  0.2380
 4520SOL    HW125196   0.661   3.707   9.726  2.1750 -0.0054  1.4746
 4520SOL    HW225197   0.688   3.683   9.875 -1.0943  0.9266  0.7270
 4521SOL     OW25198   2.719   1.977   5.028  0.2007  0.3310 -0.3084
 4521SOL    HW125199   2.803   2.019   5.009  0.5645 -0.0906  0.3706
 4521SOL    HW225200   2.699   2.016   5.113 -0.1451 -0.4109 -0.0473
 4522SOL     OW25201   0.777   3.049   6.706 -0.2631 -0.3730 -0.3681
 4522SOL    HW125202   0.684   3.069   6.717  0.3756  1.5467  1.7210
 4522SOL    HW225203   0.802   3.051   6.799 -2.6126  1.6200  0.2172
 4523SOL     OW25204   1.172   3.856  10.796  0.2237  0.4290  0.7383
 4523SOL    HW125205   1.117   3.808  10.859  1.5855 -2.8606 -0.5798
 4523SOL    HW225206   1.260   3.822  10.810 -0.7570 -2.7058 -0.5381
 4524SOL     OW25207   3.914   2.088  15.192 -0.5377  0.8056 -0.7953
 4524SOL    HW125208   3.970   2.164  15.211 -0.1571 -0.4703  3.0482
 4524SOL    HW225209   3.958   2.049  15.116 -0.1022 -1.2721  0.5466
 4525SOL     OW25210   2.824   4.094   6.657  0.4064  0.5055  0.8120
 4525SOL    HW125211   2.865   4.082   6.572  0.9054 -0.4220  1.1764
 4525SOL    HW225212   2.896   4.134   6.706  1.1047  1.5322 -1.0457
 4526SOL     OW25213   0.348   0.546  12.314 -0.3392  0.0219 -0.0181
 4526SOL    HW125214   0.339   0.563  12.220 -0.2053  1.7348  0.2817
 4526SOL    HW225215   0.338   0.634  12.349  1.8054 -0.0781  0.7998
 4527SOL     OW25216   1.372   1.110   9.463 -0.0592  0.1416  0.1718
 4527SOL    HW125217   1.301   1.059   9.501 -0.3658  0.8127  0.5089
 4527SOL    HW225218   1.446   1.103   9.523  0.1007 -0.1966 -0.0667
 4528SOL     OW25219   0.907   2.220   5.226 -0.4187 -0.5271  0.1760
 4528SOL    HW125220   1.001   2.203   5.223 -0.2602  0.1685  1.0827
 4528SOL    HW225221   0.876   2.129   5.225  0.3062 -0.8256  3.1576
 4529SOL     OW25222   0.259   2.836   8.028 -0.2554  0.1286  0.2551
 4529SOL    HW125223   0.244   2.851   8.121 -0.5891 -0.0136  0.2260
 4529SOL    HW225224   0.347   2.800   8.021  0.1687  1.3293 -0.4838
 4530SOL     OW25225   1.897   3.549   5.283  0.4958 -0.5049  0.1645
 4530SOL    HW125226   1.956   3.563   5.356 -1.9915 -1.0764  2.2652
 4530SOL    HW225227   1.841   3.626   5.293  2.6431  0.9132  1.2861
 4531SOL     OW25228   4.103   4.405  16.220 -0.2248  0.1492  0.1375
 4531SOL    HW125229   4.149   4.466  16.162  0.5214  0.9259  1.5381
 4531SOL    HW225230   4.179   4.355  16.250 -0.4397 -0.4086 -0.2530
 4532SOL     OW25231   0.258   2.752   5.431  0.4949 -0.6138 -0.2450
 4532SOL    HW125232   0.220   2.839   5.445 -0.6383 -1.3895  1.4231
 4532SOL    HW225233   0.253   2.746   5.336 -1.6710  1.0709 -0.2413
 4533SOL     OW25234   2.299   1.211   2.901  0.2592  0.0906 -0.0855
 4533SOL    HW125235   2.266   1.183   2.986  0.2353  1.0386  0.2153
 4533SOL    HW225236   2.367   1.145   2.888 -0.5339 -0.7773  0.2300
 4534SOL     OW25237   4.171   0.561   8.513  0.2297  0.0985 -0.2468
 4534SOL    HW125238   4.266   0.568   8.505  0.1501 -0.4152 -1.6303
 4534SOL    HW225239   4.168   0.475   8.472 -0.1887  0.1008 -0.2267
 4535SOL     OW25240   1.582   1.537  16.609  0.5592 -0.3194 -0.6229
 4535SOL    HW125241   1.643   1.465  16.596  0.5780 -0.2826 -0.7423
 4535SOL    HW225242   1.523   1.497  16.673  0.3448  2.1104  0.6802
 4536SOL     OW25243   2.292   3.962  13.601 -0.0617 -0.0988  0.1695
 4536SOL    HW125244   2.353   3.998  13.666 -0.3626  0.7376 -0.0128
 4536SOL    HW225245   2.320   4.017  13.528  0.3637  0.8243  1.0230
 4537SOL     OW25246   3.280   2.083   1.406 -0.4387 -0.3594 -0.1873
 4537SOL    HW125247   3.253   2.174   1.393  0.8492  0.2320  1.2593
 4537SOL    HW225248   3.266   2.046   1.320 -0.5754 -0.3804 -0.1562
 4538SOL     OW25249   3.621   2.322   3.090  0.5833  0.0219  0.3503
 4538SOL    HW125250   3.536   2.322   3.134 -0.2646  1.6146 -1.2354
 4538SOL    HW225251   3.619   2.395   3.028  1.5541  1.4451  1.9895
 4539SOL     OW25252   3.122   2.668  16.029 -0.0358  0.1235 -0.1920
 4539SOL    HW125253   3.178   2.740  16.059 -1.3114  0.8807  0.3841
 4539SOL    HW225254   3.115   2.677  15.934 -1.2023  1.6790  0.0254
 4540SOL     OW25255   0.116   4.199   9.637  0.4800  0.2554 -0.1528
 4540SOL    HW125256   0.172   4.190   9.559  0.7309  1.0566 -0.0632
 4540SOL    HW225257   0.052   4.260   9.600 -1.8379 -0.9942  1.8116
 4541SOL     OW25258   0.977   1.805   8.321  0.2932 -0.1806 -0.1169
 4541SOL    HW125259   0.912   1.758   8.269  0.1619 -0.1805  0.0464
 4541SOL    HW225260   1.057   1.766   8.284 -0.3652 -1.3905 -0.2490
 4542SOL     OW25261   0.290   1.859  13.216 -0.0843 -0.0307 -0.0407
 4542SOL    HW125262   0.357   1.894  13.157 -0.0765  0.7415  0.4315
 4542SOL    HW225263   0.312   1.897  13.301  4.2797  1.4450 -1.8175
 4543SOL     OW25264   0.971   2.482  14.659 -0.1014 -0.3564 -0.2238
 4543SOL    HW125265   0.949   2.393  14.688 -2.2106 -0.3209 -1.7392
 4543SOL    HW225266   0.995   2.462  14.569 -1.2853  2.1592 -1.1072
 4544SOL     OW25267   0.889   3.896   4.375 -0.1618 -0.0201 -0.1489
 4544SOL    HW125268   0.983   3.881   4.381  0.1677  0.5432 -4.0200
 4544SOL    HW225269   0.890   3.957   4.449  1.6111 -3.6756  2.8718
 4545SOL     OW25270   2.171   3.631   6.218 -0.3970 -0.5232  0.1889
 4545SOL    HW125271   2.175   3.597   6.307 -1.3377 -1.0159  0.0506
 4545SOL    HW225272   2.193   3.556   6.163 -1.7402  0.0536 -1.1498
 4546SOL     OW25273   1.092   0.575   8.010 -0.3220  0.3844 -0.0303
 4546SOL    HW125274   1.050   0.534   7.934 -0.6032  2.2241 -0.8628
 4546SOL    HW225275   1.027   0.557   8.077  0.0665 -0.0793  0.2238
 4547SOL     OW25276   3.863   0.718  11.954 -0.1421  0.1506  0.2072
 4547SOL    HW125277   3.898   0.748  11.870  0.7320  2.9324  1.5752
 4547SOL    HW225278   3.902   0.632  11.971 -1.0368 -0.2966  0.0182
 4548SOL     OW25279   1.153   1.718  11.446 -0.3669 -0.3793  0.2714
 4548SOL    HW125280   1.167   1.643  11.388  1.1579 -0.6004  0.9201
 4548SOL    HW225281   1.193   1.794  11.403  0.8851 -1.8940 -1.2728
 4549SOL     OW25282   0.455   1.929  12.438 -0.4373  0.2562  0.4858
 4549SOL    HW125283   0.483   1.972  12.519 -0.4595  0.8534  0.1774
 4549SOL    HW225284   0.359   1.937  12.431 -0.5583 -1.9422 -0.1565
 4550SOL     OW25285   0.050   3.368   3.300  0.3393 -0.0953 -0.1277
 4550SOL    HW125286   0.047   3.295   3.239  0.8245 -1.0232  0.9667
 4550SOL    HW225287   0.141   3.394   3.291  0.7623 -1.3875  0.4482
 4551SOL     OW25288   2.220   3.352   8.827  0.1229 -0.3990 -0.4786
 4551SOL    HW125289   2.219   3.264   8.863 -0.9023 -0.0473  0.3612
 4551SOL    HW225290   2.247   3.333   8.737 -1.9269 -0.4848 -1.0807
 4552SOL     OW25291   4.457   2.836   0.413 -0.3420 -0.2432 -0.4709
 4552SOL    HW125292   4.430   2.772   0.346  0.3601 -0.2993 -0.7071
 4552SOL    HW225293   4.472   2.786   0.493 -2.5055 -0.6973 -0.3555
 4553SOL     OW25294   3.006   4.356   8.296  0.1240 -0.7503  0.2642
 4553SOL    HW125295   2.918   4.343   8.333 -0.8502  3.7346 -0.5047
 4553SOL    HW225296   3.009   4.317   8.209  1.4287  0.4193 -0.2188
 4554SOL     OW25297   2.405   0.123  15.518  0.6868  0.1116  0.0441
 4554SOL    HW125298   2.394   0.200  15.574 -1.9190 -0.0586 -0.2155
 4554SOL    HW225299   2.464   0.069  15.570  0.0621  0.5374  1.1990
 4555SOL     OW25300   0.202   4.653   3.848 -0.0754 -0.7493  0.2891
 4555SOL    HW125301   0.167   4.564   3.860 -2.7334  0.2060 -0.2083
 4555SOL    HW225302   0.237   4.652   3.759  2.8812 -0.5661  1.4767
 4556SOL     OW25303   0.686   3.725  10.323  0.5057 -0.6545 -0.8578
 4556SOL    HW125304   0.727   3.803  10.362  1.6225 -1.7054  0.0426
 4556SOL    HW225305   0.660   3.767  10.240 -1.2128 -1.6288 -0.7895
 4557SOL     OW25306   2.450   3.635   4.966  0.2473 -0.4802 -0.1862
 4557SOL    HW125307   2.490   3.595   4.889  1.2174  0.4181 -0.1499
 4557SOL    HW225308   2.530   3.645   5.017 -1.0361  0.5894  1.5956
 4558SOL     OW25309   1.119   1.647   8.143 -0.0274  0.0118 -0.3519
 4558SOL    HW125310   1.092   1.651   8.051  0.4133 -0.1479 -0.4864
 4558SOL    HW225311   1.132   1.554   8.162 -0.4068  0.0528  0.1042
 4559SOL     OW25312   2.849   4.378   7.448  0.4219  0.8345 -0.3161
 4559SOL    HW125313   2.853   4.304   7.388  1.2180  1.1092 -0.5917
 4559SOL    HW225314   2.909   4.350   7.517 -1.0584  0.6005  0.8809
 4560SOL     OW25315   2.540   3.065   1.352  0.3347  0.2102  0.0827
 4560SOL    HW125316   2.531   2.969   1.345  1.7867  0.1097 -0.4318
 4560SOL    HW225317   2.609   3.071   1.417  0.7669 -0.9986 -0.2502
 4561SOL     OW25318   1.928   2.571   2.198  0.2447 -0.3557  0.1954
 4561SOL    HW125319   1.909   2.641   2.135 -3.7318  1.0849  3.0226
 4561SOL    HW225320   1.987   2.518   2.143  0.0091 -1.9402  1.4780
 4562SOL     OW25321   1.823   0.331   2.138  0.2298  0.3243 -0.2867
 4562SOL    HW125322   1.769   0.375   2.071  1.3159  1.3671 -0.4751
 4562SOL    HW225323   1.765   0.255   2.137 -0.5563  0.9086  1.0184
 4563SOL     OW25324   4.636   1.697   1.967  0.1171 -0.6417  0.5506
 4563SOL    HW125325   4.563   1.757   1.953  2.0532  1.4543 -0.7158
 4563SOL    HW225326   4.682   1.737   2.041 -1.0049  1.5888  0.0534
 4564SOL     OW25327   0.650   2.572  12.413 -0.2445  0.2766 -0.0389
 4564SOL    HW125328   0.717   2.601  12.475  0.6728  0.4305 -1.0959
 4564SOL    HW225329   0.621   2.660  12.388 -0.7350  0.4992  1.3023
 4565SOL     OW25330   2.373   2.750   8.491  0.3133  0.4885  0.0011
 4565SOL    HW125331   2.451   2.750   8.436  0.0098  0.3979 -0.4299
 4565SOL    HW225332   2.298   2.746   8.432  0.6961 -0.9360 -0.3784
 4566SOL     OW25333   0.224   4.206   3.075  0.0191 -0.5528  0.2225
 4566SOL    HW125334   0.306   4.251   3.091 -0.9273  0.9076  0.9905
 4566SOL    HW225335   0.258   4.117   3.086  0.9723  0.0218  1.9324
 4567SOL     OW25336   3.211   2.476   6.925  0.1525  0.7054  0.1068
 4567SOL    HW125337   3.143   2.423   6.883  1.8690 -0.9037 -0.6025
 4567SOL    HW225338   3.163   2.554   6.954 -1.9113 -0.8660  0.8415
 4568SOL     OW25339   2.681   1.836  11.079 -0.4158 -0.1755  0.3838
 4568SOL    HW125340   2.757   1.788  11.046 -0.1533  2.1629 -2.4234
 4568SOL    HW225341   2.633   1.849  10.997 -0.9056  2.7552  1.1362
 4569SOL     OW25342   2.616   3.410  12.438 -0.5320 -0.4069  0.5016
 4569SOL    HW125343   2.645   3.319  12.440  0.4403 -0.1269 -0.4105
 4569SOL    HW225344   2.700   3.456  12.429 -0.5588 -0.5931 -0.7649
 4570SOL     OW25345   3.018   0.916   5.785  0.0375  0.0992 -0.6238
 4570SOL    HW125346   2.982   0.831   5.761 -0.4716 -0.6016  2.6211
 4570SOL    HW225347   2.950   0.939   5.849  1.4753 -2.7582  1.9471
 4571SOL     OW25348   3.573   3.928   2.315  0.5389  0.3819 -0.9891
 4571SOL    HW125349   3.645   3.870   2.341  0.3527  2.7302  4.9246
 4571SOL    HW225350   3.615   3.993   2.259  2.6440 -0.3419 -0.2534
 4572SOL     OW25351   4.448   2.615   6.693  0.1825  0.2058 -0.5535
 4572SOL    HW125352   4.530   2.627   6.741  0.9767 -0.0220 -1.8613
 4572SOL    HW225353   4.397   2.559   6.751  1.0782 -0.1633 -0.1242
 4573SOL     OW25354   0.656   4.256   8.171  0.0170 -0.1898 -0.0925
 4573SOL    HW125355   0.627   4.339   8.132  0.9478  0.6825  1.0727
 4573SOL    HW225356   0.697   4.284   8.253  1.0272  0.9043 -0.9704
 4574SOL     OW25357   2.345   3.285   5.576  0.2985 -0.8880 -0.4962
 4574SOL    HW125358   2.411   3.244   5.519  1.0865 -0.3933  0.0778
 4574SOL    HW225359   2.328   3.363   5.523 -0.0165  0.2914  1.3352
 4575SOL     OW25360   4.036   3.724  12.539  0.4781  0.2400  0.2867
 4575SOL    HW125361   4.104   3.657  12.541 -0.3860 -0.6640 -0.8542
 4575SOL    HW225362   4.074   3.766  12.462 -0.5416  0.0252 -0.3236
 4576SOL     OW25363   0.456   3.933   5.605 -0.2327  0.0754  0.0719
 4576SOL    HW125364   0.498   4.008   5.648  1.8337 -1.5119  0.8437
 4576SOL    HW225365   0.430   3.874   5.677 -0.2095  0.4125  0.3567
 4577SOL     OW25366   1.378   3.464  10.371 -0.2173  0.0849  0.2754
 4577SOL    HW125367   1.467   3.488  10.398  0.0088 -1.0559  0.5185
 4577SOL    HW225368   1.336   3.530  10.427  2.7430  1.2547  1.1665
 4578SOL     OW25369   3.622   3.327   6.424  0.1534 -0.0751  0.2953
 4578SOL    HW125370   3.668   3.381   6.489 -0.2941  0.5659  0.0903
 4578SOL    HW225371   3.592   3.260   6.485 -2.2846 -0.5954 -1.4888
 4579SOL     OW25372   4.420   2.462   5.866 -0.1755 -0.0253  0.1498
 4579SOL    HW125373   4.457   2.497   5.785 -0.3828 -1.0313 -0.3776
 4579SOL    HW225374   4.327   2.475   5.851 -0.2017  0.5445  0.8051
 4580SOL     OW25375   2.169   3.640   7.150  0.4830 -0.9521 -0.0179
 4580SOL    HW125376   2.141   3.559   7.193 -0.6342 -1.4686 -1.7097
 4580SOL    HW225377   2.163   3.608   7.060  0.4427  0.7678 -0.6084
 4581SOL     OW25378   0.747   1.108   5.675 -0.0040  0.0162 -0.1591
 4581SOL    HW125379   0.787   1.187   5.710  0.8716  0.5520 -2.3194
 4581SOL    HW225380   0.823   1.052   5.690 -0.9459 -1.8388 -2.2353
 4582SOL     OW25381   2.058   4.447   5.445  0.2455 -0.1737 -0.0022
 4582SOL    HW125382   2.065   4.422   5.537  1.1973  2.1973  0.5643
 4582SOL    HW225383   2.063   4.542   5.455 -1.1802 -0.1619  0.5679
 4583SOL     OW25384   4.236   4.441   6.438  0.2951  0.2155 -0.2433
 4583SOL    HW125385   4.242   4.348   6.415 -0.5172  0.2517 -0.6039
 4583SOL    HW225386   4.307   4.476   6.385  0.0586 -2.2813 -2.1738
 4584SOL     OW25387   3.544   2.443   6.552  0.3839  0.2502  0.6504
 4584SOL    HW125388   3.613   2.502   6.584  0.5875  0.0331  0.6140
 4584SOL    HW225389   3.584   2.361   6.580  1.3639  1.0597  1.6111
 4585SOL     OW25390   0.354   3.786  12.886 -0.3572  0.0873 -0.1064
 4585SOL    HW125391   0.439   3.808  12.848  0.6333  1.1963  2.7715
 4585SOL    HW225392   0.321   3.734  12.812 -0.6904 -1.4132  1.0971
 4586SOL     OW25393   1.543   0.760   1.028 -0.5849 -0.5494 -0.4066
 4586SOL    HW125394   1.521   0.836   0.974  0.3286  0.2664  0.3512
 4586SOL    HW225395   1.573   0.794   1.112 -0.3544 -3.3491  0.6375
 4587SOL     OW25396   3.725   3.629   2.277  0.0232 -0.5154  0.3723
 4587SOL    HW125397   3.703   3.676   2.197  5.0037 -0.1380 -0.7923
 4587SOL    HW225398   3.820   3.640   2.279  0.1863 -1.9755  0.5758
 4588SOL     OW25399   3.620   0.040   2.446  0.4117  0.6272  0.1959
 4588SOL    HW125400   3.538   0.065   2.490  0.6542  2.5665 -0.4659
 4588SOL    HW225401   3.579   0.017   2.363 -0.5660  1.3001  0.4880
 4589SOL     OW25402   3.237   1.921   5.729  0.3461  0.8479 -0.8215
 4589SOL    HW125403   3.253   1.963   5.814 -2.5844  0.1188  0.0865
 4589SOL    HW225404   3.169   1.865   5.767  0.5309 -0.6624 -2.7314
 4590SOL     OW25405   3.920   0.282   4.065  0.6711  0.3900  0.2203
 4590SOL    HW125406   3.959   0.313   3.983  0.5175  1.3783  0.5218
 4590SOL    HW225407   3.997   0.282   4.122  0.0410  0.7102  1.0789
 4591SOL     OW25408   4.334   1.265   9.723 -0.0953 -0.1452  0.4737
 4591SOL    HW125409   4.321   1.310   9.639 -1.9311 -1.1747  0.2092
 4591SOL    HW225410   4.362   1.178   9.692 -0.0892  0.9452 -2.6407
 4592SOL     OW25411   2.611   4.231   7.001 -0.3188 -0.7006  0.3944
 4592SOL    HW125412   2.680   4.287   6.966 -0.2975 -0.5368  0.7040
 4592SOL    HW225413   2.668   4.157   7.021  1.8441  0.8464 -0.1273
 4593SOL     OW25414   2.261   2.058  13.477 -0.3435 -0.3496  0.4040
 4593SOL    HW125415   2.271   2.150  13.501 -0.9263 -0.3612  0.6834
 4593SOL    HW225416   2.266   2.011  13.560 -1.2002 -2.1185 -0.5460
 4594SOL     OW25417   1.323   2.122  10.632  0.1028 -0.0137  0.4924
 4594SOL    HW125418   1.352   2.089  10.547 -1.6649 -0.4659  0.0650
 4594SOL    HW225419   1.289   2.205  10.598 -0.0378 -0.1286  0.3545
 4595SOL     OW25420   3.091   0.197   6.031 -0.1647 -0.4652  0.0320
 4595SOL    HW125421   3.091   0.288   6.060  0.2793  0.1156 -1.7838
 4595SOL    HW225422   3.170   0.161   6.069  0.0010 -0.3895 -0.2372
 4596SOL     OW25423   0.300   2.970  11.948  0.2465 -0.4886  0.6197
 4596SOL    HW125424   0.264   2.897  11.898  0.6560 -0.2511 -0.0215
 4596SOL    HW225425   0.225   3.030  11.948 -0.2537 -1.1048  3.1198
 4597SOL     OW25426   4.189   2.828   2.530  0.1648 -0.1643 -0.1124
 4597SOL    HW125427   4.118   2.851   2.590  0.1358 -1.3807  0.3251
 4597SOL    HW225428   4.148   2.779   2.459 -1.7894  1.2642  0.0624
 4598SOL     OW25429   1.805   4.730   1.262  0.2099 -1.3521  0.1175
 4598SOL    HW125430   1.834   4.640   1.268  0.7251 -1.1866  0.0929
 4598SOL    HW225431   1.806   0.015   1.169 -2.7912  0.3722  0.4851
 4599SOL     OW25432   3.653   3.307   8.445 -0.6156 -0.1526  0.1396
 4599SOL    HW125433   3.696   3.378   8.397 -1.3544  0.9034  1.0242
 4599SOL    HW225434   3.706   3.247   8.393 -1.0848 -2.3701  2.2367
 4600SOL     OW25435   3.620   0.400  11.813  0.0635  0.0906  0.3285
 4600SOL    HW125436   3.711   0.400  11.843 -0.0755  0.5128  0.7491
 4600SOL    HW225437   3.629   0.345  11.735  0.8477  1.2556 -0.3906
 4601SOL     OW25438   3.090   4.267   8.813 -0.1103 -0.1883 -0.0888
 4601SOL    HW125439   3.072   4.188   8.761  0.8184  0.3300 -1.1768
 4601SOL    HW225440   3.130   4.333   8.757 -0.9611  0.8828  0.5813
 4602SOL     OW25441   3.778   0.266   5.760  0.5438  0.7083 -0.1741
 4602SOL    HW125442   3.790   0.171   5.761  0.6161  0.7197  0.4100
 4602SOL    HW225443   3.846   0.304   5.706 -0.9263  3.9076  0.2013
 4603SOL     OW25444   4.235   1.574  16.479 -0.0189  0.0466  0.1292
 4603SOL    HW125445   4.311   1.587  16.423 -0.9689  3.3353 -0.3943
 4603SOL    HW225446   4.168   1.556  16.413 -0.7615 -1.9154  1.4180
 4604SOL     OW25447   3.161   3.818   6.308  0.0903  0.0367  0.5596
 4604SOL    HW125448   3.163   3.739   6.254  0.8337  1.2242 -1.1388
 4604SOL    HW225449   3.131   3.885   6.246  0.5604 -0.1077  0.1852
 4605SOL     OW25450   1.129   2.306   4.150 -0.3773 -0.7092  0.4800
 4605SOL    HW125451   1.099   2.391   4.118 -0.0629 -1.0847 -0.7786
 4605SOL    HW225452   1.061   2.294   4.216  0.4955 -1.9463  1.1455
 4606SOL     OW25453   0.879   2.641   7.341 -0.0921 -0.1150 -0.1480
 4606SOL    HW125454   0.914   2.667   7.426  1.3474  0.1716 -0.8326
 4606SOL    HW225455   0.837   2.557   7.361 -0.0626  0.1876  1.1540
 4607SOL     OW25456   3.025   2.867   8.939  0.0791  0.4467  0.0882
 4607SOL    HW125457   3.081   2.857   9.016 -1.9516 -3.0424  1.1157
 4607SOL    HW225458   3.000   2.959   8.940 -0.8677  0.1905 -0.2632
 4608SOL     OW25459   2.310   1.679   5.264  0.0931  0.2985  0.1629
 4608SOL    HW125460   2.303   1.774   5.275  1.4564  0.2311  1.5352
 4608SOL    HW225461   2.303   1.641   5.351  2.5927 -0.8240 -0.1189
 4609SOL     OW25462   1.201   4.233   4.629 -0.3070 -0.2025 -0.0331
 4609SOL    HW125463   1.214   4.172   4.701 -1.8393 -1.1871 -0.5895
 4609SOL    HW225464   1.207   4.317   4.675 -2.4472  0.2224 -0.5468
 4610SOL     OW25465   0.940   2.926   8.225  0.3693 -0.2097 -0.5580
 4610SOL    HW125466   1.009   2.992   8.214 -0.9544  1.0589 -1.1697
 4610SOL    HW225467   0.879   2.951   8.156 -0.0912  0.3485  0.0503
 4611SOL     OW25468   0.242   0.480  15.894 -0.3405 -0.1822 -0.2331
 4611SOL    HW125469   0.169   0.532  15.929  2.3778  1.5118  2.9062
 4611SOL    HW225470   0.269   0.428  15.969  2.6630  0.0407 -1.1756
 4612SOL     OW25471   0.234   2.118   7.536  0.3398 -0.1309  0.2967
 4612SOL    HW125472   0.257   2.036   7.492  0.0685  0.3296 -0.6894
 4612SOL    HW225473   0.317   2.150   7.572  0.8237 -0.5884 -0.4078
 4613SOL     OW25474   4.378   0.826   3.087 -0.1639 -0.0149  0.5375
 4613SOL    HW125475   4.290   0.791   3.068 -0.3265  0.8632 -0.3022
 4613SOL    HW225476   4.421   0.808   3.003 -0.7541  0.3866  0.1458
 4614SOL     OW25477   0.652   1.119   5.427 -0.3881 -0.1244 -0.1299
 4614SOL    HW125478   0.566   1.091   5.456 -0.3539  0.1307  0.2159
 4614SOL    HW225479   0.709   1.121   5.504  0.1404  1.2118 -0.5533
 4615SOL     OW25480   1.975   4.645   4.988 -0.8899 -0.6629 -0.0336
 4615SOL    HW125481   1.939   4.709   5.049 -0.3945 -1.1139  0.7229
 4615SOL    HW225482   2.055   4.686   4.955 -1.0003 -0.5575 -0.1739
 4616SOL     OW25483   0.151   3.085   8.218  0.4567 -0.0437  0.2020
 4616SOL    HW125484   0.057   3.098   8.227 -0.3018 -3.3549 -3.2706
 4616SOL    HW225485   0.184   3.086   8.308  0.0006  0.7390  0.3564
 4617SOL     OW25486   3.073   1.978  13.296  0.2742  0.2044  0.4429
 4617SOL    HW125487   2.996   1.923  13.310  0.5931 -0.4023 -0.1597
 4617SOL    HW225488   3.142   1.916  13.319  0.8913  1.3842  1.6995
 4618SOL     OW25489   1.377   4.463   4.517  0.3379 -0.3061  0.3703
 4618SOL    HW125490   1.389   4.457   4.612  0.5121 -0.3555  0.3446
 4618SOL    HW225491   1.372   4.369   4.501  1.7013 -0.1672 -0.8772
 4619SOL     OW25492   1.587   2.361   2.227  0.1965 -0.0351 -0.4288
 4619SOL    HW125493   1.533   2.304   2.282  1.8553  0.0895  1.3261
 4619SOL    HW225494   1.655   2.303   2.192  1.5063  1.2942 -0.0707
 4620SOL     OW25495   2.982   3.992   1.187 -0.4678  0.7785 -0.2108
 4620SOL    HW125496   2.960   4.022   1.275  5.8881  0.9934  1.3057
 4620SOL    HW225497   3.007   3.900   1.197  1.4474  1.4849  1.6711
 4621SOL     OW25498   0.184   4.349  13.015 -0.3183 -0.1002  0.0571
 4621SOL    HW125499   0.158   4.389  12.932  2.7070  0.2782 -0.6798
 4621SOL    HW225500   0.122   4.392  13.075  1.2691 -0.0208  1.6494
 4622SOL     OW25501   2.536   3.783   7.015  0.2412 -0.3170  0.2362
 4622SOL    HW125502   2.581   3.701   7.036  2.1779  0.3466 -1.3455
 4622SOL    HW225503   2.494   3.762   6.931  1.7732 -0.2157 -0.5642
 4623SOL     OW25504   1.589   0.485   3.677  0.0005 -0.5189 -0.1450
 4623SOL    HW125505   1.513   0.542   3.681  0.8772  0.6351  0.1754
 4623SOL    HW225506   1.539   0.405   3.658  0.5881 -0.8307 -0.3736
 4624SOL     OW25507   3.922   0.373   6.476 -0.3975 -0.3770  0.0317
 4624SOL    HW125508   3.859   0.308   6.443  0.0962 -1.9237  2.1313
 4624SOL    HW225509   3.995   0.314   6.493  0.9729  0.9341 -1.2946
 4625SOL     OW25510   2.958   3.973  10.839  0.0205  0.2443 -0.6993
 4625SOL    HW125511   3.012   3.896  10.860 -2.7288 -1.4365  0.2195
 4625SOL    HW225512   2.872   3.947  10.873  1.1011  0.9185  2.5357
 4626SOL     OW25513   1.419   0.482   4.253  0.1253  0.2560  0.7448
 4626SOL    HW125514   1.417   0.397   4.297  0.1912  0.0250  0.2988
 4626SOL    HW225515   1.331   0.508   4.278 -0.5973  0.6190 -2.1268
 4627SOL     OW25516   0.127   0.327  12.340  0.2431  0.0092 -0.1194
 4627SOL    HW125517   0.167   0.413  12.325 -0.5960  0.3250 -0.5445
 4627SOL    HW225518   0.049   0.351  12.390  1.4301 -2.2649  2.8414
 4628SOL     OW25519   4.667   2.877   3.819 -0.1962  0.4650 -0.0194
 4628SOL    HW125520   4.578   2.907   3.803  0.6139  2.2468 -1.2325
 4628SOL    HW225521   4.717   2.915   3.746  2.1724 -0.5836  1.0310
 4629SOL     OW25522   4.437   3.973   2.593 -0.5586  0.3879  0.7358
 4629SOL    HW125523   4.375   4.027   2.641 -2.1441  0.9349 -1.8798
 4629SOL    HW225524   4.425   3.884   2.626 -1.3886  0.1486 -0.2102
 4630SOL     OW25525   0.401   2.804   8.820  0.0462 -0.8845 -0.3943
 4630SOL    HW125526   0.329   2.855   8.857 -0.2337 -1.0340 -0.7365
 4630SOL    HW225527   0.384   2.719   8.861 -1.0227  0.2119  1.4517
 4631SOL     OW25528   4.469   0.778   6.234  0.2666 -0.0779 -0.4444
 4631SOL    HW125529   4.442   0.690   6.259 -1.4082 -0.0514 -2.1920
 4631SOL    HW225530   4.560   0.783   6.263 -0.4847  1.8050  1.6545
 4632SOL     OW25531   0.777   2.406  11.104  0.2529 -0.4489 -0.4306
 4632SOL    HW125532   0.739   2.491  11.126  0.1058  0.0391 -2.5345
 4632SOL    HW225533   0.804   2.377  11.191  0.2529 -1.9112 -0.9219
 4633SOL     OW25534   2.315   4.073   6.014  0.4204  0.1198  0.4743
 4633SOL    HW125535   2.383   4.039   5.956  2.4020 -0.7067  3.2843
 4633SOL    HW225536   2.351   4.162   6.012  1.9048 -0.5059 -0.9610
 4634SOL     OW25537   4.159   3.924   2.121 -0.0112 -0.3357 -0.1694
 4634SOL    HW125538   4.223   3.978   2.167  0.8380 -2.2387  0.8812
 4634SOL    HW225539   4.214   3.857   2.079 -2.0838 -2.0051 -0.2428
 4635SOL     OW25540   2.819   4.059  14.504  0.0960 -0.0359 -0.0786
 4635SOL    HW125541   2.871   4.014  14.571 -0.7542 -1.8752 -0.6718
 4635SOL    HW225542   2.745   4.078  14.562 -0.9759 -0.4073 -1.3187
 4636SOL     OW25543   2.176   2.730   6.341 -0.1935  0.7588  0.3484
 4636SOL    HW125544   2.169   2.722   6.436  3.2883 -0.0251  0.5438
 4636SOL    HW225545   2.091   2.692   6.317 -0.1987  1.0565 -0.1079
 4637SOL     OW25546   0.488   0.075   6.761 -0.2021  0.4257 -0.4621
 4637SOL    HW125547   0.392   0.076   6.759 -0.2495  0.0860  1.4320
 4637SOL    HW225548   0.503   0.029   6.844 -0.6911  0.8919 -0.1158
 4638SOL     OW25549   3.202   0.729  15.968  0.1997 -0.1539 -0.4389
 4638SOL    HW125550   3.142   0.778  15.912  0.5427  1.2547  0.4307
 4638SOL    HW225551   3.214   0.794  16.037  1.9468  0.0108 -0.8750
 4639SOL     OW25552   0.781   1.801   8.053  0.0354 -0.3176 -0.3129
 4639SOL    HW125553   0.727   1.790   7.975 -0.1120 -3.2699  0.2217
 4639SOL    HW225554   0.750   1.888   8.078  0.4211 -0.4115  0.4976
 4640SOL     OW25555   2.306   0.967   4.602 -0.6679  0.1078  0.0752
 4640SOL    HW125556   2.355   1.020   4.539 -1.0861 -0.8607 -1.0643
 4640SOL    HW225557   2.320   0.880   4.563 -3.4809 -0.2914 -0.0243
 4641SOL     OW25558   4.590   1.570   5.331  0.5682  0.1216  0.1162
 4641SOL    HW125559   4.502   1.574   5.367  0.8834 -1.8354  1.1018
 4641SOL    HW225560   4.618   1.662   5.330 -0.7558  0.5178 -0.0076
 4642SOL     OW25561   3.414   2.642   8.465  0.1882  0.3434  0.8646
 4642SOL    HW125562   3.386   2.632   8.556 -1.3465 -2.3736  0.0874
 4642SOL    HW225563   3.339   2.664   8.410  0.4101 -2.2586 -0.4863
 4643SOL     OW25564   0.449   2.875   7.819  0.3630  0.1446  0.6091
 4643SOL    HW125565   0.486   2.820   7.887  1.0702  0.3041  0.3515
 4643SOL    HW225566   0.433   2.950   7.876  1.0724  1.7964 -1.3453
 4644SOL     OW25567   3.014   3.958   3.452 -0.4125  0.7272 -0.1652
 4644SOL    HW125568   3.020   4.047   3.485 -2.1171  0.1078  1.8275
 4644SOL    HW225569   2.954   3.922   3.518 -0.8392  2.7219  0.5346
 4645SOL     OW25570   4.696   3.871   3.204 -0.6300  0.1372  0.6660
 4645SOL    HW125571   4.699   3.909   3.292 -1.1206 -0.1916  0.8239
 4645SOL    HW225572   0.021   3.798   3.205 -1.3031 -0.4181  1.2846
 4646SOL     OW25573   3.363   4.258  17.325  0.5020  0.5158 -0.1449
 4646SOL    HW125574   3.381   4.178  17.275 -1.1977 -0.8831  1.4404
 4646SOL    HW225575   3.431   4.315  17.291 -0.3485  0.4117 -1.9816
 4647SOL     OW25576   3.274   0.556  10.846  0.0716 -0.3829 -0.1276
 4647SOL    HW125577   3.230   0.522  10.924  0.7054  0.7676  0.7080
 4647SOL    HW225578   3.353   0.502  10.849  0.5673  0.3678  0.1710
 4648SOL     OW25579   0.574   0.423   5.868 -0.1186 -0.1266  0.0971
 4648SOL    HW125580   0.512   0.403   5.937  0.4185 -2.3948 -0.0647
 4648SOL    HW225581   0.523   0.415   5.787  0.7298 -0.6557 -0.3945
 4649SOL     OW25582   1.843   4.210   3.156 -0.2387  0.1347  0.2071
 4649SOL    HW125583   1.807   4.125   3.180 -1.0173 -0.4548 -2.9566
 4649SOL    HW225584   1.803   4.271   3.218  1.9945 -0.0424  1.8098
 4650SOL     OW25585   4.353   1.929   6.537 -0.0657 -0.1277 -0.1223
 4650SOL    HW125586   4.411   2.002   6.558 -0.1541  0.3334 -1.5205
 4650SOL    HW225587   4.264   1.955   6.561 -0.1457 -0.9929  0.5273
 4651SOL     OW25588   2.416   4.428   1.796  0.6065 -0.2098 -0.4331
 4651SOL    HW125589   2.435   4.416   1.889 -1.8881 -2.4128 -0.2200
 4651SOL    HW225590   2.478   4.486   1.752 -1.4932  1.3162 -1.3997
 4652SOL     OW25591   0.038   1.906  17.107 -0.3001 -0.2248  0.2355
 4652SOL    HW125592   0.025   1.854  17.028 -0.4110  0.7220 -0.3787
 4652SOL    HW225593   4.691   1.899  17.151 -0.4939 -0.1411 -0.1191
 4653SOL     OW25594   0.422   3.342   9.196 -0.2625 -0.3987  0.6304
 4653SOL    HW125595   0.468   3.353   9.279 -0.3534  0.8106  0.5105
 4653SOL    HW225596   0.344   3.301   9.232  1.8803 -0.5589  5.1162
 4654SOL     OW25597   0.720   0.273  17.101  0.6463  0.2321 -0.8598
 4654SOL    HW125598   0.762   0.312  17.025  0.1548  0.3852 -1.0537
 4654SOL    HW225599   0.726   0.339  17.170 -0.0330 -0.6026  0.0012
 4655SOL     OW25600   3.811   3.734  15.314 -0.0426  0.6634 -0.0508
 4655SOL    HW125601   3.848   3.649  15.291 -2.9078 -1.3980  2.9160
 4655SOL    HW225602   3.756   3.751  15.238 -1.9819  0.9932  1.4191
 4656SOL     OW25603   0.690   4.699  13.989  0.0582 -0.1404 -0.3361
 4656SOL    HW125604   0.730   4.613  13.975  1.0852  0.0611  1.3305
 4656SOL    HW225605   0.614   4.695  13.931 -0.4238 -1.9402  0.4032
 4657SOL     OW25606   2.704   2.048  12.116 -0.0542 -0.0155  0.2793
 4657SOL    HW125607   2.732   1.959  12.093  0.0776 -0.6814  2.9449
 4657SOL    HW225608   2.624   2.023  12.162 -1.4794  1.4065 -1.4270
 4658SOL     OW25609   3.462   1.287  10.304 -0.0490  0.5522 -0.2048
 4658SOL    HW125610   3.509   1.314  10.383  0.7767  2.7462 -1.4216
 4658SOL    HW225611   3.397   1.358  10.309 -0.5949 -0.1669  2.7463
 4659SOL     OW25612   1.371   4.532   6.942 -0.0588  0.5531 -0.7837
 4659SOL    HW125613   1.395   4.524   7.035 -2.3217 -2.3828 -0.4488
 4659SOL    HW225614   1.405   4.619   6.920  1.7797 -0.3366 -1.4526
 4660SOL     OW25615   4.524   1.524   2.355  0.3075  0.0408  0.8532
 4660SOL    HW125616   4.605   1.500   2.401 -0.0753 -0.8333  1.0704
 4660SOL    HW225617   4.531   1.469   2.277 -2.4625  1.9535 -0.7504
 4661SOL     OW25618   2.475   3.873   4.212  0.2843  0.4290  0.3632
 4661SOL    HW125619   2.487   3.920   4.130  2.0660 -0.4062  0.1306
 4661SOL    HW225620   2.424   3.796   4.187  1.3131 -0.0906 -0.1460
 4662SOL     OW25621   0.848   4.562   7.550  0.0519 -0.7854  0.6996
 4662SOL    HW125622   0.754   4.555   7.566 -0.3617  0.0739 -1.2966
 4662SOL    HW225623   0.854   4.657   7.555 -1.3684 -0.7078  1.0464
 4663SOL     OW25624   2.957   4.270   3.173  0.5093 -0.9722  0.1558
 4663SOL    HW125625   3.037   4.240   3.130  0.6200 -0.0249 -0.3020
 4663SOL    HW225626   2.997   4.336   3.231 -0.9100 -1.5101  1.7458
 4664SOL     OW25627   4.613   3.697   8.204 -0.1261 -0.0176  0.1733
 4664SOL    HW125628   4.596   3.790   8.188 -0.4391 -0.2169 -0.6804
 4664SOL    HW225629   4.526   3.658   8.215  0.7069 -2.0138 -0.1862
 4665SOL     OW25630   1.781   1.001  17.376 -0.0496  0.1210  0.1119
 4665SOL    HW125631   1.696   0.956  17.379 -0.0776  0.1339 -0.6590
 4665SOL    HW225632   1.827   0.974  17.456  1.4824  0.6371 -0.5966
 4666SOL     OW25633   4.332   4.287   4.342  0.1495 -0.4821  0.2145
 4666SOL    HW125634   4.346   4.293   4.247 -1.9905  1.1331  0.0090
 4666SOL    HW225635   4.384   4.364   4.363  1.1501 -1.2424  0.5362
 4667SOL     OW25636   4.402   0.815   9.036  0.2091  0.0975 -0.2177
 4667SOL    HW125637   4.326   0.865   9.007  1.6055  0.6223 -3.0102
 4667SOL    HW225638   4.468   0.864   8.986  0.6607  1.3082  1.5584
 4668SOL     OW25639   3.118   2.951   4.529  0.5101  0.0408 -0.4651
 4668SOL    HW125640   3.166   2.933   4.610 -0.4263 -0.1663  0.0412
 4668SOL    HW225641   3.069   2.869   4.521 -1.1232  0.6574  3.2482
 4669SOL     OW25642   2.970   1.216   4.766  0.2773  0.0414 -0.3292
 4669SOL    HW125643   2.921   1.226   4.848 -0.4721 -0.8163 -0.6739
 4669SOL    HW225644   3.024   1.294   4.768  1.4976 -0.8050 -0.4966
 4670SOL     OW25645   0.346   4.695   0.331  0.5820 -0.3218  0.1599
 4670SOL    HW125646   0.255   4.700   0.358  0.1249 -1.4381 -1.1789
 4670SOL    HW225647   0.360   4.601   0.327 -1.5608 -0.5788 -0.9545
 4671SOL     OW25648   2.438   1.265   0.716 -0.2497 -0.1703  0.1211
 4671SOL    HW125649   2.427   1.360   0.708 -2.0234 -0.2789  1.4878
 4671SOL    HW225650   2.356   1.247   0.760 -0.0571 -0.7230  0.2548
 4672SOL     OW25651   2.129   4.379   3.187  0.2926 -0.4745  0.9434
 4672SOL    HW125652   2.194   4.355   3.254  2.0668 -0.8357 -0.9123
 4672SOL    HW225653   2.157   4.328   3.111 -0.8769 -0.5271  0.5410
 4673SOL     OW25654   1.265   4.575   1.548 -0.9659 -0.3786  0.3240
 4673SOL    HW125655   1.291   4.484   1.531  0.6941 -0.0389  1.0805
 4673SOL    HW225656   1.349   4.619   1.536  0.0409 -2.5041 -0.4764
 4674SOL     OW25657   0.149   3.409   1.808 -0.4266  0.2962  0.7116
 4674SOL    HW125658   0.074   3.367   1.766 -0.4412  1.1270 -0.0837
 4674SOL    HW225659   0.098   3.486   1.834 -2.1797  0.1557 -2.3455
 4675SOL     OW25660   2.173   2.860   4.700  0.0930 -0.0369 -0.3565
 4675SOL    HW125661   2.224   2.893   4.626 -1.8270  1.0748 -1.1729
 4675SOL    HW225662   2.133   2.940   4.735 -2.0560 -1.7059  0.9530
 4676SOL     OW25663   3.377   2.949  12.283  0.1784  0.1077  0.2713
 4676SOL    HW125664   3.345   2.878  12.339  1.7677  0.0308  1.1076
 4676SOL    HW225665   3.376   2.914  12.194 -2.1352 -2.0566  1.1655
 4677SOL     OW25666   3.445   4.116   7.913  0.3109  0.3615  0.1679
 4677SOL    HW125667   3.350   4.110   7.907  0.0483  2.0741  2.6192
 4677SOL    HW225668   3.465   4.032   7.955  1.4880  0.9613  0.8154
 4678SOL     OW25669   4.406   0.922   3.516  0.2907 -0.3044 -0.4308
 4678SOL    HW125670   4.501   0.919   3.526  0.3073 -0.8531 -0.7432
 4678SOL    HW225671   4.393   0.964   3.431 -0.9807 -2.1009 -1.1182
 4679SOL     OW25672   2.195   4.633   8.611  0.1952  0.4670 -0.0149
 4679SOL    HW125673   2.228   4.617   8.699  0.8779  0.3400 -0.2911
 4679SOL    HW225674   2.184   4.727   8.601 -1.2232  0.4659  1.5440
 4680SOL     OW25675   2.263   1.744   6.235 -0.6612 -0.3756 -0.0048
 4680SOL    HW125676   2.331   1.682   6.211 -1.6246 -2.4199  2.5403
 4680SOL    HW225677   2.184   1.693   6.252 -1.7008  0.7369 -1.5625
 4681SOL     OW25678   2.217   3.226   6.062 -0.4513  0.1987 -0.4417
 4681SOL    HW125679   2.165   3.146   6.055 -1.8226  1.0992 -0.4342
 4681SOL    HW225680   2.165   3.294   6.019 -0.8721  1.3153  1.8427
 4682SOL     OW25681   0.952   0.524   4.718  0.6525 -0.5507 -0.5720
 4682SOL    HW125682   0.993   0.448   4.677  1.7247  0.0411 -0.5888
 4682SOL    HW225683   1.037   0.556   4.748 -0.9829  1.5320  1.8264
 4683SOL     OW25684   0.969   3.195   9.788  0.0566 -1.0442  0.2189
 4683SOL    HW125685   0.991   3.238   9.871  0.1467  0.4381 -0.5649
 4683SOL    HW225686   0.923   3.117   9.818 -1.5696  0.8071  2.5636
 4684SOL     OW25687   3.172   3.572   0.744  0.2414 -0.5489 -0.1788
 4684SOL    HW125688   3.173   3.509   0.671  0.3915 -0.9700  0.1907
 4684SOL    HW225689   3.125   3.642   0.697  1.6588 -1.0537 -2.3638
 4685SOL     OW25690   0.619   4.701   4.145  0.2857 -0.2792 -0.5537
 4685SOL    HW125691   0.707   4.727   4.175 -0.3475 -0.9358  1.8965
 4685SOL    HW225692   0.604   4.629   4.207 -0.7500  0.5965  0.2032
 4686SOL     OW25693   2.186   1.482  13.221 -0.4487 -0.4740  0.2373
 4686SOL    HW125694   2.218   1.522  13.302  0.3364  1.9188 -1.2657
 4686SOL    HW225695   2.192   1.389  13.242 -1.2699 -0.2525  1.4672
 4687SOL     OW25696   1.732   0.178   0.752  0.4752  0.1909 -0.4383
 4687SOL    HW125697   1.775   0.093   0.752 -1.6864 -0.9042 -1.9375
 4687SOL    HW225698   1.691   0.171   0.666  1.1695  1.4177 -0.8670
 4688SOL     OW25699   1.199   2.863  14.845 -0.3958  0.3941  0.3639
 4688SOL    HW125700   1.168   2.772  14.838 -0.2665  0.6387 -3.5734
 4688SOL    HW225701   1.163   2.896  14.927 -0.5221 -0.1692  0.5396
 4689SOL     OW25702   2.895   1.421   5.861  0.2526 -0.0808  0.1193
 4689SOL    HW125703   2.852   1.337   5.873 -2.1423  0.9629 -1.1233
 4689SOL    HW225704   2.833   1.486   5.895  0.8873  0.0826  0.9644
 4690SOL     OW25705   1.670   3.425   9.435  0.0161  0.3158  0.2894
 4690SOL    HW125706   1.643   3.422   9.527 -1.2311  0.0707 -0.0808
 4690SOL    HW225707   1.764   3.435   9.449  0.3849 -1.0449 -1.3155
 4691SOL     OW25708   4.479   0.252   8.063 -0.3324 -0.5237 -0.0761
 4691SOL    HW125709   4.480   0.171   8.013 -2.4723 -1.1086  0.8069
 4691SOL    HW225710   4.385   0.252   8.082 -0.2811  0.8935  0.2311
 4692SOL     OW25711   4.228   0.249  12.907  0.2374 -0.2957  0.3803
 4692SOL    HW125712   4.190   0.326  12.863  1.0997 -0.1687 -0.1534
 4692SOL    HW225713   4.313   0.256  12.864  0.2521 -0.9711  0.2989
 4693SOL     OW25714   2.539   0.949  14.691  0.2462 -0.2316  0.3201
 4693SOL    HW125715   2.620   0.970  14.643 -0.7031  1.9179 -0.3075
 4693SOL    HW225716   2.576   0.877  14.743 -0.7841 -1.9359 -1.2805
 4694SOL     OW25717   1.436   3.635   3.137 -0.4817 -0.5366  0.7255
 4694SOL    HW125718   1.513   3.579   3.144  0.6943  1.1375  1.1502
 4694SOL    HW225719   1.379   3.595   3.203  0.0686 -1.2226  0.7825
 4695SOL     OW25720   1.478   0.016   3.083  0.4754  0.0937  0.0085
 4695SOL    HW125721   1.527   4.707   3.015  0.5737 -1.1954  0.9421
 4695SOL    HW225722   1.541   0.045   3.149 -0.3812  1.2094  0.3334
 4696SOL     OW25723   1.491   2.689   6.231  0.4174 -0.7655  0.5247
 4696SOL    HW125724   1.411   2.677   6.179 -0.1983  0.6859  1.1375
 4696SOL    HW225725   1.514   2.596   6.232 -0.3424 -0.9559 -0.5861
 4697SOL     OW25726   2.384   4.241   3.545  0.0106 -0.2359 -0.4694
 4697SOL    HW125727   2.439   4.270   3.472 -0.6893 -1.8351 -1.6339
 4697SOL    HW225728   2.312   4.190   3.508 -0.7482 -0.9329  1.9727
 4698SOL     OW25729   4.468   0.209   7.564  0.3202 -0.1121  0.1727
 4698SOL    HW125730   4.545   0.265   7.574  1.0269 -0.9548 -0.6014
 4698SOL    HW225731   4.441   0.222   7.473 -1.4938 -1.5344  0.4960
 4699SOL     OW25732   0.689   2.506   1.046 -0.3576  0.1005  0.4674
 4699SOL    HW125733   0.663   2.462   1.127 -0.2636 -1.6079 -0.4468
 4699SOL    HW225734   0.782   2.487   1.047  0.1260  2.4457  1.7314
 4700SOL     OW25735   0.611   3.894   7.288  0.4921 -0.0722 -0.2049
 4700SOL    HW125736   0.643   3.835   7.357 -0.7702  1.0957  1.3764
 4700SOL    HW225737   0.525   3.855   7.271  0.4381 -1.0336  2.2396
 4701SOL     OW25738   2.607   3.955   4.468  0.0995 -0.1859  0.7232
 4701SOL    HW125739   2.687   3.981   4.423 -0.7050  1.7611  0.4353
 4701SOL    HW225740   2.556   3.917   4.397 -1.0760 -0.0143  1.4864
 4702SOL     OW25741   1.295   3.381  11.062 -0.1443  0.3070  0.2676
 4702SOL    HW125742   1.220   3.322  11.070 -0.3623  0.3384 -1.5525
 4702SOL    HW225743   1.255   3.458  11.104 -1.0943 -0.5437  0.9224
 4703SOL     OW25744   3.779   0.970   9.441  0.4426  0.1664  0.2237
 4703SOL    HW125745   3.848   0.980   9.376  0.7922  1.9558  0.8580
 4703SOL    HW225746   3.823   0.985   9.525  0.4864 -0.3602  0.2926
 4704SOL     OW25747   0.832   4.237   0.842 -0.3408 -0.2666 -0.1528
 4704SOL    HW125748   0.917   4.259   0.881 -0.4370  1.1033 -0.7189
 4704SOL    HW225749   0.811   4.149   0.873 -0.5067 -0.2958 -0.3534
 4705SOL     OW25750   4.175   1.977   1.378 -0.3252 -0.3361  0.1780
 4705SOL    HW125751   4.144   2.005   1.464 -0.8995  0.1390 -0.1839
 4705SOL    HW225752   4.094   1.955   1.334 -1.0452 -0.0358  1.3466
 4706SOL     OW25753   3.625   3.592  17.324 -0.2003 -0.2663 -0.3101
 4706SOL    HW125754   3.543   3.620  17.365  0.0949  0.4100 -0.1808
 4706SOL    HW225755   3.611   3.632  17.239 -0.7704 -2.1031 -1.0945
 4707SOL     OW25756   0.776   3.191   9.366 -0.0880  0.1013  0.0507
 4707SOL    HW125757   0.843   3.195   9.434  1.1787 -0.6544 -1.1349
 4707SOL    HW225758   0.721   3.123   9.404 -0.0970  0.6449  1.0135
 4708SOL     OW25759   0.941   2.056  16.085  0.6818 -0.1011 -0.0121
 4708SOL    HW125760   0.874   2.000  16.045  0.3775  0.8004 -0.7739
 4708SOL    HW225761   1.012   2.036  16.025  1.7371  4.1204 -0.1912
 4709SOL     OW25762   0.650   0.246  11.339  0.4574 -0.0231  0.0228
 4709SOL    HW125763   0.564   0.288  11.343  1.0422  1.2747 -0.8430
 4709SOL    HW225764   0.692   0.309  11.280  0.9971  0.0687  0.5077
 4710SOL     OW25765   1.963   1.109  13.500  0.3707  0.0301  0.5934
 4710SOL    HW125766   1.948   1.102  13.594 -0.8304 -0.3479  0.3787
 4710SOL    HW225767   1.877   1.078  13.471  1.0232 -0.4132 -0.8775
 4711SOL     OW25768   1.653   1.340   1.406 -0.1584 -0.5420 -0.1846
 4711SOL    HW125769   1.680   1.357   1.496 -1.6901  1.9644 -0.1962
 4711SOL    HW225770   1.564   1.310   1.428 -0.7359  1.0468 -0.3688
 4712SOL     OW25771   0.536   3.127   2.475  0.4471 -1.1455  0.0443
 4712SOL    HW125772   0.475   3.058   2.502 -2.4686  1.6998  0.6781
 4712SOL    HW225773   0.474   3.194   2.502 -0.5325 -1.5801 -1.1351
 4713SOL     OW25774   0.666   3.072   5.711 -0.3151 -0.0257 -0.0400
 4713SOL    HW125775   0.711   3.149   5.676  1.2366  1.0194  4.2448
 4713SOL    HW225776   0.595   3.058   5.648 -0.1888  0.0178 -0.1928
 4714SOL     OW25777   4.303   3.989   4.819 -0.1027  0.9882 -0.2819
 4714SOL    HW125778   4.229   4.013   4.762  0.3564 -1.0951 -1.7924
 4714SOL    HW225779   4.350   3.939   4.752  0.1968  0.7488  0.1066
 4715SOL     OW25780   3.995   2.070   6.364 -0.4171 -0.0774 -0.2995
 4715SOL    HW125781   3.925   2.008   6.343 -0.2874 -0.8885  1.6716
 4715SOL    HW225782   3.949   2.151   6.386 -2.0224 -1.1775  0.3321
 4716SOL     OW25783   2.647   0.268   9.572  0.1460  0.1069  0.2914
 4716SOL    HW125784   2.588   0.263   9.496  1.1709 -1.2685 -0.4169
 4716SOL    HW225785   2.728   0.237   9.531  1.1460  4.2434 -0.8953
 4717SOL     OW25786   4.662   0.953   9.287 -0.2909 -0.0454  0.2563
 4717SOL    HW125787   4.716   0.892   9.236 -0.0834 -0.1878  0.6439
 4717SOL    HW225788   4.695   0.941   9.376 -1.0720 -0.5506  0.4770
 4718SOL     OW25789   1.246   2.149   8.481  0.2945  0.1827  0.6790
 4718SOL    HW125790   1.290   2.064   8.480  0.6704  0.3925 -0.2937
 4718SOL    HW225791   1.243   2.151   8.576  1.8827 -0.5786  0.7353
 4719SOL     OW25792   4.182   2.024  13.283  0.0478 -0.2150 -0.4570
 4719SOL    HW125793   4.183   2.040  13.377  1.2994 -0.3552 -0.4432
 4719SOL    HW225794   4.096   2.059  13.261 -0.2253 -0.7263 -0.2197
 4720SOL     OW25795   4.312   2.325   1.914  0.0393 -0.9041  0.0172
 4720SOL    HW125796   4.315   2.405   1.861  0.3925 -0.8888  0.0630
 4720SOL    HW225797   4.261   2.265   1.860 -0.6488  1.1293 -1.6285
 4721SOL     OW25798   2.776   0.296   5.031 -0.2351 -0.5406  0.3954
 4721SOL    HW125799   2.702   0.238   5.013  0.1077 -1.4860  2.0034
 4721SOL    HW225800   2.840   0.278   4.962 -1.4510  1.4403 -1.2422
 4722SOL     OW25801   2.274   3.757  15.391  0.7850 -0.3099  0.2572
 4722SOL    HW125802   2.337   3.817  15.430  0.4399  0.8450 -0.9814
 4722SOL    HW225803   2.317   3.736  15.308 -0.3024  0.8200 -0.5820
 4723SOL     OW25804   1.021   1.663   7.872  0.0039 -0.0165  0.0876
 4723SOL    HW125805   0.928   1.683   7.883  0.1041  1.2466 -1.3173
 4723SOL    HW225806   1.023   1.569   7.852  1.9677 -0.4086  2.1072
 4724SOL     OW25807   0.097   3.137  13.320 -0.2361 -0.4255  0.2564
 4724SOL    HW125808   0.155   3.153  13.245 -1.0106  0.9575 -0.0519
 4724SOL    HW225809   0.042   3.066  13.286  0.2720 -0.7809  0.1649
 4725SOL     OW25810   2.099   0.520   1.267  0.3403  0.0875 -0.4360
 4725SOL    HW125811   2.109   0.564   1.182 -0.6353  2.6061  0.7664
 4725SOL    HW225812   2.077   0.434   1.230 -2.1414  0.4583  0.1327
 4726SOL     OW25813   4.685   0.670   9.209 -0.4187 -0.6259  0.7104
 4726SOL    HW125814   4.689   0.689   9.303  1.1553 -0.2221  0.5586
 4726SOL    HW225815   4.591   0.664   9.195 -0.5796  0.5740  1.2422
 4727SOL     OW25816   1.686   0.941   8.888  0.5541  0.1443  0.7031
 4727SOL    HW125817   1.611   0.921   8.945 -0.0588  1.6383  0.4139
 4727SOL    HW225818   1.756   0.952   8.952  1.2941  0.3340 -0.1570
 4728SOL     OW25819   3.382   3.454   8.878 -0.0738  0.2762 -0.4102
 4728SOL    HW125820   3.375   3.377   8.934 -3.5905  0.0010 -1.1781
 4728SOL    HW225821   3.301   3.441   8.828  0.2936  0.9555 -1.1803
 4729SOL     OW25822   0.559   1.228   6.479 -0.4154 -0.4421 -0.2724
 4729SOL    HW125823   0.649   1.251   6.453 -0.2830 -1.4313 -0.6718
 4729SOL    HW225824   0.537   1.146   6.435 -1.2575  0.4071 -1.4076
 4730SOL     OW25825   2.420   4.077   3.988 -0.1044  0.3248  0.6133
 4730SOL    HW125826   2.325   4.083   3.986 -0.1717 -0.7727  0.5884
 4730SOL    HW225827   2.450   4.067   3.898 -0.0292 -1.3010  0.8309
 4731SOL     OW25828   2.024   2.715   8.938 -0.4024 -0.1483 -0.3307
 4731SOL    HW125829   2.041   2.686   8.848  0.2565 -0.1925 -0.1895
 4731SOL    HW225830   1.928   2.719   8.940 -0.3815  0.6997 -1.1906
 4732SOL     OW25831   2.097   4.373   2.604  0.2107  0.1950 -0.6577
 4732SOL    HW125832   2.003   4.387   2.609  0.8992  3.8998  2.0464
 4732SOL    HW225833   2.119   4.403   2.515  0.7838  0.5693 -0.3920
 4733SOL     OW25834   0.237   2.991   7.052  0.1081 -0.1573 -0.1256
 4733SOL    HW125835   0.320   2.944   7.062 -0.7819 -1.3608  1.6360
 4733SOL    HW225836   0.236   2.994   6.956 -2.0203  1.7290 -0.0242
 4734SOL     OW25837   1.600   1.615   1.433  0.0301 -0.0306  0.0795
 4734SOL    HW125838   1.603   1.520   1.437 -3.0040 -0.0676  0.7473
 4734SOL    HW225839   1.693   1.631   1.417 -0.0175  0.8745  0.7340
 4735SOL     OW25840   1.524   0.416  13.975 -0.4103 -0.3457  0.0167
 4735SOL    HW125841   1.602   0.361  13.984  0.6419  1.3024  0.9818
 4735SOL    HW225842   1.544   0.495  14.025  1.7184 -0.7133 -0.2376
 4736SOL     OW25843   3.988   2.706   6.623 -0.0351  0.0544 -0.2951
 4736SOL    HW125844   4.021   2.794   6.643  1.0554 -0.5208  0.4213
 4736SOL    HW225845   4.003   2.697   6.529  0.2526 -0.8466 -0.1645
 4737SOL     OW25846   3.239   0.207   8.860  0.5571 -0.3067 -0.2901
 4737SOL    HW125847   3.334   0.201   8.851  0.5395 -1.1920  0.0974
 4737SOL    HW225848   3.209   0.185   8.771 -1.6560 -0.1015  0.3904
 4738SOL     OW25849   1.755   0.876  10.500 -0.2757 -0.0151 -0.1487
 4738SOL    HW125850   1.806   0.956  10.510 -0.7314  0.4978 -1.9373
 4738SOL    HW225851   1.743   0.867  10.595 -1.5311  2.6272 -0.0543
 4739SOL     OW25852   2.975   3.212  16.035  0.0226  0.4086  0.7026
 4739SOL    HW125853   2.977   3.289  15.978 -1.6929 -0.9260 -1.1267
 4739SOL    HW225854   2.995   3.148  15.966 -0.8927 -1.1331  1.8685
 4740SOL     OW25855   0.929   1.797   7.180 -0.6841 -0.2142  0.5877
 4740SOL    HW125856   1.017   1.822   7.152 -1.1259 -1.3010 -1.8957
 4740SOL    HW225857   0.907   1.881   7.218  0.1332 -0.4823  1.6522
 4741SOL     OW25858   1.404   3.081   4.007 -0.5914  0.5440 -0.3252
 4741SOL    HW125859   1.499   3.091   4.012 -0.6935  2.1582 -1.6395
 4741SOL    HW225860   1.393   3.011   3.942  1.6463 -2.7505  2.8894
 4742SOL     OW25861   4.699   2.512   5.184 -0.5034  0.1724 -0.2924
 4742SOL    HW125862   4.631   2.480   5.125 -0.8367 -0.7880  0.5965
 4742SOL    HW225863   4.679   2.466   5.266 -0.2054  0.9929  0.2393
 4743SOL     OW25864   0.225   2.666   2.188  0.2578 -0.1329 -0.1062
 4743SOL    HW125865   0.131   2.670   2.176  0.3827 -0.1404 -1.0532
 4743SOL    HW225866   0.230   2.758   2.214  1.6212 -0.5915  1.2356
 4744SOL     OW25867   3.868   4.492   2.373 -0.8002 -0.2584  0.1368
 4744SOL    HW125868   3.861   4.474   2.467 -1.0401 -1.8359 -0.1767
 4744SOL    HW225869   3.962   4.509   2.368 -1.0259  0.2961 -2.1987
 4745SOL     OW25870   4.118   2.769   5.268 -0.3707  0.1719  0.5437
 4745SOL    HW125871   4.036   2.819   5.264  0.7552  1.8539 -1.5547
 4745SOL    HW225872   4.177   2.844   5.257  0.1654 -0.0592  1.8520
 4746SOL     OW25873   3.459   0.560   4.102  0.3847  0.5599 -0.4438
 4746SOL    HW125874   3.554   0.553   4.107  0.1889  0.0297  2.2627
 4746SOL    HW225875   3.450   0.636   4.044  1.6206  0.4645 -0.7595
 4747SOL     OW25876   2.637   0.323   2.206 -0.1111  0.2860  0.2181
 4747SOL    HW125877   2.651   0.267   2.129  1.1925 -1.7771  1.9587
 4747SOL    HW225878   2.598   0.399   2.164  3.8221  1.6847 -0.9076
 4748SOL     OW25879   1.466   2.783   2.628 -0.2726 -0.2208  0.1786
 4748SOL    HW125880   1.381   2.801   2.667 -0.1258 -0.2155  0.4925
 4748SOL    HW225881   1.488   2.690   2.642  0.7643  0.1090  0.7769
 4749SOL     OW25882   4.317   0.992  12.231  0.4523 -0.2742  0.2527
 4749SOL    HW125883   4.242   1.033  12.189  0.6424  0.2430  0.4162
 4749SOL    HW225884   4.303   1.038  12.313  0.1249 -0.0338  0.0618
 4750SOL     OW25885   3.526   0.302   9.541  0.1120 -0.2639 -0.1136
 4750SOL    HW125886   3.552   0.378   9.592  1.3394  0.3535 -1.6724
 4750SOL    HW225887   3.455   0.331   9.484  1.3463  2.6883 -0.1372
 4751SOL     OW25888   2.813   2.788   6.789 -0.2057  0.2389  0.1760
 4751SOL    HW125889   2.763   2.844   6.730 -0.0416  1.2209  0.9682
 4751SOL    HW225890   2.868   2.857   6.825  0.5947 -1.3068  1.8922
 4752SOL     OW25891   0.851   1.596   2.469  0.3850 -0.4489  0.3409
 4752SOL    HW125892   0.908   1.554   2.534  1.9726 -0.4198 -1.0419
 4752SOL    HW225893   0.860   1.687   2.499 -1.0924 -0.0320 -0.4758
 4753SOL     OW25894   1.266   3.253   3.586 -0.3916 -0.4750  0.1468
 4753SOL    HW125895   1.288   3.345   3.596 -0.3120 -0.2081 -2.3088
 4753SOL    HW225896   1.272   3.232   3.492  1.3298 -1.4063  0.4634
 4754SOL     OW25897   3.856   1.106   8.215  0.0498 -0.3640 -0.2204
 4754SOL    HW125898   3.820   1.038   8.271  0.5811 -0.1820  0.3365
 4754SOL    HW225899   3.909   1.155   8.277  1.1482  0.6275 -1.9422
 4755SOL     OW25900   0.351   2.896   4.568  0.2275 -0.2402  0.9067
 4755SOL    HW125901   0.410   2.960   4.607 -0.0546 -0.3238  1.4704
 4755SOL    HW225902   0.309   2.951   4.501  0.1329 -1.3853  0.0302
 4756SOL     OW25903   3.507   2.604   7.419  0.1255  0.1231  0.5303
 4756SOL    HW125904   3.513   2.586   7.513  0.5790 -0.0163  0.4754
 4756SOL    HW225905   3.546   2.525   7.381  0.8726  0.3191  0.8938
 4757SOL     OW25906   1.498   2.169  16.476  0.1707 -0.2403  0.2821
 4757SOL    HW125907   1.574   2.227  16.478  0.2416 -0.3120 -0.4311
 4757SOL    HW225908   1.427   2.222  16.511  0.2482  0.0324  0.0315
 4758SOL     OW25909   4.513   3.991   8.897 -0.1280  0.2789 -0.3899
 4758SOL    HW125910   4.449   3.965   8.963  0.0317 -1.4812 -0.9218
 4758SOL    HW225911   4.588   3.939   8.926 -0.8880  0.2091  1.4451
 4759SOL     OW25912   3.360   4.441  13.263 -0.1380  0.0196  0.8265
 4759SOL    HW125913   3.310   4.504  13.314 -0.5617  0.2053  0.1800
 4759SOL    HW225914   3.373   4.365  13.320 -1.0578 -0.9250 -0.2434
 4760SOL     OW25915   1.153   3.860   1.300 -0.7616 -0.5780  0.2185
 4760SOL    HW125916   1.098   3.788   1.331 -1.2847 -1.0728 -1.8151
 4760SOL    HW225917   1.088   3.907   1.248  0.0764  0.4704  0.1354
 4761SOL     OW25918   0.188   0.578   1.911 -0.1755  0.2504 -0.0070
 4761SOL    HW125919   0.220   0.513   1.849 -1.4002  0.6638 -1.0812
 4761SOL    HW225920   0.155   0.650   1.858  2.4126  0.9118 -0.7004
 4762SOL     OW25921   4.546   1.782   9.383  0.0132  0.1616  0.3682
 4762SOL    HW125922   4.561   1.761   9.475 -0.7506 -2.8592 -0.1869
 4762SOL    HW225923   4.617   1.723   9.359  0.8887  0.7623  1.5053
 4763SOL     OW25924   2.742   4.314   8.751  0.6082 -0.2794 -0.0301
 4763SOL    HW125925   2.699   4.391   8.713  0.1055 -0.8989 -0.7312
 4763SOL    HW225926   2.788   4.344   8.829 -1.2080  2.1229  0.1061
 4764SOL     OW25927   3.074   3.259   3.613  0.4128 -0.2468  0.3532
 4764SOL    HW125928   3.153   3.308   3.589 -0.9706  1.4043 -0.8141
 4764SOL    HW225929   3.064   3.274   3.707  0.7392  3.5012 -0.1931
 4765SOL     OW25930   4.201   1.258   3.417 -0.6359 -0.1387  0.6059
 4765SOL    HW125931   4.286   1.217   3.402 -0.8768 -0.2021 -0.5680
 4765SOL    HW225932   4.143   1.208   3.475  0.4327 -0.6515  1.2248
 4766SOL     OW25933   0.415   2.182   8.108 -0.2265 -0.7211 -0.0666
 4766SOL    HW125934   0.483   2.249   8.105  0.9112 -1.8107  1.4516
 4766SOL    HW225935   0.381   2.185   8.018 -0.4838  0.4851  0.0825
 4767SOL     OW25936   3.899   3.750   1.720 -0.0738  0.1791 -0.5428
 4767SOL    HW125937   3.931   3.840   1.723  0.8284 -0.1812  1.0540
 4767SOL    HW225938   3.894   3.723   1.812  0.3284 -2.8494 -1.4073
 4768SOL     OW25939   3.567   3.352  13.942 -0.5170  0.1635 -0.0365
 4768SOL    HW125940   3.614   3.352  13.858 -1.2354  2.5831 -0.4626
 4768SOL    HW225941   3.591   3.267  13.977  0.6111 -0.1957 -1.6611
 4769SOL     OW25942   0.803   2.569   9.428  0.5132  0.0155  0.5993
 4769SOL    HW125943   0.739   2.500   9.411  1.2189 -1.1107  2.5875
 4769SOL    HW225944   0.868   2.545   9.363 -1.9599 -2.4238 -0.9518
 4770SOL     OW25945   1.628   2.760   5.634 -0.2751 -0.6732  0.3830
 4770SOL    HW125946   1.589   2.834   5.680  0.3229 -0.6577  0.8537
 4770SOL    HW225947   1.713   2.792   5.603 -0.1950 -0.7796  0.4946
 4771SOL     OW25948   2.718   2.790   4.031 -0.4620 -0.1936 -0.1181
 4771SOL    HW125949   2.645   2.852   4.020 -0.3569 -0.3149 -1.5037
 4771SOL    HW225950   2.775   2.838   4.091  1.8093 -1.3978 -1.3159
 4772SOL     OW25951   0.534   0.043   6.499 -0.1678  0.2033  0.1734
 4772SOL    HW125952   0.556   4.692   6.530 -1.0743 -0.2733 -0.5599
 4772SOL    HW225953   0.561   0.077   6.585  0.3588  1.4464 -0.4875
 4773SOL     OW25954   0.816   1.673   5.694 -1.0940  0.2638  0.2464
 4773SOL    HW125955   0.871   1.631   5.761 -0.4439 -0.9051 -1.0226
 4773SOL    HW225956   0.760   1.723   5.753 -0.7079  0.2649  0.6096
 4774SOL     OW25957   0.606   2.607  16.804  1.1825 -0.1875 -0.1564
 4774SOL    HW125958   0.556   2.666  16.862  0.4992 -1.3840  0.4730
 4774SOL    HW225959   0.646   2.664  16.738  1.4416  1.7229  1.6469
 4775SOL     OW25960   1.464   0.914   1.945 -0.7488 -0.0282  0.5118
 4775SOL    HW125961   1.557   0.923   1.965 -0.7553  0.2945  0.4034
 4775SOL    HW225962   1.448   0.820   1.951  2.9528 -0.7397 -0.5987
 4776SOL     OW25963   2.651   1.250   1.798 -0.4555 -0.3707 -0.0384
 4776SOL    HW125964   2.614   1.164   1.780 -1.6261  0.0506  0.3488
 4776SOL    HW225965   2.714   1.235   1.868  0.0663  2.5031  0.1075
 4777SOL     OW25966   2.923   1.494  10.848  0.1597 -0.5229 -0.5739
 4777SOL    HW125967   2.939   1.401  10.866 -2.4030 -0.5463  1.6129
 4777SOL    HW225968   3.006   1.529  10.816  0.0809  2.2181  2.2401
 4778SOL     OW25969   0.714   2.677   0.327  0.6166  0.2905 -0.1143
 4778SOL    HW125970   0.781   2.743   0.306  0.7262  0.2575  0.1292
 4778SOL    HW225971   0.693   2.701   0.417 -0.0909  1.2179 -0.5242
 4779SOL     OW25972   3.309   1.063   6.742  0.3136  0.1111  0.0559
 4779SOL    HW125973   3.220   1.085   6.768  1.3934  2.4323  1.7761
 4779SOL    HW225974   3.289   1.026   6.655 -1.3670  2.0758 -0.3876
 4780SOL     OW25975   3.477   2.646   2.077 -0.4518 -0.2807  0.4739
 4780SOL    HW125976   3.388   2.663   2.109 -0.3710  2.8230 -0.9852
 4780SOL    HW225977   3.474   2.705   2.001 -1.9330 -1.4122 -0.3511
 4781SOL     OW25978   2.072   3.795   2.070  0.1184 -0.2947 -0.2482
 4781SOL    HW125979   2.011   3.865   2.092 -2.4193 -2.6306  0.0928
 4781SOL    HW225980   2.012   3.723   2.051 -0.9275  0.4475  0.2304
 4782SOL     OW25981   0.903   0.439  16.376  0.2476 -0.2658  0.0380
 4782SOL    HW125982   0.874   0.478  16.294  0.9112  0.9717  0.3839
 4782SOL    HW225983   0.864   0.352  16.379 -1.1676  0.3801  0.6940
 4783SOL     OW25984   3.793   3.270  14.205 -0.1166  0.5881 -0.0787
 4783SOL    HW125985   3.846   3.192  14.187  1.0641  1.2608  0.4987
 4783SOL    HW225986   3.728   3.235  14.265  0.3041  1.0918  0.6697
 4784SOL     OW25987   2.518   1.440  14.267  0.2458 -0.4212  0.9750
 4784SOL    HW125988   2.503   1.438  14.362 -0.8705  1.6889  0.8530
 4784SOL    HW225989   2.431   1.437  14.228  0.3414  1.2827  0.6115
 4785SOL     OW25990   2.966   1.990   4.179 -0.4167 -0.0303  0.1771
 4785SOL    HW125991   3.040   1.989   4.119 -2.2218 -0.3048 -2.0716
 4785SOL    HW225992   2.955   2.085   4.185  1.1762  0.2193 -1.0072
 4786SOL     OW25993   2.788   2.002   6.245  0.1535 -0.3458 -0.1140
 4786SOL    HW125994   2.697   2.001   6.213  0.1009  1.8587 -0.0412
 4786SOL    HW225995   2.801   1.907   6.246  1.7842 -0.1253 -0.8123
 4787SOL     OW25996   2.074   1.223   3.647 -0.2651  0.0471  0.0622
 4787SOL    HW125997   1.985   1.257   3.659  0.5736  1.9035  1.0939
 4787SOL    HW225998   2.120   1.306   3.663  0.6438 -0.3603 -0.4312
 4788SOL     OW25999   3.201   4.628   1.905  0.1686  0.3789  0.2103
 4788SOL    HW126000   3.168   4.659   1.821 -0.6085  2.3683  1.2591
 4788SOL    HW226001   3.279   4.683   1.921  0.1308  1.0100 -1.7444
 4789SOL     OW26002   3.721   4.074   2.726 -0.2548  0.2700 -0.9442
 4789SOL    HW126003   3.651   4.078   2.791 -0.9882  0.0489 -1.7224
 4789SOL    HW226004   3.800   4.060   2.777 -0.2171  0.3343 -0.9850
 4790SOL     OW26005   1.024   2.409  16.919 -0.3012 -0.0875 -0.8163
 4790SOL    HW126006   0.966   2.448  16.985 -0.0072  0.4801 -0.8872
 4790SOL    HW226007   0.973   2.426  16.840 -0.3690 -0.3686 -0.8325
 4791SOL     OW26008   4.310   0.510   2.871  0.1955  0.3798  0.0231
 4791SOL    HW126009   4.405   0.518   2.878  0.0436  0.7310  1.7384
 4791SOL    HW226010   4.275   0.590   2.911 -0.0091  1.1919 -1.7733
 4792SOL     OW26011   3.509   2.361   9.643  0.1016  0.0252  0.4538
 4792SOL    HW126012   3.480   2.422   9.711  0.1597 -0.7922  1.2110
 4792SOL    HW226013   3.571   2.306   9.691 -1.2015 -0.8150  1.1596
 4793SOL     OW26014   0.084   3.142   9.938 -0.3914 -0.7004  0.1006
 4793SOL    HW126015   0.095   3.054   9.903  0.1271 -0.3527 -0.6261
 4793SOL    HW226016   0.137   3.127  10.015 -0.4533  1.7511  0.6298
 4794SOL     OW26017   3.766   4.520  10.037  0.2962  0.2681  0.1588
 4794SOL    HW126018   3.673   4.495  10.042  0.3371  0.1612  0.4202
 4794SOL    HW226019   3.794   4.472   9.959  1.1119 -0.5682  0.9682
 4795SOL     OW26020   2.881   3.877  15.406  0.1934  0.0206  0.3705
 4795SOL    HW126021   2.969   3.908  15.427  0.0773  0.1617  0.6440
 4795SOL    HW226022   2.890   3.837  15.319  0.7622  2.4927 -0.6933
 4796SOL     OW26023   3.679   4.249   4.125  0.0629 -0.1457  0.1400
 4796SOL    HW126024   3.714   4.226   4.211 -0.0734  4.2878  1.3977
 4796SOL    HW226025   3.759   4.287   4.088 -0.9559  2.0193  0.1630
 4797SOL     OW26026   2.077   4.004  15.651 -0.3519  0.3808 -0.7786
 4797SOL    HW126027   2.064   3.989  15.557 -1.7774 -1.6488 -0.2594
 4797SOL    HW226028   2.152   3.946  15.666 -0.3843  0.1604 -1.4811
 4798SOL     OW26029   1.153   1.285   6.993  0.0853 -0.2669  0.3488
 4798SOL    HW126030   1.173   1.378   7.004 -3.1949  0.6855 -1.7841
 4798SOL    HW226031   1.218   1.244   7.051  1.3537 -1.3175 -1.8430
 4799SOL     OW26032   3.512   3.246   5.071 -0.7534 -0.0245  0.5877
 4799SOL    HW126033   3.456   3.185   5.119 -1.4105  0.4989  0.4792
 4799SOL    HW226034   3.575   3.245   5.143  0.1371 -1.0586 -0.2072
 4800SOL     OW26035   0.527   1.250   5.200  0.0095 -0.4783 -0.2054
 4800SOL    HW126036   0.462   1.242   5.270 -0.0526  2.7981  0.1058
 4800SOL    HW226037   0.605   1.215   5.244  0.0136 -0.8895 -0.5400
 4801SOL     OW26038   1.308   2.976   6.515  0.0097 -0.4389  0.0267
 4801SOL    HW126039   1.270   2.974   6.427 -0.6315 -0.1646  0.2908
 4801SOL    HW226040   1.367   2.901   6.507 -0.2297 -0.6986  0.7304
 4802SOL     OW26041   2.963   2.753   7.917  0.1355  0.8680 -0.5177
 4802SOL    HW126042   2.950   2.731   8.010  0.9093  0.1022 -0.5826
 4802SOL    HW226043   3.039   2.810   7.932 -0.2912  1.1772  0.4985
 4803SOL     OW26044   3.263   4.558   7.941  0.3180 -0.1956  0.4132
 4803SOL    HW126045   3.339   4.550   7.883  1.0078  1.8582  1.0257
 4803SOL    HW226046   3.293   4.586   8.028  1.3792  0.2079 -0.0784
 4804SOL     OW26047   3.160   1.643  11.197 -0.1140 -0.2606  0.4198
 4804SOL    HW126048   3.179   1.649  11.291 -0.1747  0.1088  0.4096
 4804SOL    HW226049   3.065   1.645  11.198 -0.1306 -0.3837 -0.9229
 4805SOL     OW26050   4.536   0.793  14.599  0.3545  0.0435 -0.8571
 4805SOL    HW126051   4.526   0.854  14.526 -0.1003  0.9316 -0.0444
 4805SOL    HW226052   4.626   0.764  14.585  0.8312  1.5130 -0.8559
 4806SOL     OW26053   2.626   0.793  16.162 -0.6790  0.0864  0.3043
 4806SOL    HW126054   2.611   0.710  16.117  0.8318 -1.0960  1.9780
 4806SOL    HW226055   2.564   0.778  16.234 -0.7059 -0.7413  0.1065
 4807SOL     OW26056   0.047   3.229   9.061 -0.3274 -0.3082 -0.4885
 4807SOL    HW126057   0.035   3.134   9.069  0.4765 -0.5503 -2.1271
 4807SOL    HW226058   0.084   3.244   9.148 -3.3281 -0.5551  0.8170
 4808SOL     OW26059   2.675   0.083   6.794 -0.0961 -0.1329 -0.6865
 4808SOL    HW126060   2.664   4.729   6.765  0.0469 -0.9190  1.6752
 4808SOL    HW226061   2.656   0.077   6.888 -2.2161 -0.0023 -1.1191
 4809SOL     OW26062   3.462   0.840   4.646  0.2006  0.6336  0.2519
 4809SOL    HW126063   3.542   0.892   4.646  1.9057 -2.0607 -1.6484
 4809SOL    HW226064   3.479   0.774   4.579 -2.3117 -0.0683  0.3019
 4810SOL     OW26065   0.556   0.003  11.273  0.1001 -0.6800 -0.1952
 4810SOL    HW126066   0.498   0.045  11.209  2.4574  0.7377 -1.3713
 4810SOL    HW226067   0.605   0.081  11.300 -1.0910  1.1465 -3.2861
 4811SOL     OW26068   4.136   1.565   8.059 -0.4437 -0.1803  0.2219
 4811SOL    HW126069   4.110   1.546   8.149  1.7800  0.0364  0.8974
 4811SOL    HW226070   4.107   1.656   8.059 -2.2280 -0.7398 -1.3618
 4812SOL     OW26071   0.385   1.720   0.182  0.1493 -0.2435 -0.3048
 4812SOL    HW126072   0.305   1.740   0.134 -0.1952 -0.9475 -0.0232
 4812SOL    HW226073   0.345   1.721   0.269  2.1944  2.6482  0.6251
 4813SOL     OW26074   0.258   2.281   4.757  0.4564 -0.5496 -0.4726
 4813SOL    HW126075   0.345   2.315   4.781  0.4045  0.6846 -2.0567
 4813SOL    HW226076   0.217   2.364   4.735  2.1797  0.4315 -0.0426
 4814SOL     OW26077   3.323   2.178   4.603  0.0254 -0.3003  0.6463
 4814SOL    HW126078   3.363   2.093   4.623 -0.2431 -0.0340  2.3462
 4814SOL    HW226079   3.230   2.168   4.624 -0.8731  0.9885 -2.6195
 4815SOL     OW26080   3.677   3.856  17.118  0.3069 -0.4954  0.7692
 4815SOL    HW126081   3.611   3.809  17.066 -0.1826 -0.2388  1.1518
 4815SOL    HW226082   3.745   3.876  17.054  0.0415  0.4140  0.7739
 4816SOL     OW26083   1.066   3.977  16.485 -0.1646  0.0845  0.2632
 4816SOL    HW126084   1.063   3.937  16.398 -2.1843  0.3967  0.1817
 4816SOL    HW226085   0.984   4.026  16.475  0.4908  1.2069  0.4353
 4817SOL     OW26086   2.854   4.467   2.110  0.0096 -0.2186 -0.0669
 4817SOL    HW126087   2.845   4.507   2.197  0.1295  2.2489 -1.1784
 4817SOL    HW226088   2.888   4.382   2.138  0.8709 -0.4972 -1.9216
 4818SOL     OW26089   4.629   4.425  15.524  0.0474 -0.2068  0.0895
 4818SOL    HW126090   4.556   4.475  15.488  0.0586  0.3686  0.8686
 4818SOL    HW226091   4.638   4.466  15.609 -0.7478  0.6384 -0.2370
 4819SOL     OW26092   0.977   4.011  14.373  0.4686 -0.3599  0.1195
 4819SOL    HW126093   0.926   3.970  14.442 -0.8378 -0.6963 -1.0507
 4819SOL    HW226094   0.958   3.958  14.296 -2.9041  3.1691 -1.4815
 4820SOL     OW26095   3.180   0.799  11.548 -0.6735 -0.2324 -0.0547
 4820SOL    HW126096   3.186   0.705  11.565  1.5616  0.0536  0.7590
 4820SOL    HW226097   3.085   0.807  11.561 -0.3313  1.7161  1.1830
 4821SOL     OW26098   2.695   0.858   2.741 -0.3334 -0.0351  0.5265
 4821SOL    HW126099   2.790   0.851   2.750 -0.1207  1.2963 -0.6010
 4821SOL    HW226100   2.685   0.825   2.652 -2.6046  3.0353 -0.3873
 4822SOL     OW26101   0.609   1.101   6.727 -0.1857  0.8236 -0.3026
 4822SOL    HW126102   0.600   1.165   6.655 -2.5819  1.0222  0.1632
 4822SOL    HW226103   0.690   1.063   6.694 -0.2781  1.7967 -1.6736
 4823SOL     OW26104   4.195   0.325   8.167  0.2748 -0.2438 -0.1780
 4823SOL    HW126105   4.230   0.342   8.255  0.6475 -0.4399 -0.2916
 4823SOL    HW226106   4.112   0.373   8.173 -0.6239 -1.4598 -3.2515
 4824SOL     OW26107   4.104   4.480   5.662 -0.0406  0.4081 -0.1928
 4824SOL    HW126108   4.126   4.388   5.654 -2.5416 -0.3185  1.1443
 4824SOL    HW226109   4.008   4.474   5.667  0.0194 -2.4047 -2.2645
 4825SOL     OW26110   1.438   4.679   7.365 -0.2188 -0.2070 -0.5342
 4825SOL    HW126111   1.461   4.646   7.452 -0.9708 -0.1868 -0.3302
 4825SOL    HW226112   1.378   0.013   7.386  0.2084  0.0928 -0.3131
 4826SOL     OW26113   3.604   2.587   8.292  0.3639 -0.6354 -0.5789
 4826SOL    HW126114   3.533   2.614   8.350  0.5746 -0.2677 -0.4913
 4826SOL    HW226115   3.619   2.497   8.320 -0.3013 -1.2405 -2.1427
 4827SOL     OW26116   2.393   0.642   6.194  0.2043 -0.0330  0.1339
 4827SOL    HW126117   2.326   0.646   6.125 -0.7495 -0.8383  1.0161
 4827SOL    HW226118   2.358   0.578   6.255 -0.3253 -0.3586 -0.5164
 4828SOL     OW26119   2.685   1.558  10.765  0.5882 -0.2367  0.4541
 4828SOL    HW126120   2.777   1.531  10.765  0.8977  0.7740 -0.6108
 4828SOL    HW226121   2.648   1.471  10.778  3.3537 -1.5858 -0.6135
 4829SOL     OW26122   4.732   3.472   0.220  0.2671 -0.7830  0.4378
 4829SOL    HW126123   0.079   3.487   0.176  0.8184  0.7382  2.0006
 4829SOL    HW226124   0.015   3.406   0.286  0.2434  0.2207  1.4543
 4830SOL     OW26125   4.023   1.499   6.450 -0.0355  0.3195 -0.0499
 4830SOL    HW126126   4.073   1.567   6.495 -1.1988  1.3367 -0.2860
 4830SOL    HW226127   3.938   1.500   6.493  0.3735  0.9391  0.7274
 4831SOL     OW26128   4.274   4.070   2.340  0.3862  0.1836  0.2383
 4831SOL    HW126129   4.188   4.053   2.380 -0.3430  1.9702 -0.5587
 4831SOL    HW226130   4.330   4.073   2.418  0.3538 -0.7319  0.3011
 4832SOL     OW26131   0.786   2.237   6.746 -0.0978 -0.2285  0.0544
 4832SOL    HW126132   0.784   2.239   6.842  0.3849  0.6229  0.0488
 4832SOL    HW226133   0.745   2.322   6.729  1.8103  0.7566  0.3002
 4833SOL     OW26134   0.933   0.986   2.630  0.0120  0.2669 -0.8935
 4833SOL    HW126135   0.923   0.891   2.641  1.3002  0.5199  2.5541
 4833SOL    HW226136   1.028   0.997   2.643 -0.6498  3.0065  1.6623
 4834SOL     OW26137   0.781   2.503   3.107 -0.4199  0.0948 -0.3856
 4834SOL    HW126138   0.800   2.586   3.062  0.8685 -0.2602 -0.4796
 4834SOL    HW226139   0.820   2.445   3.042 -1.8886  0.7861 -1.8910
 4835SOL     OW26140   1.219   0.020   7.946 -0.4625  0.1866 -0.6480
 4835SOL    HW126141   1.192   4.672   7.981 -1.6856  0.8119 -0.0770
 4835SOL    HW226142   1.195   0.070   8.024 -0.0722  2.2151 -1.8309
 4836SOL     OW26143   0.908   4.684  13.525 -0.4989 -0.1942 -0.2117
 4836SOL    HW126144   0.847   4.703  13.454  0.4066  1.7655 -0.4843
 4836SOL    HW226145   0.847   4.684  13.599  0.1977  0.9494  0.3750
 4837SOL     OW26146   4.583   2.023   3.187  0.2720 -0.1955  0.1790
 4837SOL    HW126147   4.531   1.962   3.135  0.6838 -0.0772 -0.3664
 4837SOL    HW226148   4.561   2.098   3.131 -2.5422 -0.2959  1.0973
 4838SOL     OW26149   4.096   4.574   7.948  0.1476  0.5308 -0.3207
 4838SOL    HW126150   4.117   4.559   7.856  0.0449  1.8843 -0.5648
 4838SOL    HW226151   4.070   4.665   7.938 -2.8101 -0.1657  1.2165
 4839SOL     OW26152   3.006   0.860   8.129  0.0182  0.0015  0.0463
 4839SOL    HW126153   2.913   0.863   8.150  0.0968  0.0780  0.3847
 4839SOL    HW226154   3.030   0.948   8.158  1.9035 -1.5267  3.1546
 4840SOL     OW26155   1.438   4.328   1.526  0.5820 -0.0764 -0.1695
 4840SOL    HW126156   1.445   4.288   1.439  1.3521  0.1084 -0.1977
 4840SOL    HW226157   1.491   4.276   1.585 -0.1338 -0.6776 -0.0608
 4841SOL     OW26158   1.190   4.177  12.401 -0.3718 -0.3213 -0.2150
 4841SOL    HW126159   1.154   4.121  12.333  0.0148 -0.4940 -0.2802
 4841SOL    HW226160   1.273   4.204  12.362 -0.0441 -0.4448  0.3881
 4842SOL     OW26161   3.664   0.853   7.417  0.4606  0.2424  0.2154
 4842SOL    HW126162   3.599   0.820   7.479 -1.0466 -0.8513 -1.9505
 4842SOL    HW226163   3.614   0.909   7.357 -0.4752  0.0244  0.7923
 4843SOL     OW26164   2.332   4.713   5.831 -0.1706 -0.3392  0.0579
 4843SOL    HW126165   2.353   0.068   5.849 -0.5133 -0.9295  3.3342
 4843SOL    HW226166   2.420   4.674   5.823  0.2896  0.8510 -0.6864
 4844SOL     OW26167   2.422   2.319   2.521 -0.1350 -0.3706  0.1527
 4844SOL    HW126168   2.505   2.310   2.568  0.6080  0.4307 -0.9948
 4844SOL    HW226169   2.372   2.245   2.556 -2.0691 -0.2693 -2.3843
 4845SOL     OW26170   0.239   1.323   1.980 -0.4172  0.7180 -0.0544
 4845SOL    HW126171   0.301   1.324   1.906 -0.3636 -0.5699 -0.0276
 4845SOL    HW226172   0.189   1.401   1.954 -0.0366  0.5835 -1.1762
 4846SOL     OW26173   1.289   0.697   5.483  0.0291  0.0287 -0.4309
 4846SOL    HW126174   1.350   0.716   5.555  0.3250 -1.6786 -0.2148
 4846SOL    HW226175   1.352   0.687   5.410  0.9183 -1.1404  0.4890
 4847SOL     OW26176   1.832   4.633  10.982 -0.6867  0.0014  0.0624
 4847SOL    HW126177   1.762   4.689  11.015 -0.1671 -1.0650  2.9877
 4847SOL    HW226178   1.864   4.597  11.065 -0.9272  0.5733  0.4011
 4848SOL     OW26179   4.705   2.107   7.351  0.3799 -0.6447  0.0195
 4848SOL    HW126180   0.056   2.101   7.313 -0.4525  2.6951 -2.4486
 4848SOL    HW226181   4.696   2.201   7.336 -2.3943 -0.7690  0.8333
 4849SOL     OW26182   0.562   4.724   2.270  0.0708 -0.5274  0.3329
 4849SOL    HW126183   0.507   0.065   2.283 -1.4812 -1.8421  1.7395
 4849SOL    HW226184   0.540   4.692   2.183 -1.1682 -0.6617  0.6877
 4850SOL     OW26185   3.360   1.701  17.302  0.3436 -0.1346  0.4190
 4850SOL    HW126186   3.409   1.706  17.219 -1.4794  0.3082 -0.6234
 4850SOL    HW226187   3.277   1.659  17.279  0.2811  0.6778 -0.8660
 4851SOL     OW26188   3.216   3.668   1.479  0.3523 -0.0590 -0.2447
 4851SOL    HW126189   3.192   3.716   1.558  1.3862  0.6085 -0.3351
 4851SOL    HW226190   3.310   3.686   1.476  0.5761 -1.4538 -1.2853
 4852SOL     OW26191   1.725   4.360   5.731 -0.1087 -0.0800  0.0522
 4852SOL    HW126192   1.783   4.437   5.726 -2.8454  1.9817  0.0566
 4852SOL    HW226193   1.789   4.292   5.711 -1.0564 -0.7576 -0.6439
 4853SOL     OW26194   1.640   1.336   8.091  0.1033  0.7587 -0.4054
 4853SOL    HW126195   1.697   1.270   8.051  1.6804  0.7877  1.8062
 4853SOL    HW226196   1.577   1.353   8.021 -2.3223 -1.9922  1.1155
 4854SOL     OW26197   3.839   4.425  17.031 -0.1007 -0.2340 -0.1066
 4854SOL    HW126198   3.803   4.338  17.052  3.4246 -2.0242 -1.6100
 4854SOL    HW226199   3.902   4.431  17.103 -2.5290  1.4710  1.8916
 4855SOL     OW26200   4.053   1.604   5.201 -0.3069  0.1439  0.3776
 4855SOL    HW126201   4.036   1.653   5.282  0.6909  2.6461 -0.9288
 4855SOL    HW226202   3.986   1.540   5.226 -1.5294  1.3376  0.1710
 4856SOL     OW26203   4.000   3.540   2.683  0.3143  0.3229 -0.5403
 4856SOL    HW126204   4.009   3.557   2.777 -2.0501 -0.4136 -0.1783
 4856SOL    HW226205   4.084   3.498   2.667  1.5031  1.4099  2.8005
 4857SOL     OW26206   2.173   0.629   0.995  0.4943 -0.1150  0.2492
 4857SOL    HW126207   2.175   0.674   0.910 -1.6480  0.7755  0.6563
 4857SOL    HW226208   2.095   0.574   0.982  0.9357  0.0655 -3.2214
 4858SOL     OW26209   4.252   3.205  14.980 -0.0069 -0.1701  0.1022
 4858SOL    HW126210   4.314   3.230  15.049 -0.4295  3.7046 -0.9619
 4858SOL    HW226211   4.271   3.277  14.920 -0.2651 -0.9874 -0.9553
 4859SOL     OW26212   2.944   3.258  17.300  0.3156  0.0860  0.6460
 4859SOL    HW126213   3.038   3.255  17.317  0.9294  2.3437 -2.4698
 4859SOL    HW226214   2.907   3.172  17.321 -1.5599  0.8846  0.6615
 4860SOL     OW26215   3.883   3.806   2.802 -0.4445  0.2073  0.1609
 4860SOL    HW126216   3.847   3.876   2.856 -2.5915 -0.9810  0.2679
 4860SOL    HW226217   3.833   3.733   2.839 -0.4693 -0.1751 -0.6397
 4861SOL     OW26218   0.098   1.372   9.225  0.2657 -0.2768 -0.4856
 4861SOL    HW126219   0.140   1.396   9.142  1.5298 -0.2015  0.1713
 4861SOL    HW226220   0.026   1.316   9.197 -2.1676  1.9624  1.2722
 4862SOL     OW26221   0.710   0.564   8.522  0.1865 -0.3203  0.3587
 4862SOL    HW126222   0.654   0.580   8.598  1.6161  0.8467  1.1685
 4862SOL    HW226223   0.649   0.515   8.467 -0.8842  0.8911  0.4955
 4863SOL     OW26224   0.166   3.858   8.287 -0.8226  0.2002  0.5233
 4863SOL    HW126225   0.143   3.861   8.380  0.5784  0.4612  0.8690
 4863SOL    HW226226   0.129   3.772   8.265 -1.3573  0.9225 -1.3106
 4864SOL     OW26227   4.114   0.205   8.609  0.3590  1.0675 -0.4120
 4864SOL    HW126228   4.181   0.268   8.635  0.9080 -0.0593  0.9101
 4864SOL    HW226229   4.153   0.130   8.654 -1.1418  0.0528 -0.8114
 4865SOL     OW26230   0.001   2.358   7.179  0.3719  0.6611  0.4482
 4865SOL    HW126231   0.070   2.306   7.138  1.0130  1.3605  0.6370
 4865SOL    HW226232   0.004   2.441   7.131  0.2729  0.7806  0.6498
 4866SOL     OW26233   0.679   3.443   8.395 -0.3226 -0.2664 -0.4620
 4866SOL    HW126234   0.771   3.414   8.398 -0.2661 -0.1337 -0.9698
 4866SOL    HW226235   0.654   3.446   8.303 -0.1539  0.2455 -0.4877
 4867SOL     OW26236   1.152   1.392   4.219 -0.4044  0.2133 -0.0070
 4867SOL    HW126237   1.138   1.403   4.313  3.2502  0.6396  0.4732
 4867SOL    HW226238   1.246   1.380   4.214 -0.5005 -0.0068 -1.1123
 4868SOL     OW26239   0.897   0.745   8.959 -0.6944  0.4908  0.0335
 4868SOL    HW126240   0.853   0.679   8.906 -1.4889  1.8979 -1.0709
 4868SOL    HW226241   0.950   0.792   8.895 -0.2813 -0.8318 -0.5980
 4869SOL     OW26242   2.373   3.834   3.073  0.3134  0.0477  0.3459
 4869SOL    HW126243   2.451   3.831   3.128  0.9435 -0.7143 -0.5873
 4869SOL    HW226244   2.304   3.858   3.134 -0.2099  0.8512 -0.5544
 4870SOL     OW26245   1.211   4.557  10.361 -0.5028  0.6824 -0.7470
 4870SOL    HW126246   1.160   4.514  10.431  3.3473  1.0812  2.2953
 4870SOL    HW226247   1.211   4.648  10.390 -0.8167  0.1760  0.8574
 4871SOL     OW26248   3.086   3.788  15.884  0.0295  0.9467  0.4049
 4871SOL    HW126249   3.145   3.828  15.821  0.1690  0.7419  0.4066
 4871SOL    HW226250   3.011   3.780  15.825  0.6142  2.0069 -0.4764
 4872SOL     OW26251   3.336   4.712  17.519  0.5160 -0.1074 -0.3110
 4872SOL    HW126252   3.363   0.027  17.442 -0.1099 -1.4627 -1.4326
 4872SOL    HW226253   3.380   0.013  17.595  1.6231  0.2749 -1.1244
 4873SOL     OW26254   4.472   2.699   5.232  0.6188 -0.2753  0.3426
 4873SOL    HW126255   4.553   2.733   5.196  2.7606 -5.0391  0.6816
 4873SOL    HW226256   4.456   2.616   5.186  0.3639  0.0150 -0.0904
 4874SOL     OW26257   3.269   3.197   9.324 -0.3602 -0.3095 -0.0992
 4874SOL    HW126258   3.193   3.139   9.320 -0.0985 -0.6269 -0.4968
 4874SOL    HW226259   3.246   3.240   9.407  0.2948  0.8196 -0.5022
 4875SOL     OW26260   2.407   0.223   7.060  0.3346  0.0719  0.6669
 4875SOL    HW126261   2.492   0.181   7.076  0.0296 -0.0712  1.9020
 4875SOL    HW226262   2.425   0.316   7.075 -1.8449  1.1327 -3.4016
 4876SOL     OW26263   4.149   2.609  13.181  0.5158 -0.1057 -0.0299
 4876SOL    HW126264   4.141   2.655  13.097  0.8772  0.5039  0.2687
 4876SOL    HW226265   4.071   2.555  13.172 -0.6245  1.9672 -2.7267
 4877SOL     OW26266   0.115   4.105   8.111  0.4971  0.7125  0.2201
 4877SOL    HW126267   0.147   4.065   8.191  1.5150  1.0408 -0.0202
 4877SOL    HW226268   0.044   4.050   8.079  1.2502 -0.2939  0.2921
 4878SOL     OW26269   3.552   1.984   0.518 -0.2438  0.2395  0.3338
 4878SOL    HW126270   3.536   2.003   0.425 -2.9304  2.1885  1.1835
 4878SOL    HW226271   3.560   1.888   0.517 -2.1843  0.0813 -1.7077
 4879SOL     OW26272   0.977   0.463   9.150 -0.8118 -0.1483  0.5397
 4879SOL    HW126273   1.015   0.504   9.072 -1.2926  0.9244  0.8733
 4879SOL    HW226274   0.900   0.520   9.152 -0.0979  0.8274  0.0008
 4880SOL     OW26275   3.644   4.267   9.308 -0.3823 -0.1457 -0.2501
 4880SOL    HW126276   3.640   4.310   9.222  1.2623  1.5914  0.5342
 4880SOL    HW226277   3.670   4.177   9.289  0.8791  0.1401  0.1234
 4881SOL     OW26278   0.949   0.001   3.663  0.1968 -0.4784  0.2020
 4881SOL    HW126279   1.012   0.011   3.735  1.5580  0.3993 -1.0937
 4881SOL    HW226280   0.961   4.647   3.634 -3.4380 -0.7014 -0.5627
 4882SOL     OW26281   1.472   4.375   5.833  0.0067 -0.0948  0.5940
 4882SOL    HW126282   1.425   4.329   5.763  0.2407  0.4338  0.0950
 4882SOL    HW226283   1.563   4.380   5.806 -0.3864 -0.2476 -0.7754
 4883SOL     OW26284   0.112   3.232  11.971 -0.2118  0.3502  0.4419
 4883SOL    HW126285   0.055   3.179  12.027 -1.0727 -1.0984 -1.7679
 4883SOL    HW226286   0.170   3.271  12.036 -0.1097 -0.2763  0.7184
 4884SOL     OW26287   3.913   2.991  15.878  0.0098  0.1217  0.3687
 4884SOL    HW126288   3.833   3.042  15.873 -0.4795 -0.6438  0.3701
 4884SOL    HW226289   3.880   2.908  15.912  0.3518  0.1849  0.8609
 4885SOL     OW26290   2.270   2.499  11.445  0.3048 -0.4003 -0.4799
 4885SOL    HW126291   2.253   2.553  11.522 -0.4062  0.8058 -1.4906
 4885SOL    HW226292   2.186   2.490  11.401 -0.4777 -1.6868  1.2830
 4886SOL     OW26293   3.674   2.957  12.645 -0.4482  0.0978  0.1688
 4886SOL    HW126294   3.716   2.873  12.664 -2.0335 -0.2293  2.1565
 4886SOL    HW226295   3.593   2.929  12.603  0.4013  0.1941 -1.5412
 4887SOL     OW26296   2.536   3.699  14.442  0.5173  0.2287 -0.1783
 4887SOL    HW126297   2.535   3.693  14.537  2.1782 -3.0914 -0.3692
 4887SOL    HW226298   2.447   3.675  14.415  0.2198  0.3044  0.7629
 4888SOL     OW26299   3.766   1.266   8.503 -0.1318  0.0869 -0.2092
 4888SOL    HW126300   3.856   1.235   8.493 -0.7398 -1.1275 -1.8065
 4888SOL    HW226301   3.761   1.317   8.422  2.0091  0.1318 -0.3276
 4889SOL     OW26302   0.606   2.970  12.085 -0.3868 -0.6733  0.2302
 4889SOL    HW126303   0.577   2.976  11.994 -0.5012  4.5844  0.5974
 4889SOL    HW226304   0.698   2.994  12.077 -0.6811 -0.0168 -1.2600
 4890SOL     OW26305   1.950   0.167   8.171 -0.0642  0.3466 -0.0156
 4890SOL    HW126306   1.917   0.243   8.219 -2.0056  0.0374 -0.8365
 4890SOL    HW226307   1.986   0.202   8.089 -0.6615 -1.3091 -0.9982
 4891SOL     OW26308   4.052   0.079   5.563  0.0363  0.2269 -0.0730
 4891SOL    HW126309   3.990   0.082   5.636 -0.2095 -2.4056 -0.1697
 4891SOL    HW226310   4.131   0.086   5.615 -0.1323  0.7763  0.1141
 4892SOL     OW26311   2.752   0.460   1.481 -0.1322 -0.1405  0.1138
 4892SOL    HW126312   2.823   0.519   1.507 -0.1191 -0.8305  1.6421
 4892SOL    HW226313   2.788   0.372   1.487 -0.2924 -0.3000 -1.2185
 4893SOL     OW26314   2.654   4.271   1.256 -0.4474  0.6526  0.2269
 4893SOL    HW126315   2.570   4.297   1.217  0.0825  0.2271 -1.2223
 4893SOL    HW226316   2.617   4.193   1.298  0.5282 -0.6386 -1.3275
 4894SOL     OW26317   2.282   3.112  10.404  0.2318 -0.2675 -0.0145
 4894SOL    HW126318   2.291   3.016  10.405  0.9256 -0.2480 -3.2242
 4894SOL    HW226319   2.189   3.122  10.385  0.2770 -3.0109 -1.7665
 4895SOL     OW26320   0.456   3.675  12.643 -0.2004 -0.0158  0.2690
 4895SOL    HW126321   0.501   3.660  12.559 -1.0265 -2.1186  0.1959
 4895SOL    HW226322   0.373   3.627  12.641 -0.8536  1.1519 -0.6606
 4896SOL     OW26323   4.339   4.636   8.342  0.5082  0.1210  0.1949
 4896SOL    HW126324   4.269   4.697   8.317 -1.6330 -2.2828  0.2212
 4896SOL    HW226325   4.292   4.578   8.403 -0.5324  0.4318 -0.3001
 4897SOL     OW26326   2.740   2.370   6.301 -0.3310  0.9674 -0.0166
 4897SOL    HW126327   2.739   2.306   6.371  0.6506 -0.7929 -1.6019
 4897SOL    HW226328   2.650   2.361   6.268 -0.2232  1.4107 -0.4391
 4898SOL     OW26329   0.853   3.711   4.154  0.2999  0.5741  0.5734
 4898SOL    HW126330   0.841   3.768   4.230  1.0382  0.8980  0.4488
 4898SOL    HW226331   0.844   3.622   4.188  0.2972  0.4470  0.2427
 4899SOL     OW26332   3.668   2.386   0.293  0.1482 -0.0824 -0.2025
 4899SOL    HW126333   3.757   2.405   0.264  0.6447 -0.6304  0.9555
 4899SOL    HW226334   3.614   2.447   0.244  2.0375  1.3656 -0.4774
 4900SOL     OW26335   4.438   1.757   2.186  0.7748 -0.2537  0.0390
 4900SOL    HW126336   4.398   1.676   2.153 -0.8196  1.0401 -1.1891
 4900SOL    HW226337   4.486   1.717   2.258 -1.3837 -1.3241  0.8847
 4901SOL     OW26338   0.410   0.127   7.816 -0.0787  0.3471  0.3197
 4901SOL    HW126339   0.383   0.186   7.886  0.1170  0.6752  0.1176
 4901SOL    HW226340   0.339   0.064   7.826 -0.4988  0.5247 -1.4826
 4902SOL     OW26341   3.720   2.703  17.357 -0.0200 -0.0334 -0.2634
 4902SOL    HW126342   3.786   2.732  17.294  2.4412  0.4326  2.5051
 4902SOL    HW226343   3.692   2.783  17.401 -1.0884 -0.1187 -0.7862
 4903SOL     OW26344   0.842   0.737   7.459 -0.5512 -0.4933  0.1981
 4903SOL    HW126345   0.885   0.752   7.375 -1.8819  0.5940 -0.2835
 4903SOL    HW226346   0.882   0.814   7.500 -0.1503  0.1097 -1.3078
 4904SOL     OW26347   3.941   1.971   2.691  0.4956  0.5636 -0.4296
 4904SOL    HW126348   3.936   1.921   2.610  2.7118 -0.1189 -0.1386
 4904SOL    HW226349   3.945   1.906   2.760  1.1038 -0.4458 -1.4164
 4905SOL     OW26350   3.861   4.081   1.449 -0.8593  0.5293 -0.2689
 4905SOL    HW126351   3.894   4.072   1.538 -4.1773 -3.9869  0.4704
 4905SOL    HW226352   3.785   4.135   1.471  0.5489  1.0695  3.1507
 4906SOL     OW26353   4.579   1.111  16.607  0.6062  0.6257 -0.2194
 4906SOL    HW126354   4.584   1.147  16.519 -0.4389  0.1993 -0.4589
 4906SOL    HW226355   4.567   1.189  16.661 -1.7932 -1.2202  1.9122
 4907SOL     OW26356   2.504   4.124   9.394 -0.2731  0.3219  0.3771
 4907SOL    HW126357   2.531   4.210   9.426 -0.5290  1.3311 -2.0924
 4907SOL    HW226358   2.409   4.129   9.406 -0.5393 -0.4795 -1.2976
 4908SOL     OW26359   1.933   2.574   6.289  0.1585  0.0602  0.2910
 4908SOL    HW126360   1.961   2.507   6.352 -1.3409  2.5294  3.5576
 4908SOL    HW226361   1.891   2.519   6.224 -0.8187  0.9234  0.1996
 4909SOL     OW26362   4.430   4.393   5.270 -0.0748 -0.2375 -0.1006
 4909SOL    HW126363   4.497   4.338   5.310 -0.2731 -1.3087 -1.2359
 4909SOL    HW226364   4.369   4.415   5.340  0.4896 -0.1636  0.3601
 4910SOL     OW26365   3.563   1.242   6.213  0.4697 -0.2639  0.0469
 4910SOL    HW126366   3.539   1.329   6.244  1.2025  0.5563 -1.6508
 4910SOL    HW226367   3.500   1.192   6.266  0.1546  1.0363  0.8871
 4911SOL     OW26368   2.196   3.877   2.418 -0.0230  0.1519 -0.5621
 4911SOL    HW126369   2.129   3.944   2.403  0.9666  0.8607 -1.8579
 4911SOL    HW226370   2.186   3.871   2.513 -1.9987  0.7759 -0.7294
 4912SOL     OW26371   1.341   2.125   1.871  0.1307  0.2711 -0.6933
 4912SOL    HW126372   1.295   2.043   1.853 -0.9967  0.5515  0.9437
 4912SOL    HW226373   1.391   2.084   1.941 -0.0309  2.5246  0.7242
 4913SOL     OW26374   0.958   3.889   2.099 -0.2054 -0.1600 -0.1906
 4913SOL    HW126375   0.974   3.850   2.185 -1.3723  0.2445  0.1979
 4913SOL    HW226376   0.891   3.826   2.073 -0.9558  0.6262 -0.1561
 4914SOL     OW26377   3.448   1.954   8.006 -0.0913  0.3100  0.5508
 4914SOL    HW126378   3.492   1.886   8.057 -0.8749 -1.3400 -0.9635
 4914SOL    HW226379   3.455   1.928   7.914 -2.7621  2.0700 -0.1368
 4915SOL     OW26380   0.759   2.778   8.406  0.7317 -0.6344  0.1159
 4915SOL    HW126381   0.718   2.846   8.460 -0.3328 -1.2731  0.0932
 4915SOL    HW226382   0.810   2.841   8.354  1.5385 -0.5860  0.9607
 4916SOL     OW26383   1.912   3.354   9.802  0.1771  0.8528  0.3049
 4916SOL    HW126384   1.953   3.298   9.869 -0.5337  0.7857  0.6843
 4916SOL    HW226385   1.958   3.323   9.724 -1.7573  1.2303 -0.9824
 4917SOL     OW26386   1.555   0.440   4.842  0.4301 -0.0661 -0.0456
 4917SOL    HW126387   1.541   0.350   4.815  0.4974 -0.0716 -0.0626
 4917SOL    HW226388   1.643   0.450   4.804 -0.3146  1.2393 -1.4338
 4918SOL     OW26389   1.203   0.269   0.893 -0.3788 -0.4312 -0.2779
 4918SOL    HW126390   1.140   0.276   0.965 -0.3859 -1.5856 -0.1717
 4918SOL    HW226391   1.167   0.308   0.814  1.5005 -0.1504 -0.9931
 4919SOL     OW26392   0.242   0.823   9.279  0.3375  0.5003 -0.4486
 4919SOL    HW126393   0.308   0.883   9.315  1.1449 -0.7675  0.2118
 4919SOL    HW226394   0.244   0.753   9.344 -0.6912  0.0962 -0.8573
 4920SOL     OW26395   3.391   2.697   0.671  0.3806 -0.2165 -0.0964
 4920SOL    HW126396   3.346   2.722   0.751  2.8061 -1.1349  1.5735
 4920SOL    HW226397   3.390   2.602   0.682 -2.5278 -0.1091  0.5175
 4921SOL     OW26398   0.457   2.342  15.695  0.1728 -0.2994  0.4281
 4921SOL    HW126399   0.403   2.418  15.715  1.2099  0.8703 -1.1340
 4921SOL    HW226400   0.483   2.369  15.606 -3.0971 -2.7597 -1.2546
 4922SOL     OW26401   1.264   3.104   4.327 -0.7857  0.5388  0.2459
 4922SOL    HW126402   1.317   3.170   4.372 -2.2765  0.3329  2.3239
 4922SOL    HW226403   1.317   3.068   4.256 -0.4140 -2.1663  1.9189
 4923SOL     OW26404   3.485   3.180  11.442 -0.2714  0.0844  0.6265
 4923SOL    HW126405   3.401   3.134  11.431 -0.1781 -0.3109  1.6382
 4923SOL    HW226406   3.541   3.106  11.464  3.2450  2.3749 -0.6185
 4924SOL     OW26407   0.703   4.342   9.226  0.3204  0.6943  1.1579
 4924SOL    HW126408   0.620   4.365   9.186 -0.1540  0.0090  1.7544
 4924SOL    HW226409   0.695   4.403   9.299  0.6717  0.4731  1.3853
 4925SOL     OW26410   1.240   4.299   7.017 -0.6100 -0.0259  0.5133
 4925SOL    HW126411   1.275   4.382   6.983  1.5014 -0.3252  1.9173
 4925SOL    HW226412   1.155   4.338   7.036 -1.9328 -2.7069  0.1232
 4926SOL     OW26413   4.189   0.787   4.309 -0.4987  0.0191 -0.4134
 4926SOL    HW126414   4.250   0.860   4.318  1.3449 -1.6097  0.3442
 4926SOL    HW226415   4.244   0.722   4.354 -0.7700 -0.6442 -1.0333
 4927SOL     OW26416   2.097   4.334  14.030 -0.2528 -0.1163 -0.2575
 4927SOL    HW126417   2.135   4.248  14.050 -0.0402 -0.4293 -2.0846
 4927SOL    HW226418   2.097   4.338  13.935  1.6210  1.9723 -0.1721
 4928SOL     OW26419   2.149   2.130   4.886  0.2766  0.0309 -0.1281
 4928SOL    HW126420   2.224   2.074   4.905 -0.5719 -1.3338 -0.7349
 4928SOL    HW226421   2.090   2.119   4.961 -1.7031 -0.5032 -1.7490
 4929SOL     OW26422   2.914   2.531  16.176  0.2736 -0.5836  0.4232
 4929SOL    HW126423   2.860   2.592  16.127  2.4034  0.5306 -0.5342
 4929SOL    HW226424   3.003   2.561  16.156 -1.6881  2.4180 -3.5933
 4930SOL     OW26425   4.294   0.018  10.709  0.1630 -0.2767  0.7871
 4930SOL    HW126426   4.294   4.717  10.797 -1.1796  2.1237  1.8142
 4930SOL    HW226427   4.305   0.112  10.718  1.6398 -0.4686  0.9803
 4931SOL     OW26428   1.364   2.965   0.787  0.3919  0.2433  0.6596
 4931SOL    HW126429   1.369   2.869   0.794 -0.1774  0.0904 -0.9837
 4931SOL    HW226430   1.387   2.970   0.694 -1.1045  0.0292  0.2722
 4932SOL     OW26431   1.620   2.258  14.520 -0.1169 -0.5484  0.3119
 4932SOL    HW126432   1.684   2.202  14.563  0.9021  0.3504 -0.0160
 4932SOL    HW226433   1.678   2.324  14.482  0.6623 -0.1244  2.2178
 4933SOL     OW26434   1.767   3.943  12.630  0.3696  0.6699  0.5071
 4933SOL    HW126435   1.840   3.999  12.601  0.4161  1.8308  2.8340
 4933SOL    HW226436   1.688   3.995  12.620 -1.4375 -3.0065 -4.1148
 4934SOL     OW26437   0.060   0.638   2.895  0.6104  0.0033  0.2740
 4934SOL    HW126438   0.125   0.635   2.965  2.1250 -0.9290 -1.1768
 4934SOL    HW226439   0.120   0.621   2.822  1.0300 -3.0045  1.3524
 4935SOL     OW26440   0.842   1.583  12.448  0.5471 -0.3364 -0.3674
 4935SOL    HW126441   0.748   1.572  12.433  0.6059 -2.1268  0.5285
 4935SOL    HW226442   0.840   1.674  12.476 -1.9956 -0.5747  0.2014
 4936SOL     OW26443   2.889   0.348   4.029 -0.1239  0.2485  0.2319
 4936SOL    HW126444   2.831   0.400   4.085 -1.6829 -1.9372  0.6650
 4936SOL    HW226445   2.880   0.271   4.085 -1.8789  1.0740  1.0904
 4937SOL     OW26446   4.322   1.547   7.238  0.3767  0.6445  0.1819
 4937SOL    HW126447   4.325   1.462   7.282  3.4967  0.7811  0.2676
 4937SOL    HW226448   4.414   1.562   7.217  0.3144  0.2513 -0.3607
 4938SOL     OW26449   0.576   2.153   1.065 -0.2771 -0.2012  0.6905
 4938SOL    HW126450   0.657   2.102   1.064 -0.9554 -1.3002  1.4303
 4938SOL    HW226451   0.544   2.135   1.154  0.6958 -2.0512  0.6801
 4939SOL     OW26452   0.482   2.104   3.961 -0.3009 -0.5866  0.1275
 4939SOL    HW126453   0.568   2.128   3.928 -0.4154  0.8969  0.8986
 4939SOL    HW226454   0.468   2.030   3.901  0.3318  0.5716 -1.4673
 4940SOL     OW26455   4.338   2.659   7.486  0.0074 -0.1107  0.2856
 4940SOL    HW126456   4.365   2.707   7.564  1.7097  0.3303 -0.5666
 4940SOL    HW226457   4.324   2.736   7.430 -0.6177 -0.6641 -0.3171
 4941SOL     OW26458   3.494   1.914   9.500  0.8291  0.9682 -0.0006
 4941SOL    HW126459   3.494   1.985   9.435  0.4774  0.5022 -0.5067
 4941SOL    HW226460   3.485   1.843   9.437 -0.3859  0.8247  0.3316
 4942SOL     OW26461   2.088   4.511  10.473  0.3832  0.5432  0.5425
 4942SOL    HW126462   2.146   4.563  10.418  0.1770  1.3409  1.0866
 4942SOL    HW226463   2.087   4.557  10.557  2.8924  1.1804  0.2153
 4943SOL     OW26464   1.924   0.632   3.692  0.7001 -0.1065 -0.2491
 4943SOL    HW126465   1.882   0.579   3.760 -1.3348  1.1327 -0.5622
 4943SOL    HW226466   1.855   0.695   3.675  0.8394  0.3657  0.9401
 4944SOL     OW26467   2.606   4.626   5.918  0.2687 -0.4148 -0.1038
 4944SOL    HW126468   2.680   4.683   5.896 -1.2200  0.7230 -2.2066
 4944SOL    HW226469   2.617   4.629   6.013  5.7455 -2.4467 -0.6842
 4945SOL     OW26470   4.383   0.950  11.046  0.4025  0.5918 -0.3917
 4945SOL    HW126471   4.401   1.019  10.982 -0.2556  0.7239 -0.4379
 4945SOL    HW226472   4.361   0.884  10.981 -0.5996  1.3488 -0.8326
 4946SOL     OW26473   3.796   2.475  17.483 -0.4777  0.3443  0.5231
 4946SOL    HW126474   3.791   2.562  17.444 -0.3724  0.1301  0.0330
 4946SOL    HW226475   3.813   2.421  17.406  1.4029  0.1595  1.0817
 4947SOL     OW26476   2.860   1.168   1.982  0.2028  0.5209  0.5335
 4947SOL    HW126477   2.815   1.175   2.067 -0.4465  0.0957  0.2229
 4947SOL    HW226478   2.886   1.259   1.969  1.5897  0.1108  0.4357
 4948SOL     OW26479   0.558   3.693   2.427 -0.3815 -0.1157  0.2355
 4948SOL    HW126480   0.560   3.760   2.495 -0.2175 -0.5513  0.6613
 4948SOL    HW226481   0.471   3.707   2.390 -0.6847 -0.6773  0.7263
 4949SOL     OW26482   2.639   0.234  11.073  0.5789  0.1160 -0.4356
 4949SOL    HW126483   2.689   0.300  11.025  2.0759 -2.2973 -2.2072
 4949SOL    HW226484   2.610   0.288  11.146 -1.0262 -2.7410  1.0599
 4950SOL     OW26485   1.239   0.743   5.071 -0.0181  0.0558  0.2235
 4950SOL    HW126486   1.299   0.707   5.137  0.7857  1.8052  0.4450
 4950SOL    HW226487   1.181   0.795   5.127 -1.0617  2.0190 -2.6965
 4951SOL     OW26488   2.492   0.981   6.278  0.1572  0.8813 -0.0087
 4951SOL    HW126489   2.514   1.070   6.254 -0.0039  1.0678  0.5373
 4951SOL    HW226490   2.494   0.951   6.187 -3.1718 -2.1040  0.8893
 4952SOL     OW26491   2.907   0.260  12.426 -0.0085  0.1375  0.0896
 4952SOL    HW126492   2.878   0.245  12.336 -0.4979 -2.0806  0.6146
 4952SOL    HW226493   2.992   0.216  12.424 -0.7038 -1.1578 -0.9875
 4953SOL     OW26494   3.064   2.260  12.825 -0.1922  1.4036 -0.2666
 4953SOL    HW126495   3.143   2.210  12.845  0.2245  1.9181 -0.6150
 4953SOL    HW226496   3.019   2.252  12.909  2.5100  0.7955  1.1008
 4954SOL     OW26497   2.564   1.795  10.841 -0.7589 -0.5421 -0.2681
 4954SOL    HW126498   2.606   1.716  10.807 -1.4401 -0.5578 -1.0796
 4954SOL    HW226499   2.481   1.757  10.869 -0.5460 -0.9005 -0.1181
 4955SOL     OW26500   1.649   0.769   7.362  0.1948  0.0280 -0.0510
 4955SOL    HW126501   1.581   0.701   7.369 -0.7042  1.2799  3.1032
 4955SOL    HW226502   1.621   0.817   7.284 -0.1357  0.9415  0.6372
 4956SOL     OW26503   4.731   3.222   4.194  0.3247 -0.1222  0.0311
 4956SOL    HW126504   4.684   3.249   4.272  0.4034  1.0782 -0.3410
 4956SOL    HW226505   4.730   3.300   4.139  2.8679  0.3096  0.5645
 4957SOL     OW26506   4.444   3.039   4.921  0.4146  0.3399  0.2706
 4957SOL    HW126507   4.415   3.124   4.955  0.2177 -0.0780  1.1449
 4957SOL    HW226508   4.404   3.025   4.835 -0.0243 -1.6488  0.7839
 4958SOL     OW26509   1.148   0.785   4.807  0.1815 -0.5076  0.1325
 4958SOL    HW126510   1.196   0.736   4.741 -1.2066 -1.0361 -0.4952
 4958SOL    HW226511   1.197   0.765   4.886  0.1125  0.4137  0.4091
 4959SOL     OW26512   3.873   1.085   4.862  0.0747 -0.2729 -0.1524
 4959SOL    HW126513   3.828   1.028   4.924  0.1436  2.2233  2.1849
 4959SOL    HW226514   3.959   1.043   4.852 -0.0369 -0.2762 -1.0607
 4960SOL     OW26515   3.812   2.242   5.583  0.1963 -0.3887 -0.1622
 4960SOL    HW126516   3.749   2.264   5.651 -2.1841 -1.7017 -1.9634
 4960SOL    HW226517   3.760   2.250   5.503  0.7909  0.0048 -0.5165
 4961SOL     OW26518   2.410   1.710   2.737  1.4263 -0.0567 -0.1745
 4961SOL    HW126519   2.487   1.732   2.788  1.9845 -0.3550 -0.8845
 4961SOL    HW226520   2.345   1.762   2.785  0.7712 -0.2741 -0.8116
 4962SOL     OW26521   0.274   0.194   3.029 -0.6197 -0.0674 -0.2840
 4962SOL    HW126522   0.335   0.211   3.101  0.1611 -1.4350 -0.6103
 4962SOL    HW226523   0.334   0.198   2.954 -0.6528  0.0136 -0.3057
 4963SOL     OW26524   4.622   4.081   7.205 -0.5552 -0.6255 -0.1147
 4963SOL    HW126525   4.563   4.032   7.148 -0.1810 -0.4084 -0.6780
 4963SOL    HW226526   4.688   4.015   7.225  0.3920  0.7727  1.3845
 4964SOL     OW26527   2.569   4.025   8.406  0.4809 -0.2369 -0.3697
 4964SOL    HW126528   2.636   3.961   8.426  2.5202  1.5921 -1.3036
 4964SOL    HW226529   2.555   4.056   8.496  1.5010 -1.4057  0.1780
 4965SOL     OW26530   0.128   1.510   5.636 -0.1092  0.0141 -0.0676
 4965SOL    HW126531   0.150   1.533   5.726  2.5613 -1.1014 -0.4370
 4965SOL    HW226532   0.037   1.483   5.647 -0.3846 -0.0065 -2.2982
 4966SOL     OW26533   1.091   2.730   0.989 -0.3271 -0.1679 -0.2475
 4966SOL    HW126534   1.006   2.741   1.031  0.7541  1.4334  1.5188
 4966SOL    HW226535   1.143   2.700   1.064  0.3775  0.5064 -0.4593
 4967SOL     OW26536   3.719   1.126   7.523  0.5838 -0.3447 -0.5466
 4967SOL    HW126537   3.812   1.142   7.537  0.0583  2.2483 -0.0915
 4967SOL    HW226538   3.722   1.030   7.519  1.3158 -0.3882  1.1690
 4968SOL     OW26539   3.641   3.732   7.524 -0.3060 -0.2306 -0.1233
 4968SOL    HW126540   3.577   3.803   7.530 -1.7930 -1.3369 -2.7606
 4968SOL    HW226541   3.711   3.782   7.483  0.9649  1.2435  3.8405
 4969SOL     OW26542   4.139   0.809  14.401  0.2483 -0.3932  0.1384
 4969SOL    HW126543   4.117   0.844  14.488 -1.1891  0.7283 -0.6772
 4969SOL    HW226544   4.074   0.742  14.380 -1.7409  1.1330  1.3301
 4970SOL     OW26545   1.246   3.968   2.715 -0.2770  0.2162 -0.5438
 4970SOL    HW126546   1.307   4.016   2.658  2.5013 -1.4439  1.0516
 4970SOL    HW226547   1.236   3.884   2.671 -1.2291 -0.0711  0.2310
 4971SOL     OW26548   0.728   0.285   6.728 -0.2750  0.7305  0.3707
 4971SOL    HW126549   0.657   0.309   6.788  0.0955 -0.3691  1.2431
 4971SOL    HW226550   0.809   0.320   6.766 -0.2521 -0.8293  1.7391
 4972SOL     OW26551   0.365   3.736   4.116 -0.3871  0.1792  0.3984
 4972SOL    HW126552   0.279   3.738   4.157 -0.4119 -0.3424  0.3625
 4972SOL    HW226553   0.418   3.784   4.180  0.6232 -0.6568  0.1987
 4973SOL     OW26554   2.627   0.426  16.335 -0.5166 -0.3957 -0.1794
 4973SOL    HW126555   2.623   0.354  16.398 -0.1149  0.8521  1.2770
 4973SOL    HW226556   2.718   0.449  16.353 -0.2850  0.2504 -2.1505
 4974SOL     OW26557   2.362   0.609  15.970 -0.3068 -0.2074 -0.1644
 4974SOL    HW126558   2.442   0.570  16.005  0.3555  2.4134  1.2877
 4974SOL    HW226559   2.395   0.696  15.948 -0.5097 -0.1268 -0.1532
 4975SOL     OW26560   0.763   3.708   6.675  0.0091 -0.3619  0.2976
 4975SOL    HW126561   0.706   3.639   6.640  0.6170 -0.8652  0.2887
 4975SOL    HW226562   0.763   3.760   6.595  1.2857  1.1413  1.2797
 4976SOL     OW26563   4.061   4.198   0.448 -0.3788 -0.1699  0.3994
 4976SOL    HW126564   4.015   4.188   0.531  2.3997 -2.4182  1.6749
 4976SOL    HW226565   4.120   4.272   0.465 -0.2486 -0.4583  1.1851
 4977SOL     OW26566   4.606   0.743  14.225 -0.5780 -0.0834  0.5092
 4977SOL    HW126567   4.551   0.810  14.265 -0.9612 -1.1233  1.7130
 4977SOL    HW226568   4.550   0.668  14.204  1.8077 -2.5806  3.1227
 4978SOL     OW26569   4.162   0.302   1.893 -0.2975  0.4044 -0.1846
 4978SOL    HW126570   4.230   0.310   1.959 -0.6809 -0.5966  0.3380
 4978SOL    HW226571   4.081   0.315   1.942 -0.7936 -1.5457 -0.4557
 4979SOL     OW26572   3.748   0.830   5.075  0.2562  0.4008 -0.2798
 4979SOL    HW126573   3.666   0.826   5.124  1.2024  1.7994  1.4203
 4979SOL    HW226574   3.758   0.740   5.043 -1.0651  0.4908 -0.9513
 4980SOL     OW26575   3.107   2.004   3.512 -0.5022  0.2087 -0.4278
 4980SOL    HW126576   3.033   2.062   3.494  0.8910  1.4549 -2.0448
 4980SOL    HW226577   3.093   1.934   3.449  1.7677 -1.9050  1.3815
 4981SOL     OW26578   2.488   3.886   5.499 -0.0568  0.2107 -0.0133
 4981SOL    HW126579   2.437   3.957   5.460 -2.5816 -1.7382 -0.2501
 4981SOL    HW226580   2.465   3.890   5.591 -0.3581 -1.0680 -0.0409
 4982SOL     OW26581   3.646   1.492   7.684 -0.3531  0.0803  0.0072
 4982SOL    HW126582   3.697   1.560   7.639 -1.7822  2.7650  2.3787
 4982SOL    HW226583   3.683   1.517   7.769 -0.4320 -1.0901  0.3867
 4983SOL     OW26584   2.963   2.727   4.513  0.3629 -0.3346 -0.3243
 4983SOL    HW126585   2.955   2.633   4.533  0.8970 -0.6159 -1.4266
 4983SOL    HW226586   2.884   2.752   4.560 -0.0894  0.3589 -1.4545
 4984SOL     OW26587   4.628   2.186   6.335 -0.1369  0.0314  0.2800
 4984SOL    HW126588   4.587   2.212   6.253 -0.9971  0.3482  0.8063
 4984SOL    HW226589   4.713   2.153   6.305 -0.5161 -1.6379  1.0034
 4985SOL     OW26590   0.768   4.191   3.152 -0.0062  0.1081 -0.3555
 4985SOL    HW126591   0.750   4.284   3.136 -0.4140  0.2142  0.7095
 4985SOL    HW226592   0.862   4.200   3.140  0.0589  0.1617  0.1820
 4986SOL     OW26593   3.931   2.044   4.657 -0.4102 -0.2638  0.6812
 4986SOL    HW126594   3.919   2.121   4.713 -1.3997  0.6314 -0.7586
 4986SOL    HW226595   4.007   1.996   4.690 -1.1335 -1.1976  0.9982
 4987SOL     OW26596   1.860   2.352   7.184 -0.0493  0.1700  0.3561
 4987SOL    HW126597   1.848   2.258   7.171  2.5335 -0.2262  0.8628
 4987SOL    HW226598   1.880   2.355   7.278  0.9590  0.6573  0.1302
 4988SOL     OW26599   3.708   3.736  15.056  0.3081 -0.2637 -0.6199
 4988SOL    HW126600   3.684   3.825  15.029 -2.0500 -1.0465 -1.1149
 4988SOL    HW226601   3.730   3.689  14.975  3.7740 -0.7626  0.6623
 4989SOL     OW26602   3.838   4.721  10.689  0.3335 -0.4203 -0.1296
 4989SOL    HW126603   3.773   4.657  10.660 -0.9013  0.6694  0.2395
 4989SOL    HW226604   3.911   4.712  10.629  0.7094 -0.1163  0.2841
 4990SOL     OW26605   1.842   1.838   4.254 -0.0505 -0.2266  0.1368
 4990SOL    HW126606   1.748   1.857   4.251 -0.0766 -0.5619 -1.1062
 4990SOL    HW226607   1.850   1.744   4.236  2.0439  0.6405 -3.3244
 4991SOL     OW26608   3.625   1.245   5.030 -0.1856  0.2719  0.0807
 4991SOL    HW126609   3.570   1.201   4.966 -2.8173  1.4250  1.5549
 4991SOL    HW226610   3.610   1.339   5.019 -0.9381 -0.1671 -2.5017
 4992SOL     OW26611   0.361   2.002   8.300  0.1860  0.5200 -0.4156
 4992SOL    HW126612   0.278   1.962   8.273 -0.3009  1.3458 -0.1604
 4992SOL    HW226613   0.379   2.068   8.234 -1.3397  1.4898  0.1254
 4993SOL     OW26614   3.702   0.560   5.571  0.1360  0.1450 -0.3314
 4993SOL    HW126615   3.719   0.654   5.560 -1.4565  0.2175 -2.1472
 4993SOL    HW226616   3.790   0.525   5.584  0.1687  0.5214  0.4861
 4994SOL     OW26617   2.887   0.764   0.558 -0.8340  0.0939  0.0928
 4994SOL    HW126618   2.921   0.853   0.548 -1.0144  0.2372  0.7473
 4994SOL    HW226619   2.932   0.720   0.486  0.0738 -0.9708  1.3091
 4995SOL     OW26620   1.018   0.063  16.825 -0.0693  0.7151 -0.8782
 4995SOL    HW126621   1.021   0.048  16.920  1.3439  0.1968 -1.0073
 4995SOL    HW226622   1.100   0.109  16.808  1.0916 -0.5985  1.1666
 4996SOL     OW26623   2.558   0.101   5.044 -0.0739  0.9277  0.1035
 4996SOL    HW126624   2.523   0.022   5.004  3.3553 -0.2403 -0.5738
 4996SOL    HW226625   2.614   0.053   5.105 -0.3205 -0.0597 -0.4495
 4997SOL     OW26626   0.795   3.394   0.800  0.4153  0.1913  0.4244
 4997SOL    HW126627   0.715   3.391   0.748  1.2579 -0.2282 -0.8412
 4997SOL    HW226628   0.862   3.372   0.735  0.1025  1.6208 -0.3940
 4998SOL     OW26629   3.908   2.735   5.991  0.2256 -0.1734  0.2932
 4998SOL    HW126630   3.847   2.760   6.061  0.2147 -0.2219  0.3003
 4998SOL    HW226631   3.907   2.815   5.937  3.2207 -1.3848 -1.5397
 4999SOL     OW26632   1.313   1.857  14.413  0.4449 -0.1502  0.2067
 4999SOL    HW126633   1.265   1.830  14.335 -0.2605 -1.1693  0.9995
 4999SOL    HW226634   1.360   1.937  14.388  1.0649 -0.5848 -0.0195
 5000SOL     OW26635   4.708   3.470   6.345  0.4835  0.6590 -0.3018
 5000SOL    HW126636   4.626   3.439   6.382  0.1344  0.2115 -1.4556
 5000SOL    HW226637   4.681   3.560   6.325  1.1567 -0.0710 -4.4678
 5001SOL     OW26638   0.383   0.166   2.732  0.2881 -0.4830  0.2793
 5001SOL    HW126639   0.399   0.219   2.654 -0.6060 -2.2382 -1.0941
 5001SOL    HW226640   0.362   0.081   2.695 -0.0396  0.3777 -1.5102
 5002SOL     OW26641   0.438   3.144   8.623 -0.0413  0.4269 -0.0912
 5002SOL    HW126642   0.382   3.221   8.614 -1.0585 -0.0866  1.8234
 5002SOL    HW226643   0.392   3.122   8.704 -0.1062  1.6934  0.2180
 5003SOL     OW26644   1.180   3.676   8.691 -0.3652 -0.7733 -0.0083
 5003SOL    HW126645   1.204   3.767   8.710 -2.4283 -0.4901  1.2225
 5003SOL    HW226646   1.126   3.661   8.768  0.3029 -2.8683  0.0481
 5004SOL     OW26647   0.369   0.229   8.666 -0.1445 -0.2246 -0.1733
 5004SOL    HW126648   0.386   0.200   8.755 -0.2694  1.3614  0.3638
 5004SOL    HW226649   0.451   0.271   8.642 -0.2893  1.4082  2.1394
 5005SOL     OW26650   0.801   2.163   4.569 -0.1488 -0.1644  0.4071
 5005SOL    HW126651   0.750   2.128   4.642 -0.8174  0.7604  0.3787
 5005SOL    HW226652   0.835   2.083   4.529 -0.3053  0.6850 -1.4341
 5006SOL     OW26653   1.204   2.830   2.704 -0.1840  0.5044 -0.0826
 5006SOL    HW126654   1.129   2.775   2.727 -0.3001  0.5716 -0.3048
 5006SOL    HW226655   1.201   2.821   2.609  1.9667 -0.6008 -0.0561
 5007SOL     OW26656   1.564   4.088   0.691 -0.2642  0.0469  0.6936
 5007SOL    HW126657   1.650   4.049   0.706 -0.8978 -1.4394  0.4911
 5007SOL    HW226658   1.508   4.030   0.639 -1.0453 -1.6418  3.4405
 5008SOL     OW26659   0.178   2.034   4.838 -0.2699 -0.5645  0.1553
 5008SOL    HW126660   0.218   2.120   4.828 -1.8061  0.1805  0.4067
 5008SOL    HW226661   0.194   1.999   4.751 -0.6161  2.5551 -1.1678
 5009SOL     OW26662   0.353   0.638   0.266 -0.0400  0.4631 -0.3424
 5009SOL    HW126663   0.427   0.627   0.206  1.2608  0.8041  1.1880
 5009SOL    HW226664   0.392   0.686   0.339 -0.2690  2.1212 -1.3274
 5010SOL     OW26665   2.410   1.339   3.674  0.0978 -0.0085  0.1740
 5010SOL    HW126666   2.399   1.295   3.590  1.1218  0.0386  0.0185
 5010SOL    HW226667   2.497   1.307   3.697 -0.8874 -2.0725  1.1057
 5011SOL     OW26668   1.492   3.295   7.736 -0.5393 -0.2311 -0.7250
 5011SOL    HW126669   1.444   3.287   7.818 -0.3146 -1.2400 -0.6907
 5011SOL    HW226670   1.424   3.279   7.671 -2.0020 -1.8353  1.2171
 5012SOL     OW26671   1.096   1.751   2.628  0.6929  0.1024  0.1277
 5012SOL    HW126672   1.161   1.791   2.571 -0.3567 -1.0538 -1.9015
 5012SOL    HW226673   1.145   1.704   2.695 -2.3397 -2.5675  0.4728
 5013SOL     OW26674   4.130   4.368  13.305  0.0453 -0.1539 -0.3662
 5013SOL    HW126675   4.182   4.361  13.384  0.5089  2.2490 -0.4578
 5013SOL    HW226676   4.059   4.424  13.338  2.1818  2.1856  0.2224
 5014SOL     OW26677   1.407   4.500   2.031  0.3666  0.1197  0.0501
 5014SOL    HW126678   1.387   4.409   2.007  1.3576 -0.0729 -0.0421
 5014SOL    HW226679   1.329   4.537   1.991  0.1467  0.5965  0.9331
 5015SOL     OW26680   0.137   4.564   8.711  0.0418  0.1691 -0.1104
 5015SOL    HW126681   0.158   4.626   8.780  0.9686  1.1924 -1.3259
 5015SOL    HW226682   0.043   4.579   8.712  0.1185  0.6573 -0.3031
 5016SOL     OW26683   1.781   0.053   1.653  0.1417 -0.0026  0.7079
 5016SOL    HW126684   1.799   4.700   1.682  0.8762  0.3807  1.4314
 5016SOL    HW226685   1.865   0.099   1.658  0.1917 -0.0717  0.4745
 5017SOL     OW26686   3.109   4.018   5.538  0.5424  0.4053 -0.0069
 5017SOL    HW126687   3.180   3.987   5.593 -2.1130 -0.2078  3.0290
 5017SOL    HW226688   3.125   3.954   5.468  1.1873  0.9897 -0.3990
 5018SOL     OW26689   3.414   0.624   5.738 -0.4136  0.2256 -0.2470
 5018SOL    HW126690   3.453   0.558   5.796 -0.3466 -0.6283 -1.2677
 5018SOL    HW226691   3.461   0.704   5.760 -0.3333 -0.8861  3.5945
 5019SOL     OW26692   2.960   0.917  16.145  0.3210  0.0251 -0.2646
 5019SOL    HW126693   3.023   0.990  16.142 -1.7647  1.7641 -1.2515
 5019SOL    HW226694   2.989   0.864  16.071 -0.0619 -1.0625  0.3620
 5020SOL     OW26695   1.742   2.633   4.144  0.4775  0.1820  0.0931
 5020SOL    HW126696   1.785   2.640   4.058 -0.0587 -0.1297 -0.2048
 5020SOL    HW226697   1.656   2.672   4.131  0.5092 -0.3363 -1.7715
 5021SOL     OW26698   0.706   1.223   6.020  0.1909 -1.0821  0.2505
 5021SOL    HW126699   0.778   1.229   5.958  0.2140 -0.6662  0.3173
 5021SOL    HW226700   0.731   1.295   6.079  1.1203  0.1066 -1.6186
 5022SOL     OW26701   0.073   3.975   2.357  0.0613  0.2694 -0.2583
 5022SOL    HW126702   0.027   3.892   2.366  1.9954 -0.6598  0.9422
 5022SOL    HW226703   0.024   4.030   2.418  1.3145  1.8372 -0.6642
 5023SOL     OW26704   0.121   4.719   1.893 -0.0856 -0.2194 -0.0634
 5023SOL    HW126705   0.102   0.007   1.802 -1.1496  1.2788  0.5748
 5023SOL    HW226706   0.040   4.725   1.944  0.5384  0.4105  0.8452
 5024SOL     OW26707   4.088   1.437   7.011  0.9879  0.1670  0.6062
 5024SOL    HW126708   4.015   1.494   6.989  0.0370 -0.0088  3.3566
 5024SOL    HW226709   4.169   1.486   6.993 -0.0799  2.6627  2.6469
 5025SOL     OW26710   2.195   3.299   6.604 -0.0371 -0.5894  0.0968
 5025SOL    HW126711   2.201   3.264   6.693 -2.0827  0.9547  0.8382
 5025SOL    HW226712   2.204   3.217   6.555  0.7940 -0.4403  0.0082
 5026SOL     OW26713   3.240   4.463   8.650 -0.7341  0.6698 -0.5143
 5026SOL    HW126714   3.280   4.542   8.615  1.2263  0.0807  0.3899
 5026SOL    HW226715   3.290   4.464   8.732  1.9225 -0.3180 -2.1550
 5027SOL     OW26716   2.224   4.587   4.286 -0.3701  0.3867 -0.0770
 5027SOL    HW126717   2.239   4.653   4.355  0.0628 -1.3128  1.4609
 5027SOL    HW226718   2.228   4.503   4.331  2.5407  0.3728 -0.3729
 5028SOL     OW26719   3.290   4.319   4.421 -0.0294  0.1532 -0.3206
 5028SOL    HW126720   3.372   4.286   4.457 -0.8511 -0.8359  0.6178
 5028SOL    HW226721   3.311   4.343   4.330  0.3831 -1.7473 -0.7204
 5029SOL     OW26722   0.673   1.935   5.587 -0.1848 -0.5775  0.2125
 5029SOL    HW126723   0.655   1.927   5.681  3.1678  3.1602  1.1700
 5029SOL    HW226724   0.588   1.901   5.557 -0.9750 -0.6689  2.5453
 5030SOL     OW26725   3.241   2.504  17.351 -0.1433  0.2497  0.0231
 5030SOL    HW126726   3.163   2.547  17.385 -0.4702  0.1359 -0.5813
 5030SOL    HW226727   3.207   2.440  17.288  0.1129 -0.1954  0.3355
 5031SOL     OW26728   0.208   3.018   9.254  0.0953 -0.3722  0.4344
 5031SOL    HW126729   0.146   2.945   9.256 -3.1360  2.2980 -0.8771
 5031SOL    HW226730   0.195   3.058   9.340 -1.0903 -0.3165  0.2384
 5032SOL     OW26731   1.249   1.763   3.752 -0.1632 -0.1301 -0.0506
 5032SOL    HW126732   1.192   1.760   3.829  1.5316  0.6663  1.2088
 5032SOL    HW226733   1.333   1.754   3.797 -0.3777 -0.1917  0.3383
 5033SOL     OW26734   3.713   1.105   6.702 -0.5628  0.6046 -0.2889
 5033SOL    HW126735   3.680   1.022   6.666  0.0137  0.2253  0.0735
 5033SOL    HW226736   3.650   1.129   6.770 -0.6264  0.8664 -0.4401
 5034SOL     OW26737   4.188   4.297  13.056 -0.2845  0.0491 -0.7168
 5034SOL    HW126738   4.195   4.322  13.149  4.1042 -0.2207 -0.9639
 5034SOL    HW226739   4.117   4.234  13.049  0.3751 -0.7062 -0.5686
 5035SOL     OW26740   2.044   4.582  12.655  0.1792  0.6682 -0.2821
 5035SOL    HW126741   1.964   4.550  12.696  0.7811  1.4221  1.5067
 5035SOL    HW226742   2.067   4.645  12.723  1.3402 -1.0379  0.9130
 5036SOL     OW26743   1.427   3.274   6.788 -0.2512 -0.1214  0.0814
 5036SOL    HW126744   1.437   3.204   6.852  0.5028 -0.4130 -0.3525
 5036SOL    HW226745   1.362   3.248   6.723  1.0817 -2.6365 -0.2562
 5037SOL     OW26746   1.758   4.677   9.266 -0.3546  0.8563  0.2614
 5037SOL    HW126747   1.710   0.022   9.255  0.6432  1.3045 -0.8207
 5037SOL    HW226748   1.791   4.692   9.355 -3.2578  2.2741  1.0770
 5038SOL     OW26749   2.603   2.758   7.512  0.7867 -0.1901  0.6958
 5038SOL    HW126750   2.666   2.730   7.446 -1.0127 -2.5115 -0.0389
 5038SOL    HW226751   2.661   2.775   7.587  1.4795 -2.1701  0.6092
 5039SOL     OW26752   3.768   4.630   8.449 -1.0890  0.3650  0.8689
 5039SOL    HW126753   3.751   4.578   8.527 -0.6937  0.7862  1.2362
 5039SOL    HW226754   3.811   4.572   8.386 -1.4872 -0.1722  1.0991
 5040SOL     OW26755   1.382   0.425   9.120  0.4752 -0.3973 -0.2236
 5040SOL    HW126756   1.426   0.464   9.195 -0.7454 -0.7796  0.7040
 5040SOL    HW226757   1.310   0.484   9.094  1.6405  0.5851 -1.1967
 5041SOL     OW26758   4.176   4.681   2.526 -0.0501 -0.5006 -0.1533
 5041SOL    HW126759   4.209   0.033   2.514 -1.2078 -0.0032  0.3472
 5041SOL    HW226760   4.084   4.708   2.532  0.1783 -0.0119  1.0978
 5042SOL     OW26761   4.139   4.204   8.309 -0.1796 -0.4469  0.0190
 5042SOL    HW126762   4.226   4.243   8.321  0.3127 -1.5598  0.0714
 5042SOL    HW226763   4.101   4.247   8.386 -0.9278 -0.2959 -0.4399
 5043SOL     OW26764   4.129   0.206   7.542 -0.3825 -0.5023  0.3587
 5043SOL    HW126765   4.143   0.170   7.454  0.9506  1.6558 -0.3184
 5043SOL    HW226766   4.157   0.297   7.531 -1.0403 -0.0269  2.6621
 5044SOL     OW26767   2.887   2.667   8.557 -0.3208 -0.0476 -0.4797
 5044SOL    HW126768   2.912   2.756   8.531  1.1282 -0.0681  0.8278
 5044SOL    HW226769   2.946   2.644   8.628 -2.2085 -1.3989  0.6308
 5045SOL     OW26770   1.733   1.384   2.137  0.4769 -0.0033 -0.1741
 5045SOL    HW126771   1.789   1.433   2.075  1.7741 -0.1050  0.9130
 5045SOL    HW226772   1.796   1.320   2.170 -0.5436 -0.6379  0.5255
 5046SOL     OW26773   0.683   4.554   9.009  0.3832  0.4706  0.1151
 5046SOL    HW126774   0.651   4.507   8.931  0.5716  1.2455 -0.4318
 5046SOL    HW226775   0.738   4.622   8.971  0.5430 -0.5439 -1.5065
 5047SOL     OW26776   1.249   2.591  16.935  0.3842  0.4727 -0.9594
 5047SOL    HW126777   1.237   2.610  17.028  0.7893 -0.9998 -0.6111
 5047SOL    HW226778   1.185   2.522  16.917  0.2616 -0.2124  2.2270
 5048SOL     OW26779   3.282   2.946  16.839  0.0680  0.1577 -0.0229
 5048SOL    HW126780   3.346   2.939  16.910  0.7379 -0.5602 -0.6988
 5048SOL    HW226781   3.341   2.998  16.785 -2.2406  2.3298 -0.4681
 5049SOL     OW26782   3.066   4.279   3.966 -0.3832 -0.1657 -0.0804
 5049SOL    HW126783   3.093   4.265   3.876  1.4146  0.6394  0.3262
 5049SOL    HW226784   3.068   4.375   3.974  0.3154 -0.1717 -0.1796
 5050SOL     OW26785   3.506   3.360   3.915  0.2036  0.3229 -0.7190
 5050SOL    HW126786   3.589   3.396   3.886  1.1893 -0.4601  1.1325
 5050SOL    HW226787   3.474   3.415   3.987 -0.8922 -1.1970 -0.0261
 5051SOL     OW26788   3.621   4.441   5.806  0.0127 -0.2726 -0.2480
 5051SOL    HW126789   3.603   4.456   5.713 -0.7564  1.1416  0.1270
 5051SOL    HW226790   3.694   4.379   5.803  1.3833  1.2572  1.5870
 5052SOL     OW26791   0.157   2.380   5.498 -0.4873  0.0261 -0.1372
 5052SOL    HW126792   0.193   2.317   5.435  0.5286  0.9337 -0.4725
 5052SOL    HW226793   0.062   2.371   5.494 -0.3828 -1.1322 -0.2232
 5053SOL     OW26794   4.130   0.077   2.880 -0.5115  0.5922  0.4690
 5053SOL    HW126795   4.163   4.727   2.905 -0.6024  1.2869  3.0268
 5053SOL    HW226796   4.212   0.125   2.880  0.1385 -0.5144  0.1004
 5054SOL     OW26797   1.798   0.175   7.603  0.2699  0.4363  0.3506
 5054SOL    HW126798   1.703   0.185   7.594  0.4426  0.4817 -1.2850
 5054SOL    HW226799   1.824   0.119   7.530 -3.2366 -0.5843 -0.1517
 5055SOL     OW26800   0.304   0.321   5.066  0.2635 -0.3123  0.7787
 5055SOL    HW126801   0.318   0.335   5.160 -1.2435  3.6661  0.4190
 5055SOL    HW226802   0.354   0.393   5.029  0.3064 -0.4072  0.6522
 5056SOL     OW26803   3.910   0.634   6.379 -0.4853  0.1743  0.7079
 5056SOL    HW126804   3.884   0.688   6.453  0.5150  0.2066  1.0324
 5056SOL    HW226805   3.917   0.551   6.425 -0.4660 -0.1664  0.0933
 5057SOL     OW26806   4.579   3.267   9.818 -0.0497 -0.0701 -0.0214
 5057SOL    HW126807   4.659   3.217   9.835  0.3118  0.8866  1.0763
 5057SOL    HW226808   4.612   3.343   9.865 -0.0047  0.4382 -0.8737
 5058SOL     OW26809   3.044   1.833   1.982 -0.2293 -0.3975 -0.2297
 5058SOL    HW126810   3.008   1.837   2.071  1.9012  2.6278  0.4972
 5058SOL    HW226811   3.035   1.925   1.957  1.1836 -0.3960 -0.6890
 5059SOL     OW26812   3.320   2.658   8.763  0.0455 -0.0816  0.2932
 5059SOL    HW126813   3.345   2.750   8.757 -0.9134  0.0020 -2.5282
 5059SOL    HW226814   3.282   2.657   8.851 -1.6103 -1.3092 -0.4163
 5060SOL     OW26815   4.184   2.785   2.236  0.0123 -0.3961  0.1643
 5060SOL    HW126816   4.166   2.744   2.151 -1.0557 -0.4003  0.3947
 5060SOL    HW226817   4.258   2.842   2.215  0.2460 -0.3738  1.0439
 5061SOL     OW26818   2.503   0.746   3.852  0.0095 -0.1502  0.0475
 5061SOL    HW126819   2.458   0.677   3.901  0.5236 -2.2427 -2.3692
 5061SOL    HW226820   2.468   0.722   3.766  0.6762  1.8225 -0.7756
 5062SOL     OW26821   4.239   0.458   0.548  0.0906  0.8020 -0.3797
 5062SOL    HW126822   4.261   0.414   0.466  0.5133 -1.0275  0.7221
 5062SOL    HW226823   4.145   0.475   0.546  0.3442  2.2150 -0.6564
 5063SOL     OW26824   3.042   1.725   3.920  0.1725 -0.0642  0.1859
 5063SOL    HW126825   3.136   1.706   3.920  0.8171  3.0949 -1.3501
 5063SOL    HW226826   3.047   1.806   3.869  0.9817 -1.0506 -1.2971
 5064SOL     OW26827   1.725   0.774   7.054 -0.0601  0.2480 -0.1101
 5064SOL    HW126828   1.742   0.680   7.063  2.8759  0.9232  1.2052
 5064SOL    HW226829   1.794   0.810   7.110 -0.3915 -1.5423  1.4805
 5065SOL     OW26830   3.934   4.039   0.247  0.1396 -0.3776  0.3555
 5065SOL    HW126831   3.966   4.109   0.305 -0.2663 -1.2468  1.6186
 5065SOL    HW226832   3.945   3.967   0.309 -0.1840  1.6061  2.7502
 5066SOL     OW26833   0.951   0.836  17.722 -0.0718  0.2336 -0.0850
 5066SOL    HW126834   0.949   0.914   0.033  4.4602 -1.4269  2.3398
 5066SOL    HW226835   1.037   0.806   0.006  0.0121 -0.1276 -0.7145
 5067SOL     OW26836   0.862   1.089   5.251 -0.0478  0.3286 -0.0978
 5067SOL    HW126837   0.784   1.092   5.305 -1.0544 -0.5862 -1.4807
 5067SOL    HW226838   0.913   1.163   5.284  0.2705  0.1241 -0.1274
 5068SOL     OW26839   1.773   2.156  11.062  0.5161 -0.0731 -0.0446
 5068SOL    HW126840   1.831   2.097  11.014  1.3742 -0.6090  1.6383
 5068SOL    HW226841   1.684   2.127  11.041  0.0168  0.7552  0.9131
 5069SOL     OW26842   0.151   0.086  13.518  0.8003  0.1210  0.2701
 5069SOL    HW126843   0.074   0.119  13.471  0.0112 -3.4504 -0.9537
 5069SOL    HW226844   0.133   0.108  13.609  0.4124  0.3347  0.1414
 5070SOL     OW26845   3.444   1.748  15.627  0.3880 -0.7672  0.8484
 5070SOL    HW126846   3.380   1.786  15.687 -1.1855 -0.9677 -0.6892
 5070SOL    HW226847   3.413   1.782  15.543  1.6918  0.2196  0.7636
 5071SOL     OW26848   0.596   2.103   2.753 -0.3599 -0.7044 -0.0900
 5071SOL    HW126849   0.655   2.075   2.823  1.0987 -0.5649 -1.2825
 5071SOL    HW226850   0.534   2.167   2.790  1.2580  1.9243 -1.9137
 5072SOL     OW26851   1.905   2.049   7.339 -0.5127  0.2581  0.2810
 5072SOL    HW126852   1.910   2.034   7.434 -0.5183  0.5366  0.3241
 5072SOL    HW226853   1.816   2.082   7.328 -1.4961 -2.5581 -0.3271
 5073SOL     OW26854   1.334   1.378  16.517  0.3514 -0.2755 -1.2993
 5073SOL    HW126855   1.319   1.470  16.539 -1.1157 -0.8739  0.2436
 5073SOL    HW226856   1.248   1.348  16.489 -1.3094  2.8272  0.5148
 5074SOL     OW26857   4.355   2.906   9.876  0.8716  0.0248 -0.0492
 5074SOL    HW126858   4.397   2.824   9.900 -2.4578 -1.1229  1.9355
 5074SOL    HW226859   4.348   2.938   9.966 -1.8083 -1.4952  0.2980
 5075SOL     OW26860   1.981   0.740   8.937 -0.7982  0.1363 -0.2157
 5075SOL    HW126861   1.977   0.714   9.029 -1.1208 -1.2685 -0.6282
 5075SOL    HW226862   1.940   0.827   8.934  2.0815  1.5057 -0.0938
 5076SOL     OW26863   1.317   0.230   3.167  0.3730 -0.1828 -0.1675
 5076SOL    HW126864   1.363   0.173   3.105  0.2140 -2.4723  1.8339
 5076SOL    HW226865   1.249   0.256   3.104  0.0961  1.6455  0.8783
 5077SOL     OW26866   3.552   2.694  11.223 -0.5584  0.0825 -0.1040
 5077SOL    HW126867   3.503   2.670  11.301  0.8883  1.3307  1.1920
 5077SOL    HW226868   3.601   2.617  11.195 -0.1958  0.4639 -0.5198
 5078SOL     OW26869   3.644   1.472   7.380 -0.1327 -0.0641 -0.6725
 5078SOL    HW126870   3.692   1.416   7.440 -2.0435 -0.5087  0.4590
 5078SOL    HW226871   3.612   1.403   7.321 -1.7765 -0.1415  0.2873
 5079SOL     OW26872   0.709   2.783   6.829  0.0403  0.0630 -0.1430
 5079SOL    HW126873   0.742   2.765   6.741 -1.7471  2.5615 -1.3491
 5079SOL    HW226874   0.788   2.821   6.866 -0.6858  0.4822  0.9746
 5080SOL     OW26875   0.189   4.672   9.427  0.3421 -0.0199  0.5265
 5080SOL    HW126876   0.126   4.686   9.499  0.5805  2.8946  0.1784
 5080SOL    HW226877   0.241   0.013   9.450  1.5633 -0.2998 -1.3486
 5081SOL     OW26878   0.207   3.658   3.101  0.0806  0.3733  0.0686
 5081SOL    HW126879   0.171   3.640   3.188  1.3607  0.4695  0.6215
 5081SOL    HW226880   0.226   3.570   3.070 -2.6718 -0.4874  0.8344
 5082SOL     OW26881   0.087   1.040   2.677 -0.3741  0.0579 -0.1714
 5082SOL    HW126882   0.178   1.010   2.684 -0.6294 -0.3086  1.6087
 5082SOL    HW226883   0.060   1.040   2.769  0.1395 -1.0343 -0.0184
 5083SOL     OW26884   3.521   3.962  12.382  0.3964 -0.8978  0.4011
 5083SOL    HW126885   3.581   4.035  12.370 -0.1095 -0.3291  1.2673
 5083SOL    HW226886   3.477   3.961  12.297  0.3883 -0.1571  0.3957
 5084SOL     OW26887   4.124   2.033   8.970  0.2326 -0.2028 -0.7289
 5084SOL    HW126888   4.142   1.975   8.896 -0.1517  0.1728 -1.1137
 5084SOL    HW226889   4.213   2.040   9.005 -1.0246  4.6468  1.5124
 5085SOL     OW26890   4.243   0.884  12.935 -0.7257  0.3158  0.3480
 5085SOL    HW126891   4.289   0.966  12.917 -1.1985  0.8064  1.3634
 5085SOL    HW226892   4.273   0.867  13.025  0.3288  2.1432  0.3474
 5086SOL     OW26893   0.508   2.313   4.289 -0.1643 -0.2136  0.1300
 5086SOL    HW126894   0.509   2.299   4.384  0.2001  1.9244  0.4531
 5086SOL    HW226895   0.475   2.401   4.275 -2.8555 -1.7087 -2.7275
 5087SOL     OW26896   1.139   2.484   5.902  0.2389 -0.3559  0.0868
 5087SOL    HW126897   1.082   2.410   5.919 -2.0730  0.7704 -2.8729
 5087SOL    HW226898   1.196   2.459   5.829 -1.6198  2.5009 -2.3447
 5088SOL     OW26899   2.820   4.074   8.661 -0.7058  0.0030  0.1101
 5088SOL    HW126900   2.907   4.099   8.628 -0.5836  1.0291  1.1874
 5088SOL    HW226901   2.791   4.155   8.703  1.5679  0.5755  0.6215
 5089SOL     OW26902   4.018   2.566   5.105  0.0447 -0.6781 -0.6354
 5089SOL    HW126903   4.051   2.636   5.161  1.4113 -2.6997  1.0457
 5089SOL    HW226904   3.932   2.564   5.145  0.1417  1.8585 -0.3261
 5090SOL     OW26905   4.068   4.417  15.171  0.5090  0.0474  0.0362
 5090SOL    HW126906   4.067   4.498  15.119 -4.1312  0.2008  0.3630
 5090SOL    HW226907   4.074   4.347  15.106 -0.1064 -0.7343  0.8352
 5091SOL     OW26908   0.874   4.101   4.593  0.1039  0.4998  0.1993
 5091SOL    HW126909   0.811   4.170   4.615  0.5395  0.9133  0.1503
 5091SOL    HW226910   0.952   4.145   4.626  1.0054 -0.5492 -0.5067
 5092SOL     OW26911   2.906   2.700   2.744  0.0711 -0.6036 -0.1209
 5092SOL    HW126912   2.966   2.761   2.787 -1.2968  0.2155  0.6332
 5092SOL    HW226913   2.869   2.645   2.814 -0.0444 -0.2897  0.0677
 5093SOL     OW26914   4.191   3.590  10.687 -0.5204 -0.2591  0.0716
 5093SOL    HW126915   4.125   3.659  10.690 -1.1561 -0.8693  0.0324
 5093SOL    HW226916   4.241   3.610  10.766 -0.3957 -0.7942  0.1304
 5094SOL     OW26917   0.437   2.818   5.002  0.1683  0.1954  0.5988
 5094SOL    HW126918   0.377   2.784   5.068 -2.7887 -1.3840 -2.8839
 5094SOL    HW226919   0.384   2.793   4.926  0.4742 -2.0722  1.1417
 5095SOL     OW26920   1.022   1.031  12.692 -0.4607  0.0225 -0.8173
 5095SOL    HW126921   1.048   1.073  12.774 -0.0023 -0.4074 -0.7428
 5095SOL    HW226922   1.025   1.111  12.640  1.2776 -0.5151 -1.5597
 5096SOL     OW26923   0.405   0.504  12.632 -0.3957  0.5024  0.7767
 5096SOL    HW126924   0.440   0.437  12.573  0.7680  0.8541  1.0661
 5096SOL    HW226925   0.420   0.585  12.584  0.0178  1.8063  3.0642
 5097SOL     OW26926   0.337   2.694   8.337  0.0546  0.2822 -0.6195
 5097SOL    HW126927   0.388   2.771   8.310 -1.0036  1.3823  0.5351
 5097SOL    HW226928   0.392   2.621   8.308 -0.9826 -0.5949 -0.3382
 5098SOL     OW26929   2.953   1.868  16.621  0.1756 -0.5019 -0.1151
 5098SOL    HW126930   2.882   1.847  16.682  0.1959 -1.0206 -0.2742
 5098SOL    HW226931   2.908   1.855  16.538  1.6878 -1.7970 -0.7202
 5099SOL     OW26932   1.331   2.256   2.875 -0.0884  0.2933  0.2683
 5099SOL    HW126933   1.255   2.314   2.882 -0.0393  0.3762  0.1109
 5099SOL    HW226934   1.297   2.166   2.880  0.6441 -0.0462 -0.8779
 5100SOL     OW26935   0.778   2.668   4.050  1.1668 -0.2200  0.2288
 5100SOL    HW126936   0.691   2.709   4.044  0.9749 -0.9920 -2.4027
 5100SOL    HW226937   0.825   2.740   4.009 -0.3715  0.7279  0.1100
 5101SOL     OW26938   4.630   0.583   4.414 -0.0909 -0.7718  0.5908
 5101SOL    HW126939   4.702   0.572   4.351 -1.3920  1.4467 -1.2568
 5101SOL    HW226940   4.576   0.506   4.395  0.4845 -1.1503  0.4549
 5102SOL     OW26941   3.092   0.142   2.597 -0.6286  0.0740  0.2182
 5102SOL    HW126942   3.057   0.224   2.633 -0.7609  0.2972 -0.4178
 5102SOL    HW226943   3.016   0.122   2.543 -1.6640  1.2319  1.2387
 5103SOL     OW26944   1.819   3.870  15.463  0.9196 -0.6771 -0.5889
 5103SOL    HW126945   1.888   3.930  15.491  0.6332 -1.2366  1.2976
 5103SOL    HW226946   1.789   3.836  15.547  1.0401 -1.2919 -0.7944
 5104SOL     OW26947   1.675   0.748   1.649  0.0542  0.0478  0.2129
 5104SOL    HW126948   1.744   0.747   1.583  1.7704 -0.3601  2.0432
 5104SOL    HW226949   1.717   0.683   1.705  2.8158 -0.4748 -2.4354
 5105SOL     OW26950   3.861   2.255  17.297  0.1977  0.0215  0.3735
 5105SOL    HW126951   3.837   2.165  17.276  1.4285 -0.3178  0.4298
 5105SOL    HW226952   3.949   2.253  17.335 -0.3842 -0.4891  1.6673
 5106SOL     OW26953   3.644   0.189   5.172  0.2673 -0.2188 -1.0019
 5106SOL    HW126954   3.691   0.169   5.252 -0.1151  0.3091 -0.6381
 5106SOL    HW226955   3.674   0.279   5.158 -0.4677  0.2879  0.6958
 5107SOL     OW26956   1.435   2.029   0.753 -0.2042 -0.1483 -0.6294
 5107SOL    HW126957   1.477   1.944   0.739  2.6990  1.5533 -2.1521
 5107SOL    HW226958   1.445   2.067   0.666 -0.6627 -1.4482 -1.2501
 5108SOL     OW26959   3.402   1.369   4.093 -0.0374  0.0755 -1.0874
 5108SOL    HW126960   3.469   1.437   4.091  2.1988 -2.0931 -0.6859
 5108SOL    HW226961   3.395   1.340   4.002 -0.4528 -1.2232 -0.6377
 5109SOL     OW26962   0.058   1.454   0.310  0.3146 -0.4582 -0.1535
 5109SOL    HW126963   0.127   1.407   0.358 -1.0313 -1.0847  1.1624
 5109SOL    HW226964   0.042   1.538   0.353  1.3917 -0.4492  0.2311
 5110SOL     OW26965   3.764   0.386   9.706 -0.4206  0.4734  0.2713
 5110SOL    HW126966   3.742   0.458   9.764  0.1081  0.1063  0.9225
 5110SOL    HW226967   3.708   0.315   9.736 -0.6708  1.0315  1.0944
 5111SOL     OW26968   0.304   4.735   8.055  0.1903 -0.1473  0.0911
 5111SOL    HW126969   0.308   4.656   8.002  0.7887  1.6253 -2.5046
 5111SOL    HW226970   0.297   4.697   8.143 -2.3877  0.2098  0.0648
 5112SOL     OW26971   2.620   3.431  15.265 -0.4993  0.3940  0.3056
 5112SOL    HW126972   2.641   3.418  15.358 -3.8888  1.3387  1.2111
 5112SOL    HW226973   2.559   3.358  15.256  2.3221 -2.0344  0.7101
 5113SOL     OW26974   4.446   0.352  17.584  0.7149  0.5262  0.1520
 5113SOL    HW126975   4.381   0.358  17.514  1.3793  0.3849 -0.4731
 5113SOL    HW226976   4.513   0.418  17.564 -0.6977  0.9708 -3.0446
 5114SOL     OW26977   1.952   4.223   1.408  0.2423 -0.1213  0.0616
 5114SOL    HW126978   1.958   4.231   1.503 -0.8807  0.6957  0.0613
 5114SOL    HW226979   1.876   4.168   1.390 -1.2260  2.2133 -0.8794
 5115SOL     OW26980   1.931   3.163   7.364  0.3037 -0.0007 -0.0935
 5115SOL    HW126981   1.854   3.220   7.374  0.0588 -0.6941  1.9485
 5115SOL    HW226982   1.924   3.152   7.269 -1.0050 -0.6285  0.0817
 5116SOL     OW26983   3.679   3.392  10.081 -0.1104 -0.1492 -0.6294
 5116SOL    HW126984   3.760   3.433  10.051  0.4030 -1.9737 -1.6908
 5116SOL    HW226985   3.715   3.323  10.138  0.5795  0.2926 -0.5303
 5117SOL     OW26986   4.665   0.584  12.341  0.4871 -0.0310 -0.3392
 5117SOL    HW126987   4.629   0.626  12.262 -2.6951 -2.8959 -0.4162
 5117SOL    HW226988   4.656   0.493  12.314 -1.1230  0.4444 -1.3829
 5118SOL     OW26989   2.411   3.618   2.460  0.1724 -0.4630  0.8187
 5118SOL    HW126990   2.342   3.657   2.407  0.1135 -0.2167  1.0697
 5118SOL    HW226991   2.484   3.612   2.398 -1.8589  1.1669 -1.7271
 5119SOL     OW26992   4.007   3.547   0.714  0.2211  0.6842 -0.8111
 5119SOL    HW126993   3.967   3.543   0.627  0.0937  1.5006 -0.7954
 5119SOL    HW226994   3.923   3.528   0.757  0.5524 -2.7920 -1.6972
 5120SOL     OW26995   1.107   3.002   3.143  0.1369  0.0922 -0.6445
 5120SOL    HW126996   1.079   3.014   3.052 -1.3203  0.4262 -0.1376
 5120SOL    HW226997   1.058   2.925   3.172 -1.8452  1.1795 -1.0951
 5121SOL     OW26998   3.936   4.101   1.996  0.1644 -0.1254 -0.7490
 5121SOL    HW126999   3.865   4.098   2.060  0.6588  0.2764 -0.1764
 5121SOL    HW227000   3.979   4.017   2.012  0.3556  0.4392  1.6213
 5122SOL     OW27001   2.735   1.706   4.611 -0.3562 -0.2988 -0.2704
 5122SOL    HW127002   2.770   1.666   4.690  2.3049  1.3484 -0.6155
 5122SOL    HW227003   2.768   1.649   4.541  0.3514 -0.3908  0.1371
 5123SOL     OW27004   2.367   1.177   3.443  0.0095 -0.4076  0.0858
 5123SOL    HW127005   2.439   1.117   3.421  1.2642 -0.3053  3.8712
 5123SOL    HW227006   2.312   1.109   3.482  0.9014 -1.7033 -0.8815
 5124SOL     OW27007   4.325   1.995   2.192 -0.3072 -0.0458 -0.2814
 5124SOL    HW127008   4.354   1.907   2.169 -0.0440 -0.1867  0.6035
 5124SOL    HW227009   4.289   1.967   2.276 -1.4635 -1.2478 -1.1785
 5125SOL     OW27010   3.186   1.333   5.051  0.4974 -0.7504  0.1940
 5125SOL    HW127011   3.108   1.280   5.069 -0.8957  1.1410 -0.2372
 5125SOL    HW227012   3.236   1.327   5.132 -0.6991  0.1654  1.0150
 5126SOL     OW27013   1.399   3.251   8.625  0.0743  0.4719 -0.1070
 5126SOL    HW127014   1.469   3.185   8.625 -0.4380 -0.0553 -1.7233
 5126SOL    HW227015   1.432   3.312   8.691  2.4790  1.0316 -1.8113
 5127SOL     OW27016   4.006   4.036   4.086  0.5623 -0.6240 -0.3548
 5127SOL    HW127017   3.996   3.991   4.002  0.3542 -0.1221 -0.5981
 5127SOL    HW227018   4.064   3.977   4.134 -0.1088 -0.3574  0.7715
 5128SOL     OW27019   3.847   0.237   8.520  0.0963 -0.1957 -0.5192
 5128SOL    HW127020   3.914   0.180   8.559 -2.8865 -3.5264 -0.2137
 5128SOL    HW227021   3.814   0.190   8.444 -0.0367  0.1046 -0.6468
 5129SOL     OW27022   1.389   3.192   6.238 -0.0518  0.0424  0.0046
 5129SOL    HW127023   1.315   3.134   6.221  1.0500 -0.9673 -1.3540
 5129SOL    HW227024   1.448   3.121   6.213  0.2807  0.6159 -0.8564
 5130SOL     OW27025   0.225   4.363  16.823 -0.1556 -0.6803  0.0680
 5130SOL    HW127026   0.248   4.447  16.862 -1.7009  1.2596 -3.2818
 5130SOL    HW227027   0.188   4.313  16.896  0.9183  0.6194  1.4979
 5131SOL     OW27028   0.469   1.522   8.304  0.3854 -0.2314 -0.1666
 5131SOL    HW127029   0.484   1.551   8.214 -0.7456 -0.4060 -0.4058
 5131SOL    HW227030   0.396   1.463   8.288 -0.1928  0.1703  0.9648
 5132SOL     OW27031   3.930   0.439   7.460  0.3741 -0.4920  0.0302
 5132SOL    HW127032   3.894   0.364   7.415 -1.9811  1.3251 -1.0815
 5132SOL    HW227033   3.858   0.468   7.516  1.3273  0.2851  0.8808
 5133SOL     OW27034   1.004   1.992   8.038  0.2005 -0.5044 -0.1152
 5133SOL    HW127035   0.970   2.080   8.053 -0.6889 -0.6641 -1.2417
 5133SOL    HW227036   0.932   1.936   8.067  0.3408 -0.7700 -0.2689
 5134SOL     OW27037   1.523   3.881   8.149  0.0208 -0.1887 -0.7842
 5134SOL    HW127038   1.446   3.877   8.092 -0.3480  1.5701 -0.4105
 5134SOL    HW227039   1.584   3.826   8.099  0.9950  1.3024 -1.2694
 5135SOL     OW27040   4.253   0.323   3.120 -0.1267 -0.4938 -0.1105
 5135SOL    HW127041   4.286   0.410   3.143  0.2592 -0.3309 -1.2528
 5135SOL    HW227042   4.289   0.304   3.033 -0.5212 -0.8361 -0.1987
 5136SOL     OW27043   0.247   0.096   5.834 -0.3135  0.4593 -0.2475
 5136SOL    HW127044   0.224   0.117   5.744  3.3475 -0.7576 -1.4705
 5136SOL    HW227045   0.330   0.055   5.809  0.0752  0.4396  1.0687
 5137SOL     OW27046   2.233   4.154   4.609  0.3363 -0.0623 -0.5183
 5137SOL    HW127047   2.195   4.088   4.668 -2.1424 -0.3573 -2.4575
 5137SOL    HW227048   2.323   4.130   4.632 -0.1928 -0.6669  0.9144
 5138SOL     OW27049   3.499   4.629   6.139 -0.4545  0.1774 -0.7006
 5138SOL    HW127050   3.405   4.620   6.125 -0.4090 -1.4111 -0.0413
 5138SOL    HW227051   3.512   4.536   6.158  1.1289  0.3462 -0.9089
 5139SOL     OW27052   0.991   1.499   3.558 -0.1886 -0.0536 -0.3794
 5139SOL    HW127053   1.023   1.441   3.627  0.4281 -1.3182 -1.7425
 5139SOL    HW227054   0.991   1.585   3.601  0.1034  0.2439 -0.9772
 5140SOL     OW27055   1.506   1.272   1.060 -0.5056 -0.2657  0.2549
 5140SOL    HW127056   1.487   1.213   0.987  2.0877 -0.7549 -0.0028
 5140SOL    HW227057   1.560   1.215   1.114  0.4935 -0.4161 -0.8944
 5141SOL     OW27058   0.717   0.401   9.642  0.3048 -0.2207  0.2503
 5141SOL    HW127059   0.692   0.402   9.734 -1.7307  1.2666 -0.3150
 5141SOL    HW227060   0.805   0.364   9.647  0.4333 -0.0866 -0.9589
 5142SOL     OW27061   3.556   4.458   5.532  0.0200 -0.0945 -0.1879
 5142SOL    HW127062   3.543   4.532   5.472 -0.1372  1.5283  1.8443
 5142SOL    HW227063   3.646   4.449   5.500 -0.3242  3.1977 -2.0852
 5143SOL     OW27064   2.980   4.471   6.221 -0.4455  0.3613  0.4257
 5143SOL    HW127065   3.038   4.533   6.178 -2.3548  3.0194  1.6264
 5143SOL    HW227066   3.037   4.446   6.293  0.1763  0.1939 -0.1291
 5144SOL     OW27067   1.043   3.561   1.625  0.0648  0.1668 -0.8609
 5144SOL    HW127068   1.094   3.619   1.682 -1.2246  1.8392 -1.4228
 5144SOL    HW227069   0.985   3.525   1.692 -0.9811 -1.1533 -2.4968
 5145SOL     OW27070   1.358   0.607   6.694  0.2986 -0.5801 -0.2721
 5145SOL    HW127071   1.429   0.601   6.759 -0.8288  3.2521  1.3418
 5145SOL    HW227072   1.299   0.671   6.734  0.7076  0.2128 -0.9307
 5146SOL     OW27073   2.436   1.527   0.672  0.0826 -0.7564  0.2487
 5146SOL    HW127074   2.457   1.605   0.723 -1.7268 -0.3506  0.3569
 5146SOL    HW227075   2.363   1.558   0.618  1.4214 -1.4788 -1.9748
 5147SOL     OW27076   2.577   3.546   9.014  0.1732  0.4795  0.3219
 5147SOL    HW127077   2.558   3.622   8.959 -1.2036 -0.6637 -0.7897
 5147SOL    HW227078   2.495   3.548   9.062 -0.0371 -1.6742  0.0864
 5148SOL     OW27079   1.351   0.667   1.944 -0.0328  0.4231 -0.1196
 5148SOL    HW127080   1.356   0.633   1.854 -4.0041 -0.8938  0.1291
 5148SOL    HW227081   1.329   0.590   1.996  0.3778  1.1378  1.0954
 5149SOL     OW27082   0.030   1.819   2.371 -0.4450 -0.2551 -0.3719
 5149SOL    HW127083   0.073   1.896   2.334 -1.7799 -0.6985 -2.8924
 5149SOL    HW227084   0.064   1.763   2.301  1.8474  0.6435  0.0366
 5150SOL     OW27085   1.307   1.924   9.631 -0.2026  0.4312  0.2148
 5150SOL    HW127086   1.354   1.917   9.548  0.6031  0.6366  0.6558
 5150SOL    HW227087   1.233   1.974   9.599  0.6074  2.0585  0.8979
 5151SOL     OW27088   3.324   0.158  15.823  0.5253  0.4114  0.0528
 5151SOL    HW127089   3.367   0.203  15.895  1.3005 -1.3777  0.7122
 5151SOL    HW227090   3.392   0.095  15.798  0.3267 -0.8319  2.6022
 5152SOL     OW27091   0.589   0.285   0.311  0.0453  0.1563  0.1134
 5152SOL    HW127092   0.543   0.278   0.227  3.5467 -0.4863 -1.7438
 5152SOL    HW227093   0.662   0.337   0.276  0.0186  1.2100  1.5935
 5153SOL     OW27094   3.865   2.399   2.216 -0.5505  0.1838  0.7977
 5153SOL    HW127095   3.899   2.312   2.193 -1.5743 -0.1775  0.6505
 5153SOL    HW227096   3.907   2.413   2.300  0.5167 -0.2989  0.3509
 5154SOL     OW27097   2.623   0.074   7.042 -0.6497  0.1279 -0.5253
 5154SOL    HW127098   2.664   0.113   7.119 -1.1159  0.7902 -0.6118
 5154SOL    HW227099   2.601   4.725   7.078  1.8728 -0.3542 -0.1951
 5155SOL     OW27100   2.081   4.044   3.202 -0.1667 -0.0613 -0.0331
 5155SOL    HW127101   2.006   4.104   3.206 -0.7654 -1.0880  3.6554
 5155SOL    HW227102   2.114   4.063   3.114 -0.0598 -2.0204 -0.4184
 5156SOL     OW27103   1.206   1.930  11.277 -0.4780 -0.7050  0.2473
 5156SOL    HW127104   1.167   1.911  11.192  2.3474 -0.5273 -1.0919
 5156SOL    HW227105   1.217   2.025  11.281 -0.9990 -0.5943 -0.9366
 5157SOL     OW27106   1.092   1.405  14.623 -0.2559  0.4494 -0.2220
 5157SOL    HW127107   1.097   1.391  14.718  0.6768  0.0516 -0.3296
 5157SOL    HW227108   1.185   1.400  14.599  0.4055  0.9853  2.2388
 5158SOL     OW27109   4.362   1.348   8.042  0.0497  0.6857 -0.1746
 5158SOL    HW127110   4.306   1.426   8.037  0.2542  0.7786 -1.0933
 5158SOL    HW227111   4.360   1.329   8.136  1.9193 -0.7650 -0.4255
 5159SOL     OW27112   4.641   3.745   2.464 -0.1340  0.4851 -0.5173
 5159SOL    HW127113   4.645   3.655   2.497 -0.8169  0.8286  0.4844
 5159SOL    HW227114   4.571   3.787   2.514  0.0496  0.4267 -0.2174
 5160SOL     OW27115   4.692   3.208  11.125  0.3775 -0.3128  0.1605
 5160SOL    HW127116   4.704   3.227  11.032  1.9785  1.8843  0.8332
 5160SOL    HW227117   4.692   3.112  11.123 -0.4245 -0.3058 -0.4753
 5161SOL     OW27118   3.192   3.428   0.990 -0.0146  0.1073  0.2887
 5161SOL    HW127119   3.173   3.473   0.907  0.4536  1.0570  0.6991
 5161SOL    HW227120   3.276   3.466   1.014  0.9541 -0.7750 -1.7092
 5162SOL     OW27121   0.345   4.549   8.281 -0.5816  0.2104  0.1411
 5162SOL    HW127122   0.315   4.587   8.364 -0.0677 -0.1691  0.4944
 5162SOL    HW227123   0.282   4.477   8.284  2.4728 -2.3357  2.6963
 5163SOL     OW27124   0.798   3.404   6.447 -0.5661 -0.1121  0.0549
 5163SOL    HW127125   0.723   3.345   6.436  0.0377 -0.5339 -1.7940
 5163SOL    HW227126   0.766   3.474   6.390  3.2222  1.1956 -0.4718
 5164SOL     OW27127   1.338   4.116   7.717  0.0153  1.3927 -0.0503
 5164SOL    HW127128   1.372   4.203   7.696 -0.0631  1.5083  0.2923
 5164SOL    HW227129   1.283   4.098   7.641  1.7715 -2.2803 -0.4450
 5165SOL     OW27130   1.262   0.835   0.867 -0.0352  0.1130 -0.3583
 5165SOL    HW127131   1.205   0.775   0.818 -0.2724  0.6913 -0.7838
 5165SOL    HW227132   1.349   0.796   0.868 -0.0456  0.1179  0.9495
 5166SOL     OW27133   1.620   4.306   4.646  0.2847 -0.2482 -0.6383
 5166SOL    HW127134   1.671   4.235   4.605  1.8172  1.3972 -1.5923
 5166SOL    HW227135   1.577   4.259   4.716  1.9001  0.0394  0.5423
 5167SOL     OW27136   4.508   1.359   6.008 -0.2573 -0.0766  0.8205
 5167SOL    HW127137   4.421   1.358   6.048 -0.6292  1.6532  0.0785
 5167SOL    HW227138   4.497   1.282   5.953 -1.0532  0.3732  0.3420
 5168SOL     OW27139   1.912   2.863   6.244 -0.1543  0.2562 -0.1757
 5168SOL    HW127140   1.900   2.861   6.149 -2.1800 -0.9600  0.1055
 5168SOL    HW227141   1.902   2.769   6.254 -1.0266  0.2407 -1.2267
 5169SOL     OW27142   1.523   2.621   9.046  0.1060 -0.3087 -0.1683
 5169SOL    HW127143   1.533   2.634   8.952  3.5603 -0.3438  0.2205
 5169SOL    HW227144   1.432   2.646   9.063  0.2047 -0.3821  0.4744
 5170SOL     OW27145   2.463   2.387   1.279 -0.5136  0.2346  0.3958
 5170SOL    HW127146   2.500   2.351   1.199 -0.1618 -0.6777  0.9762
 5170SOL    HW227147   2.487   2.313   1.334 -2.0404  0.1234  0.9002
 5171SOL     OW27148   1.753   0.809   3.576  0.0225  0.0293 -0.0676
 5171SOL    HW127149   1.810   0.886   3.576 -0.7346  0.6031 -0.8507
 5171SOL    HW227150   1.670   0.857   3.574  0.4308  0.7508  0.3171
 5172SOL     OW27151   1.667   4.547   8.088 -0.2365  0.1411  0.3877
 5172SOL    HW127152   1.619   4.464   8.096  0.7827 -0.7996 -3.5074
 5172SOL    HW227153   1.655   4.582   8.176  0.9412 -0.4713  0.7904
 5173SOL     OW27154   4.026   1.236   7.375 -0.9363  0.2546 -0.3400
 5173SOL    HW127155   4.009   1.146   7.403  2.0954  0.0321  0.7445
 5173SOL    HW227156   4.070   1.273   7.451 -0.9747 -0.6361  0.1094
 5174SOL     OW27157   0.580   2.461   9.325 -0.5213 -0.0690  0.3314
 5174SOL    HW127158   0.590   2.533   9.262  1.0401 -0.6161 -0.0635
 5174SOL    HW227159   0.573   2.386   9.266  1.0095 -0.8133  1.0884
 5175SOL     OW27160   0.600   4.035   5.119 -0.6080  0.1057 -0.4022
 5175SOL    HW127161   0.527   4.076   5.165 -0.5866  0.7007 -0.8941
 5175SOL    HW227162   0.625   3.960   5.173  2.3213  2.5154  1.6171
 5176SOL     OW27163   0.676   2.930   8.998 -0.2125 -0.3564  0.1692
 5176SOL    HW127164   0.768   2.920   9.022 -0.0183 -1.6769 -1.1232
 5176SOL    HW227165   0.655   3.022   9.008  0.8737 -0.1890  0.9119
 5177SOL     OW27166   3.551   3.665   0.954  0.0939  0.4983 -0.0041
 5177SOL    HW127167   3.633   3.715   0.955  1.3045 -1.4868  0.5239
 5177SOL    HW227168   3.494   3.727   1.000  0.3387  1.8092 -1.4700
 5178SOL     OW27169   0.942   0.554   1.704 -0.2993 -0.4595  0.3299
 5178SOL    HW127170   1.023   0.505   1.687  0.4460  1.4954 -1.6499
 5178SOL    HW227171   0.962   0.580   1.794 -3.1261 -0.3274  0.9282
 5179SOL     OW27172   2.716   2.104   1.692 -0.1026  0.0423 -0.3536
 5179SOL    HW127173   2.668   2.123   1.773  1.0902 -1.0375  0.6155
 5179SOL    HW227174   2.661   2.034   1.658  0.2988  0.1977 -1.3205
 5180SOL     OW27175   2.273   3.003   5.037  0.1231  0.2643 -0.4897
 5180SOL    HW127176   2.210   3.052   5.090  1.6125 -0.3467  1.8457
 5180SOL    HW227177   2.309   3.073   4.982  0.2921 -0.0292 -0.7549
 5181SOL     OW27178   3.724   0.988   9.041 -0.1539  0.2793  0.1536
 5181SOL    HW127179   3.688   0.902   9.060  0.1942  0.3941  1.3213
 5181SOL    HW227180   3.807   0.989   9.089  1.3109  1.2512 -2.3537
 5182SOL     OW27181   4.499   4.566   6.943 -0.0244 -0.2141 -0.2524
 5182SOL    HW127182   4.433   4.580   7.011  0.3876 -2.8383  0.6872
 5182SOL    HW227183   4.447   4.523   6.876  0.1561  0.0384 -0.5570
 5183SOL     OW27184   1.647   1.447   5.689 -0.6078  0.3473 -0.9343
 5183SOL    HW127185   1.676   1.361   5.719 -1.4225  0.5824  0.4971
 5183SOL    HW227186   1.588   1.419   5.619 -2.7584  0.7561  0.7267
 5184SOL     OW27187   2.122   0.278   7.265 -0.2586 -0.1354  0.5071
 5184SOL    HW127188   2.040   0.287   7.217 -0.9956  0.0519  1.8350
 5184SOL    HW227189   2.119   0.182   7.273 -2.6511 -0.2560 -1.7150
 5185SOL     OW27190   1.175   1.671   3.033 -0.7856  0.5467  0.0808
 5185SOL    HW127191   1.258   1.655   3.078 -2.5397 -3.2177  2.0142
 5185SOL    HW227192   1.167   1.766   3.037  0.6162  0.8092 -3.3791
 5186SOL     OW27193   3.791   1.705   7.617 -0.8521 -0.5826 -0.3068
 5186SOL    HW127194   3.874   1.749   7.634 -1.0796  0.7631 -2.5896
 5186SOL    HW227195   3.788   1.726   7.523 -0.5334 -1.4050 -0.5016
 5187SOL     OW27196   3.851   4.164  11.859  0.0551  0.1846  0.2026
 5187SOL    HW127197   3.931   4.131  11.900 -0.3278 -1.7615 -0.6382
 5187SOL    HW227198   3.784   4.128  11.917 -1.9774  3.3458 -0.1794
 5188SOL     OW27199   2.696   4.205   1.849  0.3207  0.3311 -0.1266
 5188SOL    HW127200   2.655   4.192   1.934 -0.2858 -0.1025 -0.4867
 5188SOL    HW227201   2.680   4.122   1.805  0.3757 -0.0505  0.5805
 5189SOL     OW27202   2.235   4.409   2.067 -0.2121  0.2137 -0.1291
 5189SOL    HW127203   2.273   4.492   2.038  1.2189 -0.3073  0.2376
 5189SOL    HW227204   2.286   4.397   2.147 -1.2995 -0.1972  0.4925
 5190SOL     OW27205   2.789   1.288  17.694  0.2980  0.1607  0.4529
 5190SOL    HW127206   2.798   1.383  17.689  0.1875  0.4670  5.7897
 5190SOL    HW227207   2.711   1.292   0.004  0.9210  1.0539  1.2699
 5191SOL     OW27208   3.483   2.413   1.780 -0.1928 -0.1700 -0.0463
 5191SOL    HW127209   3.423   2.487   1.790 -0.9056 -0.8319  0.6351
 5191SOL    HW227210   3.542   2.431   1.854  1.7184  0.1581 -1.6568
 5192SOL     OW27211   0.338   3.439   7.288 -0.4725 -0.4682  0.3765
 5192SOL    HW127212   0.272   3.427   7.219 -0.4379  1.4214 -0.0017
 5192SOL    HW227213   0.396   3.367   7.261 -0.7387 -1.0351  1.3197
 5193SOL     OW27214   0.066   4.652  15.351 -0.4401  0.0143 -0.5732
 5193SOL    HW127215   0.039   4.653  15.443 -0.5610  0.3310 -0.6113
 5193SOL    HW227216   0.014   4.585  15.308 -0.8489 -0.1426  0.1648
 5194SOL     OW27217   0.124   4.440   7.720  0.2273  0.1740 -0.0804
 5194SOL    HW127218   0.170   4.446   7.804  0.2072 -1.7597  0.0673
 5194SOL    HW227219   0.143   4.351   7.692 -2.8808 -1.4629  2.9820
 5195SOL     OW27220   4.683   1.523   4.959  0.6111  0.2391 -0.7747
 5195SOL    HW127221   0.012   1.479   4.905 -0.2777 -3.9482  1.5611
 5195SOL    HW227222   4.707   1.614   4.944 -1.1343  1.1226  1.8124
 5196SOL     OW27223   4.052   2.661  14.664  0.3931  0.2865  0.4664
 5196SOL    HW127224   4.112   2.644  14.592  0.7287 -1.5847  1.1974
 5196SOL    HW227225   4.004   2.737  14.632 -0.1838  0.0887  0.8470
 5197SOL     OW27226   1.424   0.176   2.133 -0.2133 -0.3319  0.6618
 5197SOL    HW127227   1.470   0.100   2.098  1.6245  0.0532  2.2479
 5197SOL    HW227228   1.335   0.147   2.110  0.2410 -1.8652  0.8495
 5198SOL     OW27229   3.609   1.922   8.859  0.3420 -0.4982  0.0368
 5198SOL    HW127230   3.627   1.929   8.953 -0.4214  1.8539  0.0199
 5198SOL    HW227231   3.674   1.979   8.818 -0.0809 -0.4145 -0.5109
 5199SOL     OW27232   4.692   0.448   5.679  0.4851 -0.1729 -0.1090
 5199SOL    HW127233   4.636   0.372   5.663  1.1794 -1.1740  2.3284
 5199SOL    HW227234   4.671   0.491   5.596 -0.5595 -2.1404 -0.8672
 5200SOL     OW27235   0.095   0.664   7.284  0.0627  0.1122 -0.6046
 5200SOL    HW127236   0.155   0.649   7.212 -0.6075  0.1977 -1.1811
 5200SOL    HW227237   0.152   0.705   7.350  2.6140 -1.4013 -1.8649
 5201SOL     OW27238   2.960   1.754   3.451  0.1699 -0.8197 -0.3644
 5201SOL    HW127239   2.993   1.744   3.362 -0.0735 -0.4646 -0.4954
 5201SOL    HW227240   2.868   1.780   3.446 -0.5650 -3.6248 -1.4418
 5202SOL     OW27241   1.037   2.240   8.289 -0.4678 -0.0830 -0.3952
 5202SOL    HW127242   1.088   2.300   8.342 -1.0546  0.0636  0.0033
 5202SOL    HW227243   0.968   2.219   8.352  0.7112  0.5109  1.0724
 5203SOL     OW27244   4.556   1.160   8.734  0.2684 -0.3244  0.2764
 5203SOL    HW127245   4.521   1.086   8.686  1.1107 -0.8521  0.4887
 5203SOL    HW227246   4.476   1.208   8.756 -0.8629 -1.3374 -1.6611
 5204SOL     OW27247   3.688   3.707   6.743  0.8434 -0.7166  0.6458
 5204SOL    HW127248   3.639   3.787   6.761  1.9337  0.6599 -2.4287
 5204SOL    HW227249   3.773   3.737   6.774  0.9368  0.0355 -0.3426
 5205SOL     OW27250   2.982   1.303  14.557  0.2114  0.1692 -0.0448
 5205SOL    HW127251   3.052   1.336  14.501  0.5814 -0.6396 -0.0549
 5205SOL    HW227252   2.901   1.325  14.510 -0.6053  0.2349  1.3650
 5206SOL     OW27253   4.297   2.873  16.276  0.3705  0.2482 -0.1551
 5206SOL    HW127254   4.286   2.832  16.362  2.3709 -2.0645 -1.0392
 5206SOL    HW227255   4.362   2.810  16.247 -1.8979 -2.5333  0.7948
 5207SOL     OW27256   3.158   4.003   4.417  0.2155  0.2792  0.0605
 5207SOL    HW127257   3.064   4.021   4.414 -0.0484 -1.1800 -0.2800
 5207SOL    HW227258   3.192   4.038   4.335 -1.5917  3.2414  0.5781
 5208SOL     OW27259   1.943   4.005   0.975 -0.2056 -0.2099 -0.3321
 5208SOL    HW127260   2.004   4.030   1.045  0.0429  1.2557 -1.0733
 5208SOL    HW227261   1.870   3.953   1.008  1.2511 -1.4488  0.9591
 5209SOL     OW27262   1.363   3.863   7.924 -0.8969  0.1041  0.3073
 5209SOL    HW127263   1.283   3.911   7.906 -0.7470 -0.6407 -2.4033
 5209SOL    HW227264   1.386   3.845   7.832 -0.0507 -0.6935  0.6680
 5210SOL     OW27265   0.307   2.073   3.047 -0.6863 -0.4207 -0.4084
 5210SOL    HW127266   0.267   2.159   3.041 -0.5493 -0.2921  0.5561
 5210SOL    HW227267   0.372   2.107   3.108 -0.9268  0.2010 -0.5031
 5211SOL     OW27268   1.638   4.051   3.222  0.7219 -0.0983  0.2268
 5211SOL    HW127269   1.554   4.042   3.178  0.0280 -1.2564  1.7767
 5211SOL    HW227270   1.617   4.020   3.310 -0.4939 -1.9949 -0.7271
 5212SOL     OW27271   2.219   2.696   2.300 -0.0526 -0.0805  0.2495
 5212SOL    HW127272   2.252   2.632   2.363  0.8956  0.4729  0.3163
 5212SOL    HW227273   2.132   2.709   2.337 -0.0759  1.2553 -0.2766
 5213SOL     OW27274   2.836   2.428  12.718 -0.0641 -0.6086 -0.2304
 5213SOL    HW127275   2.749   2.393  12.737  0.7944 -0.6924  3.6421
 5213SOL    HW227276   2.881   2.354  12.676 -0.2307  0.2005 -1.8313
 5214SOL     OW27277   0.708   3.880   1.832  0.7164 -0.4343 -0.0475
 5214SOL    HW127278   0.760   3.803   1.854  1.3898  0.5441  1.7698
 5214SOL    HW227279   0.617   3.855   1.849  0.5490  1.3717  1.7226
 5215SOL     OW27280   1.017   3.220   7.603  0.3566  0.0171 -0.0890
 5215SOL    HW127281   0.976   3.246   7.520 -0.7151  2.3126  1.1756
 5215SOL    HW227282   1.016   3.124   7.595  0.6297  0.0718 -0.8506
 5216SOL     OW27283   0.400   3.279  17.456 -0.0091  0.2191 -0.0292
 5216SOL    HW127284   0.408   3.184  17.466  1.6087  0.3665  0.0984
 5216SOL    HW227285   0.317   3.290  17.409 -0.6152  2.1379  1.5130
 5217SOL     OW27286   4.058   2.050   7.039  0.2270  0.3684  0.7088
 5217SOL    HW127287   4.123   1.991   7.000  1.2558  0.8287  1.7422
 5217SOL    HW227288   4.039   2.008   7.122 -1.3249 -1.4371 -0.5526
 5218SOL     OW27289   0.320   0.039   4.055 -0.2423 -0.0351  0.0871
 5218SOL    HW127290   0.279   4.716   3.992 -0.6565  1.5586 -1.1344
 5218SOL    HW227291   0.390   0.069   3.996 -0.8419  0.5161 -0.3430
 5219SOL     OW27292   0.537   0.249  17.434 -0.6337 -0.1976 -0.1415
 5219SOL    HW127293   0.528   0.154  17.429 -1.1693 -0.2130  1.1778
 5219SOL    HW227294   0.448   0.277  17.415 -0.8944  0.5119  2.1179
 5220SOL     OW27295   2.127   4.228  14.937 -0.6127  0.6400  0.0605
 5220SOL    HW127296   2.114   4.204  15.029  1.3875 -1.9074 -0.3203
 5220SOL    HW227297   2.117   4.144  14.893  0.1891 -0.5791  2.2069
 5221SOL     OW27298   1.699   2.997  17.273 -0.6045  0.1132  0.0458
 5221SOL    HW127299   1.699   3.091  17.289  1.0913  0.2754 -0.9453
 5221SOL    HW227300   1.778   2.966  17.317 -0.8236 -1.5781 -0.7561
 5222SOL     OW27301   2.600   0.544   0.562  0.8340 -0.3402  0.5847
 5222SOL    HW127302   2.621   0.533   0.469  1.9459 -0.2362  0.8235
 5222SOL    HW227303   2.555   0.629   0.566  0.2885 -0.6817  1.7114
 5223SOL     OW27304   3.188   0.636   1.253 -0.2491  0.6840  0.1777
 5223SOL    HW127305   3.162   0.644   1.161 -1.9512  2.1504  0.7889
 5223SOL    HW227306   3.279   0.608   1.242 -1.1361 -2.0038 -0.3414
 5224SOL     OW27307   0.855   3.234   3.925  0.3787  0.3056 -0.2821
 5224SOL    HW127308   0.763   3.220   3.949  0.3822 -1.0309 -1.0340
 5224SOL    HW227309   0.907   3.199   3.997 -0.6070  0.3731  0.4687
 5225SOL     OW27310   2.200   3.484   7.896  0.4856  0.4414 -0.8254
 5225SOL    HW127311   2.295   3.481   7.911  0.1868 -0.0768  0.8500
 5225SOL    HW227312   2.188   3.567   7.848  3.1417  2.1009  1.3747
 5226SOL     OW27313   1.437   0.200   4.351 -0.2357 -0.3412 -0.9882
 5226SOL    HW127314   1.444   0.105   4.359 -0.4734 -0.4100 -1.6137
 5226SOL    HW227315   1.528   0.225   4.367 -0.5729  0.3797 -0.2099
 5227SOL     OW27316   0.078   2.172   6.538 -0.4025  0.1320  0.0546
 5227SOL    HW127317   0.020   2.216   6.476 -0.5730 -1.0881 -0.6503
 5227SOL    HW227318   0.030   2.096   6.571  1.6211 -1.3343 -0.3836
 5228SOL     OW27319   0.770   3.518   1.097 -0.2861  0.3783  0.4122
 5228SOL    HW127320   0.791   3.491   1.008 -0.3414  0.2749  0.4309
 5228SOL    HW227321   0.753   3.434   1.139  0.5578  0.0330  0.0437
 5229SOL     OW27322   3.797   2.375   7.047 -0.2081  0.0697  0.0649
 5229SOL    HW127323   3.833   2.445   6.993 -0.9683  0.3630 -0.0627
 5229SOL    HW227324   3.864   2.360   7.114  0.6101 -1.2825 -1.0664
 5230SOL     OW27325   4.633   2.702   2.896  0.2736  0.5823 -0.0201
 5230SOL    HW127326   4.563   2.765   2.878 -0.3309  0.1487  0.8089
 5230SOL    HW227327   4.669   2.675   2.811 -2.0531  2.2599 -1.5721
 5231SOL     OW27328   1.875   3.664  12.495  0.0770 -0.3077  0.0076
 5231SOL    HW127329   1.941   3.710  12.546 -1.5322  0.4334  1.4071
 5231SOL    HW227330   1.861   3.581  12.540 -1.7165 -0.7504 -1.3277
 5232SOL     OW27331   3.528   4.737   7.861  0.5083  0.2525  0.0551
 5232SOL    HW127332   3.458   4.731   7.796  0.2789 -1.2658  0.4268
 5232SOL    HW227333   3.589   4.667   7.836  1.2793  0.2136  2.0045
 5233SOL     OW27334   4.035   3.530   2.947  0.1368 -0.0154  0.2948
 5233SOL    HW127335   4.093   3.556   3.018 -0.1161  0.8682  0.1759
 5233SOL    HW227336   3.947   3.522   2.985  0.0752 -1.2249 -0.0974
 5234SOL     OW27337   4.575   0.241   6.685  0.7526 -0.1439 -0.1044
 5234SOL    HW127338   4.530   0.157   6.697 -1.9155  1.2400 -0.4407
 5234SOL    HW227339   4.661   0.199   6.679  1.6845  1.3673  2.5533
 5235SOL     OW27340   3.067   0.458   8.736 -0.1511 -0.9236  0.2821
 5235SOL    HW127341   3.069   0.554   8.742  1.2484 -0.9566  0.1730
 5235SOL    HW227342   3.155   0.430   8.710  0.0479 -1.4395  1.5588
 5236SOL     OW27343   4.082   1.529  16.706  0.4010 -0.1968  0.1168
 5236SOL    HW127344   4.136   1.556  16.631  1.2183 -2.7717 -0.2009
 5236SOL    HW227345   4.101   1.436  16.701 -0.5331 -0.3971  0.4128
 5237SOL     OW27346   4.228   2.485   4.279  0.0811 -0.2019  0.4398
 5237SOL    HW127347   4.167   2.492   4.205  2.3079 -2.6396 -1.6218
 5237SOL    HW227348   4.219   2.397   4.317  1.4733 -0.8473 -0.7214
 5238SOL     OW27349   2.679   1.893   2.613 -0.3613 -1.0300  0.7311
 5238SOL    HW127350   2.747   1.915   2.676  0.4619  0.6121 -0.7399
 5238SOL    HW227351   2.644   1.822   2.667  0.3687 -1.8259  0.1698
 5239SOL     OW27352   1.683   2.500   7.565 -0.5114 -0.0149  0.1236
 5239SOL    HW127353   1.624   2.531   7.633  0.4309 -0.0387  0.9393
 5239SOL    HW227354   1.678   2.570   7.499  0.2416 -0.8112 -0.7652
 5240SOL     OW27355   3.517   3.822  16.698 -0.1091  0.1042 -0.2662
 5240SOL    HW127356   3.447   3.884  16.677 -1.5067 -1.9048 -1.4856
 5240SOL    HW227357   3.498   3.753  16.635  0.2781 -0.8445  0.6394
 5241SOL     OW27358   3.982   2.335   3.139  0.4197  0.3966  0.5817
 5241SOL    HW127359   3.909   2.375   3.187  0.8914  1.6629  0.2402
 5241SOL    HW227360   4.017   2.408   3.087  0.5556  0.2340  0.4439
 5242SOL     OW27361   1.256   0.056   8.256 -0.4119  0.3038 -0.2963
 5242SOL    HW127362   1.213   0.018   8.332  0.0749  1.0140  0.3300
 5242SOL    HW227363   1.191   0.121   8.230 -1.4742 -0.7075 -0.1956
 5243SOL     OW27364   1.696   2.356  13.339  0.2570  0.3512 -0.2953
 5243SOL    HW127365   1.647   2.434  13.364  1.6020  0.4536  2.0165
 5243SOL    HW227366   1.756   2.351  13.414 -0.3016 -1.0472  0.0616
 5244SOL     OW27367   3.070   3.515  13.098  0.7580 -0.3625  0.2409
 5244SOL    HW127368   3.011   3.526  13.172  0.5417  1.7169 -0.2527
 5244SOL    HW227369   3.064   3.597  13.049 -1.0138  0.1677  1.3507
 5245SOL     OW27370   1.177   2.223  11.110  0.0149 -0.4466 -0.0195
 5245SOL    HW127371   1.113   2.245  11.043  0.9178  3.4346  0.3787
 5245SOL    HW227372   1.212   2.146  11.065  1.4766  0.0798  0.2146
 5246SOL     OW27373   3.734   3.556   5.648  0.1240 -0.6691 -0.3150
 5246SOL    HW127374   3.692   3.539   5.732  0.4271  0.1452  0.0049
 5246SOL    HW227375   3.669   3.551   5.578 -1.5811 -2.6693  1.4125
 5247SOL     OW27376   2.284   3.381   5.152 -0.5329  0.0386 -0.3004
 5247SOL    HW127377   2.375   3.363   5.127 -0.1298 -0.5124  1.5522
 5247SOL    HW227378   2.238   3.373   5.069  2.0886 -0.7776 -1.6866
 5248SOL     OW27379   1.194   2.940  13.377 -0.2361 -0.4238  0.3324
 5248SOL    HW127380   1.110   2.896  13.363  0.3391 -2.0212  1.9221
 5248SOL    HW227381   1.170   3.031  13.362  1.6965 -0.0049 -0.1833
 5249SOL     OW27382   1.371   3.383   5.552 -0.4838  0.5681  0.5194
 5249SOL    HW127383   1.450   3.361   5.503 -1.0242  0.6897 -0.4069
 5249SOL    HW227384   1.389   3.332   5.631  2.7797  0.9616  0.0315
 5250SOL     OW27385   3.188   2.580   7.533  0.0207  0.0754  0.2726
 5250SOL    HW127386   3.195   2.490   7.502  0.3724  0.9331 -2.1494
 5250SOL    HW227387   3.120   2.578   7.600 -0.6320 -1.5541 -0.4292
 5251SOL     OW27388   0.268   1.774   0.440  1.0162 -0.0051 -0.0764
 5251SOL    HW127389   0.351   1.822   0.443 -0.4803  2.5763  0.5627
 5251SOL    HW227390   0.244   1.759   0.531  2.2213  0.8930  0.3927
 5252SOL     OW27391   3.900   0.066   2.474 -0.5658  0.4698 -0.7327
 5252SOL    HW127392   3.809   0.044   2.454 -1.2351  1.0331  1.6184
 5252SOL    HW227393   3.890   0.079   2.569  1.7470  0.1212 -0.4303
 5253SOL     OW27394   2.244   4.658  12.346 -0.2295  0.1414 -0.2128
 5253SOL    HW127395   2.237   4.695  12.434 -2.4804  0.8896 -0.7093
 5253SOL    HW227396   2.312   4.593  12.362 -0.4011  0.2200  0.8889
 5254SOL     OW27397   0.894   2.261   6.349 -0.5641  0.1753 -0.3293
 5254SOL    HW127398   0.806   2.223   6.347 -0.8853  0.9106 -0.0624
 5254SOL    HW227399   0.936   2.189   6.397 -1.8726 -1.5801 -1.8064
 5255SOL     OW27400   2.667   3.478   2.848  0.2427 -0.1494 -0.1379
 5255SOL    HW127401   2.585   3.439   2.877  2.3115 -3.0627  1.7564
 5255SOL    HW227402   2.634   3.516   2.766 -0.4054 -2.0738 -0.7513
 5256SOL     OW27403   0.765   0.028  15.803  0.3802  0.2486 -0.4522
 5256SOL    HW127404   0.683   0.024  15.852  0.7590 -1.6317  0.0506
 5256SOL    HW227405   0.792   4.673  15.794 -0.2541 -0.0568  0.6821
 5257SOL     OW27406   3.521   4.674   4.204  0.3284  0.4872 -0.2493
 5257SOL    HW127407   3.557   4.665   4.116  2.5666 -0.4973  0.7871
 5257SOL    HW227408   3.452   0.004   4.199 -0.1684 -0.0169 -0.1790
 5258SOL     OW27409   1.700   0.274   4.425  0.0933 -0.2763 -0.3403
 5258SOL    HW127410   1.766   0.297   4.491 -0.6930  0.7489  0.0758
 5258SOL    HW227411   1.746   0.229   4.354  0.4784 -2.8207  1.4963
 5259SOL     OW27412   4.593   2.265   2.783  0.0762 -1.0197  0.0006
 5259SOL    HW127413   4.613   2.321   2.858  0.2570 -2.1700  0.8146
 5259SOL    HW227414   4.652   2.194   2.809 -0.0056 -1.0834  0.0140
 5260SOL     OW27415   2.116   0.780   4.706 -0.1146  0.5239 -0.1374
 5260SOL    HW127416   2.055   0.758   4.636  1.5355  0.4848 -1.5747
 5260SOL    HW227417   2.143   0.864   4.668  0.3448 -0.4402 -1.9332
 5261SOL     OW27418   4.159   0.622   9.388 -0.8631  0.2997 -0.3175
 5261SOL    HW127419   4.131   0.594   9.475  0.8155  1.2586  0.5459
 5261SOL    HW227420   4.186   0.710   9.414 -2.2955  0.7842 -0.4422
 5262SOL     OW27421   1.145   3.143   1.501  0.1981 -0.2561  0.0759
 5262SOL    HW127422   1.174   3.068   1.552  1.0227 -1.1757 -1.7188
 5262SOL    HW227423   1.147   3.108   1.411 -2.8061  0.9181 -0.4682
 5263SOL     OW27424   1.380   4.212  13.096  0.1036  0.3767  0.4197
 5263SOL    HW127425   1.430   4.192  13.016  0.0419 -1.7119  0.8991
 5263SOL    HW227426   1.312   4.259  13.049  1.8333  2.9701  0.4900
 5264SOL     OW27427   2.694   0.795   5.186 -0.2483  0.1939  0.1967
 5264SOL    HW127428   2.743   0.805   5.268 -1.8039  1.5085  0.9782
 5264SOL    HW227429   2.727   0.869   5.135 -0.9690 -0.1281 -0.7262
 5265SOL     OW27430   3.633   2.830   4.293  0.0062  0.3657 -0.0609
 5265SOL    HW127431   3.709   2.845   4.237 -0.3611  1.1353 -0.3553
 5265SOL    HW227432   3.630   2.735   4.299 -2.5866  0.5752  2.5477
 5266SOL     OW27433   3.411   0.738  17.181 -0.3208  0.5534 -0.3055
 5266SOL    HW127434   3.450   0.700  17.260  0.8170  1.1302 -0.5846
 5266SOL    HW227435   3.404   0.663  17.122  0.2941  0.1040  0.1903
 5267SOL     OW27436   2.857   3.949  13.468 -0.3482  0.3841 -0.0589
 5267SOL    HW127437   2.939   3.997  13.478  0.9705 -1.8773  0.0007
 5267SOL    HW227438   2.848   3.898  13.548 -1.4762  0.9535  0.1781
 5268SOL     OW27439   3.643   2.156   6.695  0.0179  0.3448 -0.1754
 5268SOL    HW127440   3.548   2.153   6.685  0.0550 -0.0138 -0.4004
 5268SOL    HW227441   3.673   2.135   6.783 -2.4486 -1.6493  0.1859
 5269SOL     OW27442   1.774   0.387   1.508 -0.0366  0.0713 -0.0702
 5269SOL    HW127443   1.751   0.433   1.427 -2.8987 -0.9130  0.1763
 5269SOL    HW227444   1.685   0.366   1.537 -0.5739  1.4754 -0.6972
 5270SOL     OW27445   0.709   3.725   4.488  0.1287  0.4556 -0.2577
 5270SOL    HW127446   0.709   3.708   4.582 -1.6958 -0.8594 -0.4713
 5270SOL    HW227447   0.788   3.777   4.485  0.2883  0.1273 -2.2048
 5271SOL     OW27448   2.672   0.727   7.382 -0.8517 -0.4365  0.4084
 5271SOL    HW127449   2.683   0.639   7.345 -1.2824 -0.4105  0.2103
 5271SOL    HW227450   2.762   0.759   7.392 -1.3753  1.1420  0.0975
 5272SOL     OW27451   3.711   1.822  10.081  0.0968  0.1637 -0.0037
 5272SOL    HW127452   3.679   1.832   9.991  0.4868  0.6398 -0.0903
 5272SOL    HW227453   3.686   1.904  10.124  0.9441  1.3207 -1.6922
 5273SOL     OW27454   3.104   4.677   7.434  0.3440 -0.3589  0.2041
 5273SOL    HW127455   3.141   0.011   7.486  0.9003 -0.0293 -0.6426
 5273SOL    HW227456   3.026   4.730   7.419  1.1222  1.3714  2.3535
 5274SOL     OW27457   0.616   0.729  17.349 -0.0424  0.1118 -0.1087
 5274SOL    HW127458   0.581   0.729  17.438 -1.1727  1.9575 -0.5596
 5274SOL    HW227459   0.706   0.760  17.359  0.2064 -0.4783 -0.5017
 5275SOL     OW27460   4.448   1.935   5.610  0.0101 -0.1522 -0.2587
 5275SOL    HW127461   4.398   1.977   5.679 -0.4449 -0.8620 -0.1623
 5275SOL    HW227462   4.488   1.855   5.645  0.1960 -0.6538 -1.6060
 5276SOL     OW27463   2.270   0.203   1.940  0.1084  0.7677 -0.0131
 5276SOL    HW127464   2.285   0.192   1.846 -2.3002 -3.8151  0.1143
 5276SOL    HW227465   2.186   0.249   1.938 -0.6182 -0.5812 -0.1540
 5277SOL     OW27466   3.907   0.136   2.738  0.3443  0.0169 -0.2400
 5277SOL    HW127467   3.989   0.116   2.783 -0.2183  0.2503  0.8900
 5277SOL    HW227468   3.891   0.218   2.783 -0.1217  0.1013 -0.5601
 5278SOL     OW27469   4.453   0.442   1.728 -0.3266  0.2733 -0.1356
 5278SOL    HW127470   4.448   0.348   1.744  1.5298 -0.0753 -1.6770
 5278SOL    HW227471   4.516   0.473   1.793 -0.6884  0.5958  0.0693
 5279SOL     OW27472   3.235   2.937   2.115 -0.9857  0.1809 -0.1044
 5279SOL    HW127473   3.308   2.971   2.167 -2.0513  0.8608  0.9467
 5279SOL    HW227474   3.177   2.900   2.181  0.6047  0.2895  1.3317
 5280SOL     OW27475   1.251   4.513  12.179  0.5625  0.0229 -0.1667
 5280SOL    HW127476   1.285   4.584  12.125  0.0724 -0.0280 -0.5342
 5280SOL    HW227477   1.331   4.460  12.177  1.1319  0.8826 -0.1709
 5281SOL     OW27478   2.028   1.293  17.693 -0.3755  0.2725  0.1197
 5281SOL    HW127479   1.944   1.302  17.649  0.4062  0.9174 -1.2576
 5281SOL    HW227480   2.003   1.271   0.038  1.6368  1.6333  1.0217
 5282SOL     OW27481   4.716   3.939   6.499 -0.5497 -0.5510 -0.1938
 5282SOL    HW127482   0.033   3.860   6.496 -1.0957 -0.8245 -3.0179
 5282SOL    HW227483   0.007   4.003   6.434  0.1986 -1.3129 -0.6131
 5283SOL     OW27484   4.313   2.247  10.365  0.1400  0.0604 -0.0261
 5283SOL    HW127485   4.398   2.279  10.396  0.8347 -0.5140 -1.3280
 5283SOL    HW227486   4.267   2.322  10.329 -2.5726 -2.9446 -2.8048
 5284SOL     OW27487   2.357   3.106   8.516  0.2647  0.6183  0.4554
 5284SOL    HW127488   2.389   3.088   8.605  0.4910 -2.1083 -0.1690
 5284SOL    HW227489   2.333   3.197   8.532 -1.1729  0.7660 -2.6596
 5285SOL     OW27490   3.026   3.079   2.445 -0.2005 -0.0544  0.5588
 5285SOL    HW127491   2.997   3.168   2.426 -1.0955 -0.7588 -1.4415
 5285SOL    HW227492   3.067   3.077   2.531 -0.1858  0.0772  0.5548
 5286SOL     OW27493   3.016   0.796   3.372 -0.4113  0.3329 -0.0851
 5286SOL    HW127494   3.064   0.813   3.453 -0.5830 -1.9175  0.5001
 5286SOL    HW227495   3.059   0.848   3.304  1.0215 -0.5670  0.1495
 5287SOL     OW27496   3.347   3.279   9.077 -0.0839 -0.1836 -0.1818
 5287SOL    HW127497   3.388   3.196   9.053 -0.8196 -0.2463 -1.2135
 5287SOL    HW227498   3.299   3.247   9.154 -0.6608 -3.5137 -1.9471
 5288SOL     OW27499   2.942   0.751  11.209 -0.0226 -0.0785 -0.2588
 5288SOL    HW127500   2.893   0.833  11.212 -0.2493 -0.3285  2.7779
 5288SOL    HW227501   3.031   0.783  11.198 -0.8195  1.9277 -0.9103
 5289SOL     OW27502   4.683   2.941   1.580 -0.1409 -0.3071 -0.4128
 5289SOL    HW127503   4.665   2.953   1.486  2.8161  1.0524 -0.7808
 5289SOL    HW227504   0.039   2.962   1.571 -0.0010 -0.8814 -0.3432
 5290SOL     OW27505   2.216   4.433   7.651 -0.1283  1.0173 -0.3207
 5290SOL    HW127506   2.288   4.415   7.712 -0.2332 -3.1636 -1.4277
 5290SOL    HW227507   2.179   4.346   7.637 -1.4236  1.4004  0.8533
 5291SOL     OW27508   0.877   0.463   0.766 -0.4591  0.3738  0.2264
 5291SOL    HW127509   0.860   0.428   0.679  1.8677 -0.8469  0.2523
 5291SOL    HW227510   0.787   0.484   0.791 -1.0806 -2.2915  0.1695
 5292SOL     OW27511   2.937   2.913   6.320 -0.7697 -0.0663 -0.0379
 5292SOL    HW127512   2.853   2.882   6.286 -0.2039 -1.1173 -0.4638
 5292SOL    HW227513   2.934   3.004   6.291 -0.4536 -0.7741 -2.3062
 5293SOL     OW27514   1.590   4.448   2.868  0.0701 -0.5049  0.2442
 5293SOL    HW127515   1.622   4.473   2.955  1.7550  0.7532 -0.7462
 5293SOL    HW227516   1.671   4.437   2.818  0.8316  0.4915  1.2470
 5294SOL     OW27517   4.213   2.958   8.080  0.4916 -0.1522 -0.8215
 5294SOL    HW127518   4.223   2.973   8.174 -0.2481 -0.9343 -0.6101
 5294SOL    HW227519   4.275   2.889   8.059 -1.2241 -2.3121  1.2926
 5295SOL     OW27520   3.803   2.969  11.548 -0.5471  0.1429  0.2429
 5295SOL    HW127521   3.739   2.932  11.487  1.0975  1.2209 -2.1270
 5295SOL    HW227522   3.769   3.059  11.547  1.4599  0.9001  0.6542
 5296SOL     OW27523   4.490   4.199  17.266  0.4359  0.3488  0.6552
 5296SOL    HW127524   4.468   4.292  17.262 -0.1513  0.0533 -3.3130
 5296SOL    HW227525   4.509   4.196  17.173  0.6541 -1.3948  0.7706
 5297SOL     OW27526   0.979   1.867   7.523 -0.2218  0.1141 -0.0619
 5297SOL    HW127527   1.031   1.924   7.466 -2.1234  1.9635  0.0902
 5297SOL    HW227528   0.990   1.906   7.609  0.4126  3.4968 -1.6956
 5298SOL     OW27529   4.094   0.947   4.607 -0.0222 -0.5063  0.0916
 5298SOL    HW127530   4.138   0.864   4.594 -2.3724 -1.9943  1.6861
 5298SOL    HW227531   4.116   0.960   4.699 -1.6369 -3.2658  0.8786
 5299SOL     OW27532   2.321   2.905  14.029  0.0948  0.6463 -0.1555
 5299SOL    HW127533   2.269   2.826  14.014  1.3891  0.0537 -1.5129
 5299SOL    HW227534   2.249   2.962  14.055  0.8213  2.0929 -1.3764
 5300SOL     OW27535   0.631   3.362   9.831  0.2712 -0.1242 -0.3040
 5300SOL    HW127536   0.555   3.358   9.774  1.0619  1.8354 -1.4963
 5300SOL    HW227537   0.674   3.437   9.790  0.5125 -1.6698 -2.8438
 5301SOL     OW27538   1.140   4.642   6.493  0.1704  0.1284  0.1240
 5301SOL    HW127539   1.236   4.634   6.488  0.3060  1.5580  0.3561
 5301SOL    HW227540   1.121   4.614   6.583  0.8396  1.9233  0.8473
 5302SOL     OW27541   1.204   1.481   5.378  0.0376 -0.0995 -0.4713
 5302SOL    HW127542   1.253   1.562   5.368  1.9646 -1.4714 -2.1554
 5302SOL    HW227543   1.274   1.427   5.414  1.5713  2.0767 -0.2365
 5303SOL     OW27544   0.193   2.357   0.484  0.2766 -0.3861 -0.1523
 5303SOL    HW127545   0.275   2.334   0.440  0.3151  0.6733 -0.6428
 5303SOL    HW227546   0.224   2.383   0.571  0.3486  0.2658 -0.3721
 5304SOL     OW27547   2.360   1.567   6.004 -0.1304 -0.0471 -0.4292
 5304SOL    HW127548   2.304   1.543   6.078 -0.0110  2.7668  0.5516
 5304SOL    HW227549   2.377   1.477   5.975  0.8570 -0.2852  0.9188
 5305SOL     OW27550   1.392   1.074   5.294  0.6239 -0.0809 -0.2578
 5305SOL    HW127551   1.443   0.993   5.305  0.9974 -0.2047 -2.9076
 5305SOL    HW227552   1.373   1.065   5.201  0.5870 -1.6919 -0.0916
 5306SOL     OW27553   2.817   4.521   8.050  0.8140 -0.0340  0.5547
 5306SOL    HW127554   2.889   4.492   7.994  0.1288 -0.2404 -0.2262
 5306SOL    HW227555   2.837   4.614   8.063 -1.4636  0.4159  0.9632
 5307SOL     OW27556   3.727   4.546  13.709 -0.2536  0.3495 -0.4003
 5307SOL    HW127557   3.649   4.491  13.717 -0.0647  0.0837 -0.3893
 5307SOL    HW227558   3.705   4.603  13.636 -0.3554  1.3555  0.4223
 5308SOL     OW27559   3.857   1.564  11.775  0.1417 -0.0049 -0.4050
 5308SOL    HW127560   3.891   1.491  11.828  1.7596 -0.7413 -2.4851
 5308SOL    HW227561   3.781   1.586  11.830  0.4175  0.5157 -0.2306
 5309SOL     OW27562   1.503   3.884   7.659  0.1960 -0.4823 -0.0481
 5309SOL    HW127563   1.490   3.861   7.567 -1.2457 -0.6525  0.2017
 5309SOL    HW227564   1.452   3.965   7.662  1.5070  0.3503 -0.2997
 5310SOL     OW27565   0.474   2.841   6.959  0.3419  0.3578 -0.3833
 5310SOL    HW127566   0.409   2.889   6.908  1.0333  0.2247 -1.3946
 5310SOL    HW227567   0.536   2.832   6.887  1.2183 -3.7711  0.8676
 5311SOL     OW27568   3.240   0.815   8.303 -0.2973 -0.1452  0.8136
 5311SOL    HW127569   3.243   0.868   8.382  0.1942 -2.6324  2.4651
 5311SOL    HW227570   3.158   0.848   8.265  0.1930 -0.1633 -0.2553
 5312SOL     OW27571   3.304   2.518   6.217 -0.6016 -0.0531  0.4267
 5312SOL    HW127572   3.249   2.596   6.205 -0.3551  0.0705  0.0833
 5312SOL    HW227573   3.304   2.508   6.312 -0.4858 -0.9016  0.3365
 5313SOL     OW27574   3.737   3.012  16.116  0.1977  0.6017  0.1753
 5313SOL    HW127575   3.808   2.949  16.104 -1.0275 -0.2738 -2.6372
 5313SOL    HW227576   3.664   2.965  16.156 -1.1396 -0.5875 -3.6091
 5314SOL     OW27577   1.276   2.065  10.890  0.0782 -0.0275 -0.0815
 5314SOL    HW127578   1.304   2.074  10.799 -1.9885 -0.7773 -0.7838
 5314SOL    HW227579   1.181   2.054  10.884  0.1611 -0.8601  0.2388
 5315SOL     OW27580   2.662   0.904   4.678 -0.3099  0.4670 -0.2681
 5315SOL    HW127581   2.582   0.853   4.686  0.2478 -0.2947  0.4145
 5315SOL    HW227582   2.685   0.880   4.588  0.7630 -0.5724  0.2867
 5316SOL     OW27583   1.380   0.865  16.157 -0.3517 -0.0919  0.4908
 5316SOL    HW127584   1.349   0.943  16.111  1.5544  1.0524  1.1122
 5316SOL    HW227585   1.378   0.898  16.246 -2.0512  0.5331  0.2146
 5317SOL     OW27586   1.510   0.774   9.035  0.2913 -0.4917 -0.1284
 5317SOL    HW127587   1.419   0.761   9.006 -0.7320 -1.7155  3.5831
 5317SOL    HW227588   1.507   0.720   9.114 -2.1825  0.2219  0.2693
 5318SOL     OW27589   0.705   4.248   6.433 -0.4420  0.6110  0.2633
 5318SOL    HW127590   0.722   4.297   6.513 -2.1327 -1.2013  1.7182
 5318SOL    HW227591   0.621   4.215   6.464 -1.2615 -0.4924 -3.0909
 5319SOL     OW27592   3.584   1.182   2.815 -0.0994 -0.5240 -0.0411
 5319SOL    HW127593   3.563   1.261   2.764 -0.3547 -0.0095  0.8586
 5319SOL    HW227594   3.674   1.201   2.840  0.1448  1.8362 -2.6571
 5320SOL     OW27595   2.664   1.883   3.528  0.3657 -0.1837 -0.0304
 5320SOL    HW127596   2.590   1.890   3.467 -0.0803 -2.2586  0.2810
 5320SOL    HW227597   2.616   1.887   3.610  1.2719  1.2280  0.4208
 5321SOL     OW27598   0.779   4.067   4.208 -0.0690 -0.0252  0.3870
 5321SOL    HW127599   0.837   4.002   4.248  0.3785 -1.0845 -1.9656
 5321SOL    HW227600   0.802   4.140   4.265  5.3948 -2.5407  1.4085
 5322SOL     OW27601   3.720   4.462   6.789  0.2033  0.2484 -0.4431
 5322SOL    HW127602   3.691   4.460   6.881 -1.2948 -0.6419 -0.9287
 5322SOL    HW227603   3.644   4.415   6.755  0.1862 -0.7534  0.9463
 5323SOL     OW27604   1.880   1.441   7.832 -0.5373 -0.6004  0.3887
 5323SOL    HW127605   1.971   1.469   7.819 -0.4922 -1.1072 -0.3388
 5323SOL    HW227606   1.843   1.529   7.827  0.7854 -0.1072 -0.6420
 5324SOL     OW27607   3.402   1.783   2.991 -0.3221  0.0598  0.7139
 5324SOL    HW127608   3.467   1.736   2.939 -0.7533 -0.2602  0.4630
 5324SOL    HW227609   3.319   1.769   2.945  0.4918  0.5465 -0.8944
 5325SOL     OW27610   1.891   3.554   2.063 -0.6346  0.5743 -0.7945
 5325SOL    HW127611   1.924   3.514   1.982 -0.3576  0.4918 -0.6392
 5325SOL    HW227612   1.811   3.600   2.036 -0.7920  1.6505  1.5068
 5326SOL     OW27613   2.375   2.854  10.364  0.1053  0.0181  0.4368
 5326SOL    HW127614   2.299   2.818  10.318  1.8004 -0.2966 -2.0970
 5326SOL    HW227615   2.430   2.878  10.290  1.3539 -0.5835  1.1805
 5327SOL     OW27616   3.232   4.208  11.228 -0.2480 -0.5451  0.6567
 5327SOL    HW127617   3.227   4.193  11.133  3.4009 -1.0351  0.5475
 5327SOL    HW227618   3.324   4.193  11.247 -0.9818 -1.4738  3.4818
 5328SOL     OW27619   1.996   4.063   0.710  0.0577  0.4445  0.6008
 5328SOL    HW127620   1.967   4.040   0.798  0.8566 -1.1616  0.4468
 5328SOL    HW227621   1.994   3.976   0.668 -0.5728 -0.3363  2.2491
 5329SOL     OW27622   1.635   3.416  15.141  0.6748  0.3743  0.6780
 5329SOL    HW127623   1.598   3.466  15.214  0.9601 -0.8007  1.6375
 5329SOL    HW227624   1.718   3.463  15.132 -0.7376  2.5029 -1.1939
 5330SOL     OW27625   3.559   2.130  13.676 -0.0768 -0.2253  0.2302
 5330SOL    HW127626   3.471   2.167  13.683 -0.4907 -1.3787  1.2318
 5330SOL    HW227627   3.579   2.112  13.768 -1.1303  0.3823  0.5764
 5331SOL     OW27628   2.457   3.436   7.928  0.1991  0.2447  0.0735
 5331SOL    HW127629   2.527   3.437   7.993  0.8624 -2.6123 -0.6219
 5331SOL    HW227630   2.493   3.391   7.852  0.2642  1.3307 -0.5473
 5332SOL     OW27631   1.231   1.983   4.386 -0.0619  0.3784 -0.0878
 5332SOL    HW127632   1.225   2.017   4.297 -1.2083  3.0362  1.0107
 5332SOL    HW227633   1.240   1.889   4.372  1.9601  1.0542 -3.3444
 5333SOL     OW27634   1.216   2.982   3.711 -0.1193 -0.1489 -0.1600
 5333SOL    HW127635   1.122   2.984   3.696  0.1035  4.2241 -0.9384
 5333SOL    HW227636   1.237   3.075   3.711 -0.0844 -0.1557 -0.9866
 5334SOL     OW27637   2.928   0.131   7.407  0.5033 -0.3203 -0.0545
 5334SOL    HW127638   2.833   0.131   7.396  0.7505 -2.9712 -2.4103
 5334SOL    HW227639   2.939   0.223   7.428 -4.2410  1.0215 -3.3297
 5335SOL     OW27640   3.544   3.520   5.419 -0.7657 -0.3965 -0.2873
 5335SOL    HW127641   3.467   3.557   5.462 -1.1573  0.9004 -2.0736
 5335SOL    HW227642   3.529   3.543   5.327 -1.5396  0.5853  0.0858
 5336SOL     OW27643   2.474   1.293   4.892 -0.2146 -0.5454 -0.0125
 5336SOL    HW127644   2.528   1.220   4.919  2.3498  1.4304  0.1807
 5336SOL    HW227645   2.389   1.249   4.892  0.3986 -1.7081 -1.4191
 5337SOL     OW27646   1.990   3.673  15.330  0.0937  0.1987  0.2957
 5337SOL    HW127647   1.924   3.719  15.383 -0.2857 -0.6545  0.5562
 5337SOL    HW227648   2.073   3.711  15.360 -0.4396  0.0524  1.9505
 5338SOL     OW27649   0.436   1.937   1.731  0.3183  0.0054 -0.2012
 5338SOL    HW127650   0.488   2.000   1.780 -0.4569  0.2969  0.2485
 5338SOL    HW227651   0.450   1.849   1.764  0.4439 -0.2293 -0.8656
 5339SOL     OW27652   4.672   3.454   7.884  0.4236 -0.4914 -0.4883
 5339SOL    HW127653   0.019   3.420   7.852  2.0476  1.2530  1.8978
 5339SOL    HW227654   4.649   3.376   7.934 -1.6458 -0.1334 -0.8686
 5340SOL     OW27655   1.892   4.357   6.070 -0.2710 -0.5706  0.2676
 5340SOL    HW127656   1.958   4.380   6.135 -1.7248  1.9304  0.8627
 5340SOL    HW227657   1.955   4.353   5.998  0.6016 -1.0752  1.0607
 5341SOL     OW27658   1.195   3.198   6.631  0.2612  0.3448  0.4749
 5341SOL    HW127659   1.215   3.121   6.577  2.2369  1.1727  0.0272
 5341SOL    HW227660   1.190   3.269   6.567 -1.6682 -0.4227 -0.2144
 5342SOL     OW27661   2.754   0.348   2.930 -0.3076  0.3684  0.4999
 5342SOL    HW127662   2.776   0.269   2.980  0.1711 -0.0894 -0.4246
 5342SOL    HW227663   2.771   0.315   2.842  3.0475  2.0288  0.5458
 5343SOL     OW27664   3.931   3.474  15.228  0.2221  0.0980 -0.0867
 5343SOL    HW127665   3.884   3.396  15.256 -0.3149 -0.1977 -1.7960
 5343SOL    HW227666   4.017   3.435  15.240  1.5079  2.9103 -0.1325
 5344SOL     OW27667   4.170   3.216  10.346 -0.0938 -0.5689 -0.0295
 5344SOL    HW127668   4.187   3.306  10.374  0.9873 -0.9671  0.5874
 5344SOL    HW227669   4.237   3.162  10.387  1.3533  0.3355 -1.1861
 5345SOL     OW27670   0.005   2.690   5.563 -0.8745  0.4683  0.5909
 5345SOL    HW127671   0.049   2.704   5.647 -2.1019  0.0757  1.3019
 5345SOL    HW227672   0.074   2.639   5.520 -0.6482 -0.9338  2.5830
 5346SOL     OW27673   0.133   4.037   6.768 -0.7200  0.0970  0.6013
 5346SOL    HW127674   0.095   4.116   6.805  2.3438  0.5212  2.8749
 5346SOL    HW227675   0.062   3.995   6.719  0.2803 -0.4478 -0.3754
 5347SOL     OW27676   1.546   0.687  13.190  0.0598  0.0104 -0.0011
 5347SOL    HW127677   1.634   0.653  13.177 -0.4881 -1.0083 -1.1308
 5347SOL    HW227678   1.501   0.613  13.232 -1.0529  1.4761  1.3628
 5348SOL     OW27679   4.330   1.953   6.014 -0.2130 -0.9821 -0.3751
 5348SOL    HW127680   4.298   1.994   6.095 -0.2927 -0.9372 -0.4287
 5348SOL    HW227681   4.325   2.025   5.951  0.9723 -1.6760 -1.2498
 5349SOL     OW27682   2.625   3.676   8.329  0.1804 -0.4844  0.3154
 5349SOL    HW127683   2.659   3.746   8.384 -1.5013  0.7782 -0.2276
 5349SOL    HW227684   2.641   3.695   8.236  1.9097 -2.1801  0.2861
 5350SOL     OW27685   3.856   0.888   5.371 -0.3155 -0.0450 -0.4021
 5350SOL    HW127686   3.921   0.834   5.417 -0.2318  0.8514  0.5086
 5350SOL    HW227687   3.777   0.851   5.409 -2.2461  3.4351 -1.0848
 5351SOL     OW27688   3.961   1.320  14.954 -0.1538  0.5285  0.4168
 5351SOL    HW127689   4.027   1.251  14.950 -1.4568 -0.5253 -3.2568
 5351SOL    HW227690   3.993   1.376  15.024  1.4180 -0.7393  0.7193
 5352SOL     OW27691   0.258   2.696   1.832  0.3713  0.0493  0.3826
 5352SOL    HW127692   0.299   2.651   1.906  0.6941  0.4972  0.4775
 5352SOL    HW227693   0.290   2.786   1.841  0.9230 -0.3006  1.8214
 5353SOL     OW27694   3.332   1.103   1.503  0.0142  0.1031 -0.0628
 5353SOL    HW127695   3.342   1.196   1.484 -0.0637 -0.2060 -1.5846
 5353SOL    HW227696   3.304   1.103   1.595 -1.1354  0.3964 -0.4173
 5354SOL     OW27697   0.663   2.153   3.341  0.1656 -0.1238  0.8090
 5354SOL    HW127698   0.730   2.085   3.334 -2.0267 -2.0915 -1.4647
 5354SOL    HW227699   0.689   2.211   3.412  1.0134  0.8055 -0.2620
 5355SOL     OW27700   1.961   2.199   2.886  0.2827  0.2822 -0.6163
 5355SOL    HW127701   1.960   2.241   2.800 -1.8840  4.6103  1.5594
 5355SOL    HW227702   1.960   2.272   2.948 -1.0883  1.0161 -1.4938
 5356SOL     OW27703   4.497   4.385   5.662 -0.0694 -0.4351  0.1079
 5356SOL    HW127704   4.549   4.415   5.737  1.7865  0.1976 -1.4145
 5356SOL    HW227705   4.481   4.292   5.677  0.6220 -0.3707  1.2617
 5357SOL     OW27706   3.264   0.693  13.828  0.0664 -0.4099 -0.1409
 5357SOL    HW127707   3.242   0.679  13.920 -1.3909 -0.6789 -0.5401
 5357SOL    HW227708   3.298   0.783  13.828  2.6779 -1.3891 -0.1741
 5358SOL     OW27709   3.710   0.192  10.388 -0.0035 -0.1617 -0.5629
 5358SOL    HW127710   3.665   0.114  10.418  2.2966 -1.2583  0.0605
 5358SOL    HW227711   3.795   0.162  10.421 -0.5884 -0.6234  0.5133
 5359SOL     OW27712   0.212   2.504   6.068 -0.3464 -0.7460 -0.3463
 5359SOL    HW127713   0.141   2.531   6.126  0.2915 -0.6230  0.3768
 5359SOL    HW227714   0.180   2.540   5.985  0.9771 -1.5279 -1.1905
 5360SOL     OW27715   4.464   0.162   3.917 -0.1559  0.3103  0.3555
 5360SOL    HW127716   4.398   0.228   3.894  1.1456  0.9317 -1.6216
 5360SOL    HW227717   4.406   0.086   3.912  0.0424  0.1108  1.2532
 5361SOL     OW27718   3.870   2.959   2.162  0.0201 -1.0641  0.2751
 5361SOL    HW127719   3.809   2.925   2.097  1.0798 -0.0495 -1.2812
 5361SOL    HW227720   3.930   3.011   2.107 -0.6841 -0.3719  0.1550
 5362SOL     OW27721   2.516   3.222  15.489  0.2345 -0.1067 -0.3598
 5362SOL    HW127722   2.599   3.193  15.450  1.5868  1.4586  1.3123
 5362SOL    HW227723   2.509   3.160  15.561 -2.1717 -0.9710 -1.3537
 5363SOL     OW27724   0.798   0.675  14.933  0.1197 -0.1306 -0.1830
 5363SOL    HW127725   0.757   0.623  14.865 -0.2248  0.3481 -0.3406
 5363SOL    HW227726   0.732   0.743  14.949 -0.5740 -0.1807 -2.8962
 5364SOL     OW27727   2.067   1.411   2.919 -0.8300 -0.3095  0.0703
 5364SOL    HW127728   2.029   1.420   2.831  1.0045 -0.0681 -0.6936
 5364SOL    HW227729   2.060   1.317   2.936  2.0512 -0.8956 -1.9871
 5365SOL     OW27730   0.100   1.594   1.174 -0.0862  0.1566  0.0203
 5365SOL    HW127731   0.102   1.665   1.109 -1.6600 -0.1705 -0.3849
 5365SOL    HW227732   0.077   1.515   1.124 -0.0877  0.3517 -0.2852
 5366SOL     OW27733   4.648   3.276   1.706  0.3049  0.1339  0.0983
 5366SOL    HW127734   4.609   3.339   1.646 -1.2151 -2.3546 -1.5307
 5366SOL    HW227735   4.579   3.262   1.770 -0.8331  2.5141 -0.5869
 5367SOL     OW27736   4.719   4.183   8.827 -0.1413 -0.3353  0.5239
 5367SOL    HW127737   4.703   4.257   8.887 -0.8061 -0.8579  0.9965
 5367SOL    HW227738   4.657   4.119   8.864 -1.5534  1.2641  0.9285
 5368SOL     OW27739   2.303   1.218  11.372 -0.3626 -0.4838  0.1153
 5368SOL    HW127740   2.227   1.214  11.430  0.3368  0.3315  1.0854
 5368SOL    HW227741   2.260   1.266  11.302 -0.7912  0.9165  1.3273
 5369SOL     OW27742   4.536   2.346   3.656  0.1364 -0.4124 -0.0803
 5369SOL    HW127743   4.597   2.280   3.689  0.2698 -0.3449 -0.1914
 5369SOL    HW227744   4.499   2.380   3.738  0.1385  1.0867 -0.7029
 5370SOL     OW27745   3.622   3.860   5.609  0.2684  0.1456  0.1618
 5370SOL    HW127746   3.540   3.812   5.620  0.2389  0.4715  1.2759
 5370SOL    HW227747   3.593   3.934   5.556 -0.0052 -0.8967 -1.1434
 5371SOL     OW27748   4.088   3.165   6.288 -0.1584 -0.0834  0.7662
 5371SOL    HW127749   4.019   3.139   6.350 -1.2261 -0.2539 -0.4997
 5371SOL    HW227750   4.110   3.073   6.275 -0.7097  0.0664 -1.1118
 5372SOL     OW27751   1.520   3.967   1.166  0.2582 -0.2722  0.1625
 5372SOL    HW127752   1.473   3.885   1.178 -0.2726 -0.2131 -1.6282
 5372SOL    HW227753   1.452   4.024   1.202  1.1989  1.0544 -0.1199
 5373SOL     OW27754   3.830   0.786   0.405  0.0164 -0.3373  0.5554
 5373SOL    HW127755   3.740   0.756   0.391 -0.3262  0.0260  2.0105
 5373SOL    HW227756   3.871   0.717   0.458 -0.8657  0.4060  2.2193
 5374SOL     OW27757   2.159   2.173   4.428 -0.6399  0.0333  0.1173
 5374SOL    HW127758   2.081   2.131   4.391 -1.1681  2.0123 -1.0446
 5374SOL    HW227759   2.134   2.167   4.520  1.8734 -0.1787  0.7688
 5375SOL     OW27760   1.695   4.022   8.553  0.1230  0.4651 -0.2584
 5375SOL    HW127761   1.722   4.045   8.465  2.3363  0.0839  0.3163
 5375SOL    HW227762   1.736   3.936   8.560  0.1160  0.4593 -0.2889
 5376SOL     OW27763   3.669   3.266   5.277  0.3149 -0.7804 -0.0770
 5376SOL    HW127764   3.642   3.339   5.332 -0.5474  0.6861 -2.4457
 5376SOL    HW227765   3.760   3.244   5.298  0.2558 -1.3071 -0.3561
 5377SOL     OW27766   2.504   3.601   3.948  0.4186 -0.5702 -0.5384
 5377SOL    HW127767   2.526   3.693   3.932  1.2967 -0.3702  1.8280
 5377SOL    HW227768   2.556   3.580   4.025  0.0076  0.5073  0.0365
 5378SOL     OW27769   2.612   1.782   3.258 -0.3387  0.1399  0.3329
 5378SOL    HW127770   2.545   1.716   3.237 -3.0241  2.6123  1.1006
 5378SOL    HW227771   2.666   1.734   3.321 -1.8282 -0.3159  1.2657
 5379SOL     OW27772   1.154   2.589   5.478  0.3326 -0.0136  0.4699
 5379SOL    HW127773   1.120   2.594   5.389  1.6755  1.9221  0.0659
 5379SOL    HW227774   1.245   2.559   5.473  1.1508  2.1964  2.0188
 5380SOL     OW27775   1.565   0.595   8.271 -0.2826 -0.4603 -0.7798
 5380SOL    HW127776   1.480   0.638   8.275  0.1684  0.1894  1.6992
 5380SOL    HW227777   1.556   0.515   8.324 -1.0322 -1.4846 -2.4527
 5381SOL     OW27778   0.802   1.049   2.857  0.1155  0.2777 -0.2008
 5381SOL    HW127779   0.839   1.036   2.770  1.1239 -0.6068  0.3690
 5381SOL    HW227780   0.807   1.142   2.881 -1.2535 -0.0204  1.2736
 5382SOL     OW27781   2.271   2.423   5.047 -0.4818 -0.0424 -0.5933
 5382SOL    HW127782   2.236   2.512   5.042 -3.3129 -0.9888  1.8473
 5382SOL    HW227783   2.302   2.413   5.137  0.4008  2.0469 -0.6875
 5383SOL     OW27784   4.598   3.298   2.509  0.2639 -0.0186 -0.7646
 5383SOL    HW127785   4.608   3.243   2.431  0.9421  0.5499 -1.0755
 5383SOL    HW227786   4.539   3.365   2.476  1.5393 -0.0461 -3.0546
 5384SOL     OW27787   1.412   1.981  13.505  0.1260 -0.1172  0.2956
 5384SOL    HW127788   1.322   1.950  13.509  0.1419 -0.2500 -0.2804
 5384SOL    HW227789   1.414   2.054  13.566  0.3262  0.9826 -1.0127
 5385SOL     OW27790   3.059   3.519  15.961 -0.0334 -0.3215 -0.4658
 5385SOL    HW127791   3.150   3.517  15.934  0.1247  1.5693 -0.0972
 5385SOL    HW227792   3.067   3.592  16.023  0.2502  0.6109 -1.6112
 5386SOL     OW27793   1.267   3.086   4.814 -0.3926 -0.3850 -0.0490
 5386SOL    HW127794   1.324   3.009   4.809 -3.4360 -2.5162 -1.4527
 5386SOL    HW227795   1.329   3.160   4.813 -0.6758 -0.1500 -0.2695
 5387SOL     OW27796   1.730   3.439   3.492  0.2898  0.1830 -0.6172
 5387SOL    HW127797   1.639   3.448   3.464 -0.3481 -1.2463  0.9979
 5387SOL    HW227798   1.739   3.347   3.466  2.7164 -0.3153  1.9650
 5388SOL     OW27799   3.811   1.697   3.098  0.2000 -0.0878  0.7696
 5388SOL    HW127800   3.781   1.785   3.076  1.8858  0.8051  2.0639
 5388SOL    HW227801   3.763   1.688   3.180 -0.5857  0.1195  0.3271
 5389SOL     OW27802   1.442   4.078   5.802 -0.0126  0.0623 -0.3457
 5389SOL    HW127803   1.427   3.995   5.848  0.9246  0.4099  0.5774
 5389SOL    HW227804   1.437   4.131   5.881 -2.2126 -0.4286 -0.1394
 5390SOL     OW27805   1.725   0.181   3.581  0.2091  0.8863 -0.1226
 5390SOL    HW127806   1.743   0.173   3.675 -1.0459  0.2398  0.0623
 5390SOL    HW227807   1.803   0.226   3.550 -1.1290  2.5851 -0.9831
 5391SOL     OW27808   3.226   1.351   3.721 -0.3543  0.0869 -0.0795
 5391SOL    HW127809   3.305   1.351   3.667  1.1700 -1.1332  2.1203
 5391SOL    HW227810   3.177   1.426   3.690  1.8167  1.3278 -0.4628
 5392SOL     OW27811   2.309   1.350   3.255  0.2561  0.3418  0.0125
 5392SOL    HW127812   2.322   1.302   3.337 -1.8176 -0.2052  0.0181
 5392SOL    HW227813   2.301   1.271   3.202 -0.2389 -0.4238  1.2170
 5393SOL     OW27814   1.412   4.291  11.238 -0.0265  0.0468  0.3131
 5393SOL    HW127815   1.338   4.331  11.193  0.8686  2.9723  1.4245
 5393SOL    HW227816   1.444   4.224  11.178 -0.3379  1.6055 -1.6160
 5394SOL     OW27817   3.164   3.863   0.828  0.2022 -0.0584  0.0650
 5394SOL    HW127818   3.205   3.787   0.787 -1.4937 -1.0649  0.2474
 5394SOL    HW227819   3.190   3.851   0.920  0.5165  2.4372  0.3184
 5395SOL     OW27820   0.993   2.380  10.943  0.3207 -0.1063  0.0991
 5395SOL    HW127821   1.052   2.443  10.983 -0.2356  0.0684  0.6388
 5395SOL    HW227822   0.918   2.385  11.002  1.2537  2.5272  1.0632
 5396SOL     OW27823   2.522   0.043   8.724 -0.0037 -0.2447 -0.4689
 5396SOL    HW127824   2.572   0.059   8.643 -1.7074 -0.4152 -1.5516
 5396SOL    HW227825   2.462   0.118   8.728  0.8452  0.5983 -3.2157
 5397SOL     OW27826   1.726   2.080   2.959 -0.2733 -0.0101 -0.7518
 5397SOL    HW127827   1.736   2.009   3.023  0.9446 -0.4789 -1.4729
 5397SOL    HW227828   1.819   2.097   2.944  0.3134 -1.6358  1.0780
 5398SOL     OW27829   2.024   3.912   4.404  0.1236  0.0491  0.1366
 5398SOL    HW127830   2.058   3.823   4.405 -1.4410 -0.5516 -0.7236
 5398SOL    HW227831   2.016   3.934   4.497  3.3615 -4.4096  1.4894
 5399SOL     OW27832   1.067   2.478  11.714  0.6309  0.4122 -0.6075
 5399SOL    HW127833   1.043   2.407  11.774  0.0096  0.7308 -0.4827
 5399SOL    HW227834   1.070   2.432  11.630  1.6412 -0.0028 -0.3542
 5400SOL     OW27835   0.942   2.544   6.395  0.4264 -0.0674 -0.0503
 5400SOL    HW127836   0.926   2.450   6.394 -0.9743  0.1449  2.7967
 5400SOL    HW227837   0.949   2.561   6.301  0.7157 -2.8482 -0.5287
 5401SOL     OW27838   2.113   4.166  13.239 -0.0286  0.4561 -0.1678
 5401SOL    HW127839   2.156   4.231  13.296 -0.6647 -1.0970  2.0805
 5401SOL    HW227840   2.134   4.092  13.296  1.0460  3.0751  2.9074
 5402SOL     OW27841   3.089   0.235   5.201 -0.4762  0.2487  0.3427
 5402SOL    HW127842   3.079   0.238   5.105 -0.2392  2.1576  0.3717
 5402SOL    HW227843   3.006   0.273   5.226 -1.5626 -1.0232 -1.2963
 5403SOL     OW27844   4.038   4.554  13.500 -0.3121  0.0152  0.0769
 5403SOL    HW127845   4.039   4.649  13.511  1.3969  0.0496 -0.3954
 5403SOL    HW227846   4.015   4.510  13.582  0.9736  0.3207  0.5998
 5404SOL     OW27847   0.603   1.905   5.854  0.3198  0.5831  0.2816
 5404SOL    HW127848   0.519   1.879   5.894  1.2782 -0.7596  1.4272
 5404SOL    HW227849   0.648   1.927   5.936  0.0633  1.4066  0.1957
 5405SOL     OW27850   2.515   1.868   4.582  0.7147  0.1914 -0.7221
 5405SOL    HW127851   2.531   1.931   4.652 -0.3996  0.4125 -0.6629
 5405SOL    HW227852   2.587   1.808   4.601  1.7012  1.2652 -1.0446
 5406SOL     OW27853   1.692   2.174   4.417  0.2177 -0.3904  0.3816
 5406SOL    HW127854   1.682   2.229   4.339  1.8450 -1.0299 -0.2825
 5406SOL    HW227855   1.672   2.091   4.374 -0.7465  0.5180 -0.9216
 5407SOL     OW27856   0.187   3.820  10.570 -0.5384  0.1175 -0.1165
 5407SOL    HW127857   0.278   3.843  10.550 -0.1232 -0.4624  1.1051
 5407SOL    HW227858   0.178   3.740  10.518  1.3265  1.0794 -1.8838
 5408SOL     OW27859   0.475   2.064   4.231 -0.1780 -0.1442  0.3207
 5408SOL    HW127860   0.494   2.155   4.251 -0.4968 -0.3096  1.3588
 5408SOL    HW227861   0.458   2.075   4.137 -0.3939  1.6583  0.5678
 5409SOL     OW27862   0.606   1.188   0.857  0.3328  0.4982  0.1858
 5409SOL    HW127863   0.542   1.196   0.927  1.6906 -1.4079  1.6379
 5409SOL    HW227864   0.632   1.096   0.857 -0.3337  0.3048  0.2073
 5410SOL     OW27865   2.223   3.059   9.904  0.1006 -0.4687  0.0382
 5410SOL    HW127866   2.137   3.095   9.926  1.1141  0.1367  2.8794
 5410SOL    HW227867   2.267   3.081   9.985 -0.6927  0.3687  0.2434
 5411SOL     OW27868   1.378   3.280   3.178  0.1395  0.5042 -0.4783
 5411SOL    HW127869   1.298   3.232   3.200 -0.5928  0.0898 -3.9908
 5411SOL    HW227870   1.361   3.302   3.086  0.3166  0.3194 -0.5544
 5412SOL     OW27871   1.166   1.436  14.889  0.0003  0.0722  0.3356
 5412SOL    HW127872   1.121   1.400  14.965  0.7883 -2.0578 -0.2294
 5412SOL    HW227873   1.186   1.525  14.919  1.5371  0.1035 -0.7695
 5413SOL     OW27874   3.203   1.075   6.110  0.4176  0.3143 -0.0875
 5413SOL    HW127875   3.172   1.069   6.200 -1.9708  1.9503 -0.8041
 5413SOL    HW227876   3.116   1.080   6.070  0.7942 -0.9787 -1.0772
 5414SOL     OW27877   0.556   3.893  15.626  0.3349  0.0226  0.0009
 5414SOL    HW127878   0.544   3.957  15.696 -0.1275 -0.2846  0.2084
 5414SOL    HW227879   0.523   3.939  15.549 -1.9006 -0.3283  0.7382
 5415SOL     OW27880   3.455   2.125   2.333 -0.1919 -0.1491 -0.4970
 5415SOL    HW127881   3.484   2.211   2.363 -1.5249  1.0135 -2.5847
 5415SOL    HW227882   3.360   2.135   2.326  0.0980  2.1091 -1.1122
 5416SOL     OW27883   2.085   0.923  12.617  0.4784 -0.0644 -0.1718
 5416SOL    HW127884   2.138   0.843  12.616  0.3538 -0.1293 -1.3851
 5416SOL    HW227885   2.011   0.894  12.670  0.7591 -0.0297  0.2345
 5417SOL     OW27886   1.285   3.328   7.927  0.1749  0.0817 -0.0679
 5417SOL    HW127887   1.200   3.366   7.951  0.5530  0.4112  0.7498
 5417SOL    HW227888   1.328   3.374   7.999 -0.5787 -0.7044  0.8752
 5418SOL     OW27889   0.917   3.537   2.826  0.1275 -0.3367 -0.0632
 5418SOL    HW127890   0.850   3.505   2.765 -0.6260  3.0187 -0.9838
 5418SOL    HW227891   0.883   3.614   2.871 -2.0979 -1.3772  0.0790
 5419SOL     OW27892   1.524   1.422   4.112 -0.1939 -0.4668 -0.0446
 5419SOL    HW127893   1.498   1.356   4.176  0.4517  1.0313  1.7820
 5419SOL    HW227894   1.592   1.382   4.058  0.4015 -0.1741  0.4766
 5420SOL     OW27895   4.214   2.473  17.069  0.3106  0.0032  0.3222
 5420SOL    HW127896   4.227   2.412  17.142  0.1632  1.0092  1.1898
 5420SOL    HW227897   4.164   2.417  17.010  2.1027 -2.0888  0.8099
 5421SOL     OW27898   4.244   4.184   6.351 -0.5558  0.1732  0.3409
 5421SOL    HW127899   4.328   4.165   6.392  0.2875 -0.7826 -1.8313
 5421SOL    HW227900   4.242   4.129   6.272  1.5608  0.2497  0.2316
 5422SOL     OW27901   0.306   4.663   5.164 -0.2275 -0.5457  0.1139
 5422SOL    HW127902   0.371   4.643   5.231  0.7121 -0.4333 -0.7824
 5422SOL    HW227903   0.274   4.573   5.157 -1.1137 -0.2373  0.1734
 5423SOL     OW27904   1.044   2.160  12.825  0.1738 -0.0294 -0.1206
 5423SOL    HW127905   1.108   2.100  12.785  0.5831  0.0848  0.3629
 5423SOL    HW227906   1.103   2.234  12.841  0.8966 -0.2591 -1.7247
 5424SOL     OW27907   4.006   0.846  10.607 -0.9653  0.2642  0.5137
 5424SOL    HW127908   4.058   0.770  10.634  1.1142  0.8921 -1.7843
 5424SOL    HW227909   3.971   0.803  10.529  0.2622 -0.4961  0.3716
 5425SOL     OW27910   3.778   3.963   5.806  0.3787 -0.5454 -0.5743
 5425SOL    HW127911   3.741   3.926   5.725 -1.0381 -1.6833  0.5831
 5425SOL    HW227912   3.706   4.013   5.844  1.7745 -0.0773  1.4079
 5426SOL     OW27913   3.677   0.901   3.536  0.3811  0.7998  0.6475
 5426SOL    HW127914   3.686   0.991   3.569 -0.8739  1.1771 -0.0334
 5426SOL    HW227915   3.769   0.881   3.518 -0.3280  0.0984 -2.3097
 5427SOL     OW27916   2.987   0.353   6.451 -0.3575 -0.4203 -0.0833
 5427SOL    HW127917   2.981   0.268   6.496 -1.1746  0.0026  0.5968
 5427SOL    HW227918   3.064   0.346   6.395 -0.5185 -1.4570 -0.1839
 5428SOL     OW27919   1.223   2.349  10.798 -0.2702  0.3226  1.1715
 5428SOL    HW127920   1.188   2.394  10.874  1.1008  2.5699  0.4569
 5428SOL    HW227921   1.267   2.278  10.845  0.6685  0.7020  0.8578
 5429SOL     OW27922   3.780   3.465   8.269 -0.0698 -0.3095  0.3465
 5429SOL    HW127923   3.710   3.445   8.208  1.3007 -2.2624 -0.5946
 5429SOL    HW227924   3.860   3.479   8.217  0.8627  0.8117  2.0828
 5430SOL     OW27925   2.845   0.479  12.235 -0.5267 -0.1145 -1.1465
 5430SOL    HW127926   2.776   0.437  12.285 -0.8070 -1.5934 -2.7552
 5430SOL    HW227927   2.811   0.493  12.147  1.4344  2.2166 -1.5558
 5431SOL     OW27928   0.846   0.165   3.976  0.4367 -0.0913 -0.4011
 5431SOL    HW127929   0.888   0.147   4.060 -1.2018  0.8286  0.6061
 5431SOL    HW227930   0.904   0.109   3.924 -0.2127 -2.3769  1.3616
 5432SOL     OW27931   1.638   0.581   9.221 -0.3641 -0.5656 -0.4301
 5432SOL    HW127932   1.658   0.634   9.298  0.5287  0.2310 -1.2127
 5432SOL    HW227933   1.729   0.552   9.209 -0.1440 -0.0674  0.0613
 5433SOL     OW27934   1.714   1.040  17.105  0.3983 -0.0968  0.0247
 5433SOL    HW127935   1.706   1.134  17.088  1.6439  0.7195  3.8147
 5433SOL    HW227936   1.738   1.037  17.198  0.8226  0.8149 -0.0544
 5434SOL     OW27937   3.309   3.209   7.065  0.2481  0.0661 -0.2066
 5434SOL    HW127938   3.366   3.144   7.106  0.0659  0.2781  0.3877
 5434SOL    HW227939   3.278   3.257   7.142  0.7837  0.3344 -0.1557
 5435SOL     OW27940   0.838   2.572   8.641 -0.0447 -0.1763 -0.4185
 5435SOL    HW127941   0.822   2.646   8.583  2.5780 -1.1749 -2.4421
 5435SOL    HW227942   0.781   2.589   8.715  0.6175  0.9020 -0.1590
 5436SOL     OW27943   0.593   1.519   5.226 -0.1279 -0.3742  0.5129
 5436SOL    HW127944   0.551   1.435   5.209 -0.4065 -0.2436  0.5436
 5436SOL    HW227945   0.533   1.551   5.293 -1.4714  0.9032 -1.2948
 5437SOL     OW27946   4.491   4.654   9.181 -0.4227 -0.0385 -0.5295
 5437SOL    HW127947   4.508   4.703   9.101  0.4656  0.9031  0.2318
 5437SOL    HW227948   4.502   4.726   9.244  1.1547 -0.8487  0.1365
 5438SOL     OW27949   4.135   0.791  14.673  0.0631  0.1327  1.0149
 5438SOL    HW127950   4.229   0.795  14.693  0.0849 -1.7327  1.3300
 5438SOL    HW227951   4.098   0.848  14.740 -0.9979  3.2921 -2.2747
 5439SOL     OW27952   1.638   2.188  16.099 -0.1221 -0.1192  0.1391
 5439SOL    HW127953   1.630   2.265  16.042 -0.1116 -0.5214 -0.4083
 5439SOL    HW227954   1.678   2.132  16.033 -0.6664  1.0500 -1.1822
 5440SOL     OW27955   4.161   2.446   3.442  0.1745  0.4064 -0.2106
 5440SOL    HW127956   4.079   2.444   3.491 -0.1502 -2.4390 -0.8386
 5440SOL    HW227957   4.181   2.353   3.432  0.8874  0.7386 -1.8777
 5441SOL     OW27958   1.361   4.497   5.147 -0.0100  0.0656 -0.5479
 5441SOL    HW127959   1.396   4.538   5.226 -1.1209  0.7238 -0.4037
 5441SOL    HW227960   1.437   4.476   5.093 -0.9932 -1.5457 -1.2905
 5442SOL     OW27961   4.615   3.732   7.520 -0.2094  0.2333 -0.6158
 5442SOL    HW127962   4.710   3.726   7.524 -0.2917 -0.6318  0.1066
 5442SOL    HW227963   4.592   3.744   7.613  2.7544  0.1695  0.1201
 5443SOL     OW27964   1.724   2.978   3.383 -0.0398 -0.0266 -0.1909
 5443SOL    HW127965   1.712   2.925   3.304 -0.9042 -0.4229  0.2102
 5443SOL    HW227966   1.631   2.981   3.406 -0.3111  1.6147 -1.4851
 5444SOL     OW27967   0.496   1.907   2.009  0.2224  0.0757 -0.3951
 5444SOL    HW127968   0.585   1.941   2.022  0.5448 -1.7228  1.9921
 5444SOL    HW227969   0.447   1.985   2.035 -2.3458 -1.8011  0.2634
 5445SOL     OW27970   1.233   3.526  12.828  0.3634 -0.0444  0.4141
 5445SOL    HW127971   1.223   3.620  12.843 -1.9790 -0.2744  0.2070
 5445SOL    HW227972   1.305   3.501  12.885  0.7930 -1.4347 -0.7358
 5446SOL     OW27973   2.718   1.594   6.016  0.2504  0.4831  0.5527
 5446SOL    HW127974   2.790   1.631   6.068 -1.0253 -0.1984  2.8337
 5446SOL    HW227975   2.645   1.639   6.058  0.2824  0.3857  0.7154
 5447SOL     OW27976   3.450   4.425   3.162 -0.6391 -0.8489 -0.5057
 5447SOL    HW127977   3.510   4.487   3.201 -1.1629 -1.9063  1.9720
 5447SOL    HW227978   3.493   4.439   3.078  1.7024 -2.2753  0.4532
 5448SOL     OW27979   0.090   0.398  14.786 -0.3043  0.1925  0.9109
 5448SOL    HW127980   0.118   0.307  14.775 -2.7704 -0.6858  1.7450
 5448SOL    HW227981   0.017   0.411  14.725  0.5815  3.5543  0.6149
 5449SOL     OW27982   0.719   2.804  16.674  0.4730  0.7398  0.6800
 5449SOL    HW127983   0.742   2.874  16.614 -1.4728  0.1959 -0.7015
 5449SOL    HW227984   0.798   2.756  16.652 -0.4839 -0.8031  0.5670
 5450SOL     OW27985   1.092   1.687   5.072  0.4343  0.0388 -0.0472
 5450SOL    HW127986   1.031   1.665   5.142 -0.7061  1.5951 -0.5502
 5450SOL    HW227987   1.089   1.617   5.007 -0.6554  0.9483 -0.9905
 5451SOL     OW27988   3.084   3.217   9.612  0.2057  0.0260  0.0513
 5451SOL    HW127989   3.001   3.254   9.642  0.8798  0.8744  0.8578
 5451SOL    HW227990   3.056   3.187   9.525  0.4102  1.2284 -0.4217
 5452SOL     OW27991   1.494   4.306  12.021 -1.1372 -0.5491  0.0028
 5452SOL    HW127992   1.495   4.232  11.961 -0.4737 -1.3130  0.9587
 5452SOL    HW227993   1.454   4.373  11.965 -1.2473 -0.1244  0.5822
 5453SOL     OW27994   4.426   1.679  14.873  0.4867  0.0034  0.1438
 5453SOL    HW127995   4.409   1.772  14.889 -0.3535 -0.0131 -0.6310
 5453SOL    HW227996   4.389   1.643  14.953 -1.8976  1.4220 -0.3110
 5454SOL     OW27997   0.615   0.211  14.302 -0.2517 -0.1815  0.1487
 5454SOL    HW127998   0.683   0.257  14.252  0.5326 -1.1642  0.3136
 5454SOL    HW227999   0.664   0.179  14.377  4.2339 -0.9888 -3.1187
 5455SOL     OW28000   3.945   1.549   4.708 -0.3492  0.0058 -0.5120
 5455SOL    HW128001   4.013   1.582   4.766 -1.7146  2.2977 -0.2426
 5455SOL    HW228002   3.935   1.466   4.755  1.8409 -0.2364 -0.4606
 5456SOL     OW28003   2.017   3.052   1.258  0.6548  0.1340  0.2369
 5456SOL    HW128004   1.937   3.069   1.308  1.3145  1.8139  0.7241
 5456SOL    HW228005   2.015   2.957   1.250  0.2277  0.1824 -0.2003
 5457SOL     OW28006   2.146   1.030   2.386 -0.1284 -0.3269 -0.1987
 5457SOL    HW128007   2.231   1.025   2.429 -0.0750  0.0438 -0.2556
 5457SOL    HW228008   2.137   0.944   2.345  2.1535 -1.6466  2.1099
 5458SOL     OW28009   1.183   1.804   0.514  0.6619  0.5255 -0.1079
 5458SOL    HW128010   1.219   1.792   0.602  1.1299  0.7429 -0.2667
 5458SOL    HW228011   1.228   1.880   0.475 -3.1263  1.8787 -1.8077
 5459SOL     OW28012   3.571   3.285   1.504 -0.2027  0.2786  0.3427
 5459SOL    HW128013   3.506   3.270   1.572  1.1720 -2.0179  1.1225
 5459SOL    HW228014   3.513   3.306   1.431  0.3321 -0.0903 -0.1878
 5460SOL     OW28015   3.900   1.805  14.069  0.3520  0.2756 -0.7046
 5460SOL    HW128016   3.891   1.728  14.013 -1.0817  1.7965 -2.5784
 5460SOL    HW228017   3.877   1.772  14.155  0.8622 -0.6565 -0.9290
 5461SOL     OW28018   0.835   4.128   1.948  0.5235 -0.2010 -0.6296
 5461SOL    HW128019   0.762   4.066   1.944  0.5831 -0.3482  0.6831
 5461SOL    HW228020   0.902   4.079   1.900  1.1736 -0.1927  0.2638
 5462SOL     OW28021   4.528   0.737   2.602  0.4055 -0.5552  0.4561
 5462SOL    HW128022   4.535   0.644   2.580  0.7064  0.1474 -2.4251
 5462SOL    HW228023   4.605   0.765   2.552 -0.8652  3.2567  0.6301
 5463SOL     OW28024   1.859   0.343   5.651  0.3279  0.0720  0.5420
 5463SOL    HW128025   1.834   0.306   5.566  0.1833  2.2272 -0.3586
 5463SOL    HW228026   1.824   0.272   5.705  0.1103  0.2958  0.6907
 5464SOL     OW28027   1.620   3.796   2.676 -0.5009  1.0014 -0.1233
 5464SOL    HW128028   1.695   3.748   2.711 -1.5214  0.1219  0.8509
 5464SOL    HW228029   1.575   3.827   2.754  0.9595 -3.1651  2.3855
 5465SOL     OW28030   3.636   0.638  10.770 -0.5449  0.2477 -0.2787
 5465SOL    HW128031   3.720   0.592  10.766 -0.3859  0.6348 -1.3944
 5465SOL    HW228032   3.585   0.557  10.781 -1.1042  0.5901 -0.3838
 5466SOL     OW28033   1.731   1.920   1.848 -0.1580  0.4311  0.4237
 5466SOL    HW128034   1.820   1.902   1.879  0.0798  1.9580  0.6227
 5466SOL    HW228035   1.711   2.013   1.857 -0.4149  0.4596 -0.4680
 5467SOL     OW28036   4.357   1.285   4.840  0.4146 -0.1229  0.3567
 5467SOL    HW128037   4.270   1.276   4.878  1.1605 -4.4945  1.0342
 5467SOL    HW228038   4.393   1.322   4.920 -2.5752  2.0080  0.7245
 5468SOL     OW28039   3.112   1.969   7.914  0.9656  0.2612  0.1811
 5468SOL    HW128040   3.172   2.039   7.888 -0.1736  1.1495 -0.0720
 5468SOL    HW228041   3.055   2.017   7.975  1.1164 -1.2880  1.5405
 5469SOL     OW28042   1.503   0.080   0.305  0.4017 -0.4596 -0.3670
 5469SOL    HW128043   1.504   0.059   0.212  1.3085  1.3888 -0.7677
 5469SOL    HW228044   1.409   0.079   0.322  0.6695  1.7539  1.1334
 5470SOL     OW28045   3.651   1.274  13.361 -0.3192 -0.5169 -1.0935
 5470SOL    HW128046   3.630   1.286  13.269  2.2202  0.8058 -1.4952
 5470SOL    HW228047   3.746   1.278  13.361 -0.3122 -0.6921 -1.3098
 5471SOL     OW28048   1.200   0.231   6.232 -0.2115  0.5079 -0.7284
 5471SOL    HW128049   1.239   0.280   6.304 -1.7013 -0.5861  0.8210
 5471SOL    HW228050   1.136   0.171   6.271  0.4293 -0.7361 -1.5789
 5472SOL     OW28051   0.934   1.064   6.051  0.2611  0.1567 -0.0830
 5472SOL    HW128052   0.856   1.076   6.106  0.1629  2.8781 -0.7916
 5472SOL    HW228053   0.946   0.971   6.032  0.6789  0.1531  0.1935
 5473SOL     OW28054   3.629   4.253  13.732  0.1712  0.2244 -0.4511
 5473SOL    HW128055   3.687   4.252  13.808 -1.5840 -0.1868  0.8904
 5473SOL    HW228056   3.594   4.164  13.727 -0.3527  0.3987  0.2568
 5474SOL     OW28057   1.591   2.402   4.609 -0.3171  0.7404 -0.2686
 5474SOL    HW128058   1.535   2.466   4.565  1.3723  0.6556 -2.5366
 5474SOL    HW228059   1.614   2.342   4.538 -1.5567  0.8769 -0.7886
 5475SOL     OW28060   1.567   0.177  15.340 -0.1204  0.3611  0.0878
 5475SOL    HW128061   1.655   0.142  15.354 -0.5958  0.0989  2.5535
 5475SOL    HW228062   1.593   0.239  15.272 -3.1241  1.7345  0.1792
 5476SOL     OW28063   1.370   2.499   5.344  0.4899 -0.1746  0.4392
 5476SOL    HW128064   1.357   2.442   5.268  2.1686  1.1088 -0.7974
 5476SOL    HW228065   1.438   2.557   5.311  1.4517 -2.2414 -1.1382
 5477SOL     OW28066   3.801   3.267  16.161 -0.1353  0.1678 -0.3679
 5477SOL    HW128067   3.783   3.182  16.121 -4.2269 -0.3369  2.5154
 5477SOL    HW228068   3.885   3.288  16.120 -0.0775 -2.4786 -1.5923
 5478SOL     OW28069   0.936   2.299   7.841  0.1386 -0.0024 -0.0284
 5478SOL    HW128070   1.016   2.344   7.868  1.0340 -1.0147 -1.0203
 5478SOL    HW228071   0.890   2.318   7.923  2.8917 -0.5848  1.6645
 5479SOL     OW28072   3.538   4.395   7.964  0.1961  0.8563  0.3318
 5479SOL    HW128073   3.549   4.364   8.054  1.1386  0.8515  0.2170
 5479SOL    HW228074   3.496   4.322   7.919 -0.9275  1.1617  0.8860
 5480SOL     OW28075   1.495   2.961   6.180  0.6842  0.2384  0.0074
 5480SOL    HW128076   1.501   2.877   6.227  0.7387  1.1386  1.6095
 5480SOL    HW228077   1.585   2.994   6.187 -0.1706  3.0847 -2.6481
 5481SOL     OW28078   4.326   1.499   5.475 -0.1694 -0.3487 -0.6759
 5481SOL    HW128079   4.275   1.539   5.546  0.4706  0.0844 -0.4503
 5481SOL    HW228080   4.287   1.413   5.461 -1.2401 -0.0291  0.3649
 5482SOL     OW28081   2.428   2.995  16.838 -0.2090  0.1677  0.0862
 5482SOL    HW128082   2.447   3.025  16.749 -0.0158 -3.4708 -1.1083
 5482SOL    HW228083   2.362   3.057  16.869 -0.2250  0.7637 -1.1162
 5483SOL     OW28084   0.043   2.223   0.300  0.6679  0.0581 -0.3779
 5483SOL    HW128085   0.112   2.215   0.235  0.3864  0.3289 -0.7137
 5483SOL    HW228086   0.089   2.251   0.380 -2.1259  0.9778  0.9169
 5484SOL     OW28087   0.793   3.437   1.391  0.3234 -0.5432  0.1256
 5484SOL    HW128088   0.787   3.370   1.323  3.0747  1.1631 -1.8250
 5484SOL    HW228089   0.703   3.460   1.414  1.0515  0.9483  1.5151
 5485SOL     OW28090   1.358   3.075  16.427  0.2306 -0.5682  0.4199
 5485SOL    HW128091   1.316   2.993  16.456 -3.6203  1.5729  0.8646
 5485SOL    HW228092   1.351   3.135  16.501  0.5320  3.0864 -2.5126
 5486SOL     OW28093   2.449   4.574   8.357  0.4949 -0.3507  0.0658
 5486SOL    HW128094   2.544   4.589   8.359  0.3580  0.5707 -0.2033
 5486SOL    HW228095   2.426   4.664   8.333 -0.2665 -1.2796 -2.6765
 5487SOL     OW28096   3.366   3.094   2.514 -0.5550  0.6961  0.4434
 5487SOL    HW128097   3.321   3.174   2.540 -0.6287  0.2125  1.8038
 5487SOL    HW228098   3.456   3.116   2.540 -0.3074 -0.6380  0.6921
 5488SOL     OW28099   0.082   2.218   7.897  0.9954 -0.0823  0.1902
 5488SOL    HW128100   0.069   2.155   7.826  1.8271 -0.9405  0.7907
 5488SOL    HW228101   0.042   2.298   7.863  1.6797 -0.4087 -1.3762
 5489SOL     OW28102   3.302   4.029   5.274 -0.2249 -0.0931 -0.0273
 5489SOL    HW128103   3.277   4.011   5.364  1.3896 -0.1578  0.4079
 5489SOL    HW228104   3.227   4.000   5.223 -1.5119  1.5062  0.9686
 5490SOL     OW28105   3.502   4.100   2.867  0.2988 -0.0140  0.5317
 5490SOL    HW128106   3.492   4.195   2.855 -1.0308 -0.5382 -2.4669
 5490SOL    HW228107   3.517   4.097   2.961 -0.8354  0.8655  0.7423
 5491SOL     OW28108   0.190   0.477   3.957  0.2245 -0.1172 -1.1406
 5491SOL    HW128109   0.252   0.405   3.971  1.1038  0.6629 -0.9920
 5491SOL    HW228110   0.108   0.437   3.926 -0.0533 -0.9988  0.7435
 5492SOL     OW28111   0.226   1.942   7.185 -0.2443 -0.1287  0.3198
 5492SOL    HW128112   0.236   1.873   7.120 -1.0528  0.0914 -0.0328
 5492SOL    HW228113   0.248   1.894   7.264 -1.4756 -0.6759  0.3277
 5493SOL     OW28114   1.553   3.784   1.449  0.2826 -0.2464 -0.0439
 5493SOL    HW128115   1.486   3.746   1.506  0.3234 -1.1238 -0.5930
 5493SOL    HW228116   1.502   3.778   1.368  2.5001 -0.6771 -1.4043
 5494SOL     OW28117   1.077   3.200  15.422 -0.6261  0.0131  0.1256
 5494SOL    HW128118   1.155   3.255  15.414 -0.9728  0.4011 -0.5563
 5494SOL    HW228119   1.020   3.235  15.354 -0.3805 -1.1151 -0.6634
 5495SOL     OW28120   0.858   2.680  12.545 -0.1125  0.1351 -0.4171
 5495SOL    HW128121   0.790   2.725  12.595  1.8647  2.3876  0.2403
 5495SOL    HW228122   0.880   2.752  12.486  0.7106  0.0980 -0.1471
 5496SOL     OW28123   2.589   0.528  16.105 -0.2983 -0.1512 -0.1722
 5496SOL    HW128124   2.682   0.521  16.086 -0.1570 -2.4298  1.3005
 5496SOL    HW228125   2.586   0.487  16.192  0.9593 -1.6457 -0.8312
 5497SOL     OW28126   0.534   1.781   7.385  0.0230  0.1126 -1.1316
 5497SOL    HW128127   0.595   1.713   7.412  0.2645  0.0777 -1.7853
 5497SOL    HW228128   0.522   1.754   7.294  1.6873  0.9876 -1.6204
 5498SOL     OW28129   2.046   1.534   4.399 -0.0541 -0.1840 -0.2796
 5498SOL    HW128130   1.969   1.555   4.450 -0.4543 -1.6359 -0.2948
 5498SOL    HW228131   2.107   1.588   4.449 -2.4366  2.3913 -0.2036
 5499SOL     OW28132   0.007   2.970  17.111  0.1334 -0.0173 -0.3131
 5499SOL    HW128133   0.004   3.063  17.137  0.1756 -0.0881 -0.0469
 5499SOL    HW228134   0.051   2.929  17.186  1.2820  2.2027  0.2330
 5500SOL     OW28135   4.388   1.078   8.965 -0.1647 -0.6085  0.4543
 5500SOL    HW128136   4.479   1.079   8.933 -0.2288 -0.8994  0.2667
 5500SOL    HW228137   4.349   1.154   8.920 -0.0938 -1.3514 -0.8587
 5501SOL     OW28138   3.369   1.157  17.058 -0.0178  0.1968 -0.8091
 5501SOL    HW128139   3.356   1.218  17.131 -1.2312  0.1644 -1.0110
 5501SOL    HW228140   3.465   1.154  17.061 -0.0778  0.9187  1.5545
 5502SOL     OW28141   0.400   1.821  15.540  0.4087 -0.2318 -0.5066
 5502SOL    HW128142   0.338   1.823  15.467 -0.4910 -0.2040  0.2574
 5502SOL    HW228143   0.440   1.907  15.527 -0.0968  0.1174  0.2158
 5503SOL     OW28144   2.335   0.368   1.273  0.4248 -0.0602  0.4124
 5503SOL    HW128145   2.380   0.402   1.351  0.8672 -0.2599  0.2422
 5503SOL    HW228146   2.266   0.434   1.266  1.4204  0.7694 -1.4557
 5504SOL     OW28147   1.112   4.007  16.918 -1.1155  0.2348 -0.1013
 5504SOL    HW128148   1.090   3.935  16.859  1.5063 -1.4116  0.8908
 5504SOL    HW228149   1.142   4.064  16.848  0.6487 -0.1124  0.3584
 5505SOL     OW28150   2.355   1.286   1.585 -0.8084  0.2794 -0.0614
 5505SOL    HW128151   2.307   1.204   1.589 -0.3055  0.0028  0.2528
 5505SOL    HW228152   2.421   1.266   1.519  0.8407  2.4261  0.9380
 5506SOL     OW28153   0.174   4.624   2.298  0.0035 -0.2101  0.2765
 5506SOL    HW128154   0.222   4.554   2.342  0.5333  1.6186  2.6598
 5506SOL    HW228155   0.207   4.629   2.209 -0.3062 -1.8902  0.0798
 5507SOL     OW28156   0.050   1.415   6.580  0.2712  0.1506 -0.0529
 5507SOL    HW128157   0.059   1.493   6.525  0.7677 -1.6723 -2.5765
 5507SOL    HW228158   4.691   1.402   6.582  0.3688 -0.8463 -2.2761
 5508SOL     OW28159   1.626   0.628   8.810 -0.3792  0.1220 -0.0860
 5508SOL    HW128160   1.662   0.583   8.887 -0.6609  0.6229  0.3424
 5508SOL    HW228161   1.580   0.701   8.853 -3.1332  0.2048 -3.1672
 5509SOL     OW28162   2.227   1.219   7.662 -0.6490 -0.0947  0.1299
 5509SOL    HW128163   2.238   1.303   7.619  0.9809 -0.6755 -0.5956
 5509SOL    HW228164   2.284   1.222   7.740  0.2289  0.5711 -0.5382
 5510SOL     OW28165   3.985   4.085  16.055  0.1235  0.3404 -0.1176
 5510SOL    HW128166   3.903   4.036  16.051  0.8620 -0.8456 -0.8685
 5510SOL    HW228167   3.946   4.172  16.044 -0.4416 -0.0010 -0.8080
 5511SOL     OW28168   4.361   2.017   8.395 -0.1187  0.6549  0.1033
 5511SOL    HW128169   4.422   2.080   8.435 -0.7933 -0.6215  3.1025
 5511SOL    HW228170   4.399   2.002   8.309  0.0769  0.6450  0.1903
 5512SOL     OW28171   3.810   3.891   2.540  0.5139 -0.2860  0.1454
 5512SOL    HW128172   3.829   3.825   2.607  0.4868 -4.2408 -3.6892
 5512SOL    HW228173   3.778   3.962   2.594 -1.7689 -0.6888 -0.6710
 5513SOL     OW28174   3.791   3.950  17.576 -0.1737 -0.2045 -0.2677
 5513SOL    HW128175   3.871   3.960  17.627 -1.8445  0.8138  2.1853
 5513SOL    HW228176   3.799   3.855  17.580 -2.3271 -0.4019 -0.3447
 5514SOL     OW28177   1.887   2.604   3.908 -0.4071 -0.4559  0.2142
 5514SOL    HW128178   1.890   2.699   3.917  1.5527 -0.3639 -1.3902
 5514SOL    HW228179   1.860   2.603   3.817 -1.5191  2.1170  0.5040
 5515SOL     OW28180   1.007   4.469   3.670  0.5748  0.5375 -0.6452
 5515SOL    HW128181   0.961   4.411   3.732 -0.4197  0.4347 -1.4747
 5515SOL    HW228182   1.038   4.400   3.612 -1.6052 -2.7741  2.0840
 5516SOL     OW28183   1.426   4.367   7.678  0.3805  0.0116 -0.4088
 5516SOL    HW128184   1.504   4.394   7.726  1.2632 -0.8891 -1.3376
 5516SOL    HW228185   1.472   4.333   7.601 -0.6422 -1.0021 -0.5754
 5517SOL     OW28186   1.084   2.274   8.826  0.6021 -0.5515 -0.1452
 5517SOL    HW128187   1.120   2.334   8.891  1.6878 -1.4697  0.0941
 5517SOL    HW228188   1.162   2.232   8.792  1.2451  0.3690  0.1823
 5518SOL     OW28189   2.620   4.206  16.205 -0.0461  0.1671 -0.2339
 5518SOL    HW128190   2.606   4.131  16.263  0.3398 -0.4938 -0.9931
 5518SOL    HW228191   2.544   4.262  16.221  1.2003  1.8781 -0.2818
 5519SOL     OW28192   0.996   3.485   9.190 -0.8851 -0.1617  0.2750
 5519SOL    HW128193   1.073   3.452   9.237 -1.1507 -0.2830  0.6244
 5519SOL    HW228194   0.978   3.552   9.256  0.7165 -1.4636  2.0346
 5520SOL     OW28195   1.852   2.570  12.663  0.0182  0.2437 -0.7492
 5520SOL    HW128196   1.882   2.551  12.752 -2.5160  0.0567  0.0697
 5520SOL    HW228197   1.844   2.482  12.626 -2.0941  0.3848 -0.6533
 5521SOL     OW28198   2.293   2.497   5.339 -0.2855  0.4685 -0.4368
 5521SOL    HW128199   2.280   2.409   5.374 -2.7480  0.7612 -0.6214
 5521SOL    HW228200   2.381   2.524   5.367 -0.8357  0.2781  1.4940
 5522SOL     OW28201   0.050   3.652   0.651  0.4990 -0.0301  0.1845
 5522SOL    HW128202   0.059   3.744   0.679 -0.6702 -0.0686  0.6848
 5522SOL    HW228203   0.017   3.650   0.562 -0.3406 -3.0119  0.5656
 5523SOL     OW28204   0.384   0.787   6.181 -0.5532 -0.2013  0.0341
 5523SOL    HW128205   0.329   0.852   6.224  1.4672  1.3503  0.2826
 5523SOL    HW228206   0.329   0.747   6.113 -0.2527  0.1685 -0.4253
 5524SOL     OW28207   0.104   3.176  16.538  0.4856  0.0276  0.4148
 5524SOL    HW128208   0.180   3.120  16.556  0.6488 -0.1352 -0.7769
 5524SOL    HW228209   0.114   3.205  16.447 -0.3525  0.4396  0.4596
 5525SOL     OW28210   1.078   2.056   3.311 -0.5013 -0.4527 -0.3616
 5525SOL    HW128211   0.996   2.040   3.359 -0.6694 -0.1985 -0.5683
 5525SOL    HW228212   1.142   2.013   3.368 -0.6858  1.2204  1.0919
 5526SOL     OW28213   2.189   4.683   2.485  0.4661  0.4434 -0.0748
 5526SOL    HW128214   2.186   4.674   2.390 -1.7452  1.2044 -0.0805
 5526SOL    HW228215   2.250   0.020   2.490  0.9777 -0.0379  0.8446
 5527SOL     OW28216   2.133   1.317   8.596 -0.1674 -0.5165  0.6182
 5527SOL    HW128217   2.083   1.380   8.545  0.8044  1.1804  1.7978
 5527SOL    HW228218   2.073   1.302   8.669  0.1097 -0.3983  0.8639
 5528SOL     OW28219   1.848   3.521   5.741 -0.7252 -0.9792 -0.3777
 5528SOL    HW128220   1.769   3.570   5.761 -0.5082 -1.1070  0.7989
 5528SOL    HW228221   1.862   3.556   5.653  0.2290 -1.0623 -0.2638
 5529SOL     OW28222   4.335   1.728   9.745  0.0235 -0.5673 -0.0375
 5529SOL    HW128223   4.331   1.660   9.678 -1.1768  0.2693 -0.8215
 5529SOL    HW228224   4.264   1.691   9.796  1.5714  0.9720  3.2202
 5530SOL     OW28225   0.432   2.654  12.063 -0.0774  0.6957 -0.4585
 5530SOL    HW128226   0.407   2.744  12.083 -0.4408 -0.3797  3.9768
 5530SOL    HW228227   0.355   2.599  12.077  0.2002 -0.1882 -2.2926
 5531SOL     OW28228   0.950   2.555   5.653 -0.1266  0.3218  0.0940
 5531SOL    HW128229   0.900   2.549   5.572 -0.3829  0.9914  0.1974
 5531SOL    HW228230   1.040   2.577   5.629 -0.4858 -0.1700 -1.6948
 5532SOL     OW28231   3.564   3.717   6.015 -0.0545 -0.1367 -0.4062
 5532SOL    HW128232   3.555   3.659   6.090 -0.5888  1.0031  0.4187
 5532SOL    HW228233   3.589   3.651   5.951  0.7309  0.0854 -0.3304
 5533SOL     OW28234   4.071   1.806   6.805  0.3915 -0.1671 -0.1004
 5533SOL    HW128235   4.000   1.870   6.804  0.8077  0.2735 -1.7005
 5533SOL    HW228236   4.145   1.858   6.837  0.6451  0.6298 -1.9782
 5534SOL     OW28237   1.772   0.913   7.568 -0.4222  0.0483 -0.0344
 5534SOL    HW128238   1.713   0.855   7.521  0.0421 -2.1955  2.1811
 5534SOL    HW228239   1.845   0.900   7.507 -0.4437  0.0796 -0.0665
 5535SOL     OW28240   1.253   3.985   1.516  0.5871  0.0300 -0.2274
 5535SOL    HW128241   1.216   3.929   1.447  0.4938 -3.1430  2.3792
 5535SOL    HW228242   1.203   4.064   1.498  1.2108  0.2659 -0.9152
 5536SOL     OW28243   4.683   2.129   3.413 -0.5941 -0.4756  0.3365
 5536SOL    HW128244   4.677   2.066   3.485 -2.7892  1.8425  2.1570
 5536SOL    HW228245   4.648   2.077   3.340  0.9213 -0.5398 -0.3558
 5537SOL     OW28246   1.268   2.758   1.528 -0.6375  0.7280  0.0942
 5537SOL    HW128247   1.350   2.731   1.488  0.1313  0.0091  2.1961
 5537SOL    HW228248   1.202   2.750   1.459 -0.1843  0.8498 -0.3524
 5538SOL     OW28249   2.121   0.588   1.553 -0.1264  0.8258  0.0416
 5538SOL    HW128250   2.197   0.646   1.540 -0.7811  1.3358 -1.5273
 5538SOL    HW228251   2.101   0.555   1.465 -0.8585 -1.9405  1.2373
 5539SOL     OW28252   0.197   4.437  15.561  0.0480  0.2217 -0.9071
 5539SOL    HW128253   0.167   4.528  15.562 -1.2620 -0.2413  2.1660
 5539SOL    HW228254   0.120   4.402  15.514 -0.0530 -1.4848  0.5215
 5540SOL     OW28255   3.245   4.018  10.175  0.7188 -0.0024  0.2095
 5540SOL    HW128256   3.158   3.981  10.190  1.4870 -1.7780  0.3680
 5540SOL    HW228257   3.297   3.946  10.137  1.1763  0.7116 -0.5048
 5541SOL     OW28258   0.569   2.119  12.591 -0.6415 -0.6733  0.7875
 5541SOL    HW128259   0.653   2.149  12.557 -2.7070  2.7507 -1.2904
 5541SOL    HW228260   0.525   2.204  12.592 -0.8788 -0.8150  2.1558
 5542SOL     OW28261   1.081   3.309   5.516  0.7252 -0.5168 -0.1375
 5542SOL    HW128262   1.163   3.346   5.548  0.7466 -1.1331  0.5389
 5542SOL    HW228263   1.105   3.216   5.515  1.6457 -0.2875  1.0547
 5543SOL     OW28264   1.668   1.276   5.121  0.0809 -0.4115 -0.0184
 5543SOL    HW128265   1.677   1.181   5.117 -3.3781 -0.8884  3.1493
 5543SOL    HW228266   1.702   1.305   5.037  1.3088  0.1366  0.6596
 5544SOL     OW28267   2.990   2.387   6.201  0.5321 -0.1505 -0.4008
 5544SOL    HW128268   3.007   2.477   6.175  0.9562  0.1985  1.0637
 5544SOL    HW228269   2.900   2.377   6.234  1.3447  1.5763  2.3022
 5545SOL     OW28270   3.036   3.367   2.367  0.0789  0.0670  0.5435
 5545SOL    HW128271   3.016   3.394   2.277  1.8934  1.5386  0.5716
 5545SOL    HW228272   3.062   3.452   2.403  1.5719  0.0877 -0.5370
 5546SOL     OW28273   1.856   2.913   8.415 -0.1524  0.1615  0.2120
 5546SOL    HW128274   1.797   2.892   8.343  0.8815  0.1082 -0.6291
 5546SOL    HW228275   1.910   2.982   8.376 -1.5295 -0.0585 -2.0964
 5547SOL     OW28276   2.298   2.298  13.622  0.0447  0.0002 -0.5753
 5547SOL    HW128277   2.312   2.393  13.613 -1.7497  0.2825 -0.3675
 5547SOL    HW228278   2.219   2.305  13.675  0.5700  0.1314  0.1986
 5548SOL     OW28279   0.833   1.315   7.484 -0.0791  0.2768 -0.5351
 5548SOL    HW128280   0.862   1.252   7.418  0.7463 -2.7573  2.7076
 5548SOL    HW228281   0.905   1.378   7.486 -1.3553  1.5967  3.1268
 5549SOL     OW28282   0.980   0.366   5.565 -0.0263  0.3669 -0.2105
 5549SOL    HW128283   0.991   0.453   5.527 -0.5849  1.2016  1.5672
 5549SOL    HW228284   1.073   0.343   5.563  0.0060  0.6657 -2.5950
 5550SOL     OW28285   3.108   2.105  16.615  0.4254 -0.1064  0.5944
 5550SOL    HW128286   3.071   2.151  16.540 -1.0936 -2.3166 -0.0307
 5550SOL    HW228287   3.086   2.014  16.595 -0.7082  0.3384 -0.1837
 5551SOL     OW28288   4.123   0.953   7.727  0.1420 -0.2240 -0.1440
 5551SOL    HW128289   4.212   0.984   7.710 -0.0905  1.3750  1.5580
 5551SOL    HW228290   4.097   1.014   7.797  1.8338  0.7032 -0.3213
 5552SOL     OW28291   3.833   0.161   7.584  0.1960 -0.0433  0.0575
 5552SOL    HW128292   3.922   0.180   7.554  1.8221 -0.9225  4.3297
 5552SOL    HW228293   3.805   0.107   7.511  0.3962  0.4810 -0.4018
 5553SOL     OW28294   3.793   2.095   8.157  0.6254  0.1492  0.7077
 5553SOL    HW128295   3.805   2.014   8.106 -0.3222 -1.8131  3.5980
 5553SOL    HW228296   3.853   2.083   8.230  1.0501 -1.0806  0.1619
 5554SOL     OW28297   1.340   0.181  16.301  0.1455 -0.2408  0.1822
 5554SOL    HW128298   1.273   0.226  16.248 -0.0095  1.8079  2.1187
 5554SOL    HW228299   1.404   0.252  16.311 -0.5537  0.7422 -2.2418
 5555SOL     OW28300   0.256   0.280   6.190  0.2762 -0.0868 -0.0928
 5555SOL    HW128301   0.203   0.332   6.251  0.6853  0.4403 -0.1787
 5555SOL    HW228302   0.339   0.289   6.237 -0.5037 -1.4016  1.5351
 5556SOL     OW28303   3.632   2.863   2.435 -0.0939 -0.1562  0.6149
 5556SOL    HW128304   3.577   2.873   2.513 -0.9606 -0.3838  0.0354
 5556SOL    HW228305   3.602   2.779   2.402  1.9469  0.7818 -3.5973
 5557SOL     OW28306   0.484   0.659   9.056  0.2843 -0.0423  0.0102
 5557SOL    HW128307   0.479   0.568   9.025 -0.1489 -0.6784  1.9137
 5557SOL    HW228308   0.433   0.649   9.136 -0.8897 -0.0666 -0.7424
 5558SOL     OW28309   1.680   2.879   7.137 -0.4342  0.2734 -0.0401
 5558SOL    HW128310   1.644   2.830   7.063  1.7562  1.3495 -1.8189
 5558SOL    HW228311   1.653   2.968   7.115 -2.6550 -0.9375 -2.2042
 5559SOL     OW28312   0.160   2.617   4.078  0.6272  0.0054  0.5672
 5559SOL    HW128313   0.181   2.710   4.079  0.5301  0.0355  0.0002
 5559SOL    HW228314   0.245   2.574   4.066  1.4046  2.2115 -1.8563
 5560SOL     OW28315   1.928   1.500   1.976 -0.5823  0.4276 -0.1811
 5560SOL    HW128316   1.876   1.544   1.909 -0.3617  2.3278  0.9043
 5560SOL    HW228317   1.991   1.448   1.928 -0.5599  0.5843 -0.3210
 5561SOL     OW28318   0.101   4.009  16.380 -0.8172 -0.2405 -0.3662
 5561SOL    HW128319   0.182   4.056  16.400 -0.1947 -0.4502 -2.3854
 5561SOL    HW228320   0.094   4.007  16.285  0.9743 -1.6617 -0.4732
 5562SOL     OW28321   2.535   3.338  14.424 -0.1070 -0.3851  0.1897
 5562SOL    HW128322   2.548   3.403  14.355 -3.5869 -1.5075 -1.5507
 5562SOL    HW228323   2.620   3.296  14.415  0.4465  0.7939  0.0102
 5563SOL     OW28324   1.298   4.172  12.674 -0.4935  0.1667  0.2798
 5563SOL    HW128325   1.271   4.080  12.678 -0.3442  0.1695  1.4199
 5563SOL    HW228326   1.244   4.195  12.599 -0.3899 -0.3960  0.0325
 5564SOL     OW28327   1.328   3.642   9.132  0.5896  0.1173  0.1999
 5564SOL    HW128328   1.375   3.660   9.050 -0.7059  2.2329 -0.0914
 5564SOL    HW228329   1.321   3.734   9.159  0.8732 -0.2028  1.3541
 5565SOL     OW28330   3.066   4.611   1.057 -0.1602 -0.3211 -0.2672
 5565SOL    HW128331   3.051   4.668   0.981  1.6682 -0.7432 -0.9323
 5565SOL    HW228332   3.111   4.535   1.021  0.4311 -0.1472  0.1102
 5566SOL     OW28333   2.699   3.965   6.075  0.6900  0.2457  0.1358
 5566SOL    HW128334   2.741   4.034   6.127  2.4532 -1.5526  1.0911
 5566SOL    HW228335   2.668   3.902   6.140 -1.2989 -0.8901 -1.9314
 5567SOL     OW28336   4.380   1.058   7.671  0.1496  0.4278 -0.2090
 5567SOL    HW128337   4.469   1.070   7.639  0.8304  1.5899  2.0841
 5567SOL    HW228338   4.399   1.058   7.765  1.3206 -4.1408 -0.4639
 5568SOL     OW28339   1.109   1.611   4.757  0.1414  0.1662 -0.1378
 5568SOL    HW128340   1.109   1.535   4.815 -0.7318  1.5466  1.6663
 5568SOL    HW228341   1.016   1.629   4.746  0.5143  0.0984 -3.3974
 5569SOL     OW28342   3.823   3.953   3.492  0.3680 -0.7415 -0.1059
 5569SOL    HW128343   3.886   4.001   3.439 -0.1584 -0.3200 -0.3504
 5569SOL    HW228344   3.882   3.935   3.565 -1.2218 -2.4472  0.7363
 5570SOL     OW28345   0.661   3.648   3.487  0.1824 -0.6694  0.5150
 5570SOL    HW128346   0.630   3.572   3.536 -1.6900 -1.5891 -2.0964
 5570SOL    HW228347   0.596   3.656   3.417  0.3593  0.9146  0.5441
 5571SOL     OW28348   2.558   1.883   0.316 -0.0383 -0.1878 -0.6888
 5571SOL    HW128349   2.564   1.963   0.369 -1.2442  0.8221 -2.0678
 5571SOL    HW228350   2.487   1.904   0.256 -2.1064 -2.0183  1.1536
 5572SOL     OW28351   3.825   1.113   0.223 -0.8303  0.1542  0.1561
 5572SOL    HW128352   3.742   1.101   0.177 -0.2760 -1.1282 -0.5355
 5572SOL    HW228353   3.865   1.190   0.183  0.3764 -0.8660 -0.6366
 5573SOL     OW28354   1.346   3.255   5.818  0.4938  0.1332  0.0840
 5573SOL    HW128355   1.262   3.237   5.860  0.5195  0.0981  0.1207
 5573SOL    HW228356   1.364   3.324   5.882 -0.1213 -0.0971  0.5063
 5574SOL     OW28357   4.207   1.783   8.392  0.3878 -0.3498  0.8662
 5574SOL    HW128358   4.155   1.827   8.325  1.7650  0.6132  0.4218
 5574SOL    HW228359   4.266   1.853   8.420  1.3523 -1.8772  2.6712
 5575SOL     OW28360   2.771   2.259  10.284  1.0590  0.1790 -0.2844
 5575SOL    HW128361   2.696   2.204  10.261  0.4294  0.4527  1.0997
 5575SOL    HW228362   2.748   2.300  10.367 -0.9584 -0.5036 -0.4910
 5576SOL     OW28363   0.062   3.419   8.889  0.1726 -0.6279 -0.7850
 5576SOL    HW128364   0.153   3.438   8.912  0.0358 -0.6635 -0.2223
 5576SOL    HW228365   0.044   3.344   8.946 -0.5620 -1.7394 -2.4881
 5577SOL     OW28366   1.735   1.758   9.134  0.1276  0.4982 -0.2635
 5577SOL    HW128367   1.669   1.703   9.177  0.1915 -0.5849 -1.5460
 5577SOL    HW228368   1.765   1.805   9.212  2.2451 -2.6278  0.8301
 5578SOL     OW28369   3.804   2.410   4.537 -0.0010 -0.1114  0.1549
 5578SOL    HW128370   3.760   2.326   4.527  3.9754 -2.1286 -0.4921
 5578SOL    HW228371   3.896   2.396   4.558  0.3373  1.4511 -0.2258
 5579SOL     OW28372   3.292   3.626  13.220 -0.4636  0.3718  0.3467
 5579SOL    HW128373   3.255   3.600  13.136 -2.9275  1.7295  1.0263
 5579SOL    HW228374   3.341   3.546  13.241 -0.4518 -0.1483 -1.6661
 5580SOL     OW28375   3.532   2.761   3.995  0.0594 -0.3218 -0.5805
 5580SOL    HW128376   3.519   2.676   3.953  2.0572 -0.9665  0.1032
 5580SOL    HW228377   3.517   2.739   4.087 -1.4072 -2.9441 -1.4748
 5581SOL     OW28378   0.655   1.545  12.061 -0.2173 -0.0894  0.2720
 5581SOL    HW128379   0.576   1.553  12.007  1.2943  0.7146 -1.8173
 5581SOL    HW228380   0.631   1.550  12.153  1.2792 -0.3725  0.6809
 5582SOL     OW28381   0.231   1.242   2.339  0.5998  0.4433  0.1757
 5582SOL    HW128382   0.294   1.309   2.311  1.3349 -0.0054  0.7725
 5582SOL    HW228383   0.288   1.186   2.391 -0.4001 -1.0202 -0.3315
 5583SOL     OW28384   4.138   2.635   0.263 -0.2372 -0.2510 -0.0012
 5583SOL    HW128385   4.156   2.671   0.350  3.0116 -0.6179 -0.5314
 5583SOL    HW228386   4.229   2.624   0.237  0.3057  0.9676  1.3373
 5584SOL     OW28387   4.172   3.711   5.673 -0.1998 -0.1948  0.5822
 5584SOL    HW128388   4.191   3.765   5.596 -0.7943  1.0193  1.2885
 5584SOL    HW228389   4.099   3.756   5.715 -1.9854 -2.7069  0.0983
 5585SOL     OW28390   1.197   0.789   9.144  0.2958  0.2440  0.1693
 5585SOL    HW128391   1.226   0.803   9.053 -1.3057 -3.4660 -0.8840
 5585SOL    HW228392   1.112   0.746   9.142  0.5918 -0.3797  1.8876
 5586SOL     OW28393   1.714   3.818   7.260 -0.1760 -0.0766  0.6780
 5586SOL    HW128394   1.634   3.848   7.302 -1.2149 -1.7772 -0.1000
 5586SOL    HW228395   1.729   3.901   7.214  0.2399 -0.7547 -0.4042
 5587SOL     OW28396   1.985   0.355   8.949 -0.2197 -0.5038 -0.2701
 5587SOL    HW128397   2.022   0.287   8.893 -2.3020  0.6657 -3.0719
 5587SOL    HW228398   1.893   0.327   8.953 -0.5431  0.6708  0.4943
 5588SOL     OW28399   4.642   3.195   7.630 -0.0423 -0.1280  0.1084
 5588SOL    HW128400   4.680   3.107   7.625 -2.6987 -1.2891  0.2509
 5588SOL    HW228401   4.640   3.218   7.537 -0.6225 -0.6237 -0.0050
 5589SOL     OW28402   4.703   0.307   3.858  0.3931 -0.5910  0.0450
 5589SOL    HW128403   4.677   0.341   3.944 -0.8900 -0.4462 -0.3976
 5589SOL    HW228404   4.627   0.248   3.857  0.9083 -1.1768 -3.5282
 5590SOL     OW28405   0.303   0.759   7.451  0.0984  0.6351  0.2378
 5590SOL    HW128406   0.393   0.794   7.449 -0.0948  1.0955 -0.7581
 5590SOL    HW228407   0.276   0.817   7.522 -0.4912  0.4667  0.1501
 5591SOL     OW28408   4.150   3.224   7.998 -0.0839 -0.3464 -0.3596
 5591SOL    HW128409   4.237   3.265   7.991  0.0641 -0.6189 -0.1228
 5591SOL    HW228410   4.178   3.132   8.000  0.7854 -0.1365 -2.3771
 5592SOL     OW28411   4.283   2.329   0.375 -0.1397 -1.0862  0.2921
 5592SOL    HW128412   4.288   2.274   0.453 -0.3730 -0.1743  0.9528
 5592SOL    HW228413   4.323   2.407   0.413 -1.0768 -1.0006  1.0804
 5593SOL     OW28414   3.676   2.855  11.797 -0.1511 -0.1103  0.3109
 5593SOL    HW128415   3.672   2.943  11.835 -2.3675 -0.4112  0.7644
 5593SOL    HW228416   3.712   2.877  11.711 -1.0018 -0.9045 -0.2409
 5594SOL     OW28417   0.076   4.252  14.304 -0.7694 -0.0705  0.1135
 5594SOL    HW128418   0.149   4.314  14.309 -1.1072  0.4074 -0.7239
 5594SOL    HW228419   0.016   4.297  14.364  1.1440  0.1113  1.8937
 5595SOL     OW28420   3.170   0.163  12.407 -0.7769 -0.1288 -0.5346
 5595SOL    HW128421   3.186   0.125  12.321 -0.2862  1.7104 -1.2359
 5595SOL    HW228422   3.196   0.089  12.462 -0.9022  0.2654  0.0643
 5596SOL     OW28423   2.571   2.294  11.012  0.0108  0.5712 -0.0199
 5596SOL    HW128424   2.624   2.281  10.933  0.0012 -0.8865  0.2073
 5596SOL    HW228425   2.487   2.325  10.980 -1.4603 -1.3438  2.0475
 5597SOL     OW28426   1.987   3.031  17.294 -0.1629 -0.2155  0.8269
 5597SOL    HW128427   2.003   2.941  17.264  1.7588  1.4249 -3.0314
 5597SOL    HW228428   2.071   3.052  17.335 -0.2104  0.8356  0.3735
 5598SOL     OW28429   1.321   1.725   5.207 -0.2345  0.3145 -0.0199
 5598SOL    HW128430   1.246   1.708   5.150 -0.5497  0.5953  0.3061
 5598SOL    HW228431   1.388   1.719   5.139  1.3135  1.4477  1.3991
 5599SOL     OW28432   3.159   4.204  17.509 -0.6517  0.0262  0.9040
 5599SOL    HW128433   3.206   4.227  17.429 -0.5906 -2.8663  0.1257
 5599SOL    HW228434   3.212   4.252  17.572  0.3985 -0.5226  0.4273
 5600SOL     OW28435   0.391   3.319   8.267  0.3226 -0.5258  0.0388
 5600SOL    HW128436   0.446   3.389   8.232  0.0224  0.1942  1.0127
 5600SOL    HW228437   0.325   3.303   8.199 -0.7053  0.1979  0.8748
 5601SOL     OW28438   4.704   1.026  12.168 -0.1206 -0.5465  0.0828
 5601SOL    HW128439   0.049   0.987  12.137  0.7094 -0.9791  2.8059
 5601SOL    HW228440   4.721   1.110  12.125  0.7466 -0.1994  1.1195
 5602SOL     OW28441   0.418   2.164   6.580 -0.3933  0.0137 -0.1057
 5602SOL    HW128442   0.453   2.250   6.604  1.3378 -0.6439 -0.2531
 5602SOL    HW228443   0.345   2.189   6.523 -2.6393 -1.1700  2.2675
 5603SOL     OW28444   1.023   1.904   1.138 -0.0148  0.8207  0.2506
 5603SOL    HW128445   1.114   1.916   1.110 -0.3464 -0.2423 -1.2510
 5603SOL    HW228446   1.028   1.809   1.138 -1.3551  0.7480 -0.7094
 5604SOL     OW28447   0.866   3.734   7.180  0.0745 -0.4970  0.4035
 5604SOL    HW128448   0.874   3.666   7.247  0.3796  1.1737  2.0485
 5604SOL    HW228449   0.889   3.686   7.100 -0.5381 -0.5617  0.2686
 5605SOL     OW28450   0.252   3.808   3.747 -0.4317 -0.1082 -0.2254
 5605SOL    HW128451   0.195   3.788   3.821  0.8098 -1.6427  0.3377
 5605SOL    HW228452   0.331   3.835   3.794  0.7727 -0.5758 -1.9809
 5606SOL     OW28453   3.079   1.739   1.701  0.3569 -1.0952 -0.1082
 5606SOL    HW128454   3.104   1.829   1.679 -0.0228 -1.2866 -1.2898
 5606SOL    HW228455   3.073   1.748   1.796  3.2425 -1.8445  0.1266
 5607SOL     OW28456   4.535   2.457   7.847  0.3153  0.0553  0.0452
 5607SOL    HW128457   4.444   2.464   7.875  0.1559 -0.1442 -0.4212
 5607SOL    HW228458   4.532   2.539   7.798  1.9999 -0.3148 -0.6712
 5608SOL     OW28459   0.121   0.547   1.381 -0.1830 -0.0160 -0.1194
 5608SOL    HW128460   0.172   0.471   1.409 -1.0738 -0.1982  0.9982
 5608SOL    HW228461   0.196   0.589   1.340 -1.3165  0.7484 -1.4050
 5609SOL     OW28462   3.061   1.001   1.944 -0.2042 -0.4910 -0.3744
 5609SOL    HW128463   2.972   1.035   1.949 -0.0106 -0.0629  0.1121
 5609SOL    HW228464   3.082   0.979   2.035  1.4393  0.8146 -0.4478
 5610SOL     OW28465   4.358   2.320   7.341  0.1247  0.0194 -0.0324
 5610SOL    HW128466   4.391   2.233   7.365 -0.3398 -0.0039  0.5226
 5610SOL    HW228467   4.382   2.322   7.249 -1.0282  2.3620 -0.2763
 5611SOL     OW28468   1.622   0.780   4.645  0.1890 -0.2195 -0.1350
 5611SOL    HW128469   1.565   0.850   4.614  0.4853 -1.0879 -2.5760
 5611SOL    HW228470   1.570   0.700   4.641  1.5192 -1.0197 -1.5513
 5612SOL     OW28471   3.122   2.733   7.025 -0.2976 -0.3693  0.3246
 5612SOL    HW128472   3.085   2.819   7.007 -0.3523 -0.1666  1.3637
 5612SOL    HW228473   3.146   2.728   7.118 -0.6863  1.9475  0.5583
 5613SOL     OW28474   0.937   4.618   2.713 -0.8100  0.1935  0.3815
 5613SOL    HW128475   1.017   4.566   2.710 -0.6686  0.5014 -1.1354
 5613SOL    HW228476   0.905   4.588   2.628  0.0340 -0.3519  0.2543
 5614SOL     OW28477   2.638   4.595   1.350  0.4304 -0.3932 -0.3213
 5614SOL    HW128478   2.604   4.559   1.432  1.1392 -0.0913  0.1104
 5614SOL    HW228479   2.676   4.526   1.296 -0.2389 -1.1484  0.1774
 5615SOL     OW28480   1.592   4.529   0.788 -0.4467  0.5284 -0.0119
 5615SOL    HW128481   1.569   4.528   0.695  0.2020 -0.7254 -0.1637
 5615SOL    HW228482   1.544   4.607   0.816 -0.6603  0.3056  0.2580
 5616SOL     OW28483   2.057   0.437   2.972 -0.2559 -0.1448 -0.0053
 5616SOL    HW128484   2.042   0.466   3.063  0.2558 -1.8746  0.6278
 5616SOL    HW228485   2.032   0.345   2.979  0.2729 -0.2168  1.0295
 5617SOL     OW28486   4.099   0.884   3.282 -0.3278  0.4711  0.4242
 5617SOL    HW128487   4.065   0.816   3.224 -0.4630  1.0694 -0.1953
 5617SOL    HW228488   4.122   0.961   3.231 -0.4113  0.0243 -0.2751
 5618SOL     OW28489   4.132   0.577  13.094 -0.1575  1.0907  0.1094
 5618SOL    HW128490   4.167   0.578  13.005  2.6501  0.8329  1.2096
 5618SOL    HW228491   4.047   0.621  13.081 -0.5186  0.7699  1.3267
 5619SOL     OW28492   0.383   2.675   2.498 -0.5160  0.3060  0.2149
 5619SOL    HW128493   0.346   2.613   2.435  2.2502 -0.8851 -0.1942
 5619SOL    HW228494   0.380   2.625   2.579 -0.3323  0.6500  0.4327
 5620SOL     OW28495   3.467   4.313  11.896  0.3985 -0.4506  0.5133
 5620SOL    HW128496   3.401   4.302  11.965 -2.7682  0.4744 -2.3959
 5620SOL    HW228497   3.467   4.408  11.883  0.3790 -0.4874  0.2612
 5621SOL     OW28498   4.214   4.405   3.374  0.0382  0.0191  0.3431
 5621SOL    HW128499   4.248   4.316   3.382  1.6807  0.3195 -2.9553
 5621SOL    HW228500   4.262   4.433   3.452  0.6353  1.0482 -0.3842
 5622SOL     OW28501   3.693   2.760  14.966 -0.0183  0.4492  0.7646
 5622SOL    HW128502   3.610   2.768  14.920 -0.3638 -4.4660  0.5211
 5622SOL    HW228503   3.741   2.833  14.926 -1.3155 -0.6917 -2.8393
 5623SOL     OW28504   2.138   3.624   4.445 -0.0426 -0.2225 -0.5237
 5623SOL    HW128505   2.115   3.558   4.380 -0.2166 -0.1573 -0.5311
 5623SOL    HW228506   2.215   3.587   4.487 -1.5236 -2.2253  0.4119
 5624SOL     OW28507   2.151   1.534  10.903  0.1986 -0.1858  0.2326
 5624SOL    HW128508   2.175   1.457  10.954  2.8739 -0.4522 -1.4321
 5624SOL    HW228509   2.217   1.526  10.834 -0.2784  0.2348 -0.2689
 5625SOL     OW28510   2.447   0.266   3.142 -0.0001  0.4948 -0.2411
 5625SOL    HW128511   2.445   0.265   3.046 -1.0094  1.2870 -0.2254
 5625SOL    HW228512   2.406   0.348   3.169  2.5926  2.2785 -1.7520
 5626SOL     OW28513   2.736   2.110   2.959 -0.1889  0.7516 -0.5680
 5626SOL    HW128514   2.783   2.035   2.995 -1.4131  0.4489  0.3921
 5626SOL    HW228515   2.796   2.157   2.902 -0.7163 -0.2095 -1.8995
 5627SOL     OW28516   2.252   4.651  12.069 -0.1643  0.2124 -0.3176
 5627SOL    HW128517   2.188   4.588  12.103  0.1240 -0.7294 -1.5315
 5627SOL    HW228518   2.290   4.674  12.154  1.1319 -0.5457 -0.6823
 5628SOL     OW28519   1.350   4.580   9.493 -0.2337 -0.5097 -0.0580
 5628SOL    HW128520   1.379   4.610   9.407 -0.5415  0.8149  0.3103
 5628SOL    HW228521   1.390   4.645   9.549 -1.1867  1.1712 -1.3239
 5629SOL     OW28522   0.219   4.449   3.345  0.8377 -0.6460 -0.4627
 5629SOL    HW128523   0.228   4.536   3.307  0.8303  0.1552  1.4121
 5629SOL    HW228524   0.263   4.396   3.278  0.3477  2.8068 -3.4973
 5630SOL     OW28525   4.217   0.631   9.768  0.5528  0.1843 -0.1546
 5630SOL    HW128526   4.157   0.569   9.727 -1.1910 -0.0364  2.7563
 5630SOL    HW228527   4.157   0.683   9.821 -0.9139 -1.1971 -0.4509
 5631SOL     OW28528   0.916   0.646  10.796  0.4241  0.1041 -0.2285
 5631SOL    HW128529   1.009   0.647  10.820  0.1261 -1.1803  0.9909
 5631SOL    HW228530   0.870   0.645  10.881  2.4109 -0.7871  0.8358
 5632SOL     OW28531   0.418   3.690   4.862  0.4009  0.1729 -0.0865
 5632SOL    HW128532   0.404   3.600   4.892 -2.1112  0.6301  0.1111
 5632SOL    HW228533   0.455   3.720   4.945  0.3147  0.8266 -0.2842
 5633SOL     OW28534   1.793   4.404   0.383 -0.2542 -0.1129 -0.0424
 5633SOL    HW128535   1.831   4.343   0.320  0.6629  1.5132 -1.0900
 5633SOL    HW228536   1.843   4.377   0.459  0.5829 -3.5081 -1.7878
 5634SOL     OW28537   3.821   2.758   2.616 -0.6086 -0.1337 -0.1011
 5634SOL    HW128538   3.767   2.836   2.630  1.1493  1.4325 -2.2281
 5634SOL    HW228539   3.822   2.771   2.521  0.1791  0.4398 -0.0144
 5635SOL     OW28540   0.255   0.583   5.262  0.2927  0.2925  0.3882
 5635SOL    HW128541   0.170   0.576   5.218  1.4742  0.6231 -1.9794
 5635SOL    HW228542   0.265   0.495   5.299  0.3426  0.1836  0.1148
 5636SOL     OW28543   3.931   0.063  10.965  0.3303  0.4913 -0.0645
 5636SOL    HW128544   3.967   4.712  10.951  1.0552  0.8190 -0.2229
 5636SOL    HW228545   3.907   0.084  10.875 -0.7530  0.0512  0.1195
 5637SOL     OW28546   2.920   4.342   9.853  0.1979  0.1531  0.8700
 5637SOL    HW128547   2.856   4.301   9.795  2.4837 -0.1916 -1.4185
 5637SOL    HW228548   2.964   4.269   9.896 -3.3495 -0.8229  2.8219
 5638SOL     OW28549   1.096   2.614  14.894 -0.3703 -0.0780  0.0770
 5638SOL    HW128550   1.114   2.540  14.951  1.3507  0.6574  0.4954
 5638SOL    HW228551   1.085   2.584  14.804 -1.8222  2.7757 -0.6964
 5639SOL     OW28552   2.038   3.057  10.248  0.7017 -0.4334  0.4671
 5639SOL    HW128553   2.084   2.979  10.218 -2.0540 -1.1349 -1.9870
 5639SOL    HW228554   1.946   3.031  10.258  0.9502 -0.5912  2.3803
 5640SOL     OW28555   2.122   3.320   4.125 -0.1014 -0.6024 -0.3757
 5640SOL    HW128556   2.159   3.262   4.191 -0.5762  0.3238  0.6899
 5640SOL    HW228557   2.192   3.335   4.061  1.1314  0.6245  1.2727
 5641SOL     OW28558   0.638   2.782   9.378  0.0763 -0.7280 -0.5992
 5641SOL    HW128559   0.614   2.739   9.296  1.4652 -2.5150 -0.0618
 5641SOL    HW228560   0.693   2.713   9.415  0.6590 -0.0467 -0.1812
 5642SOL     OW28561   3.020   3.639   3.149 -0.0641 -0.6178  0.6600
 5642SOL    HW128562   3.076   3.715   3.130  0.5900 -1.5123 -1.0520
 5642SOL    HW228563   2.941   3.671   3.191 -0.7260  0.8070 -1.6546
 5643SOL     OW28564   3.861   2.111   2.189  0.0862 -0.0363 -0.7962
 5643SOL    HW128565   3.950   2.131   2.160 -0.4502  1.3590 -1.4704
 5643SOL    HW228566   3.816   2.080   2.110 -1.3378 -0.8869  0.3464
 5644SOL     OW28567   0.312   0.285  14.344  0.1864  0.4161 -0.1954
 5644SOL    HW128568   0.344   0.283  14.254 -1.3173 -0.3054 -0.7218
 5644SOL    HW228569   0.396   0.303  14.386  0.5366 -0.9667 -0.3013
 5645SOL     OW28570   1.693   3.811   1.996  0.5576  0.2128  0.2480
 5645SOL    HW128571   1.699   3.735   1.938 -0.5566 -0.8022  1.4510
 5645SOL    HW228572   1.683   3.878   1.928 -3.7150 -0.2889  0.3581
 5646SOL     OW28573   1.201   1.437  17.310 -0.2907  0.3125  0.0992
 5646SOL    HW128574   1.217   1.527  17.283  1.8802 -0.3156 -0.7217
 5646SOL    HW228575   1.116   1.446  17.352 -0.3781 -0.3966  0.0761
 5647SOL     OW28576   1.726   3.265  14.250 -0.2481 -0.2482 -0.3462
 5647SOL    HW128577   1.707   3.223  14.166  0.2252 -1.5328  0.1906
 5647SOL    HW228578   1.820   3.282  14.249  0.1395 -2.3200  1.5379
 5648SOL     OW28579   0.423   3.597  11.765 -0.6908  0.3772 -0.5202
 5648SOL    HW128580   0.469   3.513  11.771 -0.9778  0.2592  0.0823
 5648SOL    HW228581   0.329   3.581  11.772 -0.8246  0.7190 -1.5273
 5649SOL     OW28582   3.829   1.971  12.654  0.3149  0.3749  0.0086
 5649SOL    HW128583   3.764   1.992  12.721  0.1740 -1.9121  0.6037
 5649SOL    HW228584   3.859   1.884  12.681  1.4329  0.9874  0.7211
 5650SOL     OW28585   3.510   2.078   7.554  0.0957  0.0498  0.2063
 5650SOL    HW128586   3.484   1.991   7.524 -1.8071  0.7841 -0.2912
 5650SOL    HW228587   3.528   2.051   7.644  3.2144 -0.3195 -0.5223
 5651SOL     OW28588   3.763   1.730   0.265 -0.1522 -0.1668  0.3117
 5651SOL    HW128589   3.711   1.650   0.256 -0.0592 -0.5380  2.9952
 5651SOL    HW228590   3.774   1.731   0.360  0.9282 -1.4691  0.2061
 5652SOL     OW28591   2.922   3.195   6.193 -0.2396 -0.0184 -0.7241
 5652SOL    HW128592   2.916   3.141   6.115  0.2741 -0.4379 -0.4756
 5652SOL    HW228593   2.831   3.220   6.208 -0.5879 -0.7995 -1.6040
 5653SOL     OW28594   2.016   1.906   3.654 -0.1545  0.3134 -0.1222
 5653SOL    HW128595   2.014   1.949   3.568 -1.6076  0.7576  0.1362
 5653SOL    HW228596   2.090   1.845   3.645 -0.3366 -0.0716  1.0082
 5654SOL     OW28597   4.278   4.522  10.974 -0.1564  0.0056  0.5103
 5654SOL    HW128598   4.343   4.460  10.942 -0.0358  0.6926 -0.5591
 5654SOL    HW228599   4.194   4.478  10.960  1.3056 -2.5782 -0.0309
 5655SOL     OW28600   1.637   1.919   6.862  0.5599 -0.2458  0.9841
 5655SOL    HW128601   1.681   1.951   6.940  1.1221  0.6269  0.3020
 5655SOL    HW228602   1.628   2.005   6.820  1.0850  0.3307  2.0870
 5656SOL     OW28603   1.888   3.729   9.370 -0.8897  0.3256 -0.5583
 5656SOL    HW128604   1.794   3.750   9.371 -0.3540  2.6954 -0.3800
 5656SOL    HW228605   1.901   3.699   9.280  1.6281 -0.6046  0.1274
 5657SOL     OW28606   0.848   1.978   3.450 -0.4539  0.2331  0.4135
 5657SOL    HW128607   0.807   1.975   3.537 -1.8724  1.2630 -0.2150
 5657SOL    HW228608   0.827   1.887   3.428 -1.6276  0.7925 -0.8070
 5658SOL     OW28609   0.736   3.575   1.726 -0.5621  0.4746 -0.1775
 5658SOL    HW128610   0.661   3.515   1.731  1.2721 -1.8141 -0.0212
 5658SOL    HW228611   0.742   3.608   1.815  1.1875 -2.0770  0.6614
 5659SOL     OW28612   4.726   4.339   8.243  0.2504  0.3742 -0.3807
 5659SOL    HW128613   0.012   4.268   8.183 -2.9633  1.1166 -2.4779
 5659SOL    HW228614   0.067   4.341   8.298  0.3406  2.1173 -0.5536
 5660SOL     OW28615   1.208   3.017   0.240  0.4448  0.2409 -0.5638
 5660SOL    HW128616   1.212   2.928   0.275 -0.3528  0.8771  1.1336
 5660SOL    HW228617   1.285   3.056   0.282  1.1767 -0.5145 -1.2052
 5661SOL     OW28618   1.693   1.020   2.737 -0.0149 -0.1336 -0.4095
 5661SOL    HW128619   1.599   1.003   2.742  0.1588 -1.3931 -1.3056
 5661SOL    HW228620   1.703   1.087   2.804 -2.1658  0.8743 -1.0836
 5662SOL     OW28621   3.692   1.485   5.361 -0.2746  0.1413 -0.4232
 5662SOL    HW128622   3.619   1.533   5.322  0.7758  0.7458 -1.6575
 5662SOL    HW228623   3.736   1.465   5.278  2.5465 -0.9390  1.3603
 5663SOL     OW28624   2.866   2.174   4.783 -0.7971 -0.3111 -0.3621
 5663SOL    HW128625   2.827   2.123   4.712 -0.8520  0.2043 -0.7018
 5663SOL    HW228626   2.788   2.220   4.812 -2.2592  0.3001 -5.2460
 5664SOL     OW28627   1.815   2.041   7.018  0.3012 -0.1453 -0.1094
 5664SOL    HW128628   1.859   2.028   7.102 -1.9856  0.6064  1.1997
 5664SOL    HW228629   1.889   2.062   6.961  1.3899  0.5322  1.5725
 5665SOL     OW28630   4.640   1.970   6.578 -0.3510 -0.4102 -0.2389
 5665SOL    HW128631   4.580   1.909   6.534 -3.0940  1.6141  0.7280
 5665SOL    HW228632   4.722   1.921   6.581  1.8270  3.2623  0.0947
 5666SOL     OW28633   2.901   1.168   8.939  0.0937  0.6984  0.1342
 5666SOL    HW128634   2.959   1.157   9.014  0.4815  0.3683 -0.2138
 5666SOL    HW228635   2.942   1.251   8.917  0.3608  0.1340 -1.5424
 5667SOL     OW28636   1.498   1.334   1.675 -0.0677  0.0096  0.4252
 5667SOL    HW128637   1.443   1.264   1.639  1.2292 -1.1868  0.7493
 5667SOL    HW228638   1.444   1.371   1.744 -1.3200 -1.5802  0.2901
 5668SOL     OW28639   3.729   3.686  10.929 -0.1466  0.2324 -0.0471
 5668SOL    HW128640   3.764   3.709  11.015 -1.5779 -0.1106  0.6304
 5668SOL    HW228641   3.679   3.610  10.958  2.1401 -1.3064 -0.1529
 5669SOL     OW28642   3.537   3.472   8.130  0.1115 -0.6391  0.5914
 5669SOL    HW128643   3.520   3.567   8.125  2.6056 -0.2541 -0.5913
 5669SOL    HW228644   3.546   3.461   8.036 -1.2615 -1.4445  0.5576
 5670SOL     OW28645   4.427   0.461   6.763  0.1763  0.0816  0.4270
 5670SOL    HW128646   4.500   0.401   6.744  0.7620  1.0591 -0.3979
 5670SOL    HW228647   4.363   0.438   6.695  1.7589 -2.2867 -0.2731
 5671SOL     OW28648   3.385   0.792  10.773  0.3232  0.2580  0.1667
 5671SOL    HW128649   3.476   0.769  10.752 -0.7617 -3.2699 -0.6789
 5671SOL    HW228650   3.350   0.707  10.798  0.9614 -0.7936 -2.4321
 5672SOL     OW28651   2.524   2.003   8.158  0.3566 -0.1898  0.2996
 5672SOL    HW128652   2.607   2.030   8.196  0.4368 -0.3939  0.2675
 5672SOL    HW228653   2.464   2.042   8.222  1.9540 -2.8051  3.3830
 5673SOL     OW28654   0.238   1.402   3.815  0.6681 -0.5086 -0.2876
 5673SOL    HW128655   0.313   1.430   3.763 -0.5528  2.2774 -0.5699
 5673SOL    HW228656   0.276   1.332   3.867  1.3775  0.5968  0.6730
 5674SOL     OW28657   3.097   1.549   2.031 -0.2462  0.4729  0.1411
 5674SOL    HW128658   3.112   1.633   1.987 -3.1393 -0.1722 -2.0430
 5674SOL    HW228659   3.150   1.488   1.979 -0.7312  0.6090 -0.5128
 5675SOL     OW28660   2.134   3.762  11.768 -0.0549 -0.3671 -0.3751
 5675SOL    HW128661   2.078   3.836  11.745  1.6941  1.8351  2.5498
 5675SOL    HW228662   2.206   3.772  11.705 -1.1370 -1.0632 -1.7390
 5676SOL     OW28663   4.104   2.602   7.018 -0.3918 -0.0664 -0.2099
 5676SOL    HW128664   4.037   2.590   6.951 -0.3559 -1.2672 -0.0313
 5676SOL    HW228665   4.181   2.573   6.968 -0.0332  1.4654 -0.5555
 5677SOL     OW28666   3.073   1.692   6.372 -0.2242 -0.5479  0.3423
 5677SOL    HW128667   3.143   1.710   6.310 -0.9607 -1.6085 -0.8064
 5677SOL    HW228668   3.122   1.673   6.452 -0.0770 -0.2676  0.3189
 5678SOL     OW28669   1.631   4.678   4.018  0.1828 -0.1822  0.3190
 5678SOL    HW128670   1.538   4.695   4.008  0.4720  1.7013  0.6829
 5678SOL    HW228671   1.650   4.635   3.935 -0.5021  1.3324 -0.6302
 5679SOL     OW28672   3.932   4.289   4.022 -0.3985  0.4177 -0.0991
 5679SOL    HW128673   3.977   4.213   4.059  0.5647  0.8198 -0.4314
 5679SOL    HW228674   3.990   4.316   3.951  1.3170  0.9940  1.5296
 5680SOL     OW28675   1.789   4.210   7.058  0.1520 -0.9188 -0.3395
 5680SOL    HW128676   1.712   4.237   7.008  0.8260 -2.3537 -2.1714
 5680SOL    HW228677   1.787   4.114   7.051 -1.5129 -1.0013  1.2276
 5681SOL     OW28678   2.416   3.835   8.592  0.0115 -0.2397 -0.3970
 5681SOL    HW128679   2.379   3.860   8.508  0.4822  1.8417  0.0216
 5681SOL    HW228680   2.431   3.925   8.622 -1.3355  0.7090 -2.6154
 5682SOL     OW28681   3.146   4.264   5.049  0.2853  0.1480 -0.3753
 5682SOL    HW128682   3.127   4.206   5.123  0.6602  0.0723 -0.3396
 5682SOL    HW228683   3.086   4.226   4.984 -0.0619  2.4927 -1.4403
 5683SOL     OW28684   3.188   2.456   0.535 -0.8768  0.0988  0.1263
 5683SOL    HW128685   3.283   2.457   0.542 -0.9010 -1.8910  0.5934
 5683SOL    HW228686   3.175   2.394   0.463 -0.6566 -0.7661  0.8354
 5684SOL     OW28687   3.353   3.787  16.191 -0.2759  0.6154  0.0802
 5684SOL    HW128688   3.316   3.701  16.213 -1.3588  0.5264 -2.1595
 5684SOL    HW228689   3.404   3.775  16.111  1.4878 -0.8747  1.3899
 5685SOL     OW28690   1.313   3.514   6.844 -0.0076  0.1376  0.4233
 5685SOL    HW128691   1.344   3.423   6.839  1.0308  0.4425  1.4054
 5685SOL    HW228692   1.339   3.545   6.757  1.0974  1.8046  1.3684
 5686SOL     OW28693   0.279   2.888   2.800  0.1596  0.5288 -0.2584
 5686SOL    HW128694   0.228   2.848   2.871  0.3130 -1.0319 -1.0215
 5686SOL    HW228695   0.322   2.956   2.851 -0.3522 -0.0952  1.0059
 5687SOL     OW28696   1.900   0.403   6.737 -0.2372 -0.6061 -0.1873
 5687SOL    HW128697   1.840   0.349   6.790  1.1214 -0.2640  1.7190
 5687SOL    HW228698   1.843   0.430   6.666  0.5465  0.7027 -0.3137
 5688SOL     OW28699   0.589   1.421   9.429  0.6054 -0.0362  0.0889
 5688SOL    HW128700   0.603   1.490   9.365 -2.3358 -0.6052 -1.1780
 5688SOL    HW228701   0.495   1.411   9.411  1.1046 -0.6868 -2.1057
 5689SOL     OW28702   3.194   2.548   9.947  0.2233 -0.1765 -0.0482
 5689SOL    HW128703   3.289   2.532   9.952 -0.0787 -1.4540  1.3439
 5689SOL    HW228704   3.190   2.614  10.016  1.0143  0.5173 -0.6565
 5690SOL     OW28705   0.391   4.728  13.617 -0.2419  0.2255  0.1361
 5690SOL    HW128706   0.299   0.016  13.622 -0.6378 -1.3054  0.6178
 5690SOL    HW228707   0.418   0.046  13.543  2.8723  1.4984  2.2194
 5691SOL     OW28708   2.552   3.753   8.831 -0.6813 -0.1998 -0.5748
 5691SOL    HW128709   2.496   3.771   8.755  0.9830 -2.5535 -2.3472
 5691SOL    HW228710   2.637   3.796   8.826  0.1235 -1.7936 -0.5302
 5692SOL     OW28711   2.388   4.092   2.395 -0.2105  0.3490  0.0514
 5692SOL    HW128712   2.331   4.015   2.395  1.7642 -1.1226  0.4736
 5692SOL    HW228713   2.341   4.146   2.458 -1.8485 -1.5507  0.4566
 5693SOL     OW28714   3.561   2.541   3.563 -0.8034  0.3356 -0.3720
 5693SOL    HW128715   3.470   2.551   3.536 -0.7597 -0.0458 -0.6574
 5693SOL    HW228716   3.590   2.628   3.591  1.4296 -0.9130  1.2085
 5694SOL     OW28717   4.103   1.673   5.928  0.0070  0.7425 -0.2567
 5694SOL    HW128718   4.080   1.766   5.935  1.2137  0.9147  1.6037
 5694SOL    HW228719   4.075   1.647   6.016 -0.4477 -1.4661 -1.0581
 5695SOL     OW28720   4.577   4.710   8.473 -0.4491  0.8466 -0.8507
 5695SOL    HW128721   4.642   4.718   8.403 -0.3575 -0.9074 -0.9757
 5695SOL    HW228722   4.496   4.721   8.423 -1.9468 -0.2515  1.3336
 5696SOL     OW28723   1.100   3.229   5.914 -0.1443  0.1863 -0.3044
 5696SOL    HW128724   1.021   3.252   5.865 -1.7209 -2.0808  1.1707
 5696SOL    HW228725   1.074   3.239   6.005 -0.8359  2.1416 -0.7191
 5697SOL     OW28726   2.636   2.210  11.899  0.3219  0.0870  0.0202
 5697SOL    HW128727   2.670   2.159  11.972  0.5352  1.1605  0.6816
 5697SOL    HW228728   2.546   2.232  11.925  0.5583 -0.3768  1.2379
 5698SOL     OW28729   2.691   4.142   5.106  0.0641 -0.6196  0.1051
 5698SOL    HW128730   2.744   4.213   5.142 -1.3561  0.4788 -0.0036
 5698SOL    HW228731   2.655   4.184   5.028  4.4574  0.1489 -1.5646
 5699SOL     OW28732   3.406   0.673   6.146  0.3497  0.0775 -0.1288
 5699SOL    HW128733   3.345   0.693   6.075 -0.6188  0.5764  0.8475
 5699SOL    HW228734   3.460   0.601   6.114  0.6498  0.1923  0.1250
 5700SOL     OW28735   2.832   1.789  14.315 -0.2480 -0.6496 -0.1137
 5700SOL    HW128736   2.845   1.880  14.340  0.0004 -1.2550  1.9800
 5700SOL    HW228737   2.737   1.782  14.311 -0.2326 -0.0427 -1.3016
 5701SOL     OW28738   1.221   3.597  11.182 -0.0509 -0.0453  0.3041
 5701SOL    HW128739   1.200   3.558  11.267  0.4319  0.0574  0.4694
 5701SOL    HW228740   1.225   3.688  11.210  1.9160  0.1207 -0.5594
 5702SOL     OW28741   2.312   3.288   3.406 -0.1479  0.5904  0.4554
 5702SOL    HW128742   2.247   3.348   3.371  1.5841  0.5197 -2.8873
 5702SOL    HW228743   2.397   3.331   3.407 -0.0485  0.4117 -1.6291
 5703SOL     OW28744   3.802   4.252   3.059 -0.4776 -0.0146 -0.1799
 5703SOL    HW128745   3.808   4.347   3.050  0.6773 -0.0833 -0.0883
 5703SOL    HW228746   3.721   4.241   3.110 -0.7029  1.4889 -0.2124
 5704SOL     OW28747   0.665   2.522   7.130 -0.8490  0.6524 -0.0263
 5704SOL    HW128748   0.574   2.541   7.151 -0.7498  0.8498  0.2151
 5704SOL    HW228749   0.697   2.480   7.210  1.8736  0.3089 -1.2875
 5705SOL     OW28750   1.860   1.346   8.952  0.2465 -0.1249  0.1928
 5705SOL    HW128751   1.859   1.310   9.041 -0.1672  2.4284  1.2103
 5705SOL    HW228752   1.823   1.434   8.946  0.9432  0.2562  1.5402
 5706SOL     OW28753   0.172   3.250   5.629 -0.4568 -0.4762  0.2640
 5706SOL    HW128754   0.202   3.167   5.592 -1.4446 -0.2513 -1.0517
 5706SOL    HW228755   0.188   3.314   5.560  0.1568 -0.4749  0.4046
 5707SOL     OW28756   4.318   1.291   7.318  0.0111  0.5175 -0.1462
 5707SOL    HW128757   4.237   1.287   7.369 -0.6396  0.4935 -1.1849
 5707SOL    HW228758   4.324   1.212   7.264  0.1087 -0.4028  1.2119
 5708SOL     OW28759   4.217   1.185   6.975  0.2666  0.4859 -0.1871
 5708SOL    HW128760   4.200   1.184   6.881 -0.8660  0.5762  0.0114
 5708SOL    HW228761   4.187   1.271   7.005 -0.2605  0.5444 -0.8979
 5709SOL     OW28762   1.950   2.417   3.062 -0.5865 -0.1790 -0.5214
 5709SOL    HW128763   1.980   2.447   3.148  1.5584  2.2923 -2.1484
 5709SOL    HW228764   1.911   2.497   3.028 -0.9734 -0.1325  0.0320
 5710SOL     OW28765   1.535   4.097  12.544 -0.3224 -0.2276  0.1237
 5710SOL    HW128766   1.449   4.082  12.585 -0.6114  0.9815 -0.0359
 5710SOL    HW228767   1.526   4.175  12.489 -1.9002 -0.4678  0.0266
 5711SOL     OW28768   4.467   1.807   4.800 -0.2958  0.3463 -1.2371
 5711SOL    HW128769   4.522   1.881   4.825 -1.2326 -0.6262  3.7154
 5711SOL    HW228770   4.432   1.782   4.886  2.3465  0.4091 -0.1275
 5712SOL     OW28771   3.502   2.219   7.916 -0.1868 -0.7783 -0.3488
 5712SOL    HW128772   3.506   2.137   7.966 -1.6690 -0.2771  0.6020
 5712SOL    HW228773   3.591   2.256   7.915  0.1363 -1.6258 -3.6244
 5713SOL     OW28774   2.527   2.355  11.620 -0.1716 -0.8579 -0.9220
 5713SOL    HW128775   2.524   2.400  11.536  0.1849  0.6196 -0.1478
 5713SOL    HW228776   2.444   2.309  11.624 -0.6604  0.2846  2.3938
 5714SOL     OW28777   4.729   4.731   9.577  0.1362 -0.3025 -0.1230
 5714SOL    HW128778   4.643   0.035   9.583  0.7426  1.0816 -0.6901
 5714SOL    HW228779   0.041   0.022   9.655 -0.0557  2.1401 -0.8735
 5715SOL     OW28780   0.621   2.074   4.797 -0.1317 -0.4883  0.5386
 5715SOL    HW128781   0.562   2.003   4.772  1.7149 -1.1331 -1.8915
 5715SOL    HW228782   0.668   2.035   4.871 -1.1154  0.8646  1.8787
 5716SOL     OW28783   4.625   1.683   0.879  0.3691  0.3304 -0.3231
 5716SOL    HW128784   4.611   1.649   0.791  2.7123 -1.1186 -0.1528
 5716SOL    HW228785   4.715   1.716   0.876  0.5531 -0.2394 -1.0637
 5717SOL     OW28786   0.848   2.739   2.011 -0.2583 -0.4222  0.2514
 5717SOL    HW128787   0.876   2.690   1.934 -0.2762 -1.1994  0.7402
 5717SOL    HW228788   0.754   2.720   2.022 -0.0958 -0.9292  0.7432
 5718SOL     OW28789   1.840   2.636  11.184  0.0609 -0.3682 -0.1243
 5718SOL    HW128790   1.806   2.726  11.182 -1.0964 -0.8166 -0.7560
 5718SOL    HW228791   1.922   2.636  11.136  0.3854 -1.9574  0.4278
 5719SOL     OW28792   2.080   4.270   5.226  0.2764 -0.2595 -0.0850
 5719SOL    HW128793   2.076   4.347   5.283  0.0204  0.8614 -1.6204
 5719SOL    HW228794   2.040   4.304   5.146 -0.7158  0.3714  0.6951
 5720SOL     OW28795   0.354   1.598  15.685 -0.2105  0.4928  0.5983
 5720SOL    HW128796   0.361   1.686  15.647 -1.4534 -0.5433 -2.0238
 5720SOL    HW228797   0.305   1.556  15.615  1.7192  0.6865 -0.8812
 5721SOL     OW28798   3.746   0.417   2.678 -0.0796 -0.5863 -0.6078
 5721SOL    HW128799   3.753   0.450   2.768 -1.4055 -5.0603  1.0945
 5721SOL    HW228800   3.696   0.484   2.631 -0.7148 -2.3892 -2.4672
 5722SOL     OW28801   2.455   1.548  12.360  0.3173  0.4055  0.0339
 5722SOL    HW128802   2.521   1.600  12.405  3.3445 -2.1910 -1.3496
 5722SOL    HW228803   2.466   1.572  12.268  0.0916  2.0458  0.4429
 5723SOL     OW28804   0.189   2.663  16.201  0.3782 -0.0593 -0.0915
 5723SOL    HW128805   0.142   2.617  16.271  0.9099 -0.8353 -0.2484
 5723SOL    HW228806   0.156   2.627  16.119  1.5684  0.7049 -0.9071
 5724SOL     OW28807   4.407   1.857   1.313 -0.0262 -0.6039  0.3942
 5724SOL    HW128808   4.369   1.822   1.232  0.7196 -0.4602 -0.0148
 5724SOL    HW228809   4.331   1.900   1.352 -1.8684 -0.4473 -3.3026
 5725SOL     OW28810   0.096   4.134   5.206 -1.0438 -0.5256 -0.5074
 5725SOL    HW128811   0.008   4.143   5.169 -0.7628  1.1791 -0.7922
 5725SOL    HW228812   0.126   4.057   5.158 -0.2191 -0.1040 -0.6629
 5726SOL     OW28813   4.627   3.576   2.136  0.0992 -0.7182  1.0296
 5726SOL    HW128814   4.612   3.671   2.142 -3.0386 -0.9505 -3.2634
 5726SOL    HW228815   4.564   3.564   2.065  1.5425  0.3211 -0.4345
 5727SOL     OW28816   3.384   1.122  13.249 -0.1048  0.6113 -0.3007
 5727SOL    HW128817   3.459   1.069  13.275 -0.7679  0.8392  2.0721
 5727SOL    HW228818   3.412   1.211  13.271 -1.7959  0.7433  1.3471
 5728SOL     OW28819   2.487   0.994   6.790 -0.1635 -0.3615 -0.6697
 5728SOL    HW128820   2.414   0.941   6.823  1.7528 -3.2984 -1.1647
 5728SOL    HW228821   2.453   1.076   6.756 -1.5592 -0.1606  1.1679
 5729SOL     OW28822   2.369   0.719   2.624  0.0491  0.0620 -0.8921
 5729SOL    HW128823   2.287   0.762   2.648 -0.5849 -0.2403 -2.5541
 5729SOL    HW228824   2.373   0.672   2.707  2.6915 -1.5227 -1.8944
 5730SOL     OW28825   2.810   1.278   5.276 -0.0090 -0.3946 -0.4098
 5730SOL    HW128826   2.790   1.269   5.370 -2.0485  0.2862 -0.7829
 5730SOL    HW228827   2.856   1.362   5.282 -1.8269  0.7761 -2.7792
 5731SOL     OW28828   3.343   1.875   3.582  0.1274  0.3805  0.6580
 5731SOL    HW128829   3.263   1.915   3.549  0.0143  0.9302  1.6157
 5731SOL    HW228830   3.372   1.833   3.501 -0.2442 -1.7744  1.6385
 5732SOL     OW28831   4.336   4.182   3.809 -0.1209 -0.2888 -0.6707
 5732SOL    HW128832   4.411   4.192   3.751 -1.2375  2.2843 -1.6573
 5732SOL    HW228833   4.328   4.087   3.812  2.5235 -0.5817 -2.7858
 5733SOL     OW28834   3.296   0.044  12.208  0.3770 -0.3355  0.2089
 5733SOL    HW128835   3.369   4.723  12.232  2.4323  2.2274  0.1661
 5733SOL    HW228836   3.273   0.023  12.117 -4.0411 -1.8063  1.6874
 5734SOL     OW28837   2.220   1.115   3.148 -0.3776 -0.2042  0.1006
 5734SOL    HW128838   2.135   1.150   3.174 -0.2868  0.7488 -0.8830
 5734SOL    HW228839   2.222   1.027   3.187  0.1519 -1.4306 -2.7024
 5735SOL     OW28840   1.645   0.492   1.986  0.4605  0.7707  0.0368
 5735SOL    HW128841   1.559   0.469   1.951  0.1338  0.8283  0.8046
 5735SOL    HW228842   1.695   0.492   1.904 -1.6569  0.3058 -1.2840
 5736SOL     OW28843   1.637   2.123   7.379  0.6421  0.1611 -0.6295
 5736SOL    HW128844   1.592   2.040   7.392 -0.1156  0.3047 -2.3762
 5736SOL    HW228845   1.584   2.165   7.312 -1.4206  2.2639  2.2987
 5737SOL     OW28846   1.010   4.213   3.011  0.4868 -0.3270  0.3322
 5737SOL    HW128847   0.983   4.166   2.932  0.3099 -1.9093  1.3443
 5737SOL    HW228848   1.045   4.135   3.054  1.4504 -0.0019  0.1471
 5738SOL     OW28849   0.911   3.566   3.154 -0.4704 -0.3566  0.7276
 5738SOL    HW128850   0.880   3.635   3.095 -0.2392  0.7245  1.8706
 5738SOL    HW228851   0.970   3.510   3.103 -1.4455 -0.3146 -0.4703
 5739SOL     OW28852   3.531   0.051   9.809  0.0472 -0.0878  0.1558
 5739SOL    HW128853   3.484   4.732   9.871  0.3830  1.9295  2.2473
 5739SOL    HW228854   3.585   4.721   9.766 -3.7446 -1.4686 -2.4487
 5740SOL     OW28855   1.223   4.321  12.916  0.0837 -0.7575  0.0143
 5740SOL    HW128856   1.214   4.288  12.827  1.1455 -0.6671 -0.1268
 5740SOL    HW228857   1.215   4.413  12.892 -0.1462 -1.5905 -3.0551
 5741SOL     OW28858   3.129   2.149  10.156  0.4101 -0.1435  0.4687
 5741SOL    HW128859   3.171   2.208  10.218 -0.4977  0.2894  0.6792
 5741SOL    HW228860   3.055   2.120  10.210  1.2003  0.9800  2.1595
 5742SOL     OW28861   4.042   2.019  10.446 -0.1286  0.6399  0.3273
 5742SOL    HW128862   4.014   2.060  10.528 -3.0141 -1.2974  0.3016
 5742SOL    HW228863   3.966   1.963  10.431  1.8725 -1.6936 -1.2785
 5743SOL     OW28864   3.434   2.732  10.968  0.7597  0.1193  0.2609
 5743SOL    HW128865   3.353   2.769  11.002  0.1964 -0.8650 -0.0125
 5743SOL    HW228866   3.503   2.732  11.034  1.9883  0.3467 -1.0091
 5744SOL     OW28867   3.453   4.692   6.978  0.3103  0.3625 -0.2174
 5744SOL    HW128868   3.452   0.050   6.963  0.0905  0.3301 -0.4002
 5744SOL    HW228869   3.374   4.661   6.934  0.0952  2.4838 -1.3520
 5745SOL     OW28870   1.191   0.232   2.892 -0.0756 -0.2817 -0.4282
 5745SOL    HW128871   1.136   0.219   2.814 -2.7232  0.0268  1.4081
 5745SOL    HW228872   1.273   0.241   2.845 -1.5055  0.5839 -2.7795
 5746SOL     OW28873   3.093   0.533   5.090 -0.2393  0.0012 -0.0587
 5746SOL    HW128874   3.128   0.463   5.036 -3.1540 -0.4175 -1.3984
 5746SOL    HW228875   3.172   0.586   5.104  0.7422 -0.8213 -2.3984
 5747SOL     OW28876   4.617   2.026   4.861 -0.0561  0.2212  0.0737
 5747SOL    HW128877   4.713   2.021   4.857  0.1291  0.6493  3.8709
 5747SOL    HW228878   4.604   2.073   4.944 -3.1569  2.5970 -1.7851
 5748SOL     OW28879   4.731   4.151   5.745 -0.0000 -0.3048 -0.2567
 5748SOL    HW128880   0.033   4.108   5.668  0.9943  0.3313 -0.1108
 5748SOL    HW228881   4.644   4.112   5.749  0.1299 -0.3466  1.8174
 5749SOL     OW28882   2.505   3.611  17.336  0.1393 -0.3499 -0.1579
 5749SOL    HW128883   2.521   3.596  17.243 -0.0443  2.2496 -0.6345
 5749SOL    HW228884   2.593   3.602  17.371  1.7753 -0.2643 -4.2704
 5750SOL     OW28885   1.683   3.582   1.840  0.1556 -0.0029  0.3831
 5750SOL    HW128886   1.613   3.543   1.894  0.9122 -1.1472  0.5481
 5750SOL    HW228887   1.680   3.525   1.763 -1.1845 -0.0032  0.4400
 5751SOL     OW28888   4.657   1.706   6.103 -0.1567 -0.9365  0.1732
 5751SOL    HW128889   4.629   1.798   6.104 -1.3771 -1.3060  0.4167
 5751SOL    HW228890   4.598   1.669   6.169 -0.4240 -0.3423  0.2699
 5752SOL     OW28891   3.351   0.183   5.329 -0.1506 -0.3558 -0.8965
 5752SOL    HW128892   3.282   0.199   5.265  0.0668  0.1824 -0.9890
 5752SOL    HW228893   3.407   0.256   5.304 -0.4237 -0.2450 -1.1847
 5753SOL     OW28894   0.196   3.928   9.678 -0.3540  0.3280  1.1306
 5753SOL    HW128895   0.137   4.004   9.688 -0.6470 -0.0671  2.4961
 5753SOL    HW228896   0.158   3.883   9.603 -0.2807 -1.2690  2.0463
 5754SOL     OW28897   4.184   1.707   4.559  0.6056 -0.0163 -0.3360
 5754SOL    HW128898   4.207   1.634   4.616 -0.8461  1.5395  2.2320
 5754SOL    HW228899   4.196   1.776   4.624  1.4837  0.2431 -0.7696
 5755SOL     OW28900   1.279   1.195   5.695 -0.0201 -0.1673  0.0836
 5755SOL    HW128901   1.310   1.107   5.714  0.4056 -0.1308 -0.4419
 5755SOL    HW228902   1.235   1.211   5.779 -1.0672 -1.4535 -0.2205
 5756SOL     OW28903   0.551   2.925   7.217 -0.4906 -1.0055 -0.1028
 5756SOL    HW128904   0.641   2.893   7.229  0.1566  0.7243 -0.2835
 5756SOL    HW228905   0.535   2.898   7.127 -2.5647 -1.5316  0.4361
 5757SOL     OW28906   2.186   1.593  12.472 -0.0682 -0.0646 -0.1348
 5757SOL    HW128907   2.263   1.609  12.417  0.7986 -0.0128  1.0933
 5757SOL    HW228908   2.135   1.671  12.452 -1.1123 -0.2571  1.8335
 5758SOL     OW28909   1.124   2.317  17.220 -0.2508  0.1923 -0.5287
 5758SOL    HW128910   1.099   2.298  17.129 -1.0267  0.8227 -0.4521
 5758SOL    HW228911   1.045   2.300  17.271  0.0718  0.3158  0.0101
 5759SOL     OW28912   1.686   3.785   4.528 -0.0602  0.4120 -0.1212
 5759SOL    HW128913   1.761   3.786   4.586 -0.0871 -1.0217 -0.0784
 5759SOL    HW228914   1.734   3.747   4.455  1.1395  2.1085 -0.2162
 5760SOL     OW28915   0.338   4.662   8.542  0.2391 -0.5395  0.4720
 5760SOL    HW128916   0.273   4.640   8.609  2.0557 -2.1684  1.6956
 5760SOL    HW228917   0.381   0.004   8.577 -1.6338  1.4430 -1.7192
 5761SOL     OW28918   4.654   0.014   8.727 -0.0630  0.7077 -0.2117
 5761SOL    HW128919   4.712   0.083   8.695  1.5321  0.0164  1.1558
 5761SOL    HW228920   4.617   4.723   8.644 -0.7908  3.4629 -0.8120
 5762SOL     OW28921   3.048   3.133   4.119 -0.1174  0.0140  0.1461
 5762SOL    HW128922   3.063   3.053   4.069  1.2739 -0.2945  1.0643
 5762SOL    HW228923   3.131   3.146   4.164  1.2428 -0.1632 -2.3331
 5763SOL     OW28924   3.435   4.363  11.027 -0.0885  0.0902 -0.0023
 5763SOL    HW128925   3.479   4.403  11.102 -1.2159 -1.2741  1.4044
 5763SOL    HW228926   3.355   4.411  11.048 -1.1965 -1.3495 -0.9411
 5764SOL     OW28927   2.649   3.176   6.158 -0.0253  0.4198  0.1226
 5764SOL    HW128928   2.607   3.195   6.075  2.5625  1.1339 -1.0006
 5764SOL    HW228929   2.580   3.158   6.223  0.2660  1.9220  0.8426
 5765SOL     OW28930   3.738   3.954   4.869 -0.8799 -0.3391 -0.8188
 5765SOL    HW128931   3.745   3.877   4.926  0.4343 -0.8964 -1.7244
 5765SOL    HW228932   3.668   4.006   4.908 -2.0119 -0.4894 -2.5971
 5766SOL     OW28933   2.925   1.673  11.560  0.2050  0.9175 -0.0746
 5766SOL    HW128934   2.849   1.699  11.613  0.4658  0.4699  0.5063
 5766SOL    HW228935   2.916   1.580  11.579 -1.1447  0.6796 -1.8444
 5767SOL     OW28936   0.008   0.861   3.748 -0.3216 -0.5221  0.0157
 5767SOL    HW128937   4.715   0.926   3.811  2.0161  1.3074 -0.7569
 5767SOL    HW228938   0.059   0.796   3.796  0.1996  0.7493  1.1767
 5768SOL     OW28939   2.895   0.978   0.197 -0.3232  0.9712  0.4533
 5768SOL    HW128940   2.945   1.010   0.122 -2.0787  0.1402 -1.0845
 5768SOL    HW228941   2.957   0.970   0.270 -0.7472  2.4461  0.9750
 5769SOL     OW28942   1.493   2.077  11.286 -0.2394  0.5646 -0.0235
 5769SOL    HW128943   1.439   2.084  11.365  0.1965  0.2561  0.2998
 5769SOL    HW228944   1.562   2.022  11.323 -2.1069 -2.0646 -0.4524
 5770SOL     OW28945   2.205   2.931  12.431  0.3457  0.3309 -0.5348
 5770SOL    HW128946   2.224   2.955  12.522  0.8618 -0.4563 -0.4354
 5770SOL    HW228947   2.152   2.854  12.453  0.5579 -0.0205 -1.2799
 5771SOL     OW28948   0.306   4.238   3.563 -0.1833  0.0854 -0.2201
 5771SOL    HW128949   0.354   4.287   3.631  2.7728  1.0600 -3.0054
 5771SOL    HW228950   0.339   4.276   3.482  1.0683  0.3016  0.3790
 5772SOL     OW28951   0.967   2.969  12.210  0.3483 -0.6435 -0.3500
 5772SOL    HW128952   0.922   3.040  12.164 -0.7254 -1.1822 -0.1165
 5772SOL    HW228953   1.042   3.007  12.256 -0.5948  0.3904  0.3251
 5773SOL     OW28954   3.944   3.593   3.304 -0.3528  0.1279  0.4014
 5773SOL    HW128955   3.929   3.552   3.389  0.9576 -0.4350  0.3518
 5773SOL    HW228956   4.039   3.586   3.303 -0.4617 -1.0491 -0.3987
 5774SOL     OW28957   3.433   1.347   1.380 -0.1153  0.3565  0.0762
 5774SOL    HW128958   3.418   1.429   1.334  1.6564  0.0330 -1.0753
 5774SOL    HW228959   3.522   1.334   1.348 -1.0792 -4.5240 -0.6659
 5775SOL     OW28960   2.982   3.367   4.954 -0.4958  0.3814 -0.5056
 5775SOL    HW128961   2.907   3.315   4.982 -2.1094  1.3730 -3.1138
 5775SOL    HW228962   3.042   3.292   4.948 -1.8764 -0.6904 -0.7482
 5776SOL     OW28963   3.327   4.659   7.648  0.2684  0.5763 -0.3532
 5776SOL    HW128964   3.302   4.581   7.599 -0.0627  1.5004 -1.6754
 5776SOL    HW228965   3.264   4.725   7.620  1.7275  1.5346 -1.4148
 5777SOL     OW28966   1.092   2.024   1.628 -0.0090  0.6602  0.4464
 5777SOL    HW128967   1.173   2.010   1.578 -1.2604 -1.1875 -1.0968
 5777SOL    HW228968   1.017   1.988   1.580  1.3657 -0.0340 -1.1688
 5778SOL     OW28969   3.804   2.459   8.182 -0.1749  0.0189 -0.2004
 5778SOL    HW128970   3.854   2.465   8.263 -0.1960 -0.6613 -0.1360
 5778SOL    HW228971   3.741   2.530   8.198 -0.4969 -0.1612 -0.6456
 5779SOL     OW28972   4.115   4.045  14.853  0.4166  0.2244  0.1223
 5779SOL    HW128973   4.149   3.960  14.825 -1.6462 -0.2095 -1.0955
 5779SOL    HW228974   4.032   4.020  14.893  0.8503 -1.9550 -0.3633
 5780SOL     OW28975   1.586   1.823  15.973 -0.1943 -0.0874  0.8230
 5780SOL    HW128976   1.674   1.811  15.938 -0.5550 -0.1322 -0.0567
 5780SOL    HW228977   1.597   1.759  16.043 -1.6678 -1.1528  0.0694
 5781SOL     OW28978   0.163   4.381   7.316 -0.0002 -0.4030  0.1916
 5781SOL    HW128979   0.225   4.420   7.378  0.4110  2.5316 -2.0589
 5781SOL    HW228980   0.171   4.288   7.337  1.6598  0.3633  2.9073
 5782SOL     OW28981   2.725   2.242  11.242  0.1726  0.2939 -0.2512
 5782SOL    HW128982   2.667   2.245  11.318  2.1701  2.2512  1.1901
 5782SOL    HW228983   2.669   2.277  11.174  0.2262  0.9742  0.0576
 5783SOL     OW28984   1.763   3.692   2.468 -0.1833  0.2919 -0.5944
 5783SOL    HW128985   1.700   3.737   2.526 -1.0936  1.3992 -2.4530
 5783SOL    HW228986   1.782   3.766   2.410 -0.1036  1.7471  1.2551
 5784SOL     OW28987   3.670   3.984   6.146  0.1703 -0.4186 -0.5236
 5784SOL    HW128988   3.654   3.973   6.052  1.0586  2.1816 -0.9776
 5784SOL    HW228989   3.652   3.897   6.181  1.0003 -0.6274 -0.6271
 5785SOL     OW28990   1.412   3.572   5.798  0.0520 -0.7113  0.0511
 5785SOL    HW128991   1.420   3.545   5.707  0.1498 -0.6229  0.0329
 5785SOL    HW228992   1.498   3.542   5.827  0.0234 -0.0421  0.8255
 5786SOL     OW28993   1.824   2.704   8.217  0.0754 -0.6932 -0.5385
 5786SOL    HW128994   1.802   2.619   8.255 -2.6182  0.1925 -0.1491
 5786SOL    HW228995   1.897   2.674   8.162  1.5807 -2.0524  2.1894
 5787SOL     OW28996   0.403   0.200   0.468  0.3118 -0.0982  0.5615
 5787SOL    HW128997   0.375   0.147   0.394 -0.4882 -0.4813  1.1384
 5787SOL    HW228998   0.480   0.244   0.431 -0.0996  1.5400  1.6447
 5788SOL     OW28999   4.199   3.771   2.832  0.4082 -0.3255 -0.4005
 5788SOL    HW129000   4.107   3.752   2.847  0.2190  0.8050 -0.0835
 5788SOL    HW229001   4.198   3.862   2.863 -0.2204  0.1006 -1.6595
 5789SOL     OW29002   1.039   3.309   2.656 -0.1245  0.1212 -0.7151
 5789SOL    HW129003   1.002   3.229   2.617 -0.3826 -1.0580  1.9484
 5789SOL    HW229004   1.108   3.263   2.704 -0.6216  0.0307 -0.0741
 5790SOL     OW29005   4.075   2.521  11.501 -0.0113 -0.5788  0.0904
 5790SOL    HW129006   4.020   2.523  11.579 -0.7345 -0.8633 -0.4179
 5790SOL    HW229007   4.095   2.428  11.487  0.8139 -0.1960 -1.2961
 5791SOL     OW29008   3.729   0.807  11.047  0.2959 -0.3416  0.0139
 5791SOL    HW129009   3.783   0.770  10.977  0.7960  0.0163  0.2113
 5791SOL    HW229010   3.790   0.802  11.121  1.2770 -0.4718 -0.8057
 5792SOL     OW29011   0.720   0.108   5.911 -0.2183  0.0574  0.2813
 5792SOL    HW129012   0.762   0.163   5.977  2.3802  0.9375 -2.0695
 5792SOL    HW229013   0.707   0.173   5.842  1.0089 -1.4205 -1.3356
 5793SOL     OW29014   1.887   1.813   5.380 -0.5495 -0.1621  0.4020
 5793SOL    HW129015   1.883   1.909   5.385  1.9246 -0.1012  0.9179
 5793SOL    HW229016   1.943   1.808   5.303  0.9274  0.6028  1.4382
 5794SOL     OW29017   2.696   1.002  10.473 -0.4235 -0.0321 -0.3390
 5794SOL    HW129018   2.693   1.067  10.403 -1.2583 -1.6346 -1.7874
 5794SOL    HW229019   2.789   0.995  10.495  0.0708  3.1141 -1.3688
 5795SOL     OW29020   1.334   3.529   3.630 -0.7122 -0.0687  0.2208
 5795SOL    HW129021   1.247   3.556   3.662 -0.4997 -0.3465  1.0382
 5795SOL    HW229022   1.375   3.613   3.651  0.1464 -0.4157 -0.0762
 5796SOL     OW29023   2.819   4.736   4.114  0.0679 -0.3325 -0.5303
 5796SOL    HW129024   2.726   4.723   4.131  0.2178 -3.0533 -1.8839
 5796SOL    HW229025   2.840   0.057   4.188 -0.7783  0.1751 -0.6912
 5797SOL     OW29026   4.146   2.408   5.879  0.8591 -0.5942 -0.0851
 5797SOL    HW129027   4.092   2.429   5.804 -0.1633  0.3780  0.9249
 5797SOL    HW229028   4.097   2.454   5.947  1.3589  0.5108 -0.4764
 5798SOL     OW29029   1.197   2.816   8.050  0.1426 -0.0559  0.0349
 5798SOL    HW129030   1.188   2.901   8.007  0.4188 -0.0857 -0.0824
 5798SOL    HW229031   1.257   2.847   8.118  0.1271  0.5799 -0.2375
 5799SOL     OW29032   3.167   3.659   3.491  0.1516 -0.3922  0.2804
 5799SOL    HW129033   3.238   3.707   3.448  1.5191 -0.9096  1.9515
 5799SOL    HW229034   3.199   3.569   3.484  0.4076 -0.2790  0.0236
 5800SOL     OW29035   2.863   1.783   9.031 -0.1788  0.0700 -0.4850
 5800SOL    HW129036   2.825   1.789   8.943  0.6229  0.5061 -0.8023
 5800SOL    HW229037   2.845   1.692   9.053 -5.2620  0.9406 -0.9832
 5801SOL     OW29038   3.429   0.284   1.494 -0.0125 -0.2059  0.4725
 5801SOL    HW129039   3.390   0.197   1.497  2.1501 -1.1831  0.1071
 5801SOL    HW229040   3.379   0.322   1.566 -0.0866  1.8503 -0.6565
 5802SOL     OW29041   3.048   4.314   6.938 -0.6551 -0.2190 -0.4724
 5802SOL    HW129042   2.960   4.350   6.949 -1.1159 -0.7088 -2.5444
 5802SOL    HW229043   3.036   4.222   6.916 -1.9830  0.3951 -2.2380
 5803SOL     OW29044   0.619   4.124   2.705  0.6797  0.3839 -0.7972
 5803SOL    HW129045   0.647   4.189   2.770 -0.4665  1.7840 -1.6968
 5803SOL    HW229046   0.524   4.130   2.697  0.8355  0.5433 -2.5858
 5804SOL     OW29047   3.311   1.178   9.300  0.2915 -0.0487  0.6580
 5804SOL    HW129048   3.310   1.244   9.370  0.0445  0.1104  0.5053
 5804SOL    HW229049   3.376   1.223   9.246  0.5348  1.8069  2.4967
 5805SOL     OW29050   1.830   0.867   5.216  0.0861 -0.1796  0.0049
 5805SOL    HW129051   1.872   0.951   5.196  0.3481 -0.1821  0.5435
 5805SOL    HW229052   1.860   0.808   5.147 -1.7387 -0.8600 -0.1865
 5806SOL     OW29053   3.001   1.837   4.390  0.0340 -0.6629  0.6867
 5806SOL    HW129054   2.981   1.909   4.329  1.5783 -1.1205 -0.3608
 5806SOL    HW229055   3.051   1.779   4.333  1.6499 -0.2923  1.7339
 5807SOL     OW29056   3.266   1.732   2.634 -0.2422 -0.2510  0.2427
 5807SOL    HW129057   3.360   1.747   2.624 -0.5284  1.9284  0.8819
 5807SOL    HW229058   3.235   1.773   2.554  1.4873  0.8125  0.1162
 5808SOL     OW29059   0.338   0.577   4.293 -0.1766 -0.3062  0.0243
 5808SOL    HW129060   0.391   0.559   4.371 -0.3622  0.2659  0.2795
 5808SOL    HW229061   0.308   0.492   4.258 -1.0085 -0.1608  0.3726
 5809SOL     OW29062   2.162   2.689   5.023  0.0533  0.1724  0.1619
 5809SOL    HW129063   2.223   2.706   4.951  0.9296  1.0789  1.1114
 5809SOL    HW229064   2.082   2.695   4.970 -0.1274  0.7169  0.4972
 5810SOL     OW29065   3.292   3.515   7.147 -0.2158 -0.3607  0.7876
 5810SOL    HW129066   3.353   3.572   7.101 -2.6355  0.7756 -1.0154
 5810SOL    HW229067   3.329   3.538   7.232  0.3910 -0.2743  0.5004
 5811SOL     OW29068   4.383   1.225  17.656  0.4172  0.1787  0.3337
 5811SOL    HW129069   4.290   1.238  17.674 -0.3473 -1.4480 -2.4736
 5811SOL    HW229070   4.384   1.224  17.561 -1.0306 -0.1248  0.3321
 5812SOL     OW29071   4.494   4.606   5.110 -0.3090  0.3564  0.3713
 5812SOL    HW129072   4.477   4.584   5.018  0.0087 -0.4361  0.5079
 5812SOL    HW229073   4.476   4.525   5.156 -0.4199 -0.5706 -1.2935
 5813SOL     OW29074   2.149   0.290   3.356  0.3204 -0.0093  0.3388
 5813SOL    HW129075   2.124   0.372   3.315  0.1005 -0.9897 -1.4871
 5813SOL    HW229076   2.079   0.297   3.421 -0.4017 -0.4398 -0.3966
 5814SOL     OW29077   1.703   0.828   8.228 -0.0085  0.0518 -0.0958
 5814SOL    HW129078   1.656   0.744   8.228 -1.2400  0.7255  0.7402
 5814SOL    HW229079   1.781   0.808   8.279 -0.3566 -0.3642  0.2792
 5815SOL     OW29080   1.204   2.284   1.651 -0.1327 -0.5093  0.2340
 5815SOL    HW129081   1.218   2.235   1.733 -1.5164 -1.9621 -0.4080
 5815SOL    HW229082   1.171   2.209   1.601 -0.9862 -0.4153  0.6658
 5816SOL     OW29083   2.864   0.127   8.390 -0.2910  0.0491  0.1750
 5816SOL    HW129084   2.912   0.175   8.457  0.9435  0.8564 -1.2906
 5816SOL    HW229085   2.926   0.144   8.319 -0.5333  3.6229  0.8079
 5817SOL     OW29086   4.079   0.894   5.633  0.2906  0.6099  0.5186
 5817SOL    HW129087   4.057   0.819   5.688  0.9774 -0.4981 -0.6961
 5817SOL    HW229088   4.063   0.971   5.687 -1.1118 -0.5865  1.8129
 5818SOL     OW29089   2.963   1.368   7.905  0.2565  0.4082 -0.3634
 5818SOL    HW129090   2.870   1.391   7.895 -0.1398  0.0696  2.4887
 5818SOL    HW229091   2.960   1.276   7.931  0.1927  0.5839  0.2440
 5819SOL     OW29092   2.884   1.102   3.113 -0.1491 -0.3120  0.1822
 5819SOL    HW129093   2.860   1.161   3.041 -0.2568  1.0590  1.3489
 5819SOL    HW229094   2.900   1.155   3.191  0.6168 -0.3494  0.0573
 5820SOL     OW29095   2.255   3.199   4.312 -0.4203 -0.2297  0.3940
 5820SOL    HW129096   2.337   3.166   4.273 -0.6300  0.3360 -0.5368
 5820SOL    HW229097   2.285   3.244   4.390 -1.9813  1.3693  0.0609
 5821SOL     OW29098   1.923   2.847  10.889 -0.0179  0.6383  0.5599
 5821SOL    HW129099   1.966   2.932  10.887  1.1464  0.0470  0.3078
 5821SOL    HW229100   1.975   2.791  10.948 -3.4512 -1.8610  1.2221
 5822SOL     OW29101   0.288   2.943   6.791 -0.4378  0.0269 -0.6236
 5822SOL    HW129102   0.326   2.959   6.705 -0.8741  0.8689 -0.6631
 5822SOL    HW229103   0.199   2.963   6.762  0.1999 -1.2970 -3.4438
 5823SOL     OW29104   2.986   2.354   6.826  0.8912  0.2177 -0.0832
 5823SOL    HW129105   3.015   2.302   6.750  0.2405 -0.3080  0.0293
 5823SOL    HW229106   2.937   2.425   6.785  1.3624  0.2996 -0.5060
 5824SOL     OW29107   3.039   3.207   2.060  0.1925 -0.1966  0.5862
 5824SOL    HW129108   3.013   3.122   2.095  1.5595 -1.4810 -1.4816
 5824SOL    HW229109   3.079   3.186   1.975 -2.2162 -1.2522 -0.2629
 5825SOL     OW29110   3.615   2.486  16.810 -0.0245  0.0017  0.6443
 5825SOL    HW129111   3.575   2.518  16.890  0.8501 -0.0456  1.0959
 5825SOL    HW229112   3.538   2.454  16.762 -0.1407 -0.0660  0.8793
 5826SOL     OW29113   2.663   1.407  13.782 -0.0242  0.1849 -0.2400
 5826SOL    HW129114   2.629   1.375  13.865  0.5429 -0.8357 -0.4068
 5826SOL    HW229115   2.644   1.501  13.778  0.3657  0.2289 -1.0194
 5827SOL     OW29116   4.387   1.030   6.445  0.3403 -1.2569  0.2142
 5827SOL    HW129117   4.405   0.939   6.469  1.6208 -1.5560 -1.8476
 5827SOL    HW229118   4.365   1.022   6.352  0.2817 -0.7774  0.1857
 5828SOL     OW29119   2.270   1.671   7.397  0.1982 -0.5915  0.6290
 5828SOL    HW129120   2.355   1.707   7.373  0.0442 -1.1944 -0.8642
 5828SOL    HW229121   2.238   1.737   7.459 -0.1193  0.4638 -0.6464
 5829SOL     OW29122   1.860   4.456   4.606 -0.0375  0.1406 -0.1913
 5829SOL    HW129123   1.795   4.393   4.636  1.9728 -1.7518  0.1945
 5829SOL    HW229124   1.803   4.528   4.580  0.3874  0.3994 -0.4122
 5830SOL     OW29125   1.579   4.033   2.324  0.1098 -0.1755  0.0580
 5830SOL    HW129126   1.659   3.982   2.315  1.4930  2.1978 -1.0165
 5830SOL    HW229127   1.523   3.970   2.370 -1.3937  0.9790 -0.1955
 5831SOL     OW29128   4.397   0.852   8.228 -0.2311  0.1196 -0.8400
 5831SOL    HW129129   4.442   0.769   8.210  0.1853  0.4061 -1.1327
 5831SOL    HW229130   4.333   0.859   8.158 -1.5954 -1.5244  0.2713
 5832SOL     OW29131   2.189   3.796  13.385 -0.4434 -0.3343 -0.4830
 5832SOL    HW129132   2.269   3.757  13.351 -1.7534 -1.1524 -2.6171
 5832SOL    HW229133   2.223   3.828  13.468 -1.2598 -3.5799  1.1082
 5833SOL     OW29134   3.057   3.284   3.886 -0.0600  0.3383 -0.2444
 5833SOL    HW129135   3.070   3.376   3.909  2.1286 -0.3356  1.1517
 5833SOL    HW229136   3.025   3.252   3.971  0.4830 -0.1131 -0.2125
 5834SOL     OW29137   1.342   2.463   2.319  1.3102  0.0868  0.0250
 5834SOL    HW129138   1.395   2.538   2.295  0.6956  0.9087  1.2324
 5834SOL    HW229139   1.398   2.389   2.293 -0.7085 -1.6721  0.6350
 5835SOL     OW29140   2.591   1.454  11.580  0.1573 -0.1978  0.2442
 5835SOL    HW129141   2.587   1.548  11.599  1.2592  0.2629 -1.7640
 5835SOL    HW229142   2.543   1.418  11.654  2.5474 -1.4430  1.1780
 5836SOL     OW29143   0.477   2.692   6.069  0.2611 -0.2510  0.0525
 5836SOL    HW129144   0.416   2.672   5.998  1.4850  0.5684 -1.2259
 5836SOL    HW229145   0.528   2.752   6.014  2.9325 -0.5575  2.2072
 5837SOL     OW29146   4.089   1.983  15.429 -0.0056  0.6798 -0.0012
 5837SOL    HW129147   4.012   1.997  15.372 -0.3895 -0.6669  0.1886
 5837SOL    HW229148   4.141   1.924  15.374 -1.0353  1.6464 -2.0291
 5838SOL     OW29149   2.835   3.688  14.866  0.2038 -0.2605  0.3214
 5838SOL    HW129150   2.885   3.619  14.823 -0.8364 -0.3080 -0.7918
 5838SOL    HW229151   2.796   3.638  14.938 -0.3538 -0.2851  0.0014
 5839SOL     OW29152   3.877   3.129  13.296  0.0860 -0.2429 -0.8167
 5839SOL    HW129153   3.793   3.082  13.296 -0.7554  1.2463 -3.6419
 5839SOL    HW229154   3.938   3.060  13.321  0.5666 -0.7899 -3.5275
 5840SOL     OW29155   4.709   1.693   4.041  0.3633 -0.1846  0.3315
 5840SOL    HW129156   4.620   1.728   4.041  0.6210  0.4548 -0.9369
 5840SOL    HW229157   4.734   1.708   4.132  1.6441 -0.9278  0.0897
 5841SOL     OW29158   2.344   3.058   2.956  0.1155  0.3768 -0.4822
 5841SOL    HW129159   2.314   2.996   3.022  0.7350  0.1126 -0.4440
 5841SOL    HW229160   2.424   3.014   2.928  0.0466 -0.2870  0.3864
 5842SOL     OW29161   3.191   4.527   5.016  0.4453  0.1741  0.2721
 5842SOL    HW129162   3.214   4.551   4.926  2.0256  0.6938  0.8171
 5842SOL    HW229163   3.211   4.434   5.020  0.7110  0.3152  2.2924
 5843SOL     OW29164   0.032   0.769  11.211  0.0184  0.4843 -0.1597
 5843SOL    HW129165   4.705   0.837  11.232  0.1549  0.6975 -0.4454
 5843SOL    HW229166   0.017   0.711  11.286 -1.5096  1.7394  0.4916
 5844SOL     OW29167   3.611   1.383  10.510  0.3385 -0.2615 -0.3876
 5844SOL    HW129168   3.594   1.345  10.596 -1.4856 -1.2105 -1.1827
 5844SOL    HW229169   3.701   1.416  10.519 -0.0292  0.2652  1.2996
 5845SOL     OW29170   3.488   0.620   4.394 -0.1274 -0.1874  0.1599
 5845SOL    HW129171   3.453   0.616   4.305 -0.1287  0.9637  0.1088
 5845SOL    HW229172   3.542   0.700   4.391  0.1202 -0.4219 -1.5654
 5846SOL     OW29173   4.649   1.466   8.996 -0.3422 -0.1838 -0.3072
 5846SOL    HW129174   4.611   1.386   9.032  1.3949 -1.4693 -1.3259
 5846SOL    HW229175   4.693   1.429   8.920  0.8890  3.1313 -1.1926
 5847SOL     OW29176   1.185   1.828   0.824 -0.3130  0.1924 -0.2901
 5847SOL    HW129177   1.248   1.824   0.896 -3.0225 -1.6066  1.9928
 5847SOL    HW229178   1.138   1.908   0.849  0.6071 -0.2189  2.7044
 5848SOL     OW29179   3.596   0.828   6.275 -0.1107 -0.4420 -1.0106
 5848SOL    HW129180   3.594   0.851   6.182 -0.1253  0.9435 -0.6623
 5848SOL    HW229181   3.530   0.759   6.273  1.9005 -2.4386  2.4685
 5849SOL     OW29182   1.597   2.190   6.790 -0.2947  0.1230  0.0082
 5849SOL    HW129183   1.509   2.221   6.771 -0.1111  0.2852 -0.5877
 5849SOL    HW229184   1.629   2.232   6.870 -1.5896 -0.0216  0.5947
 5850SOL     OW29185   4.482   1.851  15.462 -0.2138 -0.0802  0.8713
 5850SOL    HW129186   4.456   1.760  15.478 -0.2731  0.0238  1.3786
 5850SOL    HW229187   4.518   1.879  15.546  2.7950 -1.9922  0.2151
 5851SOL     OW29188   3.119   2.184  17.155 -0.9189  0.2286  0.4640
 5851SOL    HW129189   3.192   2.238  17.126  0.1703 -2.0212 -0.9959
 5851SOL    HW229190   3.046   2.244  17.170 -2.5377 -1.4905 -0.5996
 5852SOL     OW29191   0.523   2.336   2.487 -0.6703 -0.1371 -0.7193
 5852SOL    HW129192   0.448   2.282   2.512  1.8009 -2.5171  1.6026
 5852SOL    HW229193   0.480   2.387   2.418  1.3706  0.5608 -1.4729
 5853SOL     OW29194   2.912   2.886   7.532  0.0337  0.8444 -0.2288
 5853SOL    HW129195   2.856   2.836   7.591  1.2608  1.7525  1.7187
 5853SOL    HW229196   2.998   2.876   7.574 -0.6790  1.4506  1.3885
 5854SOL     OW29197   0.749   2.208   2.545  0.4749 -1.0707  0.4960
 5854SOL    HW129198   0.660   2.244   2.537  1.4442  1.2827  0.4389
 5854SOL    HW229199   0.735   2.143   2.614 -1.6327 -0.4361  0.6818
 5855SOL     OW29200   4.311   4.312   2.165 -0.0016 -0.6519 -0.0554
 5855SOL    HW129201   4.312   4.226   2.207 -0.8933 -1.4806 -1.7460
 5855SOL    HW229202   4.247   4.364   2.213  0.5565 -1.5855  1.6804
 5856SOL     OW29203   3.522   3.648   6.960 -0.8289 -0.6111  0.2216
 5856SOL    HW129204   3.564   3.649   6.874 -0.1824  0.3977  0.5436
 5856SOL    HW229205   3.565   3.568   6.992 -0.1651  0.5304  2.1803
 5857SOL     OW29206   0.628   4.227   4.909  0.3770  0.1643 -0.7797
 5857SOL    HW129207   0.650   4.166   4.979 -3.6821 -1.4018 -0.8912
 5857SOL    HW229208   0.534   4.228   4.922  0.5422 -1.2777  0.4920
 5858SOL     OW29209   3.385   1.990   9.022  0.1751  1.0335  0.3780
 5858SOL    HW129210   3.417   1.964   8.936  0.0640  0.6278  0.4631
 5858SOL    HW229211   3.295   1.960   9.010  0.4033  0.7818 -0.6954
 5859SOL     OW29212   3.777   2.045  14.061  0.4162 -0.7199  0.1644
 5859SOL    HW129213   3.692   2.026  14.020  1.3689  0.2445 -2.2383
 5859SOL    HW229214   3.807   1.954  14.070 -0.2411 -1.0345 -0.7542
 5860SOL     OW29215   3.847   2.458   6.288 -0.2140 -0.5314  0.9763
 5860SOL    HW129216   3.772   2.510   6.318 -0.4486 -1.7750  2.5314
 5860SOL    HW229217   3.856   2.390   6.355  0.2812 -0.0401  1.4143
 5861SOL     OW29218   2.328   1.777   3.939  0.5821 -0.3907  0.0580
 5861SOL    HW129219   2.237   1.760   3.965  0.4002 -1.6594 -1.3832
 5861SOL    HW229220   2.381   1.751   4.015  0.5930  1.1671  0.5767
 5862SOL     OW29221   0.967   3.257   9.541 -0.1693 -0.4111 -0.1843
 5862SOL    HW129222   0.962   3.226   9.631 -0.3090 -0.3014 -0.1543
 5862SOL    HW229223   1.058   3.279   9.522 -0.5308  0.2309 -1.1604
 5863SOL     OW29224   1.467   1.792   3.911  0.0944 -0.4686  0.2051
 5863SOL    HW129225   1.500   1.882   3.908 -0.5160 -0.2001  1.2935
 5863SOL    HW229226   1.548   1.745   3.891  0.5005 -1.2102  3.5772
 5864SOL     OW29227   1.581   3.435   8.778  0.6363 -0.4430 -0.8749
 5864SOL    HW129228   1.635   3.459   8.854 -0.2673 -2.4881  0.4308
 5864SOL    HW229229   1.630   3.484   8.712  2.2199 -0.5492  0.2099
 5865SOL     OW29230   2.470   1.197   8.747 -0.1175  0.3111  0.5758
 5865SOL    HW129231   2.452   1.274   8.801  1.0945 -0.5599  2.1984
 5865SOL    HW229232   2.557   1.214   8.712 -0.8329  0.9412 -0.8906
 5866SOL     OW29233   3.000   3.912   2.788  0.1040 -0.5927  0.7645
 5866SOL    HW129234   2.953   3.985   2.829  2.1104  1.9541 -1.4402
 5866SOL    HW229235   2.934   3.881   2.725  1.0533 -0.6209 -0.2218
 5867SOL     OW29236   2.856   2.732   0.240  0.0093 -0.0689 -0.2960
 5867SOL    HW129237   2.836   2.816   0.282 -0.1096 -0.6045  0.7436
 5867SOL    HW229238   2.777   2.682   0.259  0.4995 -0.6813  0.1459
 5868SOL     OW29239   1.313   1.783   6.446  0.0580  0.6539  0.4669
 5868SOL    HW129240   1.374   1.747   6.511 -0.8661  0.3857  1.1910
 5868SOL    HW229241   1.332   1.737   6.365 -0.6740  0.3636  0.4577
 5869SOL     OW29242   2.110   0.216   7.945  0.1726 -0.3076 -0.1087
 5869SOL    HW129243   2.163   0.288   7.911 -0.5322  0.8120  1.2074
 5869SOL    HW229244   2.180   0.150   7.950  1.0959  0.9687  3.8490
 5870SOL     OW29245   2.216   4.332   8.119 -0.5874 -0.1100 -0.3799
 5870SOL    HW129246   2.235   4.371   8.204  0.1955 -0.9845 -0.1490
 5870SOL    HW229247   2.174   4.405   8.073  0.3087  0.1371 -0.8118
 5871SOL     OW29248   4.655   3.667   3.553  0.2796  0.4854 -0.1771
 5871SOL    HW129249   4.564   3.683   3.526 -0.2325 -0.1286  1.1950
 5871SOL    HW229250   4.637   3.640   3.643  1.1955 -2.5634 -0.9196
 5872SOL     OW29251   0.031   4.435  12.806  0.0797 -0.2807 -0.5342
 5872SOL    HW129252   4.700   4.377  12.840 -0.0689  0.7434  0.9333
 5872SOL    HW229253   4.727   4.478  12.730 -1.6247 -1.2550 -0.1755
 5873SOL     OW29254   3.047   1.086   5.278 -0.0469  0.2716 -0.7559
 5873SOL    HW129255   3.073   1.005   5.322  1.0024  0.3548 -1.2238
 5873SOL    HW229256   3.082   1.145   5.345  0.5781  1.1567 -1.8589
 5874SOL     OW29257   1.341   1.193  16.166  0.0692 -0.4782 -0.1983
 5874SOL    HW129258   1.271   1.254  16.142  0.0964  1.0834  3.6463
 5874SOL    HW229259   1.420   1.240  16.141  0.1917 -0.6992 -0.2239
 5875SOL     OW29260   4.300   0.095   0.899 -0.5763  0.2331  0.3389
 5875SOL    HW129261   4.246   0.155   0.951 -1.6190  0.2705 -0.7789
 5875SOL    HW229262   4.316   0.146   0.819 -1.3797 -0.8941 -0.5533
 5876SOL     OW29263   3.014   3.703   4.694  0.3003  0.1924  0.0002
 5876SOL    HW129264   3.070   3.700   4.617  0.3188  1.3949 -0.0336
 5876SOL    HW229265   3.068   3.753   4.755  1.1316 -1.6332  0.7302
 5877SOL     OW29266   0.881   1.625  15.601 -0.2765 -0.7166 -0.2555
 5877SOL    HW129267   0.823   1.690  15.641  1.4863  0.6555  0.1321
 5877SOL    HW229268   0.815   1.591  15.541 -0.2703  2.0455 -1.8198
 5878SOL     OW29269   4.196   1.679  14.416 -0.6052  0.2583 -0.1442
 5878SOL    HW129270   4.157   1.610  14.363 -0.9981  0.3736 -0.0029
 5878SOL    HW229271   4.226   1.743  14.352 -0.0664 -0.6535 -0.7916
 5879SOL     OW29272   0.741   3.822   6.409  0.1214 -0.1545 -0.2513
 5879SOL    HW129273   0.674   3.862   6.354  0.2369 -0.5577 -0.6837
 5879SOL    HW229274   0.744   3.730   6.383 -0.8401 -0.4692  0.7153
 5880SOL     OW29275   1.458   0.167   3.878 -0.2333 -0.7089  0.2526
 5880SOL    HW129276   1.457   0.247   3.930 -2.4533 -1.3178  1.1171
 5880SOL    HW229277   1.368   0.137   3.888 -1.2652  1.1897 -3.7140
 5881SOL     OW29278   2.223   3.906  15.105 -0.4568 -0.8069 -0.0554
 5881SOL    HW129279   2.166   3.932  15.032  3.8687  2.1676 -2.3947
 5881SOL    HW229280   2.265   3.989  15.128  0.6979 -1.1033 -1.0968
 5882SOL     OW29281   2.542   1.936   6.844  0.5549 -0.1991  0.4354
 5882SOL    HW129282   2.495   1.981   6.914 -1.4610 -2.6856  0.7124
 5882SOL    HW229283   2.467   1.918   6.787  1.2360  1.3165 -0.9148
 5883SOL     OW29284   2.198   2.757  14.452  0.1972  0.1104  0.3180
 5883SOL    HW129285   2.208   2.845  14.416 -0.8399 -0.2060 -0.7224
 5883SOL    HW229286   2.254   2.762  14.530  0.2755 -0.6595  0.3146
 5884SOL     OW29287   2.770   3.058   4.133 -0.0664 -0.0284  0.1268
 5884SOL    HW129288   2.857   3.093   4.146 -0.4056  0.9149 -0.1917
 5884SOL    HW229289   2.724   3.121   4.189 -1.0045 -1.6765  1.2622
 5885SOL     OW29290   0.214   0.141   6.853  0.1490 -0.1907 -0.1487
 5885SOL    HW129291   0.249   0.068   6.905 -0.6409  0.2050  0.9330
 5885SOL    HW229292   0.178   0.197   6.921  2.4588  0.9163  0.1450
 5886SOL     OW29293   3.038   1.741   2.891  0.0517  0.3623  0.2452
 5886SOL    HW129294   3.113   1.682   2.897 -1.0309 -1.1020 -0.4217
 5886SOL    HW229295   3.032   1.750   2.986  0.4448  0.1489  0.2888
 5887SOL     OW29296   0.620   3.653   5.492 -0.1135  0.2761  0.3888
 5887SOL    HW129297   0.608   3.571   5.444 -0.1290 -0.1359  1.0854
 5887SOL    HW229298   0.578   3.625   5.574 -2.2836 -0.9259 -1.1409
 5888SOL     OW29299   2.040   1.054   5.116  0.2737 -0.3759  0.9540
 5888SOL    HW129300   2.015   0.996   5.044  0.4293 -2.1061  2.2848
 5888SOL    HW229301   2.073   1.124   5.060 -1.9207 -1.1828 -1.3942
 5889SOL     OW29302   4.170   4.282   7.493  0.2024 -0.1973  0.0387
 5889SOL    HW129303   4.222   4.229   7.433 -0.4005  2.1403 -2.5600
 5889SOL    HW229304   4.225   4.358   7.507  1.7720 -1.4293  0.4969
 5890SOL     OW29305   2.957   0.263   9.414 -0.0124  0.2147  0.5193
 5890SOL    HW129306   2.921   0.284   9.329  1.1795  1.9607  0.4521
 5890SOL    HW229307   2.917   0.177   9.427  0.7878 -0.5079 -1.9777
 5891SOL     OW29308   0.413   2.377  17.733 -0.7541 -0.8969 -0.0044
 5891SOL    HW129309   0.386   2.460   0.027 -1.0919 -1.0067 -0.0053
 5891SOL    HW229310   0.493   2.392  17.684 -0.1924  1.4111  1.6276
 5892SOL     OW29311   2.723   3.251  14.881  0.3001 -0.1500 -0.1467
 5892SOL    HW129312   2.637   3.211  14.872 -1.6097  3.8472  0.1995
 5892SOL    HW229313   2.762   3.221  14.799 -0.5911  0.7655 -0.9056
 5893SOL     OW29314   0.361   3.759   9.373 -0.4608  0.4637 -0.2378
 5893SOL    HW129315   0.289   3.822   9.363 -1.6387 -0.7422  0.5782
 5893SOL    HW229316   0.342   3.736   9.464  3.2378 -4.5643 -0.7495
 5894SOL     OW29317   3.308   4.113   7.358  0.3042  0.1066 -0.0845
 5894SOL    HW129318   3.395   4.129   7.396  0.8476 -0.6190 -1.0175
 5894SOL    HW229319   3.297   4.183   7.293  0.3363  1.4174  1.3252
 5895SOL     OW29320   1.476   3.771   2.145 -0.1105  0.3881 -0.6431
 5895SOL    HW129321   1.434   3.837   2.089 -0.6599  0.5160 -0.0797
 5895SOL    HW229322   1.558   3.758   2.096  0.6251  0.4233  0.5785
 5896SOL     OW29323   0.047   0.226   4.769 -0.0749 -0.0232  0.1803
 5896SOL    HW129324   0.023   0.307   4.813  0.3612  0.4972 -0.5334
 5896SOL    HW229325   4.726   0.162   4.810 -0.3888 -1.3272 -2.3034
 5897SOL     OW29326   2.793   2.090  16.895 -0.2289 -0.1825 -0.1543
 5897SOL    HW129327   2.717   2.086  16.837 -0.2853 -1.0768 -0.0121
 5897SOL    HW229328   2.760   2.039  16.969 -2.1990  0.1946 -0.7688
 5898SOL     OW29329   0.162   1.685   2.189 -0.1175 -0.2317  0.6468
 5898SOL    HW129330   0.218   1.658   2.117 -2.0254  0.7795 -1.2163
 5898SOL    HW229331   0.208   1.636   2.257  0.8169 -0.5502 -0.2170
 5899SOL     OW29332   3.233   4.728  11.969 -0.3611  0.2427  0.1307
 5899SOL    HW129333   3.192   0.071  11.935  1.6059 -0.2732 -3.4827
 5899SOL    HW229334   3.212   4.673  11.893  4.7242 -1.9966  0.3083
 5900SOL     OW29335   1.436   0.408   0.872 -0.4361  0.0481  0.2188
 5900SOL    HW129336   1.346   0.383   0.894 -1.2972  2.5682 -0.4973
 5900SOL    HW229337   1.470   0.414   0.961  3.7053 -1.5652 -1.2492
 5901SOL     OW29338   3.969   0.335   2.172 -0.6962 -0.2071  0.0584
 5901SOL    HW129339   3.933   0.334   2.261  3.5702 -1.3094  1.7675
 5901SOL    HW229340   3.989   0.428   2.164 -2.0160  0.0076 -0.8287
 5902SOL     OW29341   2.494   1.658   1.751 -0.3374 -0.0187 -0.2818
 5902SOL    HW129342   2.574   1.605   1.750 -0.5428 -0.3296 -0.3489
 5902SOL    HW229343   2.539   1.723   1.805 -1.3643  0.5442 -0.1059
 5903SOL     OW29344   3.399   0.855   1.482  0.1671 -0.6684 -0.2858
 5903SOL    HW129345   3.407   0.948   1.506  3.6530 -1.4184  1.5088
 5903SOL    HW229346   3.455   0.820   1.551  1.2487  2.3917  0.4215
 5904SOL     OW29347   3.288   2.788   6.262 -0.2852 -0.5529  0.2824
 5904SOL    HW129348   3.247   2.790   6.348  1.9003 -2.3691  1.3472
 5904SOL    HW229349   3.289   2.879   6.231  2.8219 -0.6683  0.0062
 5905SOL     OW29350   1.390   4.644   2.791 -0.4294  0.5580  0.4085
 5905SOL    HW129351   1.424   4.717   2.739 -0.5570 -0.7674 -1.5115
 5905SOL    HW229352   1.466   4.590   2.811 -1.1380 -0.3797  0.5625
 5906SOL     OW29353   0.441   3.532   9.999  0.1899 -0.0168  0.3010
 5906SOL    HW129354   0.496   3.557   9.925  0.6903 -1.5981  0.1154
 5906SOL    HW229355   0.411   3.449   9.961  0.1718 -0.5313  1.4228
 5907SOL     OW29356   1.968   0.969  16.246  0.3307  0.6327  0.1014
 5907SOL    HW129357   1.890   0.948  16.195 -0.5994  1.1115  1.3435
 5907SOL    HW229358   1.995   0.882  16.274  0.3956  1.2978  2.0719
 5908SOL     OW29359   2.308   3.123   7.182  0.2424 -0.6095 -0.4373
 5908SOL    HW129360   2.284   3.065   7.254  2.3365  0.4228  1.0906
 5908SOL    HW229361   2.251   3.080   7.118 -2.6815  1.4686  0.7664
 5909SOL     OW29362   4.718   2.669   2.628  0.0901 -0.1912  0.1792
 5909SOL    HW129363   4.693   2.689   2.538 -0.2514 -0.8352  0.1308
 5909SOL    HW229364   4.721   2.575   2.613 -2.7303 -0.2245 -0.1574
 5910SOL     OW29365   0.800   2.929   1.326 -0.0059 -0.1757 -0.6857
 5910SOL    HW129366   0.825   2.959   1.413 -2.8283  1.2107 -0.3574
 5910SOL    HW229367   0.713   2.899   1.352  0.0934 -0.8275 -1.0875
 5911SOL     OW29368   1.595   2.007   8.458  0.3569  0.2745 -0.3090
 5911SOL    HW129369   1.505   1.990   8.431  0.6613 -2.6564  0.5327
 5911SOL    HW229370   1.629   1.918   8.450  2.0658  1.0047 -1.2089
 5912SOL     OW29371   1.140   0.971   9.460  0.1133  0.4228 -0.0019
 5912SOL    HW129372   1.070   1.037   9.452  1.0151  1.1065 -2.1187
 5912SOL    HW229373   1.108   0.894   9.414  0.5190 -0.3257  0.9705
 5913SOL     OW29374   4.047   2.251  11.065  0.1269  0.5590 -0.4727
 5913SOL    HW129375   3.952   2.247  11.053  0.0326  0.0987  0.4458
 5913SOL    HW229376   4.065   2.315  11.134 -2.8689  0.0473  0.7749
 5914SOL     OW29377   1.976   4.375   3.514  0.6116  0.6628 -0.2382
 5914SOL    HW129378   2.057   4.335   3.482  0.4778  1.7636 -1.9810
 5914SOL    HW229379   2.015   4.452   3.555  1.4709 -0.4207  0.9629
 5915SOL     OW29380   4.033   2.704   8.600  0.0709 -0.7878  0.0358
 5915SOL    HW129381   3.994   2.780   8.644  0.7027  0.1302 -0.9864
 5915SOL    HW229382   4.105   2.751   8.558  0.8927 -1.7340  0.4064
 5916SOL     OW29383   3.813   3.909   7.411 -0.0340  0.2672  0.2355
 5916SOL    HW129384   3.841   3.999   7.395 -0.3693  0.5785  1.4399
 5916SOL    HW229385   3.894   3.863   7.390 -0.4803 -0.7654  0.7855
 5917SOL     OW29386   1.864   4.098   8.846 -0.0286  0.0942  0.0700
 5917SOL    HW129387   1.796   4.073   8.784  1.2628 -0.2222 -1.2293
 5917SOL    HW229388   1.827   4.067   8.928  0.0947  1.3167  0.5878
 5918SOL     OW29389   0.553   2.546   3.438  0.7693 -0.1627 -0.1551
 5918SOL    HW129390   0.553   2.628   3.389  1.0671 -0.6673 -1.0043
 5918SOL    HW229391   0.543   2.480   3.369  0.7449 -0.2483 -0.0704
 5919SOL     OW29392   4.343   3.873   3.445  0.1948 -0.0193 -0.3303
 5919SOL    HW129393   4.373   3.784   3.425 -2.4337 -0.6197 -1.5288
 5919SOL    HW229394   4.431   3.911   3.444 -0.9652  2.6239 -2.5156
 5920SOL     OW29395   4.235   1.480  12.493  0.2853 -0.3319 -0.8898
 5920SOL    HW129396   4.262   1.462  12.583  0.1375  1.0121 -0.5731
 5920SOL    HW229397   4.276   1.565  12.478  0.5039  0.0005  1.5814
 5921SOL     OW29398   4.358   1.360  14.984  0.6280  0.3834  0.4822
 5921SOL    HW129399   4.290   1.293  14.986 -1.4073  2.4096 -0.6183
 5921SOL    HW229400   4.311   1.441  15.003  0.0474  0.0411  0.5097
 5922SOL     OW29401   1.651   0.812   6.020  0.1127  0.1308 -0.1305
 5922SOL    HW129402   1.618   0.722   6.024 -1.1465  0.5597 -0.7615
 5922SOL    HW229403   1.651   0.825   6.115 -0.5171  0.4891 -0.1799
 5923SOL     OW29404   3.053   3.288  16.300  0.0727  0.3308  0.3844
 5923SOL    HW129405   3.021   3.244  16.222  0.6159  1.9820 -0.7652
 5923SOL    HW229406   3.014   3.375  16.296 -1.1699 -0.1999  0.9602
 5924SOL     OW29407   2.648   2.587   2.272  0.3738  0.4287 -0.5400
 5924SOL    HW129408   2.638   2.544   2.357  1.0030 -0.2225 -0.7933
 5924SOL    HW229409   2.645   2.679   2.296 -0.0968  0.3276 -0.2015
 5925SOL     OW29410   3.567   0.532   2.039 -0.0411 -0.5853 -0.3863
 5925SOL    HW129411   3.589   0.446   2.074  0.6285  0.5254  1.9272
 5925SOL    HW229412   3.518   0.510   1.959 -0.3890  0.4056 -0.4478
 5926SOL     OW29413   4.059   0.746   5.253  0.2883  0.1756 -0.2408
 5926SOL    HW129414   4.046   0.832   5.213 -1.1739  0.0735  0.0064
 5926SOL    HW229415   4.082   0.692   5.177 -1.0806 -0.0699 -0.4783
 5927SOL     OW29416   3.782   2.829   6.214 -0.1401 -0.7358 -0.4853
 5927SOL    HW129417   3.737   2.913   6.209 -0.7567 -1.0878 -0.7266
 5927SOL    HW229418   3.711   2.766   6.220 -0.8629 -0.0928 -2.4683
 5928SOL     OW29419   1.992   2.712   5.588 -0.3328  0.0813  0.1930
 5928SOL    HW129420   1.968   2.668   5.506  0.9647  1.7184 -1.0444
 5928SOL    HW229421   2.019   2.633   5.636  0.5944  1.5909  2.1885
 5929SOL     OW29422   4.207   2.171  16.666  0.1368  0.0271  0.7292
 5929SOL    HW129423   4.187   2.094  16.613  1.1494  0.2631  0.0133
 5929SOL    HW229424   4.251   2.225  16.601  1.6436 -1.4413  0.5183
 5930SOL     OW29425   3.921   0.275   1.511 -0.1256  0.1404 -0.1692
 5930SOL    HW129426   3.938   0.311   1.424  0.8910  1.4672  0.5723
 5930SOL    HW229427   4.010   0.253   1.538 -0.0401  1.1569  0.4124
 5931SOL     OW29428   1.487   3.282  13.502 -0.0049  0.4442 -0.4716
 5931SOL    HW129429   1.548   3.220  13.543  0.1132  0.7352 -0.2084
 5931SOL    HW229430   1.408   3.263  13.553 -2.4736  3.2456 -3.2664
 5932SOL     OW29431   3.115   1.116   8.536 -0.1253  0.5883 -0.2039
 5932SOL    HW129432   3.188   1.055   8.554 -0.1728  0.1573 -1.4897
 5932SOL    HW229433   3.162   1.168   8.471 -1.9169  0.2354 -1.7631
 5933SOL     OW29434   1.195   0.019   4.214  0.4603 -0.2032  0.0586
 5933SOL    HW129435   1.233   0.105   4.230  1.8153 -0.8564  0.4011
 5933SOL    HW229436   1.253   4.725   4.144  0.7486 -0.8436  0.5801
 5934SOL     OW29437   2.996   3.520  11.502  0.1229  0.3237 -0.0681
 5934SOL    HW129438   2.911   3.529  11.460  0.7587  3.5339 -0.6396
 5934SOL    HW229439   3.027   3.441  11.458  0.7416  1.2299 -1.2478
 5935SOL     OW29440   3.538   2.026   0.252 -0.0389 -0.0233 -0.0547
 5935SOL    HW129441   3.496   2.076   0.182  0.1869 -0.3970 -0.4554
 5935SOL    HW229442   3.630   2.036   0.228 -0.3682 -1.1516 -1.8145
 5936SOL     OW29443   3.167   1.392   6.788 -0.1187  0.0953 -0.0183
 5936SOL    HW129444   3.083   1.364   6.751  0.5046 -2.0092  0.1759
 5936SOL    HW229445   3.132   1.421   6.872 -3.4952 -0.8744 -1.1044
 5937SOL     OW29446   0.397   4.378   3.138 -0.4599  0.2200 -0.6911
 5937SOL    HW129447   0.375   4.444   3.073 -1.8575 -0.4346 -0.8709
 5937SOL    HW229448   0.492   4.381   3.122 -0.5475 -2.8248 -1.7629
 5938SOL     OW29449   1.455   3.859   2.478  0.0391 -0.0531 -0.0069
 5938SOL    HW129450   1.370   3.818   2.492  0.6250 -1.1111  0.4189
 5938SOL    HW229451   1.513   3.813   2.538 -0.6922  1.8841  2.1898
 5939SOL     OW29452   3.956   1.776   1.984  0.1071 -0.2518  0.8833
 5939SOL    HW129453   3.912   1.693   1.963  0.5120 -0.2596  0.0608
 5939SOL    HW229454   3.968   1.762   2.078 -1.1066  0.1964  1.1059
 5940SOL     OW29455   0.751   0.038   3.194 -0.2787 -0.2649 -0.1772
 5940SOL    HW129456   0.836   0.077   3.213 -0.5647  0.1608  0.2249
 5940SOL    HW229457   0.763   4.727   3.112  1.0290  0.8713 -0.6423
 5941SOL     OW29458   0.733   3.946  10.108  0.1478  0.0657  0.3712
 5941SOL    HW129459   0.661   3.995  10.068  0.1830  0.3916  0.7071
 5941SOL    HW229460   0.784   4.022  10.135  1.9704 -1.0758  0.1126
 5942SOL     OW29461   1.546   4.654   6.243 -0.2020 -0.5403 -0.1085
 5942SOL    HW129462   1.499   4.716   6.187  1.5059 -1.0895 -2.1552
 5942SOL    HW229463   1.571   4.589   6.177 -0.2406 -0.1820 -0.4777
 5943SOL     OW29464   4.700   2.605   6.825  0.5098  0.2098  0.0654
 5943SOL    HW129465   0.026   2.538   6.797  0.6361 -0.2923  1.5596
 5943SOL    HW229466   4.709   2.606   6.920 -0.7904 -0.0578  0.1963
 5944SOL     OW29467   2.945   2.671   2.201 -0.3019 -0.0025  0.3779
 5944SOL    HW129468   2.893   2.751   2.190  0.3246  0.7729  2.9405
 5944SOL    HW229469   2.923   2.630   2.118  1.5701  0.8397 -0.5420
 5945SOL     OW29470   1.888   0.973   9.074 -0.3475 -0.5781 -0.0616
 5945SOL    HW129471   1.945   1.031   9.125 -0.2378 -1.9293  1.3700
 5945SOL    HW229472   1.805   0.990   9.119 -1.1199  0.6900 -1.9426
 5946SOL     OW29473   2.377   3.306  10.546 -0.6230  0.6126 -0.1244
 5946SOL    HW129474   2.353   3.238  10.482  0.8405  0.8380 -0.9141
 5946SOL    HW229475   2.406   3.378  10.490 -0.0313  2.0814  2.0660
 5947SOL     OW29476   3.500   1.114   9.490  0.5499 -0.1559  0.0184
 5947SOL    HW129477   3.581   1.076   9.457 -0.4548 -3.0119  0.8038
 5947SOL    HW229478   3.516   1.208   9.486 -0.0609 -0.0032  0.8883
 5948SOL     OW29479   4.113   1.910   5.511  0.2100  0.0205 -0.2742
 5948SOL    HW129480   4.061   1.831   5.522  0.1383 -0.0086 -0.7934
 5948SOL    HW229481   4.068   1.967   5.573  2.8070  0.7648  0.9635
 5949SOL     OW29482   1.619   3.070   5.357 -0.1153  0.1078  0.3889
 5949SOL    HW129483   1.558   3.032   5.419  0.0430  0.0973  0.5376
 5949SOL    HW229484   1.671   2.993   5.334 -2.0220 -0.4326 -2.1884
 5950SOL     OW29485   1.409   3.200   7.344 -0.4888 -0.1240  0.5232
 5950SOL    HW129486   1.344   3.132   7.326 -1.2996  0.4434  1.3067
 5950SOL    HW229487   1.374   3.243   7.421 -2.8072 -1.4736  0.2405
 5951SOL     OW29488   2.637   4.244   2.277  0.7720  0.4248  0.1919
 5951SOL    HW129489   2.627   4.153   2.306 -0.4874 -0.2923 -2.5275
 5951SOL    HW229490   2.668   4.289   2.356  0.0794 -0.2303  0.8346
 5952SOL     OW29491   0.875   0.016  11.080 -0.5214 -0.4307 -0.9939
 5952SOL    HW129492   0.966   0.020  11.110 -0.9487  0.4570  0.1745
 5952SOL    HW229493   0.836   4.695  11.145 -0.4197  1.3985  0.6868
 5953SOL     OW29494   3.601   1.010  13.859 -0.2425  0.6652 -0.0533
 5953SOL    HW129495   3.596   1.066  13.782 -0.3001 -0.3113 -0.7594
 5953SOL    HW229496   3.513   0.971  13.855  0.7827 -1.5730 -1.0448
 5954SOL     OW29497   1.029   0.050  10.412  0.3442  0.5430  0.5438
 5954SOL    HW129498   1.106   0.073  10.464  0.9483  0.2251 -0.2030
 5954SOL    HW229499   1.013   4.704  10.456  3.1790 -0.4547 -0.3353
 5955SOL     OW29500   1.705   3.567  13.200 -0.4897  0.1310  0.3825
 5955SOL    HW129501   1.727   3.660  13.209 -0.4426  0.1523  0.0360
 5955SOL    HW229502   1.632   3.546  13.258  0.5908 -1.5469  1.1151
 5956SOL     OW29503   2.922   2.202   2.515  0.5324 -0.2882 -0.5751
 5956SOL    HW129504   2.911   2.124   2.461  0.3163 -0.6393 -0.0183
 5956SOL    HW229505   2.991   2.252   2.471  0.8054  1.0508  1.3637
 5957SOL     OW29506   3.773   1.163  12.245 -0.3140 -0.1577 -0.4858
 5957SOL    HW129507   3.794   1.075  12.213  0.4631  0.2161 -0.9872
 5957SOL    HW229508   3.682   1.176  12.218 -0.5511  1.2068  0.9654
 5958SOL     OW29509   1.539   0.590   2.250 -0.2418  0.1646 -0.4212
 5958SOL    HW129510   1.589   0.662   2.211  0.8922 -0.0185  0.7063
 5958SOL    HW229511   1.532   0.538   2.170 -1.4894 -2.3626  1.3318
 5959SOL     OW29512   2.119   1.704  12.768  0.4913  0.5591  0.0661
 5959SOL    HW129513   2.150   1.684  12.856  0.0993  1.0963  0.3264
 5959SOL    HW229514   2.125   1.621  12.720  1.8851 -0.6530  2.3477
 5960SOL     OW29515   0.531   3.928   6.211 -0.5216 -0.0936  0.3630
 5960SOL    HW129516   0.493   3.860   6.267 -0.9940  0.7535  1.0633
 5960SOL    HW229517   0.527   3.882   6.127  1.6923 -0.1943  0.3164
 5961SOL     OW29518   3.278   3.226   6.790 -0.2874  0.7875 -0.1038
 5961SOL    HW129519   3.244   3.139   6.768  0.0320  1.1904 -2.2425
 5961SOL    HW229520   3.258   3.246   6.881  2.6888 -3.0817  1.3774
 5962SOL     OW29521   0.299   0.667  15.478 -0.5192 -0.2470  0.1212
 5962SOL    HW129522   0.317   0.727  15.550 -0.3184 -0.2149  0.0434
 5962SOL    HW229523   0.212   0.696  15.451 -0.2885  0.0636 -0.2927
 5963SOL     OW29524   1.154   4.688   6.003  0.3208  0.5856  0.2923
 5963SOL    HW129525   1.119   0.038   5.982  0.0389  0.7847  1.5927
 5963SOL    HW229526   1.118   4.676   6.090 -0.1096 -0.0939  0.0219
 5964SOL     OW29527   3.965   2.143  14.458 -0.4415  0.2543  0.0017
 5964SOL    HW129528   3.977   2.100  14.373  2.2103 -0.9634  1.0023
 5964SOL    HW229529   3.887   2.187  14.422 -0.6179 -0.4530 -0.4958
 5965SOL     OW29530   1.389   0.410   3.998  0.0156 -0.2226  0.9235
 5965SOL    HW129531   1.388   0.498   3.959 -1.4184 -0.3131  0.7388
 5965SOL    HW229532   1.411   0.426   4.089  0.2025 -2.5647  1.2809
 5966SOL     OW29533   3.867   4.006   2.987 -0.0428  0.8365 -0.5363
 5966SOL    HW129534   3.869   4.092   3.030 -0.8171  0.1117  0.9467
 5966SOL    HW229535   3.842   3.941   3.053  3.0703  0.0726 -0.1233
 5967SOL     OW29536   4.713   1.813   2.851 -0.1270 -0.8864 -0.0136
 5967SOL    HW129537   4.708   1.746   2.783  0.2730 -2.1000  1.1595
 5967SOL    HW229538   0.064   1.789   2.879 -1.1838 -2.4481  1.9007
 5968SOL     OW29539   4.256   3.679   8.829 -0.3401 -0.0532  0.7390
 5968SOL    HW129540   4.338   3.717   8.798  0.6771 -1.0404  2.2073
 5968SOL    HW229541   4.253   3.720   8.915 -2.3302 -0.3997  0.8267
 5969SOL     OW29542   0.222   2.123   3.611 -0.3239 -0.7715  0.7198
 5969SOL    HW129543   0.230   2.130   3.706 -1.3285  0.6293  0.6997
 5969SOL    HW229544   0.227   2.028   3.604  0.3514 -0.6858  0.0104
 5970SOL     OW29545   0.928   1.289  16.643  0.3674  0.6752 -0.7701
 5970SOL    HW129546   0.964   1.288  16.732 -2.6098  1.6304  0.4607
 5970SOL    HW229547   0.977   1.221  16.596 -1.3879  0.0043 -1.6229
 5971SOL     OW29548   1.829   0.755   4.046 -0.4779 -0.0027 -0.0173
 5971SOL    HW129549   1.752   0.725   3.999 -0.7081  0.4345  0.0798
 5971SOL    HW229550   1.805   0.846   4.062 -0.1207  0.0796  0.0498
 5972SOL     OW29551   0.530   0.616   0.068 -0.7185  0.1884  0.7593
 5972SOL    HW129552   0.615   0.610   0.026 -0.2763 -1.2377  1.8425
 5972SOL    HW229553   0.493   0.529   0.054 -1.3534  0.4880  0.5337
 5973SOL     OW29554   2.626   1.324  14.042 -0.2164  0.1886  0.6153
 5973SOL    HW129555   2.596   1.363  14.125 -0.7374  1.9286 -0.3825
 5973SOL    HW229556   2.695   1.266  14.072 -1.7399 -1.1114  1.5841
 5974SOL     OW29557   1.537   0.840   5.281  0.3549 -0.0314 -0.2436
 5974SOL    HW129558   1.520   0.747   5.268  0.8476 -0.0688 -0.6186
 5974SOL    HW229559   1.632   0.838   5.297  0.5187  0.1209 -1.2085
 5975SOL     OW29560   3.161   2.038  11.129  0.1177  0.0295  0.1810
 5975SOL    HW129561   3.069   2.049  11.102  0.0617 -0.9941 -0.0546
 5975SOL    HW229562   3.150   2.041  11.224  1.5759  2.9262  0.2441
 5976SOL     OW29563   0.823   1.300   2.958  0.1055 -0.5790  0.4631
 5976SOL    HW129564   0.878   1.377   2.967  1.2817 -1.3648 -0.0540
 5976SOL    HW229565   0.790   1.289   3.048  0.2113  0.6540  0.6446
 5977SOL     OW29566   1.983   3.994  11.826  0.4080 -0.3122  0.7564
 5977SOL    HW129567   1.969   4.083  11.792 -0.1843 -1.5763 -2.3089
 5977SOL    HW229568   1.915   3.984  11.892 -0.9562 -0.9839 -0.7506
 5978SOL     OW29569   2.765   3.191  15.686 -0.1954  0.0685  0.5911
 5978SOL    HW129570   2.815   3.248  15.744 -1.0158 -0.1576  1.5231
 5978SOL    HW229571   2.823   3.118  15.666  0.8219  0.6953  1.2490
 5979SOL     OW29572   0.455   3.539  14.389  0.1537 -0.2494 -0.2934
 5979SOL    HW129573   0.488   3.564  14.475  1.1347  1.6194 -1.1995
 5979SOL    HW229574   0.504   3.605  14.339  0.0212  0.2264  0.1961
 5980SOL     OW29575   3.511   0.807   8.223  0.0225 -0.0315  0.3785
 5980SOL    HW129576   3.424   0.830   8.254  0.3037  2.9923 -1.0266
 5980SOL    HW229577   3.522   0.717   8.254 -0.4962 -0.2801 -0.1657
 5981SOL     OW29578   4.662   0.215   2.494 -0.5983  0.1986 -0.3461
 5981SOL    HW129579   4.661   0.162   2.415 -1.2925  0.6021 -0.6038
 5981SOL    HW229580   4.722   0.283   2.464  0.2631  0.5749  2.1823
 5982SOL     OW29581   0.839   1.869   4.439  0.3799  0.3738  0.2292
 5982SOL    HW129582   0.860   1.837   4.351 -0.3133  0.8257 -0.1012
 5982SOL    HW229583   0.750   1.883   4.408  0.4140 -0.8075 -0.3954
 5983SOL     OW29584   3.858   4.237  13.923  0.2178 -0.2243  0.0112
 5983SOL    HW129585   3.877   4.266  14.013 -0.4919  5.3316 -1.6561
 5983SOL    HW229586   3.921   4.165  13.915  0.8053  0.3220 -0.2068
 5984SOL     OW29587   4.315   2.080  10.742 -0.0253 -1.0921  0.2633
 5984SOL    HW129588   4.333   2.048  10.653  0.3100 -0.4841  0.1149
 5984SOL    HW229589   4.220   2.071  10.742  0.0840 -2.2845  0.4218
 5985SOL     OW29590   0.763   1.813   6.345  0.4109  0.1111 -0.4659
 5985SOL    HW129591   0.843   1.822   6.294 -0.7123  2.7975 -1.7681
 5985SOL    HW229592   0.767   1.880   6.413 -1.9298  0.6245 -0.8167
 5986SOL     OW29593   0.755   3.838  16.875  0.4142 -0.1243  0.3077
 5986SOL    HW129594   0.672   3.790  16.880 -0.3390  1.0044 -1.5382
 5986SOL    HW229595   0.780   3.850  16.967 -1.6894  3.6471  0.3914
 5987SOL     OW29596   1.190   1.333   7.854  0.3326 -0.0964  0.7651
 5987SOL    HW129597   1.212   1.321   7.762 -1.8505 -1.3162  0.3963
 5987SOL    HW229598   1.270   1.374   7.885  0.7569 -0.4397  0.1152
 5988SOL     OW29599   1.460   0.378   1.176 -0.1549 -0.3723 -0.0748
 5988SOL    HW129600   1.371   0.391   1.209  0.2965 -0.4479  1.1417
 5988SOL    HW229601   1.485   0.290   1.202  0.4323 -0.4372 -0.8601
 5989SOL     OW29602   2.400   2.129  14.520 -0.1940 -0.1852 -0.0165
 5989SOL    HW129603   2.496   2.136  14.517 -0.1882 -1.1357 -1.9389
 5989SOL    HW229604   2.381   2.109  14.612 -0.6349 -1.6093 -0.4220
 5990SOL     OW29605   1.496   2.795   6.471 -0.6172 -0.4483 -0.0660
 5990SOL    HW129606   1.586   2.825   6.472 -0.6974 -0.1343 -1.6224
 5990SOL    HW229607   1.492   2.751   6.386 -1.3656  1.1432 -0.8605
 5991SOL     OW29608   4.062   3.139  16.408  0.3790 -0.2767  0.1888
 5991SOL    HW129609   4.153   3.165  16.392  0.4006  0.8300  2.0494
 5991SOL    HW229610   4.043   3.083  16.333  0.3128 -1.4576  1.0802
 5992SOL     OW29611   2.902   3.880  15.688 -0.3158  0.5462 -0.3711
 5992SOL    HW129612   2.871   3.860  15.600  2.9492 -0.1288 -1.3505
 5992SOL    HW229613   2.884   3.973  15.705 -1.2356  0.6181 -1.7614
 5993SOL     OW29614   2.310   1.483  10.695 -0.3236  0.4164 -0.0031
 5993SOL    HW129615   2.386   1.520  10.650  1.2523 -1.5847  0.9992
 5993SOL    HW229616   2.298   1.415  10.628  0.6079 -0.5334  0.7874
 5994SOL     OW29617   4.160   2.206   2.141  0.0993 -0.2032  0.1695
 5994SOL    HW129618   4.211   2.227   2.062 -0.2095  1.1936  0.3531
 5994SOL    HW229619   4.220   2.138   2.172  1.6958  1.9785  1.8552
 5995SOL     OW29620   1.370   3.995   4.982  0.1109  0.1414  0.1915
 5995SOL    HW129621   1.356   3.901   4.997  0.7651 -0.0870 -0.6367
 5995SOL    HW229622   1.403   4.025   5.066  0.1190  1.7543 -0.3959
 5996SOL     OW29623   2.778   0.029   9.440 -0.2241  0.6004  0.1265
 5996SOL    HW129624   2.741   4.706   9.375 -0.4732  1.9142 -0.9212
 5996SOL    HW229625   2.776   4.704   9.514  0.2486  0.7090  0.2289
 5997SOL     OW29626   3.962   0.987   4.254 -0.6611 -0.5249 -0.2785
 5997SOL    HW129627   4.026   0.917   4.262 -1.0873 -0.8540  0.2644
 5997SOL    HW229628   3.983   1.011   4.163  2.6782  0.9872  0.9125
 5998SOL     OW29629   2.038   2.148   7.592 -0.8845  0.1590 -0.4772
 5998SOL    HW129630   2.131   2.127   7.585 -1.4571 -1.2051 -3.7013
 5998SOL    HW229631   2.013   2.190   7.510 -1.2873  0.0383 -0.4170
 5999SOL     OW29632   3.513   3.197   9.772 -0.5572 -0.0299  0.5600
 5999SOL    HW129633   3.509   3.272   9.712  1.6886 -0.9519 -0.7805
 5999SOL    HW229634   3.470   3.234   9.849  0.8460  2.9821 -0.0767
 6000SOL     OW29635   2.158   4.327  12.750 -0.3865  0.5049 -0.2325
 6000SOL    HW129636   2.125   4.386  12.683 -0.3925 -0.2162 -0.8631
 6000SOL    HW229637   2.087   4.326  12.814 -0.7187 -0.8613 -0.6241
 6001SOL     OW29638   2.840   0.601   4.720  0.6211  0.5676  0.3964
 6001SOL    HW129639   2.853   0.662   4.792 -0.2698 -1.9784  2.7076
 6001SOL    HW229640   2.919   0.621   4.671  0.5890  2.0765  0.9429
 6002SOL     OW29641   1.754   0.261   5.417  0.0428 -0.0389 -0.6061
 6002SOL    HW129642   1.765   0.172   5.383 -0.7230 -0.7421  1.0196
 6002SOL    HW229643   1.777   0.310   5.338  1.8013  1.0766  0.6099
 6003SOL     OW29644   1.455   0.953   5.885  0.4681 -0.5648  0.0547
 6003SOL    HW129645   1.539   0.943   5.930  0.1373  0.9359  0.9927
 6003SOL    HW229646   1.429   0.862   5.902  0.4375 -0.5944 -0.1540
 6004SOL     OW29647   4.529   1.351  14.261 -0.1544 -0.7528 -0.6285
 6004SOL    HW129648   4.604   1.410  14.257  1.1544 -2.3061  0.8232
 6004SOL    HW229649   4.472   1.401  14.319 -0.2644 -0.4635 -0.9908
 6005SOL     OW29650   2.110   4.479   6.203  0.0529  0.2761  0.3354
 6005SOL    HW129651   2.133   4.553   6.260  1.3807 -0.7035  1.0787
 6005SOL    HW229652   2.194   4.435   6.211 -1.9031 -3.0667  2.5228
 6006SOL     OW29653   0.347   1.900   6.250  0.0335 -0.5074  0.4254
 6006SOL    HW129654   0.398   1.936   6.323  0.7736  1.0931 -0.8932
 6006SOL    HW229655   0.411   1.901   6.179  0.6385 -1.7072  0.9535
 6007SOL     OW29656   3.510   4.092   4.987 -0.1975 -0.0667 -0.2254
 6007SOL    HW129657   3.510   4.161   4.921  2.0459 -0.5999 -0.7918
 6007SOL    HW229658   3.482   4.139   5.065 -0.2306 -0.6994  0.1456
 6008SOL     OW29659   0.293   2.389  12.248 -0.0087  0.3433  0.2673
 6008SOL    HW129660   0.221   2.403  12.186 -0.3386  1.7619  0.9530
 6008SOL    HW229661   0.347   2.325  12.203 -0.0007  1.1783 -0.9040
 6009SOL     OW29662   3.769   0.466   1.662 -0.3444  0.3896  1.2059
 6009SOL    HW129663   3.811   0.396   1.612 -1.4221  1.4466 -1.1984
 6009SOL    HW229664   3.851   0.498   1.700 -0.3681  0.6520  1.0381
 6010SOL     OW29665   1.787   3.566   0.747  0.3290 -0.0637  0.1788
 6010SOL    HW129666   1.863   3.556   0.689  1.1853  1.0978  1.0984
 6010SOL    HW229667   1.773   3.478   0.781  1.7760  0.4470  2.0735
 6011SOL     OW29668   1.481   2.120   2.649  0.1223 -0.3564 -0.1458
 6011SOL    HW129669   1.387   2.124   2.670 -0.1613  0.4358 -1.5581
 6011SOL    HW229670   1.516   2.174   2.720 -1.0710  0.3174 -0.0535
 6012SOL     OW29671   4.564   1.698   8.559 -0.6654 -0.0869  0.0375
 6012SOL    HW129672   4.550   1.698   8.653  0.0942  0.2104  0.1499
 6012SOL    HW229673   4.605   1.783   8.550 -2.0450  0.3724 -2.0995
 6013SOL     OW29674   2.594   1.399   7.382 -0.3254 -0.4377  0.1859
 6013SOL    HW129675   2.662   1.446   7.430 -0.3124 -1.1906  0.8860
 6013SOL    HW229676   2.614   1.427   7.292  0.0379 -1.5424 -0.0726
 6014SOL     OW29677   3.907   1.726   9.072 -0.2504  0.5646  0.6241
 6014SOL    HW129678   3.931   1.712   8.980 -1.2499 -1.4702  0.6801
 6014SOL    HW229679   3.986   1.763   9.110  0.8725 -0.9531 -0.2458
 6015SOL     OW29680   0.600   0.868  11.720  0.2776 -0.0088  0.1986
 6015SOL    HW129681   0.505   0.852  11.724  0.4994 -1.1864  0.6395
 6015SOL    HW229682   0.630   0.875  11.811  2.3746  2.3575 -0.6815
 6016SOL     OW29683   2.240   1.463  16.657  0.8887 -0.1789  0.1133
 6016SOL    HW129684   2.251   1.557  16.672 -1.1700  0.3317 -1.6473
 6016SOL    HW229685   2.205   1.435  16.741  0.0411 -1.4215 -0.6538
 6017SOL     OW29686   3.087   2.618   3.272 -0.2247 -0.3499 -0.4006
 6017SOL    HW129687   3.014   2.652   3.221 -0.8948 -0.9404  0.1688
 6017SOL    HW229688   3.032   2.569   3.334 -1.3807  2.9177  1.1601
 6018SOL     OW29689   1.147   1.935  15.942  0.6222 -0.5259 -0.0324
 6018SOL    HW129690   1.230   1.977  15.964 -0.6671  1.1472  1.6416
 6018SOL    HW229691   1.183   1.851  15.913 -2.5665 -1.4016 -1.4055
 6019SOL     OW29692   0.900   1.598   2.126  1.1874 -0.0906 -0.9226
 6019SOL    HW129693   0.959   1.561   2.191  2.7044  0.3668 -2.0353
 6019SOL    HW229694   0.956   1.592   2.049  0.4609 -1.3534 -1.3552
 6020SOL     OW29695   3.059   2.436   4.020  0.3516  0.6856 -0.3192
 6020SOL    HW129696   3.089   2.488   4.095 -3.2956 -1.3679  2.5584
 6020SOL    HW229697   3.097   2.473   3.940  0.1839  0.6008 -0.4370
 6021SOL     OW29698   1.478   1.176   6.600 -0.1258  0.6006 -0.4477
 6021SOL    HW129699   1.452   1.112   6.535  0.6297 -0.0655 -0.1052
 6021SOL    HW229700   1.401   1.227   6.626  1.4023  1.3110  2.7272
 6022SOL     OW29701   0.670   3.506  11.559 -0.6590  0.6754 -0.0441
 6022SOL    HW129702   0.640   3.553  11.481  2.9627  0.8809 -1.3298
 6022SOL    HW229703   0.595   3.457  11.593  0.0585 -0.0379  0.5015
 6023SOL     OW29704   3.708   1.419  15.951 -0.8001  0.0356 -0.6063
 6023SOL    HW129705   3.794   1.387  15.979 -2.1356 -1.6085  1.6497
 6023SOL    HW229706   3.650   1.352  15.988  0.9500  0.0496  2.2160
 6024SOL     OW29707   0.193   1.638   1.657  0.1383 -0.1798 -0.0256
 6024SOL    HW129708   0.158   1.727   1.659 -0.3483 -0.4136  1.6168
 6024SOL    HW229709   0.146   1.604   1.581  0.6645  1.1342 -0.9343
 6025SOL     OW29710   0.635   4.063   3.792 -0.0767  0.2881 -0.2952
 6025SOL    HW129711   0.572   3.998   3.825 -1.8779  2.3008  0.1885
 6025SOL    HW229712   0.643   4.040   3.700  2.6169 -2.0211  0.4796
 6026SOL     OW29713   0.842   4.021   6.724  0.1375 -0.2828  0.1962
 6026SOL    HW129714   0.875   3.977   6.802  1.0124  0.2268  0.1192
 6026SOL    HW229715   0.750   4.036   6.744  0.1959 -0.5017  0.6411
 6027SOL     OW29716   3.898   3.805  12.760 -0.1553 -0.3712 -0.4832
 6027SOL    HW129717   3.965   3.786  12.695  0.2491 -0.9083  0.0957
 6027SOL    HW229718   3.890   3.718  12.798  1.9602  0.8120  2.6128
 6028SOL     OW29719   2.715   0.487   6.530 -0.5341 -0.3803 -0.4372
 6028SOL    HW129720   2.810   0.481   6.514 -0.5870 -3.0710  0.3324
 6028SOL    HW229721   2.711   0.503   6.624  0.5564 -2.4635 -0.0508
 6029SOL     OW29722   2.101   1.840   2.185 -0.1827 -0.0142 -0.5623
 6029SOL    HW129723   2.189   1.875   2.199 -0.2843 -0.6188  1.6214
 6029SOL    HW229724   2.063   1.868   2.268  0.9315 -2.8079  0.8730
 6030SOL     OW29725   4.464   1.187   2.816 -0.2102 -0.0900 -0.0788
 6030SOL    HW129726   4.434   1.140   2.738  1.1967 -3.0068  1.1414
 6030SOL    HW229727   4.540   1.135   2.840 -1.3051 -1.6611  0.0253
 6031SOL     OW29728   0.558   4.664  15.969  0.2040 -0.1709  0.4751
 6031SOL    HW129729   0.630   4.618  16.011  2.4195 -0.3448 -3.4880
 6031SOL    HW229730   0.545   0.012  16.011 -1.7440  0.0202 -0.4682
 6032SOL     OW29731   4.407   2.413  16.196 -0.4491 -0.0313  0.4449
 6032SOL    HW129732   4.359   2.439  16.118 -1.1388  1.6899  1.4258
 6032SOL    HW229733   4.488   2.385  16.153 -0.7358  1.4610 -1.0620
 6033SOL     OW29734   2.604   4.591   0.426 -0.0219  0.0067  0.0946
 6033SOL    HW129735   2.680   4.552   0.384 -0.0021 -1.2191  1.2620
 6033SOL    HW229736   2.639   4.665   0.476  1.0240 -0.6621  0.3458
 6034SOL     OW29737   1.571   0.306  15.581  0.4319  0.0214 -0.2787
 6034SOL    HW129738   1.546   0.261  15.500 -0.0799  1.4084 -0.8831
 6034SOL    HW229739   1.503   0.373  15.575  1.1416  0.7719  0.1894
 6035SOL     OW29740   3.531   3.498   5.819  0.2709 -0.5339 -0.3891
 6035SOL    HW129741   3.456   3.541   5.859  0.4374 -1.3448  0.7984
 6035SOL    HW229742   3.538   3.419   5.872 -0.5877 -2.1801 -2.6826
 6036SOL     OW29743   3.206   2.902   4.052  0.3027  0.8107  0.4603
 6036SOL    HW129744   3.256   2.864   3.980 -0.0982  2.0990 -0.5151
 6036SOL    HW229745   3.274   2.907   4.118  2.7875 -0.9683 -1.9665
 6037SOL     OW29746   2.161   4.636   8.067 -0.2714  0.3104 -0.2746
 6037SOL    HW129747   2.253   4.641   8.040  0.4004 -1.2319  1.7808
 6037SOL    HW229748   2.155   4.651   8.161 -1.6048  1.7803 -0.5817
 6038SOL     OW29749   0.220   1.090   5.884 -0.7756  0.5420 -0.5099
 6038SOL    HW129750   0.305   1.085   5.840 -0.9355 -0.6739 -0.6734
 6038SOL    HW229751   0.251   1.091   5.975  0.2328  2.0471 -0.8662
 6039SOL     OW29752   2.444   1.054  16.806  0.4104 -0.5487  0.5928
 6039SOL    HW129753   2.363   1.042  16.855 -0.7657  1.5746 -0.8805
 6039SOL    HW229754   2.420   1.069  16.715 -0.5099 -0.8019  0.7897
 6040SOL     OW29755   1.734   4.425   3.365 -0.1509 -0.1839 -0.1016
 6040SOL    HW129756   1.825   4.406   3.390  0.1262  2.3821  0.8190
 6040SOL    HW229757   1.686   4.372   3.428 -0.2390 -0.1394 -0.1321
 6041SOL     OW29758   4.342   2.517   0.601  0.1539  0.1252 -0.1034
 6041SOL    HW129759   4.256   2.560   0.600  1.3706  2.5713  0.5412
 6041SOL    HW229760   4.393   2.594   0.627  2.1229 -0.1721 -3.0396
 6042SOL     OW29761   1.132   2.054   7.412 -0.6685  0.3311 -0.7690
 6042SOL    HW129762   1.126   2.145   7.442  0.0884  0.4902 -1.0982
 6042SOL    HW229763   1.148   2.069   7.319  0.1550 -1.2398 -0.8827
 6043SOL     OW29764   4.567   1.842  10.214  0.2604 -0.4663  0.5010
 6043SOL    HW129765   4.501   1.792  10.167 -0.0427  0.5383 -0.1517
 6043SOL    HW229766   4.565   1.922  10.161  0.8512 -0.7079  0.1132
 6044SOL     OW29767   1.861   3.197   7.089 -0.0316 -0.2087 -0.2653
 6044SOL    HW129768   1.876   3.291   7.075 -1.8314  0.1123 -0.0060
 6044SOL    HW229769   1.782   3.189   7.035 -0.2329 -0.1182  0.0158
 6045SOL     OW29770   3.039   2.264  14.926  0.2442 -0.2307 -0.0947
 6045SOL    HW129771   3.116   2.309  14.892  0.1306 -2.2563 -3.1092
 6045SOL    HW229772   3.076   2.191  14.975 -2.0710 -1.5151 -0.2374
 6046SOL     OW29773   2.737   4.611   8.406 -0.1766  0.3614  0.5202
 6046SOL    HW129774   2.782   4.564   8.476  1.0026  1.2371  0.3400
 6046SOL    HW229775   2.790   4.690   8.406  1.0019 -0.4182  0.2239
 6047SOL     OW29776   1.901   4.488   8.944 -0.1417  0.5565 -0.4013
 6047SOL    HW129777   1.957   4.432   8.890 -1.5562 -3.5769  2.4381
 6047SOL    HW229778   1.821   4.438   8.963 -1.3711  1.9570 -1.8855
 6048SOL     OW29779   1.501   2.665   8.779 -0.2001 -0.0319  0.6440
 6048SOL    HW129780   1.433   2.704   8.725  0.4640 -0.6042 -0.5865
 6048SOL    HW229781   1.576   2.713   8.743  0.7716 -1.1584  1.1631
 6049SOL     OW29782   4.072   1.904   9.364 -0.0255  0.1993 -0.0061
 6049SOL    HW129783   4.099   1.906   9.456 -0.4684 -0.3805  0.1311
 6049SOL    HW229784   4.152   1.877   9.318  1.1030  0.9158  1.5211
 6050SOL     OW29785   4.209   2.019   3.179  0.0534 -0.0082  0.2858
 6050SOL    HW129786   4.115   2.004   3.180 -0.0748  0.8891  1.5312
 6050SOL    HW229787   4.229   1.984   3.092  1.5906 -1.0998  1.0826
 6051SOL     OW29788   1.486   2.730  11.699 -0.3669  0.3948 -0.5600
 6051SOL    HW129789   1.418   2.681  11.652  0.6498 -1.5096 -0.0738
 6051SOL    HW229790   1.522   2.777  11.624  1.2590  0.0459  0.0081
 6052SOL     OW29791   3.178   1.058   4.669  0.1905 -0.2220  0.2578
 6052SOL    HW129792   3.255   1.113   4.686  1.6374 -1.8293 -1.0997
 6052SOL    HW229793   3.108   1.122   4.680  0.4455 -0.1804  1.7100
 6053SOL     OW29794   4.572   2.195   5.067 -0.2990 -0.3099  0.2245
 6053SOL    HW129795   4.505   2.182   5.134 -1.2116 -2.8008 -1.1738
 6053SOL    HW229796   4.538   2.282   5.047  1.2033 -0.2051 -1.8409
 6054SOL     OW29797   2.325   2.043  14.761  0.2390 -0.0213 -0.2555
 6054SOL    HW129798   2.392   1.988  14.802  0.7556  0.7322 -0.0965
 6054SOL    HW229799   2.246   2.001  14.795  0.3664  0.9236  1.2161
 6055SOL     OW29800   3.174   3.814  15.613  0.0311  0.7096 -0.1375
 6055SOL    HW129801   3.124   3.876  15.559 -3.0334 -3.3711 -1.9562
 6055SOL    HW229802   3.220   3.760  15.549  1.8052 -0.5871  2.2640
 6056SOL     OW29803   0.352   4.488   7.943 -0.0588  0.0726 -0.2330
 6056SOL    HW129804   0.314   4.400   7.943 -2.4222  1.0942 -0.8844
 6056SOL    HW229805   0.445   4.468   7.952  0.0249  1.3635  2.1019
 6057SOL     OW29806   4.281   4.079   5.082  0.2873 -0.0468 -0.1801
 6057SOL    HW129807   4.191   4.059   5.105 -0.0193 -0.5423 -1.7837
 6057SOL    HW229808   4.276   4.059   4.989  1.1252  0.4294 -0.3326
 6058SOL     OW29809   1.069   1.340  15.528  0.8637  0.5509  0.5330
 6058SOL    HW129810   1.006   1.386  15.473 -0.3642 -0.0315  1.4488
 6058SOL    HW229811   1.010   1.313  15.598 -1.5909  1.2397 -1.2906
 6059SOL     OW29812   4.231   0.505   7.517  0.3806 -0.3362  0.4148
 6059SOL    HW129813   4.309   0.560   7.527 -1.2920  2.3089 -0.8964
 6059SOL    HW229814   4.221   0.481   7.609 -1.3788  1.1100  0.6109
 6060SOL     OW29815   4.095   3.398   7.167  0.6375  0.1117  0.8181
 6060SOL    HW129816   4.034   3.453   7.217 -0.3573 -0.5847  0.3829
 6060SOL    HW229817   4.035   3.369   7.098  0.7012  1.3516  0.2335
 6061SOL     OW29818   1.220   4.478   9.703 -0.4774 -0.0966 -0.0731
 6061SOL    HW129819   1.270   4.506   9.626  0.4524 -0.3239  0.4530
 6061SOL    HW229820   1.143   4.535   9.695  0.0939  0.5965 -0.7101
 6062SOL     OW29821   4.735   1.361   8.776 -0.3039  0.2699  0.2781
 6062SOL    HW129822   0.080   1.312   8.769  0.0899  1.0532 -0.5898
 6062SOL    HW229823   4.676   1.289   8.755  1.5109 -0.9477 -0.6413
 6063SOL     OW29824   0.592   2.796   3.658 -0.1409  0.3058 -0.4232
 6063SOL    HW129825   0.584   2.702   3.642 -0.0348  0.4633 -1.4082
 6063SOL    HW229826   0.518   2.830   3.709  0.0290 -1.8754  1.2867
 6064SOL     OW29827   1.970   0.119  10.821 -0.6847 -0.4393  0.5768
 6064SOL    HW129828   2.061   0.121  10.850  0.4944  0.8668 -3.1333
 6064SOL    HW229829   1.925   0.059  10.880 -0.9950 -1.9454 -1.1849
 6065SOL     OW29830   4.189   3.815   6.236 -0.3642  0.1112  0.6316
 6065SOL    HW129831   4.211   3.758   6.163 -1.6298  2.1000 -1.3030
 6065SOL    HW229832   4.249   3.778   6.301  0.6616  0.0269 -0.3665
 6066SOL     OW29833   1.392   3.804   8.377 -0.1583 -0.6444  0.1129
 6066SOL    HW129834   1.462   3.814   8.313  0.2382  2.7052  1.0487
 6066SOL    HW229835   1.316   3.802   8.318  0.1148 -0.7501 -0.2338
 6067SOL     OW29836   3.694   1.967   3.708  0.0398 -0.3089 -0.7820
 6067SOL    HW129837   3.750   1.927   3.642  1.5268  1.9466 -0.8741
 6067SOL    HW229838   3.730   1.926   3.787 -0.4299 -0.7916 -0.8182
 6068SOL     OW29839   0.084   1.628   4.652  0.0324 -0.1596  0.6784
 6068SOL    HW129840   4.736   1.604   4.615 -0.1471  0.0552  0.9508
 6068SOL    HW229841   0.109   1.542   4.686 -0.5123 -0.1809  1.0223
 6069SOL     OW29842   2.082   3.553   2.544 -0.2670 -0.2458 -0.1120
 6069SOL    HW129843   2.121   3.641   2.542  1.4748 -0.9847  1.1759
 6069SOL    HW229844   2.059   3.528   2.455 -0.2012  2.9317 -1.0266
 6070SOL     OW29845   2.340   2.415   4.790  0.4177 -0.5949 -0.3993
 6070SOL    HW129846   2.274   2.360   4.748 -2.0280  1.5140  0.6857
 6070SOL    HW229847   2.304   2.424   4.878 -1.2772 -0.1655 -1.1369
 6071SOL     OW29848   0.188   2.745   5.152 -0.5020  0.2051  0.1896
 6071SOL    HW129849   0.093   2.757   5.155 -0.5122  0.0827  0.4027
 6071SOL    HW229850   0.185   2.665   5.100 -2.0131  0.6078 -0.3425
 6072SOL     OW29851   1.115   1.494   4.481 -0.3152 -0.3129 -0.7775
 6072SOL    HW129852   1.141   1.430   4.547 -1.6575  0.5932  0.6306
 6072SOL    HW229853   1.116   1.579   4.525 -0.8269 -0.4234 -0.5509
 6073SOL     OW29854   1.473   1.513   8.259  0.1942 -0.1422  0.5022
 6073SOL    HW129855   1.407   1.449   8.287  1.1665 -1.0361  0.7480
 6073SOL    HW229856   1.533   1.468   8.199 -1.0299 -1.0600 -0.0498
 6074SOL     OW29857   1.679   4.099   1.905  0.8561  0.1373 -0.0254
 6074SOL    HW129858   1.755   4.086   1.849  0.0944  1.3463 -1.3447
 6074SOL    HW229859   1.615   4.103   1.834  1.3403  0.1961 -0.4512
 6075SOL     OW29860   2.329   1.634  15.004  0.0495  0.3826 -1.3260
 6075SOL    HW129861   2.255   1.634  15.066  0.8807  3.3729 -0.3644
 6075SOL    HW229862   2.318   1.551  14.957 -1.0338 -0.4860  0.4781
 6076SOL     OW29863   0.258   2.685   1.128 -0.1989 -0.1407 -0.5266
 6076SOL    HW129864   0.191   2.625   1.098 -0.0611 -0.7149  0.2956
 6076SOL    HW229865   0.240   2.712   1.218 -0.1564 -1.5615 -0.0966
 6077SOL     OW29866   1.531   3.376   2.711  0.3647  0.0859 -0.3680
 6077SOL    HW129867   1.577   3.397   2.792  0.4708 -0.9886 -0.1421
 6077SOL    HW229868   1.601   3.339   2.657  3.2447  1.4675  2.4930
 6078SOL     OW29869   2.992   4.324  15.478  0.0561  0.0757 -0.1004
 6078SOL    HW129870   3.019   4.384  15.547 -1.9672  0.0546  0.7067
 6078SOL    HW229871   3.040   4.363  15.405  2.8467 -2.7717  0.1996
 6079SOL     OW29872   0.807   4.294   7.766  0.5768  0.0471  0.6163
 6079SOL    HW129873   0.878   4.333   7.715  0.7659 -0.9273  0.1228
 6079SOL    HW229874   0.743   4.282   7.696  1.1948 -1.5858  0.3153
 6080SOL     OW29875   0.597   3.910   6.856 -0.2323  0.1396  0.3729
 6080SOL    HW129876   0.654   3.942   6.926 -0.8984 -3.2287  2.4080
 6080SOL    HW229877   0.660   3.846   6.826 -1.5357 -0.5405 -0.9018
 6081SOL     OW29878   0.376   0.343  11.626 -0.3063  0.2639  0.0786
 6081SOL    HW129879   0.433   0.317  11.554 -0.5132 -0.2825  0.1137
 6081SOL    HW229880   0.400   0.270  11.682 -1.7891 -1.4611 -1.5043
 6082SOL     OW29881   4.410   2.840   4.108 -0.4351 -0.4043  0.0212
 6082SOL    HW129882   4.360   2.819   4.029 -0.7525  0.1720  0.0716
 6082SOL    HW229883   4.429   2.752   4.139  3.1634 -1.0322 -4.0064
 6083SOL     OW29884   1.738   4.076   1.306  0.2139 -0.4603 -0.0125
 6083SOL    HW129885   1.679   4.011   1.268 -0.8706  0.4961  0.0373
 6083SOL    HW229886   1.737   4.142   1.237 -1.3790  0.4114  0.8404
 6084SOL     OW29887   3.209   4.153   2.163  0.0449  0.2686  0.9760
 6084SOL    HW129888   3.271   4.141   2.235  3.7359 -0.8271 -2.3221
 6084SOL    HW229889   3.258   4.205   2.099  0.7613  0.0476  1.3377
 6085SOL     OW29890   2.201   3.874   8.362 -0.0900  0.6820 -0.3416
 6085SOL    HW129891   2.175   3.914   8.445 -1.7770  1.3086 -1.1600
 6085SOL    HW229892   2.231   3.946   8.306  1.5752  0.4574  0.2715
 6086SOL     OW29893   0.229   0.892  12.152 -0.0895 -0.1942  0.5008
 6086SOL    HW129894   0.196   0.872  12.240  1.0250 -0.0908  0.9447
 6086SOL    HW229895   0.257   0.804  12.127 -0.7441 -0.0753 -0.6458
 6087SOL     OW29896   0.777   0.669   7.971 -0.1664 -0.4306  0.1644
 6087SOL    HW129897   0.859   0.684   8.019  0.1793  0.0598 -0.5917
 6087SOL    HW229898   0.726   0.749   7.973 -0.9647 -0.9617  1.2802
 6088SOL     OW29899   1.749   1.048   4.274 -0.7842  0.5586  0.7633
 6088SOL    HW129900   1.786   1.070   4.188  1.1278  0.2215  1.4810
 6088SOL    HW229901   1.834   1.036   4.318 -0.5236 -0.3331  0.0089
 6089SOL     OW29902   1.577   4.151   8.752 -0.2161 -0.4867 -0.5503
 6089SOL    HW129903   1.618   4.111   8.675 -3.2725 -0.6423 -2.1014
 6089SOL    HW229904   1.519   4.079   8.774 -1.3716  0.4674 -0.4778
 6090SOL     OW29905   3.740   2.552   5.781  0.2126 -0.9812 -0.1508
 6090SOL    HW129906   3.729   2.640   5.816 -0.1028 -1.0166 -0.1548
 6090SOL    HW229907   3.740   2.504   5.864  1.6788  0.0703  0.4506
 6091SOL     OW29908   1.242   4.598   5.643  0.2492 -0.0204 -0.3070
 6091SOL    HW129909   1.319   4.542   5.640  0.5944  0.4772 -0.8585
 6091SOL    HW229910   1.176   4.544   5.686 -1.8704 -0.2676 -3.8555
 6092SOL     OW29911   0.570   4.031   9.208  0.1477 -0.2756 -0.2449
 6092SOL    HW129912   0.575   4.008   9.301  2.7923  1.7703  0.1462
 6092SOL    HW229913   0.646   4.090   9.205 -0.9836  1.1194 -1.1859
 6093SOL     OW29914   1.092   4.140  17.651  0.4880  0.6611 -0.0582
 6093SOL    HW129915   1.182   4.155  17.681  0.6766  1.2755 -0.9461
 6093SOL    HW229916   1.103   4.144  17.556 -1.2374 -1.2040 -0.3384
 6094SOL     OW29917   1.262   2.309  16.103 -0.3523  0.0151 -0.0821
 6094SOL    HW129918   1.289   2.241  16.165 -0.0762  1.7624  1.7251
 6094SOL    HW229919   1.179   2.350  16.127 -1.4575 -0.5948 -2.8668
 6095SOL     OW29920   3.934   3.948  15.005 -0.5428  0.4985 -0.5024
 6095SOL    HW129921   3.924   3.853  14.999  1.8193  0.2825 -0.7974
 6095SOL    HW229922   3.841   3.973  15.011 -0.0433  1.8001  1.9494
 6096SOL     OW29923   0.736   1.391   8.143 -0.2938  0.0728  0.2528
 6096SOL    HW129924   0.668   1.448   8.109 -0.7688 -0.5476  0.1684
 6096SOL    HW229925   0.797   1.408   8.072 -0.4607  0.5889  0.2330
 6097SOL     OW29926   0.138   4.087   2.097  0.1836 -0.0819 -0.2321
 6097SOL    HW129927   0.052   4.085   2.139 -0.3309  0.9003 -1.2698
 6097SOL    HW229928   0.139   3.993   2.078  2.7570 -0.6499  2.6251
 6098SOL     OW29929   4.370   4.511  11.236 -0.4572  0.9117 -0.2973
 6098SOL    HW129930   4.330   4.536  11.152 -0.4094  1.6010 -0.1175
 6098SOL    HW229931   4.421   4.434  11.212 -0.3184  0.2121  2.2293
 6099SOL     OW29932   3.061   2.911   3.020  0.0369 -0.4103  0.2175
 6099SOL    HW129933   2.988   2.858   3.053 -2.5534  4.0077  1.6051
 6099SOL    HW229934   3.054   2.992   3.070 -3.4612 -0.3086 -0.4018
 6100SOL     OW29935   0.486   0.013   6.073 -0.0380  0.3079 -0.4286
 6100SOL    HW129936   0.580   0.010   6.052  0.3685  0.1506  1.4263
 6100SOL    HW229937   0.449   0.080   6.016 -2.0008 -0.5431 -0.1436
 6101SOL     OW29938   3.273   0.513   2.408  0.2888 -0.1881  0.2283
 6101SOL    HW129939   3.325   0.573   2.354  0.8074  0.5181  1.5267
 6101SOL    HW229940   3.345   0.462   2.443 -0.8884 -1.3685  0.8994
 6102SOL     OW29941   1.546   0.846   3.934  0.6130  0.2527 -0.0241
 6102SOL    HW129942   1.498   0.904   3.875 -1.5776 -0.5116  1.0214
 6102SOL    HW229943   1.498   0.770   3.900  0.4967  0.7846 -1.0655
 6103SOL     OW29944   0.522   3.249   3.335 -0.0435 -0.3707  0.5065
 6103SOL    HW129945   0.574   3.175   3.303 -2.4502 -1.2815 -1.2910
 6103SOL    HW229946   0.588   3.318   3.341  1.4725 -1.6611 -1.4289
 6104SOL     OW29947   2.116   3.060   6.992  0.2662  0.0558  0.2835
 6104SOL    HW129948   2.037   3.099   7.030  0.8856  0.7464  0.8572
 6104SOL    HW229949   2.077   2.976   6.968  1.0098 -0.4604  0.8643
 6105SOL     OW29950   3.548   1.833   4.905 -0.2510  0.6021  0.1803
 6105SOL    HW129951   3.471   1.813   4.852 -0.5507  2.6743 -0.1469
 6105SOL    HW229952   3.492   1.843   4.983  0.0037  1.5330  0.2374
 6106SOL     OW29953   2.838   1.186  15.248  0.0864  0.1464 -0.8324
 6106SOL    HW129954   2.844   1.273  15.289  2.3647 -1.0343  1.3633
 6106SOL    HW229955   2.747   1.160  15.263  0.3838 -1.2042 -1.4099
 6107SOL     OW29956   3.241   0.813   2.164  0.1570  0.9716 -0.0875
 6107SOL    HW129957   3.307   0.745   2.180  1.1735  2.6430  2.7396
 6107SOL    HW229958   3.203   0.816   2.252 -0.7035  1.3333 -0.4672
 6108SOL     OW29959   1.269   2.139   8.171  0.5840  0.0467  0.2457
 6108SOL    HW129960   1.187   2.179   8.200 -0.3084  0.1617 -2.4786
 6108SOL    HW229961   1.297   2.113   8.259 -0.4994 -1.5728  0.1178
 6109SOL     OW29962   0.633   1.903   8.415  0.0309  0.2707 -0.3824
 6109SOL    HW129963   0.537   1.907   8.404 -0.1977 -0.5182  1.4610
 6109SOL    HW229964   0.668   1.979   8.368  0.9692  0.1447  0.1218
 6110SOL     OW29965   2.285   1.924  15.029  0.6017 -0.1380 -0.1265
 6110SOL    HW129966   2.317   1.834  15.025 -0.9109 -0.7218  1.0105
 6110SOL    HW229967   2.193   1.909  15.052  0.2335  1.1764 -0.7433
 6111SOL     OW29968   1.019   4.675   7.055 -0.1955  0.0694 -0.2753
 6111SOL    HW129969   1.101   4.640   7.088  0.1879  0.7494 -0.5002
 6111SOL    HW229970   1.019   0.019   7.108 -0.0772  0.1290 -0.3669
 6112SOL     OW29971   3.085   4.166  11.866 -0.6776  0.2512  0.0190
 6112SOL    HW129972   3.017   4.102  11.844 -0.8303  0.9549 -1.5144
 6112SOL    HW229973   3.165   4.119  11.843 -0.7328  0.8796 -1.4470
 6113SOL     OW29974   1.045   0.617  17.067  0.0803  0.3619  0.2628
 6113SOL    HW129975   1.111   0.590  17.131  2.6769  0.3261 -2.4597
 6113SOL    HW229976   1.061   0.711  17.070  0.2871  0.4335 -3.1074
 6114SOL     OW29977   0.153   3.396   9.240  0.1257 -0.2764  0.2639
 6114SOL    HW129978   0.151   3.484   9.202  0.9058 -0.4023 -0.0593
 6114SOL    HW229979   0.165   3.422   9.332  2.5725  0.6739 -0.3101
 6115SOL     OW29980   1.467   2.530  10.731  0.2523  0.4386 -0.1220
 6115SOL    HW129981   1.402   2.460  10.723  0.6243  0.1492 -0.5823
 6115SOL    HW229982   1.432   2.588  10.799  1.0245 -0.1122  0.7315
 6116SOL     OW29983   0.137   3.029  13.573 -0.0712  0.0585 -0.4499
 6116SOL    HW129984   0.128   3.064  13.485  2.8171  0.4217 -0.5919
 6116SOL    HW229985   0.213   3.075  13.610 -0.4839  0.0067  0.4588
 6117SOL     OW29986   1.799   0.052   3.043 -0.0924  0.0018 -0.7186
 6117SOL    HW129987   1.862   4.717   3.034 -0.7025 -0.2927 -2.5461
 6117SOL    HW229988   1.750   0.048   2.961 -0.9313  1.2104 -0.2759
 6118SOL     OW29989   4.375   4.472   7.499  0.4387 -0.0459  0.2056
 6118SOL    HW129990   4.457   4.434   7.530  0.0984 -1.4607 -0.5808
 6118SOL    HW229991   4.367   4.540   7.565 -2.4119  1.0237 -1.2323
 6119SOL     OW29992   2.976   4.541   9.268  0.2130 -0.1484 -0.2809
 6119SOL    HW129993   2.887   4.561   9.242 -0.1529  1.5300  2.2816
 6119SOL    HW229994   2.975   4.447   9.285  2.1116  0.3244  2.4252
 6120SOL     OW29995   1.965   1.904   5.845 -0.0640 -0.2111 -0.1011
 6120SOL    HW129996   1.983   1.964   5.918  0.8758  0.8533 -1.1934
 6120SOL    HW229997   1.922   1.836   5.896  0.8232 -0.3120  0.5166
 6121SOL     OW29998   1.644   1.752   7.189 -0.0122 -0.8259  0.0237
 6121SOL    HW129999   1.596   1.824   7.229  2.3102  0.7286  0.0001
 6121SOL    HW230000   1.733   1.781   7.170 -0.2497  0.1543  0.4207
 6122SOL     OW30001   3.244   4.452   7.484  0.4006  0.1058 -0.2431
 6122SOL    HW130002   3.187   4.518   7.446 -0.9577 -0.5825  0.5885
 6122SOL    HW230003   3.301   4.451   7.408 -2.6131 -3.2239 -2.4707
 6123SOL     OW30004   1.376   1.926   8.351  0.4447  0.6261  0.1308
 6123SOL    HW130005   1.384   1.860   8.282 -1.9105  0.1763  0.2713
 6123SOL    HW230006   1.328   1.874   8.417 -0.6968 -1.7076 -2.5266
 6124SOL     OW30007   0.146   3.530  14.917  0.4935  0.2180 -0.1353
 6124SOL    HW130008   0.073   3.587  14.891  0.2094 -0.3095 -0.4762
 6124SOL    HW230009   0.097   3.451  14.938  1.0773 -0.0139  0.3690
 6125SOL     OW30010   3.604   2.824   0.059  0.1461 -0.0911  0.1608
 6125SOL    HW130011   3.573   2.785  17.722 -0.2273 -0.4202  0.4551
 6125SOL    HW230012   3.580   2.756   0.123 -2.3719  0.1421 -0.5168
 6126SOL     OW30013   0.501   0.791   4.195 -0.2954  0.2759 -0.1657
 6126SOL    HW130014   0.452   0.735   4.255  0.3796 -0.3743 -0.2241
 6126SOL    HW230015   0.592   0.792   4.225  0.4635  5.6518 -2.6429
 6127SOL     OW30016   0.646   2.549  10.706 -0.5333 -0.0429  0.0107
 6127SOL    HW130017   0.723   2.494  10.692 -0.3686  0.2899 -0.3717
 6127SOL    HW230018   0.673   2.628  10.659  0.9719 -0.8034 -0.4212
 6128SOL     OW30019   3.479   0.091   5.830 -0.3080  0.7712  0.0993
 6128SOL    HW130020   3.403   0.117   5.779  0.2398  3.2069  0.5572
 6128SOL    HW230021   3.444   0.074   5.917 -0.7603 -0.5994 -0.3475
 6129SOL     OW30022   0.934   0.149  17.493 -0.1708  0.0350  0.2549
 6129SOL    HW130023   0.939   0.158  17.397  3.3365  2.1541  0.6296
 6129SOL    HW230024   0.933   0.054  17.501 -2.9583  0.2225  2.0370
 6130SOL     OW30025   4.632   2.362  14.548 -0.4711 -0.3804 -0.7094
 6130SOL    HW130026   4.674   2.349  14.633  0.6073 -0.5943 -1.2792
 6130SOL    HW230027   4.698   2.325  14.489 -0.2290  0.2076 -0.8041
 6131SOL     OW30028   1.164   0.715  14.791 -0.3264  0.0100 -0.6605
 6131SOL    HW130029   1.227   0.688  14.724 -0.3109  1.3135 -1.1731
 6131SOL    HW230030   1.112   0.635  14.786 -1.2005  0.5946 -0.8160
 6132SOL     OW30031   3.258   1.177   7.748 -0.7015 -0.4971  0.8766
 6132SOL    HW130032   3.262   1.211   7.838 -1.2565  0.7934  0.4049
 6132SOL    HW230033   3.333   1.217   7.705 -1.4646  0.1819  0.1848
 6133SOL     OW30034   0.401   0.031   0.027  0.2148 -0.6888 -0.0629
 6133SOL    HW130035   0.353   0.023  17.690  0.3364 -2.3085  0.0244
 6133SOL    HW230036   0.381   4.697   0.087  0.4196  0.5653  1.4905
 6134SOL     OW30037   0.429   1.227   8.037  0.6381 -0.0209 -0.2517
 6134SOL    HW130038   0.380   1.286   8.094 -1.1334 -0.6941 -1.0526
 6134SOL    HW230039   0.489   1.290   7.997 -0.7721  1.0528 -0.6505
 6135SOL     OW30040   2.414   0.180  13.428 -0.2606  0.1146  0.3100
 6135SOL    HW130041   2.338   0.173  13.371  1.5195 -0.8435 -1.9282
 6135SOL    HW230042   2.414   0.272  13.454 -4.3257  0.7612 -1.9755
 6136SOL     OW30043   2.210   3.774   5.359  0.0456  0.5379 -0.0595
 6136SOL    HW130044   2.146   3.817   5.416  0.7615  1.7660 -0.1634
 6136SOL    HW230045   2.212   3.850   5.300  2.8449  0.4727 -0.0359
 6137SOL     OW30046   3.661   2.942   8.793 -0.0431  0.4921  0.4548
 6137SOL    HW130047   3.644   2.955   8.700 -0.6134  0.6265  0.5750
 6137SOL    HW230048   3.615   3.014   8.836 -0.1303  1.4557 -1.2426
 6138SOL     OW30049   2.797   4.022   1.618  0.1701 -0.3016 -0.0410
 6138SOL    HW130050   2.815   4.080   1.543  1.1694 -1.2275 -0.5297
 6138SOL    HW230051   2.887   4.017   1.650 -0.1831  0.3742  1.0189
 6139SOL     OW30052   0.692   1.057   7.051  0.0007 -0.0115 -0.0618
 6139SOL    HW130053   0.669   1.087   6.963 -1.1669  1.2916  0.7001
 6139SOL    HW230054   0.706   1.141   7.095  0.2624  0.2651 -0.6660
 6140SOL     OW30055   4.308   2.134   5.773  0.1345 -0.4330  0.3489
 6140SOL    HW130056   4.262   2.122   5.690  0.1395  2.4841 -0.0668
 6140SOL    HW230057   4.264   2.217   5.791  2.4957  0.6795  0.9266
 6141SOL     OW30058   4.374   0.786   8.648 -0.4794 -0.5068  0.0308
 6141SOL    HW130059   4.457   0.830   8.634 -1.0935  0.6291 -0.0098
 6141SOL    HW230060   4.321   0.827   8.579 -2.5043 -1.4665  0.9953
 6142SOL     OW30061   2.256   3.207   3.656  0.2508  0.2808 -0.1616
 6142SOL    HW130062   2.282   3.244   3.571  1.7597 -1.2345 -0.3719
 6142SOL    HW230063   2.278   3.115   3.639 -1.8077 -0.5334  1.6867
 6143SOL     OW30064   2.971   3.454   5.315 -0.0410 -0.0391 -0.1782
 6143SOL    HW130065   2.979   3.543   5.351  0.7155 -1.2197  2.5421
 6143SOL    HW230066   2.918   3.410   5.382 -0.0533 -0.4381 -0.4494
 6144SOL     OW30067   1.873   2.920  11.501 -0.7009  0.1900  0.2752
 6144SOL    HW130068   1.963   2.906  11.471 -0.6251  0.1117  0.5430
 6144SOL    HW230069   1.895   2.943  11.591 -2.1179 -3.6202  1.5710
 6145SOL     OW30070   1.783   4.041   8.273  0.5794 -0.1609  0.3014
 6145SOL    HW130071   1.870   4.080   8.272  0.3744  0.2618 -0.3017
 6145SOL    HW230072   1.752   4.039   8.183 -0.4360 -0.4486  0.6578
 6146SOL     OW30073   2.687   0.218   1.958 -0.3275  0.4230 -0.0896
 6146SOL    HW130074   2.632   0.212   1.880 -0.0453  0.2914 -0.2790
 6146SOL    HW230075   2.775   0.230   1.921  0.4209 -0.2133  1.4952
 6147SOL     OW30076   4.125   4.081  13.261  0.1927  0.3187  0.0433
 6147SOL    HW130077   4.124   4.176  13.274 -2.6632  0.0729  1.5177
 6147SOL    HW230078   4.037   4.060  13.291 -0.0486  0.3408 -0.6674
 6148SOL     OW30079   3.391   0.076   1.955 -0.3961  0.4134  0.2429
 6148SOL    HW130080   3.361   0.152   1.904  1.9495  1.0540 -0.1895
 6148SOL    HW230081   3.348   0.087   2.041  0.1472  0.3986  0.5135
 6149SOL     OW30082   3.050   0.515   9.496  0.2259  0.0503 -0.1463
 6149SOL    HW130083   2.986   0.553   9.436 -0.2001  1.3925  1.1468
 6149SOL    HW230084   3.016   0.426   9.504 -0.1252  0.0513 -1.6248
 6150SOL     OW30085   2.570   1.775   1.309  0.2503  0.4976  0.1627
 6150SOL    HW130086   2.591   1.713   1.239  0.8069  0.0034  0.7747
 6150SOL    HW230087   2.489   1.739   1.344 -0.1987  1.2944 -0.0481
 6151SOL     OW30088   0.669   3.618   5.067 -0.7026 -0.6667  0.0612
 6151SOL    HW130089   0.748   3.662   5.099 -0.1970 -2.9588  1.9254
 6151SOL    HW230090   0.688   3.529   5.096  1.4800  0.1954  1.2866
 6152SOL     OW30091   3.472   0.554   3.710 -0.7139 -0.2856  0.8176
 6152SOL    HW130092   3.481   0.649   3.710 -2.8927 -0.0826 -0.0404
 6152SOL    HW230093   3.455   0.531   3.619 -0.0577 -0.3567  0.7161
 6153SOL     OW30094   4.030   3.304   8.421 -0.4559 -0.2882  0.1899
 6153SOL    HW130095   4.056   3.394   8.439 -1.2179 -0.2580  1.1424
 6153SOL    HW230096   3.973   3.286   8.496  0.3338 -2.0804  0.3701
 6154SOL     OW30097   3.853   0.705   3.703 -0.2572  0.0685  0.0051
 6154SOL    HW130098   3.931   0.657   3.675  1.7155  2.9031  0.6067
 6154SOL    HW230099   3.858   0.786   3.653 -0.2191  0.1848  0.1996
 6155SOL     OW30100   1.286   3.494  12.500 -0.0789  0.6368 -0.5335
 6155SOL    HW130101   1.308   3.574  12.451 -0.3750  0.8569 -0.3007
 6155SOL    HW230102   1.372   3.475  12.538 -0.7519  0.6047  0.9450
 6156SOL     OW30103   3.519   3.034   6.898 -0.6064  0.0923 -0.3901
 6156SOL    HW130104   3.487   2.954   6.857  1.6147 -1.2038  0.4366
 6156SOL    HW230105   3.519   3.002   6.988 -0.4420  0.0107 -0.4197
 6157SOL     OW30106   4.158   0.603  10.656  0.3053 -0.0940 -0.2453
 6157SOL    HW130107   4.115   0.518  10.665 -0.8898  0.1955 -3.1480
 6157SOL    HW230108   4.245   0.576  10.627  0.4471 -0.1448  0.2327
 6158SOL     OW30109   0.379   0.981  13.097 -0.9330 -0.2566  0.1394
 6158SOL    HW130110   0.417   0.988  13.009  0.0249 -0.3998  0.5417
 6158SOL    HW230111   0.318   1.050  13.122 -0.6458  0.5842 -1.4886
 6159SOL     OW30112   0.833   3.539   6.985 -0.2826  1.0247 -0.2764
 6159SOL    HW130113   0.783   3.571   6.909 -1.2457 -0.9403 -0.4773
 6159SOL    HW230114   0.889   3.469   6.952 -0.8897  1.0421 -1.3706
 6160SOL     OW30115   3.870   2.953  14.849  0.0302 -0.0351  0.1389
 6160SOL    HW130116   3.928   2.883  14.881 -3.1336 -2.6675  0.1031
 6160SOL    HW230117   3.938   3.014  14.820 -0.4553 -0.9997 -3.0395
 6161SOL     OW30118   1.856   4.670   0.703  0.0470 -0.3646 -0.7275
 6161SOL    HW130119   1.941   4.667   0.658 -0.8706  0.3911 -2.5474
 6161SOL    HW230120   1.803   4.644   0.627  1.0287  1.2978 -2.0023
 6162SOL     OW30121   0.087   0.733   8.767 -0.1804 -0.3694 -0.2549
 6162SOL    HW130122   0.007   0.688   8.792 -1.2209 -0.1950 -3.2709
 6162SOL    HW230123   0.137   0.742   8.849  0.1221 -1.0516 -0.3689
 6163SOL     OW30124   4.499   3.650   4.791 -0.4354  0.4693  0.5950
 6163SOL    HW130125   4.576   3.707   4.791 -0.5441  0.6053 -1.3346
 6163SOL    HW230126   4.499   3.627   4.699  0.8715 -1.7948  1.1807
 6164SOL     OW30127   3.150   1.707   4.177  0.1715  0.3294  0.7264
 6164SOL    HW130128   3.096   1.677   4.104  0.9188 -0.5743  0.5355
 6164SOL    HW230129   3.199   1.778   4.136  1.6441  0.2007  2.2752
 6165SOL     OW30130   1.015   0.079   3.271 -0.1391 -0.5404 -0.2448
 6165SOL    HW130131   1.045   0.148   3.211 -0.5188 -1.0602 -1.0320
 6165SOL    HW230132   1.092   0.061   3.324  0.2593 -2.5004 -1.4804
 6166SOL     OW30133   2.641   1.043  11.074 -0.1774 -0.2854  0.0290
 6166SOL    HW130134   2.646   0.986  10.997 -0.5801  0.3023 -0.4334
 6166SOL    HW230135   2.731   1.030  11.104 -0.2759 -1.3896 -0.1421
 6167SOL     OW30136   4.462   2.869   7.608  0.1401  0.6509  0.5122
 6167SOL    HW130137   4.484   2.890   7.518  1.8564 -1.9524  0.3179
 6167SOL    HW230138   4.398   2.940   7.614  1.1410  1.6100 -0.2843
 6168SOL     OW30139   0.442   0.378   4.031 -0.0354 -0.1411  0.0605
 6168SOL    HW130140   0.445   0.465   4.071  1.8356 -0.5722  0.8714
 6168SOL    HW230141   0.515   0.339   4.079 -1.3126 -2.4703  0.0711
 6169SOL     OW30142   1.943   4.713   0.971 -0.5033  0.2101  0.0562
 6169SOL    HW130143   1.908   4.718   0.882 -0.0773  0.6528 -0.0873
 6169SOL    HW230144   1.917   4.621   0.983  0.8811 -0.2148 -0.1678
 6170SOL     OW30145   2.828   3.645   1.793 -0.0480  0.5615  0.2207
 6170SOL    HW130146   2.910   3.685   1.764 -0.4305 -0.6302 -2.4335
 6170SOL    HW230147   2.840   3.550   1.788  0.4671  0.6178  0.3656
 6171SOL     OW30148   1.536   1.113  13.211 -0.3807  0.0509 -0.7506
 6171SOL    HW130149   1.584   1.194  13.227 -2.9757  0.9391  2.2630
 6171SOL    HW230150   1.564   1.087  13.123  4.3008 -1.4932  1.1611
 6172SOL     OW30151   2.077   2.095   8.086  0.3144 -0.3605 -0.3488
 6172SOL    HW130152   2.075   2.152   8.009 -1.0412 -1.0619 -0.8384
 6172SOL    HW230153   1.985   2.102   8.109  0.3916 -0.9029  0.1309
 6173SOL     OW30154   1.087   3.399   6.473  0.0680  0.4520  0.2003
 6173SOL    HW130155   1.108   3.489   6.497  1.0616  0.5004 -0.8612
 6173SOL    HW230156   0.993   3.395   6.457 -0.1571 -0.4494  1.6717
 6174SOL     OW30157   1.655   0.149   1.017  0.3135  0.1167 -0.1538
 6174SOL    HW130158   1.657   0.185   0.928 -0.7318  1.0256  0.1897
 6174SOL    HW230159   1.738   0.190   1.044 -0.5487  1.9729 -0.3076
 6175SOL     OW30160   4.444   3.348   7.738  0.7845 -0.1884  0.1870
 6175SOL    HW130161   4.515   3.291   7.709  0.4138  0.4606 -2.0125
 6175SOL    HW230162   4.495   3.401   7.799  3.3888 -1.4881 -0.8743
 6176SOL     OW30163   3.439   4.089   9.171 -0.3988  0.2976 -0.3556
 6176SOL    HW130164   3.487   4.116   9.249 -0.0358  2.6108 -1.3733
 6176SOL    HW230165   3.391   4.163   9.134  1.1038 -0.4932 -3.8551
 6177SOL     OW30166   3.219   2.878   2.406  0.3396 -0.8232 -0.5324
 6177SOL    HW130167   3.128   2.906   2.399  0.6798  1.0288  2.5085
 6177SOL    HW230168   3.261   2.957   2.439 -1.1787 -0.1212 -0.2789
 6178SOL     OW30169   3.903   4.732   2.148 -0.1597 -0.4823  0.5771
 6178SOL    HW130170   3.869   4.680   2.221 -0.5091 -1.6960 -0.4518
 6178SOL    HW230171   3.869   0.077   2.185 -0.6160 -0.3558 -0.1190
 6179SOL     OW30172   3.021   3.447   8.195 -1.0099 -0.5040 -0.0556
 6179SOL    HW130173   2.927   3.444   8.176 -0.7079 -0.0426 -1.6147
 6179SOL    HW230174   3.057   3.385   8.132  0.2702  1.4184 -1.2108
 6180SOL     OW30175   3.397   0.994   5.950  0.4425 -0.5233 -0.0829
 6180SOL    HW130176   3.463   1.062   5.962 -0.3823  0.6723 -2.3969
 6180SOL    HW230177   3.329   1.019   6.012  0.8195  0.7235 -0.1810
 6181SOL     OW30178   0.647   3.101   9.712  0.0204  0.4271 -0.1316
 6181SOL    HW130179   0.648   3.186   9.756 -1.6860  0.4657 -0.1802
 6181SOL    HW230180   0.717   3.058   9.762  1.2873 -0.7973 -2.9899
 6182SOL     OW30181   1.311   0.018   0.905 -0.0993 -0.3998 -0.2803
 6182SOL    HW130182   1.292   0.112   0.915 -2.9282 -0.8280 -1.7883
 6182SOL    HW230183   1.290   0.000   0.814 -1.8424 -1.8547  0.4087
 6183SOL     OW30184   2.143   1.548   3.315 -0.3656  0.1704 -0.3910
 6183SOL    HW130185   2.196   1.479   3.275  1.5754  1.4879 -0.1395
 6183SOL    HW230186   2.105   1.596   3.241 -1.9248 -1.9569 -0.9564
 6184SOL     OW30187   2.001   0.124   5.773 -0.4345 -0.5216 -0.3163
 6184SOL    HW130188   1.976   0.080   5.854  1.3786  0.4746  0.7750
 6184SOL    HW230189   2.012   0.212   5.809 -0.0930  0.2631 -2.3656
 6185SOL     OW30190   1.607   1.957   5.412  0.4228 -0.0971 -0.0533
 6185SOL    HW130191   1.640   1.989   5.496  1.2000 -0.5227 -0.1955
 6185SOL    HW230192   1.603   1.863   5.429  1.4921 -0.0287  0.5596
 6186SOL     OW30193   1.394   4.106   8.325  0.2798  0.2161 -0.1578
 6186SOL    HW130194   1.333   4.093   8.252  0.6876  0.1053 -0.4833
 6186SOL    HW230195   1.429   4.017   8.318  1.7234  0.5657  2.7211
 6187SOL     OW30196   1.946   2.469  15.550 -0.5035  0.3906  0.5989
 6187SOL    HW130197   1.867   2.430  15.512  1.0069 -1.6557 -0.3954
 6187SOL    HW230198   2.011   2.404  15.525  1.0550  1.1983  2.6073
 6188SOL     OW30199   3.203   2.383  16.977  0.2385  0.0785 -0.3723
 6188SOL    HW130200   3.133   2.343  16.927 -0.8506  1.0179  0.4007
 6188SOL    HW230201   3.182   2.476  16.968  0.9208  0.3605  0.8016
 6189SOL     OW30202   1.794   3.663   3.267 -0.0670  0.1560 -0.1539
 6189SOL    HW130203   1.763   3.693   3.352  1.1144 -0.2665  0.4213
 6189SOL    HW230204   1.740   3.584   3.255  0.2374  0.0983 -1.1443
 6190SOL     OW30205   2.140   0.543   3.328 -0.3817  0.1438  0.2674
 6190SOL    HW130206   2.231   0.550   3.299 -1.2715  1.8492 -2.0846
 6190SOL    HW230207   2.139   0.630   3.369 -0.8065  0.7272 -0.9935
 6191SOL     OW30208   0.532   2.766   0.136  0.4615 -0.4241  0.0073
 6191SOL    HW130209   0.592   2.749   0.209  1.6449  1.7663 -0.4459
 6191SOL    HW230210   0.501   2.854   0.158  1.8809 -0.3113  1.5081
 6192SOL     OW30211   1.680   0.626   4.355  0.7233  0.0757  0.6455
 6192SOL    HW130212   1.634   0.695   4.307 -1.6297 -0.0441  2.7050
 6192SOL    HW230213   1.615   0.609   4.423  0.6624 -1.8191  0.1200
 6193SOL     OW30214   2.346   1.998   1.270  0.2746  0.0698  0.0131
 6193SOL    HW130215   2.406   1.933   1.306 -0.2080 -0.9101 -0.9457
 6193SOL    HW230216   2.323   2.047   1.349 -0.8047  0.0340 -0.2808
 6194SOL     OW30217   4.241   1.228   5.383  0.2549  1.3567  0.5468
 6194SOL    HW130218   4.244   1.243   5.289  1.5721 -0.9634  0.2183
 6194SOL    HW230219   4.148   1.209   5.392  0.0059  2.2572 -0.1090
 6195SOL     OW30220   3.529   1.103   3.111  0.0293 -0.8579 -0.1662
 6195SOL    HW130221   3.531   1.114   3.016  2.4426  0.8366  0.0732
 6195SOL    HW230222   3.612   1.055   3.121 -0.0068 -0.5895  1.3539
 6196SOL     OW30223   3.364   4.611   4.499 -0.4109  0.2424  0.1737
 6196SOL    HW130224   3.270   4.627   4.489 -0.3947  0.7943  0.9127
 6196SOL    HW230225   3.368   4.522   4.465 -0.5997  0.7988 -1.3334
 6197SOL     OW30226   3.916   1.572  14.454 -0.3591  0.1061  0.1241
 6197SOL    HW130227   3.916   1.513  14.530 -1.0975  0.0008  0.0432
 6197SOL    HW230228   3.938   1.653  14.500  0.4779 -0.3137  0.4542
 6198SOL     OW30229   1.104   2.397  11.454 -0.2510 -0.5897 -0.1690
 6198SOL    HW130230   1.177   2.387  11.393  1.9203  2.2953  1.9220
 6198SOL    HW230231   1.028   2.367  11.405 -2.3881  2.5873  1.1777
 6199SOL     OW30232   0.091   3.954  10.110 -0.5415  0.0885  0.0830
 6199SOL    HW130233   0.149   3.997  10.172 -0.1658  2.3436 -1.8462
 6199SOL    HW230234   0.119   3.986  10.025 -1.6510 -1.2879 -0.8076
 6200SOL     OW30235   2.153   1.370   1.356 -0.2832  0.6042  0.7399
 6200SOL    HW130236   2.087   1.342   1.419 -0.9893  0.1659 -0.1972
 6200SOL    HW230237   2.233   1.347   1.404  0.3302 -1.2659 -1.1608
 6201SOL     OW30238   4.115   0.581   3.647 -0.1604 -0.4059 -0.0415
 6201SOL    HW130239   4.200   0.618   3.669 -1.1282  2.1274 -0.6470
 6201SOL    HW230240   4.136   0.534   3.566 -0.1308 -0.8043  0.1938
 6202SOL     OW30241   1.198   2.649   8.900 -0.1990  0.0342  0.7379
 6202SOL    HW130242   1.228   2.704   8.973  2.5824  1.6237 -1.6310
 6202SOL    HW230243   1.119   2.696   8.873  0.8565  3.0284  2.7641
 6203SOL     OW30244   3.441   2.677  15.346  0.3132  0.0853 -0.3829
 6203SOL    HW130245   3.414   2.667  15.437  2.0797 -1.3385 -0.0266
 6203SOL    HW230246   3.451   2.586  15.318 -2.2536  0.4508 -2.4936
 6204SOL     OW30247   1.702   0.966   2.016 -0.3158 -0.7128  0.1309
 6204SOL    HW130248   1.750   1.040   1.978  0.1575  0.0318  2.1487
 6204SOL    HW230249   1.710   0.979   2.110 -1.0726  0.1357  0.0707
 6205SOL     OW30250   2.426   3.614   2.730  0.1308 -0.0547  0.5601
 6205SOL    HW130251   2.421   3.624   2.635  2.0703  0.5748  0.5197
 6205SOL    HW230252   2.341   3.575   2.750 -0.7820  0.9884 -1.2393
 6206SOL     OW30253   1.021   3.163   6.953 -0.1610 -0.4989  0.0704
 6206SOL    HW130254   1.008   3.215   7.032 -2.1590  1.5853 -1.6195
 6206SOL    HW230255   1.013   3.232   6.887  2.0309  0.0887  0.4209
 6207SOL     OW30256   0.361   0.594   8.378  0.7811 -0.6318  0.3034
 6207SOL    HW130257   0.408   0.653   8.320  0.6911 -2.0205 -1.1795
 6207SOL    HW230258   0.348   0.657   8.449 -2.6998  0.5775 -1.3910
 6208SOL     OW30259   4.259   1.626  15.093 -0.2836 -0.2434 -0.0507
 6208SOL    HW130260   4.164   1.620  15.084 -0.4512  1.0826  0.8367
 6208SOL    HW230261   4.259   1.662  15.182  1.3390  0.0712 -0.1615
 6209SOL     OW30262   4.670   0.691   9.497 -0.0191  0.4259 -0.5185
 6209SOL    HW130263   4.597   0.681   9.558  0.1254 -1.9661 -0.7569
 6209SOL    HW230264   0.008   0.649   9.539 -0.1784 -3.3382 -4.0238
 6210SOL     OW30265   0.637   3.947  17.531  0.3102  0.1084  0.7013
 6210SOL    HW130266   0.655   3.917  17.442  0.2137 -1.0102  1.0611
 6210SOL    HW230267   0.645   3.871  17.588 -1.8583  1.3342  2.6461
 6211SOL     OW30268   1.517   2.917   7.789  0.4700  0.2314  0.5130
 6211SOL    HW130269   1.566   2.926   7.871  2.2634 -1.0378 -0.4225
 6211SOL    HW230270   1.580   2.943   7.723 -0.3589  1.5355  0.2288
 6212SOL     OW30271   1.589   0.043  11.027  0.1108  0.4186 -0.2152
 6212SOL    HW130272   1.565   0.103  10.957  0.2335  1.5652  0.7190
 6212SOL    HW230273   1.516   0.042  11.089 -0.2468 -0.0654 -0.6444
 6213SOL     OW30274   1.217   4.556   7.222 -0.0355  0.1579  0.1079
 6213SOL    HW130275   1.162   4.517   7.290 -0.2425  1.5256  0.7340
 6213SOL    HW230276   1.300   4.574   7.266  0.4646  3.0935 -2.0711
 6214SOL     OW30277   4.506   1.148   5.830 -0.1729 -0.0661  0.4402
 6214SOL    HW130278   4.465   1.064   5.852 -0.9580 -0.3615 -2.0900
 6214SOL    HW230279   4.439   1.178   5.769  1.0480  1.2114 -0.2911
 6215SOL     OW30280   0.082   1.061   6.148  0.3726  0.4927 -0.0724
 6215SOL    HW130281   0.044   1.142   6.112  0.8075 -0.0858 -1.8529
 6215SOL    HW230282   0.028   0.990   6.114 -1.1989  1.1347  1.0476
 6216SOL     OW30283   1.335   2.477   6.480 -0.1009 -0.5008  0.1115
 6216SOL    HW130284   1.271   2.406   6.468 -1.6623  1.2386 -1.7087
 6216SOL    HW230285   1.401   2.453   6.416  1.0810  0.0157  1.1426
 6217SOL     OW30286   3.900   3.686   3.712 -0.0613  0.2491 -0.1122
 6217SOL    HW130287   3.961   3.748   3.671 -2.2725  1.2992 -1.8421
 6217SOL    HW230288   3.955   3.678   3.790 -0.6407  0.0738  0.2783
 6218SOL     OW30289   2.294   1.132   7.114  0.0533 -0.1076 -0.0749
 6218SOL    HW130290   2.320   1.212   7.070 -2.0925 -0.6061 -2.2778
 6218SOL    HW230291   2.226   1.167   7.172 -2.2907 -1.1474 -2.1715
 6219SOL     OW30292   2.718   2.963   0.379  0.5084 -0.3949  0.1737
 6219SOL    HW130293   2.697   3.047   0.338  0.1831 -0.0431  1.0461
 6219SOL    HW230294   2.667   2.961   0.460 -0.5877 -0.8383 -0.5194
 6220SOL     OW30295   1.292   4.045   8.580  0.3323 -0.2290  0.0929
 6220SOL    HW130296   1.255   3.965   8.542  0.8482 -0.7240  0.6200
 6220SOL    HW230297   1.325   4.078   8.497 -1.2090  0.2392 -0.3217
 6221SOL     OW30298   0.404   3.979   7.532 -0.0362  0.1399 -0.5316
 6221SOL    HW130299   0.475   4.004   7.474 -1.1116  1.2904 -1.3293
 6221SOL    HW230300   0.360   3.900   7.500  1.8980 -1.0084 -0.3297
 6222SOL     OW30301   1.024   3.129   2.037  0.0365  0.0173 -1.1328
 6222SOL    HW130302   0.996   3.211   1.996  0.5594  0.8163  0.1130
 6222SOL    HW230303   1.006   3.163   2.125  1.8022  0.0652 -0.7921
 6223SOL     OW30304   4.264   0.365   5.526  0.0176 -0.2379  0.0568
 6223SOL    HW130305   4.281   0.299   5.593 -0.9825  0.6199  1.1516
 6223SOL    HW230306   4.276   0.446   5.576 -0.9195  0.8677 -1.5150
 6224SOL     OW30307   2.509   3.824   1.139  0.2001 -0.1852 -0.0156
 6224SOL    HW130308   2.424   3.835   1.096  1.4414  0.1367 -2.3911
 6224SOL    HW230309   2.563   3.877   1.081  1.1646 -1.9481 -0.7487
 6225SOL     OW30310   1.548   1.203   3.417  0.0424 -0.6132  0.1037
 6225SOL    HW130311   1.515   1.221   3.329  1.4572 -0.2197 -0.3396
 6225SOL    HW230312   1.486   1.260   3.462 -1.4497 -1.4676 -0.8323
 6226SOL     OW30313   0.513   3.381   6.402  0.2043 -0.1877  0.1333
 6226SOL    HW130314   0.430   3.368   6.448  0.0734  0.3103  0.0380
 6226SOL    HW230315   0.515   3.313   6.335  0.9605  0.9463 -0.9924
 6227SOL     OW30316   3.568   3.026   1.138 -0.2607 -0.0614 -0.2467
 6227SOL    HW130317   3.569   2.935   1.109  2.2430 -0.4012  0.8928
 6227SOL    HW230318   3.576   3.069   1.053 -0.0511 -0.6275 -0.5112
 6228SOL     OW30319   2.062   0.419   5.155 -0.1779  0.3201 -0.0988
 6228SOL    HW130320   2.031   0.343   5.204 -1.7107 -0.7400 -2.7090
 6228SOL    HW230321   2.117   0.371   5.092 -1.6665  0.1088 -1.2410
 6229SOL     OW30322   0.608   4.149   3.393 -0.3170 -0.1852  0.0774
 6229SOL    HW130323   0.679   4.201   3.433  1.3425 -1.2650 -1.4621
 6229SOL    HW230324   0.631   4.164   3.301  1.2342 -2.5714  0.0716
 6230SOL     OW30325   2.636   3.664   8.035 -0.0157 -0.5047 -0.8160
 6230SOL    HW130326   2.676   3.749   8.016 -0.3946 -0.0545  0.3971
 6230SOL    HW230327   2.548   3.700   8.046  0.0391 -0.1011 -1.6577
 6231SOL     OW30328   4.612   4.223   6.758  0.5303  0.2848 -0.2289
 6231SOL    HW130329   4.692   4.259   6.797  0.3183  0.6143 -0.0991
 6231SOL    HW230330   4.545   4.287   6.783  1.0375  1.3655 -1.6822
 6232SOL     OW30331   0.829   4.291   8.476  0.0377 -0.2176  0.7358
 6232SOL    HW130332   0.848   4.383   8.494  0.5989 -0.3811  0.9628
 6232SOL    HW230333   0.903   4.259   8.425 -1.0300 -0.1342 -0.8828
 6233SOL     OW30334   1.149   3.653   3.772  0.1800 -0.0364 -0.1077
 6233SOL    HW130335   1.055   3.661   3.757  0.0125 -1.8745 -0.0059
 6233SOL    HW230336   1.164   3.708   3.849  1.0617  0.7820 -0.8566
 6234SOL     OW30337   0.642   3.737   7.514 -0.3031  0.6657 -0.1029
 6234SOL    HW130338   0.590   3.657   7.518 -0.5923  0.8156 -0.7382
 6234SOL    HW230339   0.662   3.751   7.606  1.6292  0.4835 -0.4909
 6235SOL     OW30340   3.976   1.849  17.663  0.3698  0.5441  0.5002
 6235SOL    HW130341   3.957   1.942  17.676 -2.0413  0.5099 -2.7695
 6235SOL    HW230342   3.893   1.813  17.633  1.6614 -0.9600 -1.2382
 6236SOL     OW30343   4.494   0.132   9.339 -0.2524  0.2501  0.2146
 6236SOL    HW130344   4.540   0.199   9.289 -0.4136 -0.3849 -0.7833
 6236SOL    HW230345   4.474   0.176   9.422 -1.4416 -0.0231  0.0655
 6237SOL     OW30346   0.682   2.500   6.841 -0.5549 -0.1450 -0.0275
 6237SOL    HW130347   0.674   2.579   6.787  0.2543  0.5017  0.7957
 6237SOL    HW230348   0.662   2.548   6.921  2.9175  0.6936  0.3443
 6238SOL     OW30349   0.470   1.358   7.223 -0.1020  0.1341 -0.1132
 6238SOL    HW130350   0.545   1.359   7.163 -0.4564  2.6119 -0.5288
 6238SOL    HW230351   0.410   1.423   7.187  0.5609  0.8250  0.0253
 6239SOL     OW30352   3.092   3.711  13.357  0.1171 -0.3992  0.3913
 6239SOL    HW130353   3.096   3.805  13.340 -0.9680 -0.3069  0.6284
 6239SOL    HW230354   3.150   3.683  13.286 -1.2483  1.5527 -1.5350
 6240SOL     OW30355   2.812   1.212   9.538 -0.2454  0.2781 -0.2309
 6240SOL    HW130356   2.896   1.200   9.584 -0.9236 -1.3956  0.5983
 6240SOL    HW230357   2.750   1.222   9.611 -0.0836 -0.3040 -0.0048
 6241SOL     OW30358   3.827   1.778   3.535 -0.0003  0.0359 -0.0495
 6241SOL    HW130359   3.821   1.689   3.568  3.0029 -0.4269 -0.7257
 6241SOL    HW230360   3.916   1.799   3.565  0.6209 -0.3421 -1.6548
 6242SOL     OW30361   2.853   1.840  13.367  0.4755 -0.5153 -0.6880
 6242SOL    HW130362   2.859   1.798  13.453 -0.2381 -0.4523 -0.6111
 6242SOL    HW230363   2.760   1.863  13.362  0.4760 -0.4861 -0.5835
 6243SOL     OW30364   2.413   3.959   5.749  0.1980  0.0477 -0.0300
 6243SOL    HW130365   2.475   4.022   5.785 -1.2493  1.4176  0.0331
 6243SOL    HW230366   2.365   4.018   5.691 -1.4037 -0.0655  1.1862
 6244SOL     OW30367   1.899   0.047   5.514  0.4736  0.6920  0.3205
 6244SOL    HW130368   1.977   0.053   5.458  0.0695 -2.0406 -0.5363
 6244SOL    HW230369   1.923   0.084   5.599  1.6802  0.9379 -0.1334
 6245SOL     OW30370   2.230   4.004   1.572 -0.0951  0.2728 -0.1244
 6245SOL    HW130371   2.192   3.954   1.645  2.3537 -2.3399 -0.6555
 6245SOL    HW230372   2.294   4.055   1.621 -1.5668  0.6609  1.4184
 6246SOL     OW30373   4.728   3.984  13.967 -0.1241 -0.4090 -0.0286
 6246SOL    HW130374   4.703   4.009  14.057 -2.8896 -3.2521 -0.0083
 6246SOL    HW230375   0.052   4.057  13.955 -1.9743  1.1431  0.1334
 6247SOL     OW30376   3.671   2.981   9.780  0.2288 -0.3866  0.6016
 6247SOL    HW130377   3.677   2.950   9.689  1.2873  2.9117 -0.4404
 6247SOL    HW230378   3.626   3.065   9.772  1.9675  0.4348 -0.7316
 6248SOL     OW30379   2.983   3.705   0.594  0.0697 -0.4590 -0.1267
 6248SOL    HW130380   2.964   3.795   0.623  2.5759 -0.1735  0.6542
 6248SOL    HW230381   3.030   3.725   0.513  0.2106  2.6353  0.7130
 6249SOL     OW30382   3.921   0.756  13.085  0.3273  0.6436 -0.0738
 6249SOL    HW130383   3.829   0.761  13.109  0.1092  1.7453 -1.1236
 6249SOL    HW230384   3.950   0.808  13.159 -0.7469  1.4118 -0.2099
 6250SOL     OW30385   0.845   0.273   6.098  0.1090 -0.2329  0.3763
 6250SOL    HW130386   0.818   0.223   6.175  0.3735 -0.7239  0.1555
 6250SOL    HW230387   0.870   0.354   6.142  0.7421 -0.0858 -0.2433
 6251SOL     OW30388   4.499   0.009   3.441  0.0068  0.2012 -0.2222
 6251SOL    HW130389   4.593   4.733   3.452 -0.0021 -0.8205 -1.2824
 6251SOL    HW230390   4.494   0.052   3.356  0.3184 -1.3262 -1.0107
 6252SOL     OW30391   0.103   3.199   6.867  0.0000 -0.2591 -0.0103
 6252SOL    HW130392   0.082   3.115   6.827  2.4988 -0.0712 -1.7303
 6252SOL    HW230393   0.023   3.245   6.843 -0.6184 -1.2398  0.1994
 6253SOL     OW30394   2.423   1.787   7.085 -0.1850  0.4269 -0.0985
 6253SOL    HW130395   2.332   1.815   7.074 -0.4947 -0.6479 -0.2685
 6253SOL    HW230396   2.419   1.693   7.066  1.0735  1.2718 -4.3713
 6254SOL     OW30397   4.348   0.186   0.634  0.2116 -0.1089 -0.4080
 6254SOL    HW130398   4.439   0.166   0.613  0.2111 -0.7709  0.2256
 6254SOL    HW230399   4.313   0.233   0.558  0.8234  0.4426 -0.3477
 6255SOL     OW30400   1.815   0.705   5.425 -0.2310 -0.0983 -0.7791
 6255SOL    HW130401   1.823   0.761   5.348  0.2209 -1.1301 -1.4832
 6255SOL    HW230402   1.903   0.669   5.427 -0.5422 -0.9231 -1.7128
 6256SOL     OW30403   3.752   1.317   3.955  0.0998  0.0996 -0.0607
 6256SOL    HW130404   3.754   1.262   4.033  0.2785 -1.8460 -1.4133
 6256SOL    HW230405   3.668   1.294   3.916  1.3410 -1.5532 -1.7540
 6257SOL     OW30406   0.188   0.390  15.237  0.2969 -0.5889 -0.2901
 6257SOL    HW130407   0.198   0.305  15.281 -3.5162  0.5145  2.7387
 6257SOL    HW230408   0.280   0.406  15.216 -0.0050  1.2044 -0.2435
 6258SOL     OW30409   0.927   0.387   2.908 -0.5863 -0.0116  0.2026
 6258SOL    HW130410   1.000   0.443   2.882 -1.6218  0.9452 -0.6005
 6258SOL    HW230411   0.950   0.356   2.996  0.3869  1.5895  0.5036
 6259SOL     OW30412   2.407   2.601  11.728  0.0027  0.9546 -0.0893
 6259SOL    HW130413   2.443   2.670  11.783  1.1076 -0.1386  0.5640
 6259SOL    HW230414   2.452   2.525  11.765 -3.1627 -0.4017  1.0171
 6260SOL     OW30415   3.220   3.639   8.167  0.0526  0.0439 -0.4318
 6260SOL    HW130416   3.260   3.625   8.253 -0.3676  1.5864  0.0207
 6260SOL    HW230417   3.154   3.570   8.177  0.7823 -0.2833  2.2651
 6261SOL     OW30418   2.540   4.298   3.334  0.3472 -0.0988 -0.2018
 6261SOL    HW130419   2.573   4.383   3.365 -2.3931 -0.4325  3.6676
 6261SOL    HW230420   2.479   4.318   3.262 -1.3116  0.8739  1.4761
 6262SOL     OW30421   2.293   1.107   2.003  0.7321 -0.2818 -0.3521
 6262SOL    HW130422   2.340   1.185   1.973 -0.8645  0.0962 -1.8462
 6262SOL    HW230423   2.308   1.047   1.929  1.4924 -1.6260  0.8877
 6263SOL     OW30424   1.792   3.536   7.054  0.2313 -0.5206  0.0425
 6263SOL    HW130425   1.845   3.605   7.014 -0.9365  0.1052 -0.4199
 6263SOL    HW230426   1.755   3.490   6.978 -0.4923 -1.5905  1.0456
 6264SOL     OW30427   3.571   1.968  12.187  0.4241 -0.3927 -0.5541
 6264SOL    HW130428   3.593   2.042  12.244 -0.2792 -1.3486  0.9602
 6264SOL    HW230429   3.638   1.901  12.202 -0.7106 -1.2037  0.9252
 6265SOL     OW30430   0.512   1.088   7.392  0.9956 -0.4886  0.1696
 6265SOL    HW130431   0.503   1.067   7.300 -0.3857 -1.1918  0.4749
 6265SOL    HW230432   0.606   1.069   7.397  1.4589  1.5508 -0.8210
 6266SOL     OW30433   1.163   4.290   8.645 -0.2737  0.0815 -0.3308
 6266SOL    HW130434   1.176   4.197   8.625  3.1624  0.6820 -0.8383
 6266SOL    HW230435   1.253   4.323   8.650 -0.0415 -0.4879 -0.8345
 6267SOL     OW30436   0.095   4.017   3.619 -0.2546  0.1060 -0.5416
 6267SOL    HW130437   0.157   3.948   3.643 -0.3533  0.5032  0.8557
 6267SOL    HW230438   0.144   4.097   3.603  0.1595 -0.4056 -1.7859
 6268SOL     OW30439   2.849   3.496   1.342 -0.0480 -0.1420 -0.1395
 6268SOL    HW130440   2.758   3.489   1.369 -0.0498  0.2798 -0.0385
 6268SOL    HW230441   2.838   3.482   1.248 -0.9606  0.5408 -0.1299
 6269SOL     OW30442   1.791   2.596   5.790 -0.0696  0.0365  0.1595
 6269SOL    HW130443   1.716   2.626   5.842  1.0652  2.3991  0.4143
 6269SOL    HW230444   1.756   2.621   5.704 -0.3258  2.5658  0.9955
 6270SOL     OW30445   2.175   2.499   7.794  0.2327 -0.0218 -0.0849
 6270SOL    HW130446   2.141   2.574   7.746 -0.4158 -0.3194 -0.1007
 6270SOL    HW230447   2.254   2.535   7.833  0.7149 -0.9340 -0.2127
 6271SOL     OW30448   4.501   2.512  10.284 -0.4522  0.0338 -0.4327
 6271SOL    HW130449   4.532   2.452  10.353 -0.8691 -0.7769 -0.9554
 6271SOL    HW230450   4.543   2.596  10.303 -0.6037  0.3733 -1.6442
 6272SOL     OW30451   3.000   1.129  17.744  0.6338  0.1968 -0.2364
 6272SOL    HW130452   3.006   1.112  17.650 -2.2147  1.0980 -0.5589
 6272SOL    HW230453   2.929   1.193  17.740 -0.4329 -1.1154 -2.2601
 6273SOL     OW30454   3.156   4.719   5.523 -0.3598  0.3029  0.4255
 6273SOL    HW130455   3.202   0.039   5.461  1.6883  0.9517  2.5312
 6273SOL    HW230456   3.077   0.032   5.544  0.9392  1.8170  1.7758
 6274SOL     OW30457   1.094   2.866  16.214 -0.7665 -0.4751 -0.0751
 6274SOL    HW130458   1.173   2.870  16.267 -1.0015 -0.4272  0.2747
 6274SOL    HW230459   1.113   2.899  16.126 -1.0456  1.0886  0.4475
 6275SOL     OW30460   3.465   1.926   4.546  0.4865  0.2287 -0.2255
 6275SOL    HW130461   3.557   1.909   4.528  1.3580  2.9557  1.7561
 6275SOL    HW230462   3.431   1.850   4.498 -2.1716  1.2921 -0.0352
 6276SOL     OW30463   3.527   0.001  10.450  0.0576  0.1430 -0.3148
 6276SOL    HW130464   3.453   4.678  10.441 -0.2507  0.5286 -0.3763
 6276SOL    HW230465   3.591   4.672  10.475  1.0537  0.5708 -1.7271
 6277SOL     OW30466   2.577   2.275  12.774 -0.1648  0.1393 -0.0455
 6277SOL    HW130467   2.511   2.296  12.840  0.9064  3.5548 -0.0504
 6277SOL    HW230468   2.522   2.264  12.697 -0.8490 -0.4470  0.5262
 6278SOL     OW30469   0.588   2.901   8.601 -0.1725  0.1468  0.7968
 6278SOL    HW130470   0.532   2.842   8.652 -1.9461  2.1304  1.1730
 6278SOL    HW230471   0.539   2.983   8.611 -0.2754 -0.1395  2.6445
 6279SOL     OW30472   2.878   0.847   1.762  0.0956  0.6314 -0.0390
 6279SOL    HW130473   2.890   0.821   1.853  0.7794  0.8418 -0.0635
 6279SOL    HW230474   2.942   0.918   1.754  2.2479 -1.2561  0.2271
 6280SOL     OW30475   2.131   0.592   9.311 -0.7634  0.4815  0.6321
 6280SOL    HW130476   2.146   0.686   9.300  1.4333  0.3379  2.3286
 6280SOL    HW230477   2.214   0.561   9.348 -0.6920 -1.2834 -0.9725
 6281SOL     OW30478   0.188   2.839   8.556 -0.6254  0.2570  0.3105
 6281SOL    HW130479   0.210   2.777   8.487 -0.2386  0.4851  0.2313
 6281SOL    HW230480   0.264   2.829   8.613 -1.8612  2.1648  2.2679
 6282SOL     OW30481   3.415   3.949  10.870  0.2079 -0.3414 -0.5575
 6282SOL    HW130482   3.372   3.933  10.786  1.3036  1.9232 -1.5205
 6282SOL    HW230483   3.480   3.879  10.863  0.6138  0.1375 -1.5086
 6283SOL     OW30484   1.147   1.303  10.593  0.8938  0.2937  0.1184
 6283SOL    HW130485   1.186   1.385  10.561 -0.0298  1.5172  2.1445
 6283SOL    HW230486   1.201   1.248  10.536  0.5292 -0.7969  0.8417
 6284SOL     OW30487   0.928   3.950   9.844  0.4938 -0.5543 -0.3237
 6284SOL    HW130488   0.961   3.993   9.922 -1.4177 -2.9816  1.8450
 6284SOL    HW230489   0.908   3.867   9.887  0.3694 -0.2434  0.2197
 6285SOL     OW30490   3.816   4.712  14.364  0.3960 -0.1470 -0.2931
 6285SOL    HW130491   3.754   0.047  14.353 -0.3826 -0.6978  0.5018
 6285SOL    HW230492   3.778   4.673  14.443 -1.0697  3.0277  0.5631
 6286SOL     OW30493   1.822   0.547   8.001  0.2469  0.2224  0.3881
 6286SOL    HW130494   1.839   0.523   8.092  1.7905  2.3775  0.6681
 6286SOL    HW230495   1.890   0.611   7.978 -0.7997  1.1549 -0.1314
 6287SOL     OW30496   3.227   2.690  10.502 -0.2175  0.7449 -0.2562
 6287SOL    HW130497   3.269   2.747  10.567 -0.6192  0.9017 -0.1361
 6287SOL    HW230498   3.297   2.647  10.452  0.1430  3.4293 -2.1043
 6288SOL     OW30499   4.147   4.589   6.958 -0.2102 -0.3736  0.5802
 6288SOL    HW130500   4.082   4.617   7.023  0.4193  1.3623  0.4603
 6288SOL    HW230501   4.143   4.663   6.897  0.2246 -0.3047  0.6313
 6289SOL     OW30502   2.375   0.259   8.742 -0.0109 -0.2412 -0.4957
 6289SOL    HW130503   2.340   0.342   8.774 -1.8013 -0.9750 -0.5974
 6289SOL    HW230504   2.402   0.296   8.658 -1.8236  1.4842 -0.3093
 6290SOL     OW30505   4.673   0.969   2.132 -0.0680 -0.2683  0.5699
 6290SOL    HW130506   0.028   0.996   2.119  0.5729 -2.1147  1.2940
 6290SOL    HW230507   4.688   0.879   2.161  0.5791 -0.1436  0.6310
 6291SOL     OW30508   3.161   0.798   2.442  0.5823 -0.1474 -0.1324
 6291SOL    HW130509   3.148   0.715   2.487  2.4827  0.1504  0.9701
 6291SOL    HW230510   3.185   0.853   2.516 -2.1181  0.0627  0.5751
 6292SOL     OW30511   0.951   4.577   4.652  0.3833 -0.2116 -0.4892
 6292SOL    HW130512   1.020   4.560   4.587  0.6861 -2.3964  0.4045
 6292SOL    HW230513   0.896   4.638   4.604 -0.2465  0.1252  0.6751
 6293SOL     OW30514   2.975   0.048   7.743 -0.3219 -0.0943  0.4349
 6293SOL    HW130515   2.911   4.713   7.740  2.0539 -2.1181 -1.4025
 6293SOL    HW230516   2.972   0.081   7.654 -0.4803 -2.1555 -0.3197
 6294SOL     OW30517   1.102   1.798  11.026  0.0705  0.2713 -0.2613
 6294SOL    HW130518   1.120   1.846  10.945  0.6874 -1.2981 -1.0608
 6294SOL    HW230519   1.007   1.791  11.020  0.0373  1.1579 -0.7632
 6295SOL     OW30520   3.425   1.463   6.345  0.1319  0.3331  0.3811
 6295SOL    HW130521   3.330   1.451   6.350  0.4449 -1.4245  2.0687
 6295SOL    HW230522   3.443   1.498   6.432 -1.0832  0.9462  0.3932
 6296SOL     OW30523   2.182   1.924   7.898 -0.3637  0.2476 -0.1892
 6296SOL    HW130524   2.156   1.992   7.960  1.4998  0.4846  0.3301
 6296SOL    HW230525   2.104   1.869   7.900  0.4582 -0.8864  1.0235
 6297SOL     OW30526   1.848   0.625  16.812  0.0318 -0.4468  0.2283
 6297SOL    HW130527   1.852   0.706  16.762  2.0524 -1.2080 -0.8150
 6297SOL    HW230528   1.884   0.651  16.897 -1.2942  0.9512  0.3536
 6298SOL     OW30529   3.520   0.721   7.705  1.0152 -0.6493  0.1791
 6298SOL    HW130530   3.470   0.657   7.654 -0.2091  1.4189 -1.2066
 6298SOL    HW230531   3.444   0.767   7.741  0.0703 -1.5059 -0.6841
 6299SOL     OW30532   3.672   3.189   3.278  0.2143 -0.0649 -0.0350
 6299SOL    HW130533   3.763   3.163   3.293  0.8874  0.7952 -2.6058
 6299SOL    HW230534   3.625   3.164   3.357  0.2620 -0.0263  0.0056
 6300SOL     OW30535   1.871   2.477   1.742  0.2690  0.1083  0.0018
 6300SOL    HW130536   1.965   2.481   1.756  0.1901 -2.1380  1.3155
 6300SOL    HW230537   1.829   2.469   1.828  0.7187  0.4754  0.2561
 6301SOL     OW30538   2.116   4.410   6.654 -0.2377 -0.3885  0.7157
 6301SOL    HW130539   2.096   4.500   6.627 -2.9233 -1.5562 -1.1938
 6301SOL    HW230540   2.057   4.366   6.593  1.7418 -0.9251 -0.8213
 6302SOL     OW30541   4.678   4.444  17.550  0.2072  0.6657  0.0736
 6302SOL    HW130542   4.718   4.371  17.597 -0.1418 -0.7176 -1.7574
 6302SOL    HW230543   4.583   4.436  17.558  0.2780  0.7954  0.9698
 6303SOL     OW30544   2.526   1.604   3.675  0.4960 -0.4305 -0.0976
 6303SOL    HW130545   2.490   1.520   3.703 -0.1773  0.3250  1.2671
 6303SOL    HW230546   2.557   1.638   3.759 -0.8842  0.0516  0.2056
 6304SOL     OW30547   3.608   4.615  11.679 -0.0088  0.2181  0.2976
 6304SOL    HW130548   3.674   4.546  11.687  0.8661  0.9837 -0.2892
 6304SOL    HW230549   3.542   4.589  11.743  1.5882 -2.2887  0.9330
 6305SOL     OW30550   1.121   0.714   2.922  1.0433  0.1805 -0.1517
 6305SOL    HW130551   1.111   0.809   2.914 -0.6700  0.1602  1.5441
 6305SOL    HW230552   1.215   0.704   2.937  0.9756 -0.6919 -0.3442
 6306SOL     OW30553   1.332   3.840  14.768 -0.4962  0.3499 -0.4288
 6306SOL    HW130554   1.313   3.807  14.680  0.4788 -2.0230  0.2349
 6306SOL    HW230555   1.340   3.935  14.766 -0.6680  0.3340 -1.5330
 6307SOL     OW30556   2.492   3.827   2.216 -0.2598  0.3180  0.4321
 6307SOL    HW130557   2.421   3.763   2.216  0.5833 -0.6063 -1.4552
 6307SOL    HW230558   2.445   3.910   2.211 -0.9412  0.0405  2.1042
 6308SOL     OW30559   4.209   2.255   2.547  0.1274 -0.5295  0.2183
 6308SOL    HW130560   4.210   2.168   2.507 -3.0071  0.1733 -1.3395
 6308SOL    HW230561   4.137   2.284   2.491 -0.4196 -2.3543 -0.0179
 6309SOL     OW30562   3.931   4.314   6.616 -0.2809  0.2841  0.5883
 6309SOL    HW130563   3.998   4.324   6.683 -0.5155 -0.9464  1.0173
 6309SOL    HW230564   3.863   4.366   6.660 -0.9074 -0.3062  0.3308
 6310SOL     OW30565   1.429   3.733   8.902 -0.1415 -0.3989  0.3594
 6310SOL    HW130566   1.459   3.728   8.811  1.4025  1.1417  0.7813
 6310SOL    HW230567   1.425   3.828   8.911  1.3933 -0.1511 -1.4680
 6311SOL     OW30568   3.354   4.610   8.234 -0.3370  0.0344  0.8751
 6311SOL    HW130569   3.261   4.602   8.254 -0.2654  1.8591  1.9594
 6311SOL    HW230570   3.383   4.643   8.320 -0.7064  1.1587  0.5750
 6312SOL     OW30571   1.084   0.458   6.422  0.1164 -0.3004 -0.1690
 6312SOL    HW130572   1.026   0.394   6.462  1.7789 -2.5670 -1.3806
 6312SOL    HW230573   1.167   0.436   6.463  0.7681  1.5223 -0.5230
 6313SOL     OW30574   2.296   2.475   3.182 -0.2887 -0.4112 -0.3195
 6313SOL    HW130575   2.386   2.478   3.150  0.4621 -0.5297  1.7914
 6313SOL    HW230576   2.287   2.382   3.203 -1.9503  0.2105  1.7621
 6314SOL     OW30577   2.663   0.112   3.492  0.2197  0.4131 -0.4884
 6314SOL    HW130578   2.643   0.183   3.431  2.3261  0.2352 -1.3996
 6314SOL    HW230579   2.661   0.166   3.571 -2.6668 -1.7633  0.9173
 6315SOL     OW30580   0.987   2.063   2.411 -0.2501 -0.0564 -0.5368
 6315SOL    HW130581   0.947   2.145   2.383  2.1060  0.9738 -0.8579
 6315SOL    HW230582   1.036   2.040   2.332  0.8345 -0.2480  0.2019
 6316SOL     OW30583   3.744   0.826   7.832  0.6265 -0.0034  0.0757
 6316SOL    HW130584   3.674   0.797   7.774  0.8916  0.2743 -0.3910
 6316SOL    HW230585   3.750   0.769   7.908 -1.5298 -0.8745 -0.4165
 6317SOL     OW30586   4.642   4.230  14.759 -0.0014  0.3182 -0.4216
 6317SOL    HW130587   4.557   4.274  14.759  0.2123  0.7307  1.4793
 6317SOL    HW230588   4.626   4.150  14.709 -1.7750  0.7575 -0.5698
 6318SOL     OW30589   0.455   3.607   4.579 -0.7172 -0.2128 -0.6924
 6318SOL    HW130590   0.461   3.617   4.674  0.0038  1.4080 -0.9022
 6318SOL    HW230591   0.520   3.669   4.546 -0.7471  0.0142 -0.3250
 6319SOL     OW30592   3.763   3.199  11.955  0.4010 -0.3222 -0.4905
 6319SOL    HW130593   3.825   3.127  11.966  1.2502  0.0965 -2.5634
 6319SOL    HW230594   3.793   3.246  12.033  0.5265  2.0004 -1.9345
 6320SOL     OW30595   3.346   2.072   2.588 -0.1005  0.0038  0.2027
 6320SOL    HW130596   3.376   2.161   2.605 -0.8177  0.2545  0.1535
 6320SOL    HW230597   3.358   2.063   2.493  2.0885 -0.6228  0.5511
 6321SOL     OW30598   1.926   4.031  15.075 -0.0827 -0.1786  0.3174
 6321SOL    HW130599   1.878   3.962  15.120  1.3375 -1.4334 -0.0671
 6321SOL    HW230600   1.864   4.103  15.069  0.6018  0.3136 -0.8953
 6322SOL     OW30601   4.661   3.691   0.383 -0.2849 -0.1684 -0.3073
 6322SOL    HW130602   4.664   3.615   0.326 -0.0804  0.1660 -0.7405
 6322SOL    HW230603   4.569   3.692   0.411 -0.7818  0.4501 -1.9698
 6323SOL     OW30604   0.587   4.568   6.972 -0.2776  0.6550  0.0339
 6323SOL    HW130605   0.650   4.552   7.042  2.0148  0.2336 -2.1114
 6323SOL    HW230606   0.648   4.565   6.898  0.2125 -0.2272  0.4816
 6324SOL     OW30607   4.687   2.153   3.784  0.4191 -0.3237  0.5615
 6324SOL    HW130608   4.636   2.163   3.865 -1.2934  1.7553 -0.7634
 6324SOL    HW230609   0.041   2.154   3.816  0.0886  2.0819  1.5145
 6325SOL     OW30610   0.198   1.741   3.909 -0.5370 -0.3603 -0.1795
 6325SOL    HW130611   0.234   1.653   3.920  1.8604  0.7457  0.8693
 6325SOL    HW230612   0.114   1.722   3.950 -0.0062 -2.0177  0.1338
 6326SOL     OW30613   2.010   4.009  12.483  0.0085  0.3801  0.3665
 6326SOL    HW130614   2.093   4.028  12.526  0.4434 -1.4917  0.3694
 6326SOL    HW230615   2.046   3.972  12.402 -0.8026 -2.3503  1.2322
 6327SOL     OW30616   0.157   3.231   2.926  0.2208 -0.1476  0.0064
 6327SOL    HW130617   0.122   3.206   2.840 -0.4320  0.4619  0.0925
 6327SOL    HW230618   0.075   3.229   2.976  0.5989  3.1397  0.7605
 6328SOL     OW30619   3.858   0.700   6.111  0.3360  0.5632 -0.1582
 6328SOL    HW130620   3.853   0.722   6.204 -0.2965  0.8472 -0.2594
 6328SOL    HW230621   3.849   0.606   6.124 -0.4968  0.8495  1.3276
 6329SOL     OW30622   2.487   1.929  13.034  0.2588  0.3741  0.0729
 6329SOL    HW130623   2.469   1.971  13.118  0.4424 -0.0995  0.3522
 6329SOL    HW230624   2.481   1.835  13.050  1.6626  0.0828 -1.0856
 6330SOL     OW30625   3.128   0.595   2.636 -0.0966 -0.6109  0.1051
 6330SOL    HW130626   3.153   0.558   2.721 -1.1815  1.1016  1.1537
 6330SOL    HW230627   3.173   0.542   2.570 -0.4504  1.3539 -1.7096
 6331SOL     OW30628   2.049   1.035   7.348  0.0949 -0.0383  0.4603
 6331SOL    HW130629   2.110   1.013   7.418 -0.8019 -2.4369  0.4849
 6331SOL    HW230630   2.051   1.130   7.336 -6.2165  0.3348  2.2051
 6332SOL     OW30631   0.844   0.059  14.173  0.1333  0.4328 -0.1777
 6332SOL    HW130632   0.792   0.026  14.100 -0.2016  0.0125  0.2506
 6332SOL    HW230633   0.835   4.723  14.235  0.0389  1.0377  0.5217
 6333SOL     OW30634   2.588   3.942   6.669 -0.2804  0.2099 -0.7932
 6333SOL    HW130635   2.619   3.867   6.619  1.3964 -0.1489  0.7906
 6333SOL    HW230636   2.667   3.997   6.673  0.4416 -0.9701  0.9355
 6334SOL     OW30637   1.950   0.053   4.475  0.3577  0.4217 -0.4125
 6334SOL    HW130638   1.875   0.001   4.506  1.8962  0.3474  3.1312
 6334SOL    HW230639   1.922   0.073   4.385  2.0711  1.7871 -0.6199
 6335SOL     OW30640   4.372   1.493   8.965 -0.5437  0.2117 -0.0172
 6335SOL    HW130641   4.462   1.526   8.960 -0.4278 -0.2804 -1.3131
 6335SOL    HW230642   4.330   1.576   8.942  0.1098  1.2435  2.5540
 6336SOL     OW30643   3.142   3.806   3.756 -0.0127 -0.2923 -0.3225
 6336SOL    HW130644   3.142   3.739   3.687 -2.4700 -0.6992  0.0648
 6336SOL    HW230645   3.233   3.837   3.761 -0.0221 -0.8159  3.2772
 6337SOL     OW30646   4.562   3.896  13.137 -0.4280  0.0378  0.1958
 6337SOL    HW130647   4.467   3.903  13.145 -0.5092 -1.0414  0.2981
 6337SOL    HW230648   4.575   3.948  13.058 -0.3525  0.6165  0.5877
 6338SOL     OW30649   2.127   4.706   6.994 -0.3391 -0.1987  0.0896
 6338SOL    HW130650   2.038   4.680   7.018 -0.5919 -0.0384 -0.6776
 6338SOL    HW230651   2.106   0.042   6.935  0.2157 -2.2352 -2.6079
 6339SOL     OW30652   1.998   3.267   3.719 -0.1344 -0.0272  0.2680
 6339SOL    HW130653   2.083   3.266   3.675 -0.9207 -0.9110 -1.2707
 6339SOL    HW230654   1.945   3.217   3.656  0.8186 -1.6349  0.7390
 6340SOL     OW30655   2.658   0.508  17.140  0.7928 -0.0954  0.6187
 6340SOL    HW130656   2.738   0.475  17.098 -0.2736 -1.9622  0.0551
 6340SOL    HW230657   2.645   0.599  17.113 -2.1922 -1.3327 -2.1801
 6341SOL     OW30658   0.507   2.407   4.548  0.0998 -0.1120  0.0240
 6341SOL    HW130659   0.445   2.477   4.569 -0.2431 -0.9027  1.6499
 6341SOL    HW230660   0.517   2.363   4.632  1.1044  0.8529  0.4096
 6342SOL     OW30661   1.136   3.460   5.253  0.6949  0.8280  0.1720
 6342SOL    HW130662   1.107   3.448   5.343  0.4073 -1.7160 -0.2603
 6342SOL    HW230663   1.206   3.396   5.241  1.0067  1.0521  0.8709
 6343SOL     OW30664   0.119   0.716   0.373 -0.3901 -0.1972  0.0561
 6343SOL    HW130665   0.129   0.810   0.361  2.1997 -0.2739  1.6080
 6343SOL    HW230666   0.199   0.680   0.335  0.3821  0.4783  1.0217
 6344SOL     OW30667   0.788   2.511   0.721 -0.1933  0.5703  0.0305
 6344SOL    HW130668   0.796   2.484   0.813  3.2200 -1.2455 -0.8028
 6344SOL    HW230669   0.869   2.487   0.677 -0.5197 -1.0211  0.3030
 6345SOL     OW30670   0.148   0.739  11.688 -0.2923  0.4155 -0.6458
 6345SOL    HW130671   0.064   0.713  11.653 -0.2882 -1.6396  0.8310
 6345SOL    HW230672   0.212   0.701  11.628 -0.9266 -0.4659 -0.7587
 6346SOL     OW30673   4.155   0.714   3.023 -0.4731  0.3814  0.2401
 6346SOL    HW130674   4.108   0.647   3.072 -0.3522 -0.0508 -0.2345
 6346SOL    HW230675   4.081   0.763   2.985  0.2218  0.8261 -0.5458
 6347SOL     OW30676   4.527   1.723   8.816 -0.0799 -0.3241  0.1925
 6347SOL    HW130677   4.441   1.719   8.858  0.5898 -1.7343  1.4677
 6347SOL    HW230678   4.557   1.782   8.885 -1.0505 -1.2968  1.4610
 6348SOL     OW30679   3.024   0.831   9.463  0.0071  0.2858  0.1170
 6348SOL    HW130680   3.091   0.893   9.492  0.7832 -1.1785  1.4674
 6348SOL    HW230681   2.991   0.792   9.543  1.1760 -0.2815  0.3217
 6349SOL     OW30682   3.555   4.158  16.093 -0.6108  0.0274  0.1027
 6349SOL    HW130683   3.562   4.242  16.139  0.0854 -0.4598  0.9078
 6349SOL    HW230684   3.514   4.107  16.163 -0.5235  0.0330  0.1587
 6350SOL     OW30685   3.846   4.309   5.697  0.4848 -0.0025 -0.1657
 6350SOL    HW130686   3.812   4.304   5.608 -0.9919  2.8224  0.2090
 6350SOL    HW230687   3.884   4.223   5.716 -0.7180 -0.2010  1.4247
 6351SOL     OW30688   1.352   0.482   8.462 -0.0156 -0.4990 -0.1216
 6351SOL    HW130689   1.399   0.430   8.528 -1.5405  0.5783  1.8306
 6351SOL    HW230690   1.299   0.417   8.417 -1.5615  1.6017 -1.3430
 6352SOL     OW30691   0.283   2.938   2.245 -0.1244  0.0890 -0.3773
 6352SOL    HW130692   0.292   2.962   2.337  1.9975  1.1157 -0.8616
 6352SOL    HW230693   0.241   3.016   2.209 -0.0266 -0.1429 -1.0074
 6353SOL     OW30694   0.006   0.725   2.205  0.1799  0.4735  0.1741
 6353SOL    HW130695   0.079   0.672   2.238  1.8953  2.4089 -0.5263
 6353SOL    HW230696   4.668   0.678   2.243  1.1219 -0.1400  1.2542
 6354SOL     OW30697   0.142   1.580   8.575  0.3096 -0.0674  0.1687
 6354SOL    HW130698   0.093   1.648   8.621  1.2188 -0.1439  1.2772
 6354SOL    HW230699   0.216   1.627   8.536  0.5360  0.0028  0.6825
 6355SOL     OW30700   0.983   1.489   3.086  0.1727 -0.6601 -0.3295
 6355SOL    HW130701   1.051   1.543   3.046  0.8073 -1.9893 -1.0659
 6355SOL    HW230702   0.969   1.537   3.167 -1.5695  0.6922 -1.4102
 6356SOL     OW30703   1.037   1.867   4.611  0.0565  0.2271 -0.1778
 6356SOL    HW130704   0.978   1.860   4.536  1.3595  0.2992 -1.2150
 6356SOL    HW230705   1.106   1.926   4.581 -2.4076  2.0490 -2.2926
 6357SOL     OW30706   3.554   0.319   9.838 -0.5253  0.7192 -0.4810
 6357SOL    HW130707   3.465   0.337   9.809 -1.4216 -1.5666  0.8107
 6357SOL    HW230708   3.566   0.224   9.845  0.3145  0.7754 -1.1263
 6358SOL     OW30709   1.148   0.484   8.920  0.1597  0.0860  0.1315
 6358SOL    HW130710   1.142   0.412   8.857  1.0918 -0.8607  1.1136
 6358SOL    HW230711   1.173   0.559   8.867  2.7334 -1.8477 -1.4065
 6359SOL     OW30712   2.227   3.243   7.777 -0.0925  0.8182  0.1617
 6359SOL    HW130713   2.198   3.334   7.780  0.4146  0.9020  2.9802
 6359SOL    HW230714   2.239   3.219   7.869  0.3409 -1.0602 -0.3901
 6360SOL     OW30715   3.419   4.476   6.684  0.1813 -0.7891  0.2870
 6360SOL    HW130716   3.423   4.566   6.652  0.5847 -0.5055  1.1555
 6360SOL    HW230717   3.356   4.487   6.755 -0.8238 -0.3298 -0.6709
 6361SOL     OW30718   0.103   3.900   0.423  0.3740  0.6339  0.4664
 6361SOL    HW130719   0.042   3.840   0.382  2.2959 -0.5927 -0.6027
 6361SOL    HW230720   0.057   3.915   0.505 -0.0098 -1.0161  0.5327
 6362SOL     OW30721   1.695   2.009   4.034 -0.2700  0.0293  0.3532
 6362SOL    HW130722   1.693   2.100   4.003  0.2215  0.1648  0.7116
 6362SOL    HW230723   1.782   1.977   4.012 -0.1817  0.8225 -0.4364
 6363SOL     OW30724   3.208   0.122  17.203  0.3105 -0.2738 -0.2441
 6363SOL    HW130725   3.117   0.125  17.233  0.6507 -0.6069  0.8043
 6363SOL    HW230726   3.221   0.038  17.160  0.4494 -0.6493  0.5425
 6364SOL     OW30727   3.473   1.517   6.084 -0.7379 -0.9244 -0.3383
 6364SOL    HW130728   3.456   1.516   6.178 -1.8020 -2.5677 -0.5573
 6364SOL    HW230729   3.554   1.567   6.086  0.1294 -2.2820 -1.5194
 6365SOL     OW30730   4.556   1.616   9.856 -0.1156 -0.0444 -0.1830
 6365SOL    HW130731   4.533   1.525   9.873  0.4960  0.0796  1.3247
 6365SOL    HW230732   4.468   1.654   9.858 -0.8244 -1.5794 -2.4777
 6366SOL     OW30733   3.623   4.471  16.846  0.0689  0.0652 -0.4768
 6366SOL    HW130734   3.706   4.518  16.844  0.4329 -0.6882 -2.8138
 6366SOL    HW230735   3.642   4.382  16.818  1.3944  0.0918  0.3574
 6367SOL     OW30736   2.799   1.030  14.563 -0.4264  0.1253 -0.0790
 6367SOL    HW130737   2.860   1.008  14.492  1.5728  0.7641  1.4335
 6367SOL    HW230738   2.827   1.121  14.578  0.7932 -0.5553  1.6741
 6368SOL     OW30739   1.314   4.662  16.349 -0.4723 -0.3580 -0.6150
 6368SOL    HW130740   1.348   0.009  16.318 -0.0498  0.4829  2.1932
 6368SOL    HW230741   1.352   4.660  16.436 -0.8985 -2.2599 -0.4760
 6369SOL     OW30742   0.320   3.729   7.329 -0.3752  0.1874  0.0502
 6369SOL    HW130743   0.334   3.766   7.242 -2.2392  0.4893 -0.1339
 6369SOL    HW230744   0.296   3.641   7.300 -0.2398  0.6049 -1.3114
 6370SOL     OW30745   0.133   3.676   3.348 -0.0344  0.4990  0.1580
 6370SOL    HW130746   0.185   3.637   3.418  0.1329  0.8237  0.2143
 6370SOL    HW230747   0.051   3.687   3.395  0.1536 -0.9159  0.8353
 6371SOL     OW30748   3.520   3.541   5.108  0.1457 -0.3825 -0.0570
 6371SOL    HW130749   3.436   3.589   5.108 -0.4418 -1.4134  0.1321
 6371SOL    HW230750   3.496   3.453   5.079 -3.3316  0.6151 -0.2729
 6372SOL     OW30751   2.537   0.984   1.811 -0.2500  0.5824 -0.0418
 6372SOL    HW130752   2.582   0.917   1.761  0.1729  1.0119 -0.2362
 6372SOL    HW230753   2.474   1.008   1.743 -1.4944 -3.6527 -0.3570
 6373SOL     OW30754   4.197   3.979   3.185 -0.5138 -0.0286 -0.3728
 6373SOL    HW130755   4.287   3.966   3.153  0.0465  1.5871  0.5137
 6373SOL    HW230756   4.179   3.889   3.209 -1.7579  0.5359  0.7482
 6374SOL     OW30757   2.170   3.372  13.184 -0.6611 -0.0970 -0.0376
 6374SOL    HW130758   2.124   3.431  13.125 -0.0583 -2.0492 -2.4458
 6374SOL    HW230759   2.259   3.385  13.149 -1.1109  1.5471 -0.5558
 6375SOL     OW30760   1.138   1.249   3.182 -0.0246  0.0142  0.6433
 6375SOL    HW130761   1.054   1.282   3.150  0.5675 -0.7683 -1.6597
 6375SOL    HW230762   1.109   1.197   3.257 -1.8368 -1.5298 -1.1286
 6376SOL     OW30763   3.517   0.835  15.405 -0.1077  0.0289 -0.2459
 6376SOL    HW130764   3.519   0.931  15.398  1.3661  0.0771  1.0164
 6376SOL    HW230765   3.475   0.804  15.324  0.6492  0.2380 -0.7187
 6377SOL     OW30766   1.149   3.965   9.372 -0.6552 -0.3897  0.1421
 6377SOL    HW130767   1.110   4.052   9.368 -2.6916 -1.3805 -1.0220
 6377SOL    HW230768   1.072   3.911   9.392  1.0661 -2.8971  0.0600
 6378SOL     OW30769   0.899   1.082   0.293  0.6282 -0.3862 -0.0933
 6378SOL    HW130770   0.888   1.173   0.320 -0.9990 -0.9187  1.0188
 6378SOL    HW230771   0.957   1.080   0.217  0.2563 -1.9325 -0.3409
 6379SOL     OW30772   1.500   4.043   3.489  0.4862  0.2232  1.0985
 6379SOL    HW130773   1.531   4.124   3.530 -0.2333  1.3377 -0.5530
 6379SOL    HW230774   1.408   4.037   3.517  0.3880 -1.4769  0.4375
 6380SOL     OW30775   3.072   3.307  10.661  0.0735 -0.5063 -0.3471
 6380SOL    HW130776   3.135   3.305  10.589  2.3569  0.7046  1.5656
 6380SOL    HW230777   3.062   3.401  10.676  2.7582 -0.3729  0.7188
 6381SOL     OW30778   4.671   2.165   8.922 -0.3885  0.2288  0.4177
 6381SOL    HW130779   4.613   2.157   8.997 -1.5527 -3.0831 -0.8065
 6381SOL    HW230780   4.640   2.086   8.877  2.4124  0.0937 -1.3231
 6382SOL     OW30781   1.044   4.276   8.310  0.4300 -0.0508  0.2887
 6382SOL    HW130782   1.086   4.200   8.269 -1.0435  0.1633 -1.6065
 6382SOL    HW230783   1.110   4.345   8.309 -0.2134  0.5360 -0.8948
 6383SOL     OW30784   1.479   2.058  14.360 -0.2398  0.2506 -0.0480
 6383SOL    HW130785   1.537   1.997  14.315 -0.0285 -1.3439  2.3853
 6383SOL    HW230786   1.526   2.136  14.389 -0.6987 -0.0612  1.5539
 6384SOL     OW30787   0.091   2.369   8.698 -0.0316  0.4676 -0.0359
 6384SOL    HW130788   0.088   2.371   8.602  1.3560  1.6944 -0.0671
 6384SOL    HW230789   4.735   2.358   8.715  0.2365 -2.0727 -0.2457
 6385SOL     OW30790   3.792   1.527  14.101  0.6457  0.0480 -0.0117
 6385SOL    HW130791   3.767   1.444  14.062 -1.2521  0.1521  0.9981
 6385SOL    HW230792   3.716   1.545  14.156 -0.8833 -3.7517 -0.9214
 6386SOL     OW30793   1.427   2.138   4.886  0.0734  0.1224  0.3723
 6386SOL    HW130794   1.518   2.169   4.878 -0.2938  1.4751  1.5260
 6386SOL    HW230795   1.404   2.116   4.796  1.4807  1.6976 -0.3642
 6387SOL     OW30796   3.531   0.278  10.176 -0.2138  0.2306  0.0314
 6387SOL    HW130797   3.494   0.192  10.156 -2.3325  1.0001  0.6107
 6387SOL    HW230798   3.587   0.250  10.248 -0.4309  0.6984  0.3809
 6388SOL     OW30799   4.688   2.592   2.151 -0.2918 -0.5318  0.2221
 6388SOL    HW130800   4.690   2.581   2.055  0.0763  0.7567  0.0805
 6388SOL    HW230801   4.610   2.538   2.164 -0.4371  0.0284  1.6036
 6389SOL     OW30802   0.697   3.516   2.638  0.5493  0.3378 -0.3741
 6389SOL    HW130803   0.602   3.519   2.648  0.5278 -2.0077  0.0924
 6389SOL    HW230804   0.714   3.533   2.545 -1.7494  1.0811 -0.6547
 6390SOL     OW30805   4.149   2.356  17.710 -0.3999 -0.6582 -0.2298
 6390SOL    HW130806   4.085   2.427  17.719  0.7643  0.5562 -1.5929
 6390SOL    HW230807   4.209   2.402  17.652  0.0752  1.2030  1.7662
 6391SOL     OW30808   1.995   1.117  14.744  0.1705  0.3864 -0.4699
 6391SOL    HW130809   1.960   1.092  14.659 -2.4459  1.9358  0.1521
 6391SOL    HW230810   2.075   1.063  14.749  0.5750  0.8704 -1.7502
 6392SOL     OW30811   2.849   2.930  12.499 -0.1300 -0.6519 -0.2396
 6392SOL    HW130812   2.896   3.005  12.534 -0.7835 -0.7382  0.8461
 6392SOL    HW230813   2.910   2.857  12.503  1.5919  0.8020 -0.1153
 6393SOL     OW30814   0.296   0.615   3.086 -0.1749  0.0092  0.4102
 6393SOL    HW130815   0.265   0.629   3.175  0.4346 -1.2015  0.8138
 6393SOL    HW230816   0.370   0.675   3.071 -0.0406  0.2605  2.1268
 6394SOL     OW30817   4.341   1.213  13.026  0.0642 -0.5303 -0.4466
 6394SOL    HW130818   4.276   1.270  13.068  1.8306  1.0219  0.1650
 6394SOL    HW230819   4.392   1.185  13.102  0.7119  1.5695 -0.1103
 6395SOL     OW30820   3.361   3.671   7.897  0.2954 -0.0087  0.4528
 6395SOL    HW130821   3.287   3.675   7.957  2.0897 -2.1056  2.8428
 6395SOL    HW230822   3.417   3.748   7.907  0.6447 -0.1037 -0.7690
 6396SOL     OW30823   4.205   0.780   7.345  0.3871 -0.1256  0.2603
 6396SOL    HW130824   4.244   0.828   7.272 -0.9173 -1.1170 -1.0659
 6396SOL    HW230825   4.276   0.776   7.409 -1.5558  3.0520  2.6488
 6397SOL     OW30826   4.309   2.742  10.162 -0.2263  0.0343  0.2474
 6397SOL    HW130827   4.319   2.832  10.192 -1.2510  0.1619  0.2160
 6397SOL    HW230828   4.220   2.744  10.127  0.3721  0.1725 -1.2474
 6398SOL     OW30829   0.475   0.428  13.547 -0.3374 -0.1337  0.2117
 6398SOL    HW130830   0.467   0.482  13.468 -0.2705 -0.8471 -0.2888
 6398SOL    HW230831   0.395   0.450  13.593 -0.5999 -1.5139  0.4144
 6399SOL     OW30832   1.467   4.110   6.717 -0.5840 -1.0697  0.1773
 6399SOL    HW130833   1.521   4.031   6.721  0.6285 -0.2401  0.0469
 6399SOL    HW230834   1.403   4.074   6.655 -2.3479 -0.4203  1.6091
 6400SOL     OW30835   3.714   4.517   1.793  0.2543 -0.2856  0.2733
 6400SOL    HW130836   3.753   4.594   1.834 -0.0295  1.0062 -1.8715
 6400SOL    HW230837   3.786   4.461   1.821 -0.9369 -1.7721  0.3754
 6401SOL     OW30838   0.349   4.014   6.504 -0.0117 -0.2491 -0.3478
 6401SOL    HW130839   0.300   4.053   6.576  2.3602 -0.4999  1.3790
 6401SOL    HW230840   0.375   4.095   6.459  1.0104 -0.4984 -0.2206
 6402SOL     OW30841   2.408   2.750   6.661  0.0587 -0.5803 -0.2188
 6402SOL    HW130842   2.316   2.738   6.636  0.1595 -1.5140 -0.1680
 6402SOL    HW230843   2.421   2.844   6.672  0.4601 -1.0009  2.9563
 6403SOL     OW30844   2.666   0.853  10.906  0.6865  0.3890 -0.0830
 6403SOL    HW130845   2.716   0.920  10.858 -1.1005 -0.8088 -3.5732
 6403SOL    HW230846   2.724   0.777  10.898  1.7162  0.9602  1.8000
 6404SOL     OW30847   2.840   2.481   1.403 -0.5884 -0.5535  0.0801
 6404SOL    HW130848   2.832   2.520   1.316  1.8716 -0.5744 -0.1474
 6404SOL    HW230849   2.785   2.548   1.444  2.4087  1.1258  1.3829
 6405SOL     OW30850   4.190   0.472   1.643  0.4924  0.2401 -0.3331
 6405SOL    HW130851   4.280   0.478   1.676  0.9210  2.4252 -1.8981
 6405SOL    HW230852   4.145   0.451   1.724 -0.1827 -1.1240 -1.0550
 6406SOL     OW30853   0.384   3.642  17.242 -0.7172  0.6758  0.1170
 6406SOL    HW130854   0.462   3.695  17.253  0.1949 -0.8165  0.7692
 6406SOL    HW230855   0.407   3.570  17.184 -2.8746 -1.5769  2.0067
 6407SOL     OW30856   1.555   0.829   2.455 -0.5056 -0.0981 -0.0248
 6407SOL    HW130857   1.555   0.754   2.515 -0.3321  0.0915  0.2124
 6407SOL    HW230858   1.504   0.791   2.383 -0.2560 -0.7202  0.1252
 6408SOL     OW30859   4.596   1.008  17.597 -1.0506  0.1917 -0.0423
 6408SOL    HW130860   4.540   0.955  17.654  0.2298  0.5777  1.5855
 6408SOL    HW230861   4.581   1.098  17.629  0.4105  0.4408 -0.0312
 6409SOL     OW30862   2.794   3.901   3.645 -0.0510  0.1518 -0.3049
 6409SOL    HW130863   2.813   3.823   3.592 -1.9756  0.7595 -1.9030
 6409SOL    HW230864   2.755   3.959   3.580 -0.5812  0.2382  0.0884
 6410SOL     OW30865   4.650   0.494   1.930  0.5612 -0.1580 -0.0397
 6410SOL    HW130866   4.589   0.561   1.961  0.1026 -0.3182 -0.5813
 6410SOL    HW230867   4.728   0.546   1.947 -1.4461  3.2094 -1.2191
 6411SOL     OW30868   2.340   2.562   8.801  0.3186 -0.1594  0.2455
 6411SOL    HW130869   2.431   2.538   8.781 -0.6550 -4.9448  1.5353
 6411SOL    HW230870   2.354   2.656   8.814  0.7613 -0.0138 -1.2981
 6412SOL     OW30871   1.405   1.309  14.285 -0.6154  0.0782  0.3245
 6412SOL    HW130872   1.384   1.302  14.378 -0.7515 -1.0783  0.2071
 6412SOL    HW230873   1.332   1.367  14.264  0.6245  0.8067 -1.9608
 6413SOL     OW30874   3.754   3.307   4.097  0.1777 -0.6947 -0.0289
 6413SOL    HW130875   3.809   3.250   4.044  2.4226  2.9802 -1.6941
 6413SOL    HW230876   3.669   3.266   4.082 -0.9526  0.0714  4.2115
 6414SOL     OW30877   2.605   1.296  10.820  0.3411  0.0962  0.2809
 6414SOL    HW130878   2.604   1.272  10.728 -1.4378 -0.9469  0.5720
 6414SOL    HW230879   2.664   1.234  10.863 -0.3874 -2.3034 -2.1955
 6415SOL     OW30880   1.283   0.377  17.010  0.1005 -0.1012  0.5605
 6415SOL    HW130881   1.311   0.469  17.017 -0.5169  0.0085  1.6043
 6415SOL    HW230882   1.346   0.331  17.065 -0.5104 -0.2638  1.1234
 6416SOL     OW30883   3.675   0.472   5.314 -0.0429 -0.4865  0.2361
 6416SOL    HW130884   3.686   0.489   5.408  0.1647 -1.1432  0.3295
 6416SOL    HW230885   3.764   0.485   5.283 -0.4523 -0.6407 -0.9938
 6417SOL     OW30886   2.747   3.232   2.333  0.0289 -0.0304 -0.3986
 6417SOL    HW130887   2.721   3.201   2.247  2.0976 -2.2379 -0.2369
 6417SOL    HW230888   2.774   3.323   2.324  1.0887 -0.4700 -1.6409
 6418SOL     OW30889   0.535   3.354  11.805 -0.1105 -0.1592  0.0318
 6418SOL    HW130890   0.515   3.296  11.878 -1.1346  0.4838  0.2615
 6418SOL    HW230891   0.586   3.293  11.753 -2.0148 -0.8637 -0.9874
 6419SOL     OW30892   1.391   2.117   1.317 -0.0921 -0.2842 -0.2813
 6419SOL    HW130893   1.348   2.059   1.380  3.2471 -0.9345  1.4143
 6419SOL    HW230894   1.314   2.139   1.264 -0.2993  1.2482  0.6477
 6420SOL     OW30895   3.047   0.122   4.557  0.2676 -0.5642 -0.0106
 6420SOL    HW130896   3.028   0.208   4.520 -0.0428 -1.0549 -0.9937
 6420SOL    HW230897   3.052   0.079   4.472  0.9622 -0.1109 -0.1961
 6421SOL     OW30898   2.509   3.392   1.582  0.3004  0.1543  0.8112
 6421SOL    HW130899   2.559   3.473   1.575 -0.6871  0.6538 -0.3998
 6421SOL    HW230900   2.439   3.428   1.636 -0.3630 -0.2460  0.2275
 6422SOL     OW30901   2.280   2.015   7.017 -0.2037 -0.3339  0.3755
 6422SOL    HW130902   2.223   1.988   6.945 -1.3337  1.7771  0.4830
 6422SOL    HW230903   2.224   2.084   7.052 -0.9357 -0.4532 -0.5559
 6423SOL     OW30904   0.263   3.237   8.025  0.2881 -0.4970 -0.2897
 6423SOL    HW130905   0.197   3.182   8.066 -1.7969  2.0611 -0.1575
 6423SOL    HW230906   0.210   3.258   7.948 -1.1259 -0.0388  0.7831
 6424SOL     OW30907   0.565   1.589   2.547  0.2433 -0.1896 -0.0817
 6424SOL    HW130908   0.652   1.553   2.531  0.3431  0.5657 -1.2588
 6424SOL    HW230909   0.581   1.683   2.560  0.3445 -0.3423  0.8975
 6425SOL     OW30910   1.542   4.008  11.227  0.0578  0.6765  0.2193
 6425SOL    HW130911   1.551   4.021  11.132  0.3927 -2.3720 -0.1978
 6425SOL    HW230912   1.631   3.982  11.250 -0.2477 -0.0873  0.5521
 6426SOL     OW30913   2.274   3.651   8.238 -0.6234  0.3517 -0.2352
 6426SOL    HW130914   2.267   3.697   8.154  0.5191  0.4017 -0.3038
 6426SOL    HW230915   2.245   3.720   8.299 -3.3098 -1.2182  0.2622
 6427SOL     OW30916   1.992   1.403   4.734  0.2152  0.4019  0.4466
 6427SOL    HW130917   2.023   1.403   4.824  2.2334  0.0646 -0.2422
 6427SOL    HW230918   2.072   1.389   4.684 -1.6870  0.6238 -2.7200
 6428SOL     OW30919   3.008   3.725   1.273  0.4630 -0.1908  0.2041
 6428SOL    HW130920   3.071   3.753   1.340  0.0040  1.0761  0.0930
 6428SOL    HW230921   2.944   3.679   1.327 -0.2360 -1.1173 -1.4153
 6429SOL     OW30922   4.203   0.374  17.387  0.4791 -0.2413 -0.6866
 6429SOL    HW130923   4.210   0.427  17.307  1.6381  0.9417  0.1881
 6429SOL    HW230924   4.245   0.294  17.358 -0.0192 -0.2461 -1.3907
 6430SOL     OW30925   3.158   2.000   8.650  0.1108 -0.4964 -0.0349
 6430SOL    HW130926   3.089   2.015   8.715 -1.0287  0.5306 -1.4815
 6430SOL    HW230927   3.183   1.913   8.681  0.3839  0.4294  2.3977
 6431SOL     OW30928   4.697   1.962   9.108  0.0434 -0.0079 -0.2312
 6431SOL    HW130929   0.045   1.986   9.071 -0.7191  2.0134 -0.6724
 6431SOL    HW230930   4.716   1.869   9.096 -1.0668 -0.2599 -0.0453
 6432SOL     OW30931   0.556   1.530   0.513  0.5574 -0.5831 -0.4926
 6432SOL    HW130932   0.473   1.545   0.557  0.2834  1.5803 -1.7770
 6432SOL    HW230933   0.605   1.488   0.584 -2.0710 -0.7724  1.1768
 6433SOL     OW30934   4.344   4.172   3.445 -0.7384  0.1365  0.6440
 6433SOL    HW130935   4.296   4.090   3.457 -0.4705  0.0078  0.8370
 6433SOL    HW230936   4.433   4.140   3.460 -0.5437  0.4456  0.1283
 6434SOL     OW30937   0.517   3.438   8.607  0.1369  0.4739 -0.2827
 6434SOL    HW130938   0.584   3.446   8.540  0.2676 -2.6028 -0.5110
 6434SOL    HW230939   0.555   3.369   8.663 -0.7492  0.7724  0.6890
 6435SOL     OW30940   1.058   4.445   0.599 -0.0359 -1.0540 -0.4677
 6435SOL    HW130941   1.102   4.360   0.591  0.9203 -0.4387 -1.7251
 6435SOL    HW230942   1.044   4.463   0.692 -1.9675 -1.3664 -0.6904
 6436SOL     OW30943   4.261   2.602  13.876  0.2499  0.1143 -0.4218
 6436SOL    HW130944   4.318   2.530  13.849 -2.1457 -1.3794 -1.4317
 6436SOL    HW230945   4.283   2.611  13.969 -0.4487  0.0190 -0.2505
 6437SOL     OW30946   1.977   4.598   7.879 -0.1269  0.0537 -0.2242
 6437SOL    HW130947   1.955   4.688   7.857 -3.8027 -0.3085  1.9430
 6437SOL    HW230948   2.037   4.605   7.953 -0.9943 -1.8930  0.6595
 6438SOL     OW30949   3.029   0.061   2.952  0.1895 -0.0304  0.3456
 6438SOL    HW130950   2.954   0.047   3.010  1.0715  1.3278  1.8190
 6438SOL    HW230951   3.032   0.156   2.944 -1.3243 -0.1623 -1.5620
 6439SOL     OW30952   3.686   3.169  14.473 -0.8903  0.5214 -0.3547
 6439SOL    HW130953   3.778   3.146  14.482 -0.4235  2.2888 -0.5942
 6439SOL    HW230954   3.652   3.098  14.418 -2.2365 -1.3123  2.8952
 6440SOL     OW30955   2.055   1.483   9.658 -0.6981 -0.7143  0.2995
 6440SOL    HW130956   2.082   1.561   9.706 -0.6794 -0.6952  0.2585
 6440SOL    HW230957   1.970   1.460   9.697 -1.0887  0.2794  0.0476
 6441SOL     OW30958   0.492   1.074  12.451  0.1298 -0.7199  0.2204
 6441SOL    HW130959   0.400   1.075  12.478  0.7705 -1.5288  2.4519
 6441SOL    HW230960   0.532   1.027  12.524  0.6312 -1.0683 -0.2883
 6442SOL     OW30961   4.622   2.511   0.891  0.1441  0.0834 -0.6378
 6442SOL    HW130962   4.614   2.431   0.838  1.8563 -0.7218  0.3402
 6442SOL    HW230963   4.663   2.570   0.828  0.1977  0.5186 -0.1910
 6443SOL     OW30964   3.872   0.369  15.098  0.6334 -0.5842 -0.0694
 6443SOL    HW130965   3.894   0.301  15.162  1.0605 -0.6177 -0.2470
 6443SOL    HW230966   3.881   0.442  15.160  0.0076 -0.2553 -0.3662
 6444SOL     OW30967   3.580   0.912   2.884 -0.0893 -0.1820  0.6844
 6444SOL    HW130968   3.669   0.899   2.850  0.2664  0.4981  1.3512
 6444SOL    HW230969   3.551   0.991   2.838  0.2573 -0.1676  0.4858
 6445SOL     OW30970   0.772   0.128  11.555 -0.0360  0.0982 -0.2273
 6445SOL    HW130971   0.731   0.057  11.505 -1.0370  0.9104 -0.5651
 6445SOL    HW230972   0.739   0.202  11.504 -2.5374  0.0085  1.2654
 6446SOL     OW30973   1.778   4.117  12.994  0.9051 -0.4164 -0.2892
 6446SOL    HW130974   1.755   4.131  13.086  1.1423 -2.6806  0.1259
 6446SOL    HW230975   1.693   4.110  12.952 -0.4680  2.0407  2.1042
 6447SOL     OW30976   0.962   4.336   4.961 -0.7476 -0.1281  0.6594
 6447SOL    HW130977   1.020   4.261   4.959 -1.7450 -0.9499  2.1176
 6447SOL    HW230978   0.938   4.347   5.053  0.8858  1.1279  0.9257
 6448SOL     OW30979   3.953   2.129  13.782 -0.1728 -0.5818  0.4032
 6448SOL    HW130980   3.960   2.218  13.815 -0.6177  0.5210 -2.5184
 6448SOL    HW230981   3.928   2.075  13.858  1.8435 -1.2743  0.5526
 6449SOL     OW30982   2.487   0.385   3.644 -1.1611  0.2898 -0.1824
 6449SOL    HW130983   2.432   0.321   3.598  0.4108 -1.5147  0.4657
 6449SOL    HW230984   2.525   0.339   3.719  0.9703 -2.5931 -3.0847
 6450SOL     OW30985   1.022   0.148   2.711 -0.0047  0.2872  0.0980
 6450SOL    HW130986   1.014   0.054   2.694 -1.7966  0.6275 -1.0142
 6450SOL    HW230987   0.927   0.157   2.703 -0.1283  0.4904  1.7047
 6451SOL     OW30988   4.535   3.294  12.959  0.4223  0.1829 -0.2866
 6451SOL    HW130989   4.593   3.280  12.884  0.8731  0.2297  0.0580
 6451SOL    HW230990   4.550   3.212  13.007 -0.0617  0.4497  0.3192
 6452SOL     OW30991   4.691   1.298   0.986 -0.3160  0.2992  0.8256
 6452SOL    HW130992   4.627   1.321   1.054  0.9703  0.2319  2.0851
 6452SOL    HW230993   0.034   1.275   1.034  0.9784  1.4113 -0.7949
 6453SOL     OW30994   0.673   4.088   7.954 -0.1896 -0.2346  0.6164
 6453SOL    HW130995   0.697   4.137   8.033  0.9216  0.3741 -0.0944
 6453SOL    HW230996   0.580   4.100   7.936  0.4799  0.8175 -2.0770
 6454SOL     OW30997   0.535   4.301   2.289 -0.2835 -0.4228  0.1819
 6454SOL    HW130998   0.496   4.221   2.255 -0.4753 -0.7088  1.0970
 6454SOL    HW230999   0.580   4.338   2.212 -2.8232  0.1571 -1.0025
 6455SOL     OW31000   2.686   0.596   8.469  0.3773 -0.3215 -0.1081
 6455SOL    HW131001   2.759   0.658   8.471  0.8780 -0.9475  1.5420
 6455SOL    HW231002   2.721   0.537   8.403  2.3995 -2.4711  2.8603
 6456SOL     OW31003   4.321   3.803  14.084 -0.1673 -0.4423  0.2635
 6456SOL    HW131004   4.251   3.866  14.101  1.0886  1.4718 -1.5097
 6456SOL    HW231005   4.289   3.715  14.104  0.3426 -0.4375  1.0921
 6457SOL     OW31006   2.326   0.735   2.955  0.0100  0.1701 -0.4518
 6457SOL    HW131007   2.318   0.650   2.912  1.6526 -0.7075  0.9804
 6457SOL    HW231008   2.320   0.711   3.048 -0.7963 -0.9323 -0.7854
 6458SOL     OW31009   0.866   4.595  11.373  0.2290  0.4118 -0.0120
 6458SOL    HW131010   0.935   4.641  11.420  0.3552  1.4305 -1.2064
 6458SOL    HW231011   0.795   4.616  11.434  0.1052  0.4393 -0.1673
 6459SOL     OW31012   4.649   0.744  14.975  0.6167  0.3175 -0.0227
 6459SOL    HW131013   4.728   0.777  14.933  1.6063 -1.0389  0.7845
 6459SOL    HW231014   4.668   0.651  14.984 -1.0857  0.1212  1.6321
 6460SOL     OW31015   3.008   1.121   6.820 -1.0697  0.3224  0.0743
 6460SOL    HW131016   2.977   1.174   6.893 -1.5519  0.7024 -0.4028
 6460SOL    HW231017   2.936   1.061   6.799 -0.0654 -0.7029 -0.4476
 6461SOL     OW31018   3.132   3.867   7.983 -0.1737  0.1257  0.1780
 6461SOL    HW131019   3.154   3.786   8.028 -1.9629  1.3504  3.2009
 6461SOL    HW231020   3.036   3.866   7.979 -0.1657 -1.1302  0.1920
 6462SOL     OW31021   0.760   2.060  15.650 -0.4255 -0.2902  0.0315
 6462SOL    HW131022   0.827   2.127  15.637  0.0022 -0.5432  0.9007
 6462SOL    HW231023   0.697   2.085  15.583 -1.3501  2.6874  2.0182
 6463SOL     OW31024   2.627   3.233   8.335  0.4343  0.0279  0.3357
 6463SOL    HW131025   2.558   3.235   8.402  0.1977  0.3987  0.0767
 6463SOL    HW231026   2.590   3.292   8.270  0.9966 -0.0991 -0.1021
 6464SOL     OW31027   3.836   1.226   8.842  0.1543  0.1602 -0.2708
 6464SOL    HW131028   3.789   1.191   8.918 -0.8766  1.6971 -0.2096
 6464SOL    HW231029   3.840   1.145   8.791 -0.0145 -0.5248  0.8082
 6465SOL     OW31030   4.676   2.768  12.011 -0.2755  0.8040 -0.4296
 6465SOL    HW131031   4.614   2.697  12.030 -0.2845  0.6628 -0.9800
 6465SOL    HW231032   4.645   2.808  11.930 -2.1970 -2.4848 -1.3318
 6466SOL     OW31033   1.437   3.820   4.608 -0.2579 -0.1603  0.1989
 6466SOL    HW131034   1.431   3.726   4.591  1.5615 -0.3115  0.3660
 6466SOL    HW231035   1.532   3.825   4.619 -0.4284  2.5687  0.4790
 6467SOL     OW31036   4.611   0.864  13.225  0.0546  0.3660  0.1166
 6467SOL    HW131037   4.694   0.825  13.253 -0.0449  0.1110  0.0574
 6467SOL    HW231038   4.571   0.790  13.180 -0.8116  0.9842 -0.1323
 6468SOL     OW31039   2.828   3.833  16.617  0.8008 -0.3557  0.3873
 6468SOL    HW131040   2.853   3.741  16.605  0.7448 -0.7342  3.1729
 6468SOL    HW231041   2.820   3.863  16.526 -0.8841  0.5694  0.8365
 6469SOL     OW31042   3.618   3.169   2.598 -0.0040 -0.3361  0.0335
 6469SOL    HW131043   3.655   3.255   2.617 -1.8267  0.3060  0.7329
 6469SOL    HW231044   3.683   3.129   2.541 -1.0434  0.3156 -1.6174
 6470SOL     OW31045   3.577   0.288   2.219  0.3788 -0.0248 -0.0098
 6470SOL    HW131046   3.543   0.199   2.213  0.3097 -0.1625  2.3240
 6470SOL    HW231047   3.565   0.312   2.311 -0.9783  0.9495 -0.4367
 6471SOL     OW31048   4.644   0.929   8.954  0.0796  0.2360 -0.7033
 6471SOL    HW131049   4.659   0.839   8.926 -1.4801 -0.6258  1.2515
 6471SOL    HW231050   4.729   0.963   8.926  0.9057  0.1413  1.6796
 6472SOL     OW31051   4.189   4.486  12.868 -0.5228 -0.6212  0.2612
 6472SOL    HW131052   4.167   4.559  12.925  0.6851  1.1120 -1.4814
 6472SOL    HW231053   4.179   4.413  12.928  1.9427 -1.9817 -0.9653
 6473SOL     OW31054   1.830   3.538   2.678 -0.0202  0.2533 -0.0470
 6473SOL    HW131055   1.791   3.574   2.599 -1.2893  1.2065  1.0062
 6473SOL    HW231056   1.918   3.542   2.641  0.3523 -0.8898  0.6987
 6474SOL     OW31057   2.893   1.665   5.573  0.4298 -0.9973 -1.2319
 6474SOL    HW131058   2.804   1.647   5.602  0.2434  2.7003  0.4964
 6474SOL    HW231059   2.870   1.703   5.488 -1.2653 -0.9004 -0.7376
 6475SOL     OW31060   3.016   3.756   7.631  0.2678  0.2397  0.2798
 6475SOL    HW131061   2.952   3.719   7.692 -1.7182 -0.5756 -2.3172
 6475SOL    HW231062   2.971   3.817   7.573  1.7005  1.5920  0.5874
 6476SOL     OW31063   2.367   0.049   9.175 -0.0881  0.3311 -0.0227
 6476SOL    HW131064   2.373   0.119   9.240 -0.7801 -0.8585  1.3271
 6476SOL    HW231065   2.274   0.048   9.152 -0.4830 -1.9344  1.6355
 6477SOL     OW31066   3.084   4.457   5.392 -0.1147  0.1831  0.1622
 6477SOL    HW131067   3.085   4.550   5.415  1.5400  0.4116 -0.8412
 6477SOL    HW231068   3.177   4.445   5.376 -0.1037 -0.0699  0.4045
 6478SOL     OW31069   3.240   2.321   9.591  0.0920 -0.4260  0.0530
 6478SOL    HW131070   3.243   2.238   9.543 -0.7601 -1.4201  1.7535
 6478SOL    HW231071   3.330   2.329   9.623  0.0144  2.2394 -0.4033
 6479SOL     OW31072   0.101   2.047   6.233 -0.2553 -0.8734  0.0821
 6479SOL    HW131073   0.130   2.049   6.142 -1.6634  0.1001 -0.3473
 6479SOL    HW231074   0.166   1.983   6.262 -0.5437 -1.8210 -1.3755
 6480SOL     OW31075   0.333   0.634  11.523  0.1590 -0.6529 -0.5536
 6480SOL    HW131076   0.380   0.656  11.443 -0.3411  2.3633 -0.0084
 6480SOL    HW231077   0.351   0.540  11.528  0.5775 -0.5191  0.3835
 6481SOL     OW31078   2.275   3.366   3.918 -0.3780 -0.2006  0.1436
 6481SOL    HW131079   2.365   3.389   3.896 -0.5687  1.5015  1.1479
 6481SOL    HW231080   2.227   3.331   3.842  0.4147  0.0445 -0.4735
 6482SOL     OW31081   1.598   1.206   2.952  0.2665  0.0443  0.2250
 6482SOL    HW131082   1.540   1.252   2.892 -1.5031 -2.3736  0.1015
 6482SOL    HW231083   1.552   1.131   2.989 -0.2836 -0.1353 -0.8432
 6483SOL     OW31084   1.402   4.314   6.331  0.1797  0.5158 -0.0064
 6483SOL    HW131085   1.307   4.303   6.338  0.5503 -1.5909  1.5254
 6483SOL    HW231086   1.408   4.275   6.245 -0.0155 -0.6020  0.4858
 6484SOL     OW31087   3.754   2.070  10.175  0.1805 -0.2099 -0.0274
 6484SOL    HW131088   3.741   2.159  10.208 -0.3113 -1.1000  2.1398
 6484SOL    HW231089   3.825   2.085  10.111 -0.2142  0.5064 -0.2976
 6485SOL     OW31090   4.010   4.548   4.232 -0.5249  0.1286 -0.1626
 6485SOL    HW131091   4.007   4.507   4.146  3.0079  0.1839 -0.2878
 6485SOL    HW231092   4.076   4.616   4.218  0.7747 -0.9761  0.6660
 6486SOL     OW31093   2.918   2.413  10.116 -0.2839  0.0612  0.6409
 6486SOL    HW131094   2.979   2.344  10.087  0.1681  0.6555  0.1881
 6486SOL    HW231095   2.859   2.364  10.173  0.3624 -2.2001 -0.5872
 6487SOL     OW31096   0.307   4.423   2.394 -0.0636 -0.0759 -0.2489
 6487SOL    HW131097   0.267   4.344   2.431 -0.2877 -0.3826 -1.1421
 6487SOL    HW231098   0.387   4.400   2.347  1.1731 -0.2846  1.9715
 6488SOL     OW31099   0.978   4.484   8.617  0.0458 -0.0482 -0.6091
 6488SOL    HW131100   1.025   4.401   8.612 -0.8312 -0.6204  0.6889
 6488SOL    HW231101   0.975   4.492   8.712 -0.1335  1.2499 -0.7252
 6489SOL     OW31102   0.246   0.429   1.677 -0.0204 -0.2317 -0.0695
 6489SOL    HW131103   0.268   0.407   1.586 -2.9920  2.2756 -1.3811
 6489SOL    HW231104   0.185   0.357   1.697 -0.7968  0.3172 -0.4618
 6490SOL     OW31105   0.928   0.629   2.320  0.7928  0.9513 -0.3828
 6490SOL    HW131106   0.980   0.574   2.262 -2.8460 -0.5611 -2.2061
 6490SOL    HW231107   0.881   0.561   2.368  2.8971 -1.7841 -2.2269
 6491SOL     OW31108   3.783   4.643   6.459 -0.7474  0.1819  0.1126
 6491SOL    HW131109   3.838   4.713   6.422 -0.8481 -0.6915 -1.7288
 6491SOL    HW231110   3.696   4.681   6.453 -0.6724  0.6665  2.1993
 6492SOL     OW31111   3.604   1.198  13.623 -0.5646 -0.2481  0.5246
 6492SOL    HW131112   3.606   1.279  13.674 -3.3615 -0.0039  0.2692
 6492SOL    HW231113   3.612   1.224  13.531  2.7329 -0.9255  0.6352
 6493SOL     OW31114   4.714   1.231   3.629 -0.3485 -0.0665  0.1975
 6493SOL    HW131115   4.639   1.286   3.605  0.1773  0.9854  0.9752
 6493SOL    HW231116   0.026   1.222   3.547 -0.1881 -1.0756  0.4052
 6494SOL     OW31117   0.290   2.474   8.098  0.3660  0.5444 -0.1498
 6494SOL    HW131118   0.231   2.402   8.120 -0.8680  1.4198 -0.6426
 6494SOL    HW231119   0.355   2.455   8.166 -1.4305 -0.3358  1.3242
 6495SOL     OW31120   2.247   4.063  13.011 -0.5226 -0.1450 -0.3433
 6495SOL    HW131121   2.283   4.133  13.066 -1.0602  2.0447 -2.7729
 6495SOL    HW231122   2.161   4.100  12.990  0.5805  1.5731 -1.8265
 6496SOL     OW31123   2.624   3.392   4.868  0.0196 -0.7188 -0.6152
 6496SOL    HW131124   2.682   3.437   4.929 -0.9303  1.3640 -1.2654
 6496SOL    HW231125   2.672   3.387   4.786  1.6300 -0.1100  0.3081
 6497SOL     OW31126   3.973   2.945   3.740  0.1439 -0.3564 -0.1616
 6497SOL    HW131127   3.947   3.014   3.678 -1.2105  0.6481  1.5337
 6497SOL    HW231128   4.067   2.958   3.728  0.7078 -1.5347  3.0904
 6498SOL     OW31129   1.147   0.510   7.563 -0.1166  0.8196 -0.3953
 6498SOL    HW131130   1.071   0.498   7.620  0.2523  1.2079  0.1746
 6498SOL    HW231131   1.161   0.603   7.544  1.6485  0.6076 -0.1014
 6499SOL     OW31132   2.162   0.579   7.649  0.0308  0.2996 -0.1061
 6499SOL    HW131133   2.086   0.528   7.675  0.4018 -0.3918 -0.3641
 6499SOL    HW231134   2.190   0.521   7.578  0.6741  0.6437 -0.1359
 6500SOL     OW31135   2.583   1.024   7.782  0.2719 -0.0579 -0.0999
 6500SOL    HW131136   2.590   1.068   7.697 -3.2560  0.8920  0.1267
 6500SOL    HW231137   2.491   0.999   7.786  0.0645  0.3675 -2.3411
 6501SOL     OW31138   3.453   3.824   2.845 -0.5792 -0.0522  0.1884
 6501SOL    HW131139   3.421   3.811   2.756  1.7178 -1.7322 -0.3779
 6501SOL    HW231140   3.461   3.918   2.864  1.3448 -0.6533  2.3098
 6502SOL     OW31141   3.160   3.232   8.063 -0.2674 -0.8069  0.0020
 6502SOL    HW131142   3.113   3.173   8.004  0.3559  0.3276 -1.6119
 6502SOL    HW231143   3.214   3.279   7.999 -0.6644  0.4114  0.5675
 6503SOL     OW31144   1.592   1.810   7.999  0.1727 -0.2254  0.1186
 6503SOL    HW131145   1.516   1.779   8.050  0.1834 -0.0377  0.2482
 6503SOL    HW231146   1.585   1.905   8.010 -2.3108 -0.5414  1.3859
 6504SOL     OW31147   3.984   0.535   5.381  0.1700 -0.2834  0.2794
 6504SOL    HW131148   4.006   0.621   5.343  0.2666 -0.0093  0.9664
 6504SOL    HW231149   4.039   0.476   5.329  1.6842  0.1012  1.4410
 6505SOL     OW31150   1.110   0.239   5.988 -0.2024  0.2665 -0.0013
 6505SOL    HW131151   1.018   0.266   5.990  0.3036  2.1074 -1.7051
 6505SOL    HW231152   1.119   0.245   6.083 -2.1347 -1.7825  0.3099
 6506SOL     OW31153   1.319   4.032   6.502 -0.3292  0.1564  0.1200
 6506SOL    HW131154   1.282   3.968   6.442 -0.4271  0.3083  0.0190
 6506SOL    HW231155   1.266   4.108   6.477 -0.1655 -0.5982 -2.4929
 6507SOL     OW31156   2.370   0.150   5.564 -0.3530 -0.7398 -0.1083
 6507SOL    HW131157   2.367   0.173   5.657  0.6624  2.6287 -0.8949
 6507SOL    HW231158   2.286   0.109   5.544 -0.2583  0.8842 -3.7879
 6508SOL     OW31159   4.492   3.615   5.566  0.4749 -0.6510 -0.4011
 6508SOL    HW131160   4.445   3.697   5.583  2.6220  0.2225  1.3276
 6508SOL    HW231161   4.446   3.550   5.618  0.8886 -0.8267 -0.2549
 6509SOL     OW31162   1.102   1.972   3.057  0.1667 -0.8955  0.3726
 6509SOL    HW131163   1.047   1.971   3.135  0.2838  0.4662  0.4613
 6509SOL    HW231164   1.183   1.998   3.101  0.8578  0.5489 -1.7669
 6510SOL     OW31165   2.608   2.734   8.391  0.2337  0.3360 -0.7225
 6510SOL    HW131166   2.570   2.708   8.308  1.2938  0.5741 -1.2790
 6510SOL    HW231167   2.689   2.684   8.382  0.2355  0.0135  0.9268
 6511SOL     OW31168   4.426   3.848   3.084 -0.9903  0.1585 -0.1657
 6511SOL    HW131169   4.515   3.857   3.118 -0.7058  0.6048 -1.0417
 6511SOL    HW231170   4.434   3.899   3.003  0.7887  0.4141  0.1526
 6512SOL     OW31171   1.752   1.481   7.262 -0.3807 -0.5644 -0.0926
 6512SOL    HW131172   1.702   1.562   7.268  1.3474  0.5188 -0.2986
 6512SOL    HW231173   1.817   1.504   7.196  1.3911 -1.0748  1.4680
 6513SOL     OW31174   3.386   3.740   3.360 -0.1173 -0.6717 -0.6307
 6513SOL    HW131175   3.424   3.824   3.331  1.5017 -0.0356  3.2781
 6513SOL    HW231176   3.455   3.689   3.403  0.0610  0.1956  0.1181
 6514SOL     OW31177   3.600   1.733   5.871 -0.1500 -0.0072 -0.2927
 6514SOL    HW131178   3.646   1.653   5.845  0.4178  1.1832 -2.9016
 6514SOL    HW231179   3.622   1.719   5.964  1.1704  0.2124 -0.5741
 6515SOL     OW31180   4.199   4.315  14.895  0.4427  0.2049 -0.6698
 6515SOL    HW131181   4.201   4.219  14.888 -2.4937  0.0452  0.2982
 6515SOL    HW231182   4.289   4.340  14.878  0.6924 -0.6373 -0.5739
 6516SOL     OW31183   1.562   3.906   6.477  0.5578 -0.2779 -0.0212
 6516SOL    HW131184   1.561   3.903   6.381 -0.0606  1.2473 -0.0585
 6516SOL    HW231185   1.497   3.974   6.496 -2.4075 -3.3096  0.8286
 6517SOL     OW31186   0.129   2.703   6.432  0.0930  0.0937 -0.3055
 6517SOL    HW131187   0.193   2.749   6.379 -0.1354  0.2598 -0.4387
 6517SOL    HW231188   0.178   2.621   6.441 -1.6628 -0.9469 -0.0532
 6518SOL     OW31189   0.844   1.627   5.243 -0.7015 -0.0501  0.2511
 6518SOL    HW131190   0.755   1.593   5.231 -1.2954  0.0951  4.0873
 6518SOL    HW231191   0.867   1.557   5.304  1.0963 -0.8449 -1.3545
 6519SOL     OW31192   3.837   3.502   7.917 -0.1106 -0.1013  0.1328
 6519SOL    HW131193   3.849   3.410   7.893 -0.2773  0.1991 -1.0817
 6519SOL    HW231194   3.756   3.523   7.871 -0.6144  1.0991  1.5621
 6520SOL     OW31195   4.483   2.680  16.230  0.5951 -0.5351 -0.0509
 6520SOL    HW131196   4.462   2.592  16.262 -0.8679 -0.6620 -1.3603
 6520SOL    HW231197   4.562   2.674  16.176  1.3813  1.7271  0.8559
 6521SOL     OW31198   4.306   4.630   0.021  0.9980  0.2515  0.1250
 6521SOL    HW131199   4.303   4.591  17.679 -1.5429  0.2551  0.1962
 6521SOL    HW231200   4.215   4.611   0.043  1.1833  0.3624  0.9838
 6522SOL     OW31201   2.772   4.276   2.553 -0.7262  0.6386 -0.0317
 6522SOL    HW131202   2.832   4.306   2.621  0.6915 -0.3107 -0.8611
 6522SOL    HW231203   2.699   4.243   2.605 -1.9342 -0.2198 -2.2527
 6523SOL     OW31204   3.245   2.490   0.145 -0.1859 -0.5019 -0.2740
 6523SOL    HW131205   3.243   2.441   0.063 -1.8154 -3.9949  1.8528
 6523SOL    HW231206   3.179   2.557   0.128 -0.1046  0.1164  1.7869
 6524SOL     OW31207   2.875   1.437   8.828 -0.1246 -0.0269  0.2924
 6524SOL    HW131208   2.963   1.471   8.815  1.2266 -2.9728  1.6348
 6524SOL    HW231209   2.852   1.485   8.907  0.3391 -2.0451  1.6680
 6525SOL     OW31210   1.865   3.621   1.532  0.0447  0.0152  0.1869
 6525SOL    HW131211   1.952   3.609   1.569  0.8996  0.8752 -1.5291
 6525SOL    HW231212   1.863   3.717   1.531  0.4374  0.0127 -1.0588
 6526SOL     OW31213   2.377   4.035   2.667  0.4697 -0.4578  0.1950
 6526SOL    HW131214   2.299   3.981   2.658  0.2130 -0.1060  0.3054
 6526SOL    HW231215   2.431   3.975   2.719 -0.4560  0.4082  2.1799
 6527SOL     OW31216   0.876   4.020   7.785  0.0280 -0.8011  0.3955
 6527SOL    HW131217   0.799   3.964   7.788 -0.4983  0.0486  2.6572
 6527SOL    HW231218   0.827   4.097   7.814  1.2771 -0.6743  2.1941
 6528SOL     OW31219   0.464   4.418   9.708  0.1194  0.0690  0.2861
 6528SOL    HW131220   0.405   4.371   9.649 -1.0632  0.3379  1.2487
 6528SOL    HW231221   0.538   4.357   9.707 -0.6660 -0.8630 -0.4094
 6529SOL     OW31222   1.912   3.847   3.775 -0.2478 -0.5989  0.3325
 6529SOL    HW131223   1.996   3.894   3.777  0.1304 -1.2363 -0.3517
 6529SOL    HW231224   1.915   3.809   3.863 -0.5555 -0.1389  0.5395
 6530SOL     OW31225   2.243   1.664  13.027  0.2193 -0.3164 -0.1122
 6530SOL    HW131226   2.235   1.606  13.102 -0.8316 -1.0671 -0.7931
 6530SOL    HW231227   2.338   1.661  13.030  0.2400  0.0638 -0.4092
 6531SOL     OW31228   0.317   1.611   4.272  0.2021 -0.6633 -0.3154
 6531SOL    HW131229   0.401   1.622   4.226  0.7000 -1.1698  0.4835
 6531SOL    HW231230   0.288   1.701   4.261 -2.9825 -1.5873  0.6363
 6532SOL     OW31231   3.733   4.551   7.851  0.3701  0.1769  0.4872
 6532SOL    HW131232   3.669   4.491   7.890 -0.3963 -1.1723 -2.8908
 6532SOL    HW231233   3.780   4.487   7.798 -1.2430  0.7628 -1.6673
 6533SOL     OW31234   3.918   3.791   6.914 -0.4328 -0.0427  0.7160
 6533SOL    HW131235   4.008   3.807   6.887 -0.6760 -1.3630 -0.8506
 6533SOL    HW231236   3.914   3.833   7.001 -0.6894 -1.2613  1.2884
 6534SOL     OW31237   0.158   3.130  11.402 -0.1871  0.2065 -0.1486
 6534SOL    HW131238   0.233   3.083  11.366  0.8806  0.4517  1.8260
 6534SOL    HW231239   0.121   3.155  11.317  0.1497  2.5546  0.3880
 6535SOL     OW31240   3.025   3.597   5.880  0.1008  0.1475 -0.2562
 6535SOL    HW131241   2.992   3.685   5.896  0.0057  0.1344 -0.3835
 6535SOL    HW231242   3.114   3.626   5.901  0.4689  0.4737 -2.3081
 6536SOL     OW31243   2.846   0.203   4.294 -0.1889  0.2178 -0.1910
 6536SOL    HW131244   2.787   0.202   4.370  1.4138  2.1860  1.0817
 6536SOL    HW231245   2.912   0.267   4.319  0.0986 -0.5074  0.9204
 6537SOL     OW31246   3.421   3.058  12.949  0.4634 -0.4215 -0.4736
 6537SOL    HW131247   3.438   3.122  12.880 -1.6503  2.0258  1.2911
 6537SOL    HW231248   3.494   2.996  12.937  0.2706 -0.9666  1.0870
 6538SOL     OW31249   0.878   1.703   0.079  0.5992 -0.2948 -0.2767
 6538SOL    HW131250   0.791   1.702   0.119  1.0724 -0.7380  0.7334
 6538SOL    HW231251   0.928   1.713   0.160  0.9488  0.2859 -0.5607
 6539SOL     OW31252   3.391   1.538   7.483  0.3915  0.0057 -0.7879
 6539SOL    HW131253   3.363   1.461   7.533 -0.4154  0.5692 -0.3631
 6539SOL    HW231254   3.478   1.516   7.450  0.8823 -2.1220  1.8628
 6540SOL     OW31255   4.355   1.691  10.127 -0.3124  0.3515  0.1515
 6540SOL    HW131256   4.301   1.652  10.058 -0.4473  1.9877 -0.6607
 6540SOL    HW231257   4.289   1.720  10.190 -0.3450  0.2082  0.1835
 6541SOL     OW31258   4.676   0.020  17.049  0.6561 -0.8468 -0.4367
 6541SOL    HW131259   4.720   0.062  16.975 -0.3360  1.7853  0.4713
 6541SOL    HW231260   4.726   4.675  17.053  0.7497 -0.6408  2.4545
 6542SOL     OW31261   1.935   1.187  14.210  0.4011  0.6017  0.1548
 6542SOL    HW131262   1.876   1.151  14.143 -0.3106  1.1418  0.4817
 6542SOL    HW231263   2.014   1.144  14.179 -0.3659 -0.9120  0.2703
 6543SOL     OW31264   2.909   1.434   9.777 -0.2899 -0.0351 -0.1886
 6543SOL    HW131265   2.998   1.428   9.811  0.3026  0.0316 -1.7350
 6543SOL    HW231266   2.862   1.463   9.855 -1.0224  1.6068 -1.2240
 6544SOL     OW31267   4.593   2.586   9.096 -0.5942  0.1880 -0.3036
 6544SOL    HW131268   4.595   2.520   9.166 -0.5245 -0.8268 -1.2608
 6544SOL    HW231269   4.669   2.642   9.110  0.4215 -0.5095 -3.0462
 6545SOL     OW31270   2.678   3.503  15.006 -0.3429  0.0680  0.0549
 6545SOL    HW131271   2.681   3.429  14.946 -0.7563 -1.3469  1.8114
 6545SOL    HW231272   2.650   3.466  15.089  0.6125 -0.9150 -0.0613
 6546SOL     OW31273   1.376   1.718   4.696 -0.3030  0.7937  0.6876
 6546SOL    HW131274   1.283   1.702   4.713 -0.2975  0.1069  0.0531
 6546SOL    HW231275   1.391   1.761   4.780  1.4565  1.7458 -0.1176
 6547SOL     OW31276   4.274   1.480  12.760  0.0153  0.3360 -0.4438
 6547SOL    HW131277   4.312   1.541  12.824 -1.5354  0.1743  0.6202
 6547SOL    HW231278   4.277   1.402  12.815 -1.3650  0.0133 -0.8537
 6548SOL     OW31279   3.256   3.054   5.702 -0.3394 -0.2629 -0.3537
 6548SOL    HW131280   3.323   3.122   5.694  0.3980 -0.8790  0.4495
 6548SOL    HW231281   3.205   3.073   5.781 -1.3447  0.0086 -1.0718
 6549SOL     OW31282   2.796   3.160   1.173  0.5822  0.1251  0.3692
 6549SOL    HW131283   2.880   3.184   1.133  0.4113  0.7333  0.3804
 6549SOL    HW231284   2.819   3.155   1.266  2.9982  2.9289 -0.0700
 6550SOL     OW31285   2.099   1.964   6.653  0.3266  0.5199 -0.5971
 6550SOL    HW131286   2.130   2.036   6.598  2.6026 -0.7627 -0.9871
 6550SOL    HW231287   2.020   1.941   6.605  0.7576 -2.2634  0.0650
 6551SOL     OW31288   2.671   0.106   9.001  0.0493 -0.0533 -0.5497
 6551SOL    HW131289   2.600   0.042   9.006  0.9731 -1.2822 -2.7530
 6551SOL    HW231290   2.644   0.193   8.971  2.6131  1.1886  0.7268
 6552SOL     OW31291   2.287   2.311   0.985  0.4960 -0.0675 -0.5663
 6552SOL    HW131292   2.292   2.404   0.966  2.1723 -0.0571 -0.0542
 6552SOL    HW231293   2.372   2.294   1.025 -0.2845 -0.8123  0.8000
 6553SOL     OW31294   0.818   4.696   6.804 -0.0688  0.1665 -0.0383
 6553SOL    HW131295   0.810   0.054   6.795  2.6029  0.2225 -1.7593
 6553SOL    HW231296   0.898   4.690   6.856  1.1450  0.7966 -1.8379
 6554SOL     OW31297   3.848   0.346   2.411 -0.5483 -0.0921 -0.7971
 6554SOL    HW131298   3.756   0.321   2.417  0.1308 -2.0389  1.6720
 6554SOL    HW231299   3.878   0.276   2.469 -2.5544 -1.4880 -1.4496
 6555SOL     OW31300   3.260   1.875  11.417  0.0110 -0.0613 -0.2682
 6555SOL    HW131301   3.271   1.791  11.460 -1.4661 -0.1542 -0.0907
 6555SOL    HW231302   3.167   1.884  11.398 -0.1026 -2.4775 -0.7836
 6556SOL     OW31303   4.147   0.078   6.241 -0.3477 -0.0408  0.1756
 6556SOL    HW131304   4.108   4.732   6.211  0.9830 -1.3194  1.9413
 6556SOL    HW231305   4.224   0.086   6.184 -0.1450  0.7765  0.5713
 6557SOL     OW31306   2.925   3.238   8.366 -0.2570 -0.2484  0.5917
 6557SOL    HW131307   2.833   3.236   8.342 -0.2564  2.0185  0.3724
 6557SOL    HW231308   2.943   3.324   8.327 -0.9687 -0.5265 -0.3083
 6558SOL     OW31309   2.076   2.111   3.400 -0.1539  0.0651  0.2966
 6558SOL    HW131310   1.984   2.138   3.403  0.7564  3.3159 -1.0576
 6558SOL    HW231311   2.116   2.157   3.473  0.8429 -0.7763  0.2942
 6559SOL     OW31312   1.843   0.554   2.306 -0.4939 -0.2607  0.3965
 6559SOL    HW131313   1.814   0.477   2.257 -4.9488  1.8920 -0.3291
 6559SOL    HW231314   1.846   0.613   2.231 -1.3750 -1.5572 -0.6626
 6560SOL     OW31315   3.845   1.673   9.529  0.4895  0.0221 -0.9016
 6560SOL    HW131316   3.831   1.751   9.476  0.8576  0.4668 -0.3473
 6560SOL    HW231317   3.838   1.716   9.615  3.3252  2.3016 -1.8356
 6561SOL     OW31318   0.736   0.881   1.938  0.4065 -0.1186  0.7345
 6561SOL    HW131319   0.688   0.930   1.871  1.5192 -0.1122 -0.0625
 6561SOL    HW231320   0.673   0.809   1.944  2.3581 -1.7517  1.5442
 6562SOL     OW31321   1.644   1.551   9.456 -0.4191 -0.0002 -0.1914
 6562SOL    HW131322   1.675   1.640   9.473  0.1092 -0.6152  2.0913
 6562SOL    HW231323   1.579   1.564   9.387  0.4229  0.3506 -0.9140
 6563SOL     OW31324   4.221   3.591   6.602 -0.3465 -0.3001 -0.0978
 6563SOL    HW131325   4.288   3.591   6.533 -0.6734  3.7812 -0.4052
 6563SOL    HW231326   4.139   3.568   6.558 -0.2805 -2.1039  0.7259
 6564SOL     OW31327   0.481   2.612   4.286  0.6938  0.1973 -0.1335
 6564SOL    HW131328   0.445   2.655   4.364  0.7312 -0.2026  0.1050
 6564SOL    HW231329   0.424   2.646   4.217  0.3920 -0.2549 -0.1102
 6565SOL     OW31330   0.953   1.676   0.389 -0.1877  0.6652  0.1903
 6565SOL    HW131331   1.016   1.737   0.426  0.5756 -1.6026  2.5893
 6565SOL    HW231332   0.885   1.687   0.456  0.9103 -0.1465  1.4174
 6566SOL     OW31333   3.956   2.551   2.966  0.5105 -0.0851 -0.0256
 6566SOL    HW131334   3.956   2.645   2.984 -2.2128  0.0275 -0.6226
 6566SOL    HW231335   3.954   2.549   2.870  1.7106  1.5814 -0.0807
 6567SOL     OW31336   3.372   3.148   3.783 -0.0331  0.5453 -0.1851
 6567SOL    HW131337   3.417   3.206   3.844 -1.3060 -0.3072  1.5823
 6567SOL    HW231338   3.278   3.161   3.798 -0.0997 -0.7703  0.6011
 6568SOL     OW31339   2.667   3.811   5.139  0.2754 -0.1249 -0.6291
 6568SOL    HW131340   2.708   3.874   5.198  0.3030 -1.2137  0.5227
 6568SOL    HW231341   2.615   3.755   5.198  1.2861  0.3776  0.7298
 6569SOL     OW31342   1.016   1.775   3.573 -0.3292  0.0925  0.0634
 6569SOL    HW131343   1.085   1.832   3.607 -0.3909  0.6316 -0.7237
 6569SOL    HW231344   1.057   1.755   3.489 -0.1198 -0.5473  0.3131
 6570SOL     OW31345   0.443   4.101   7.778 -0.3861 -0.0192 -0.0638
 6570SOL    HW131346   0.501   4.170   7.748 -1.6782  0.7168 -0.8921
 6570SOL    HW231347   0.444   4.043   7.701 -0.8060  0.0188 -0.1001
 6571SOL     OW31348   2.329   3.530   5.383 -0.8764  0.4484 -0.0080
 6571SOL    HW131349   2.308   3.621   5.363 -0.7246  0.2844 -0.9106
 6571SOL    HW231350   2.291   3.483   5.309  0.5718  1.3745 -1.3527
 6572SOL     OW31351   3.014   2.704  14.773  0.0113 -0.1973  0.4660
 6572SOL    HW131352   2.950   2.634  14.762 -0.7568  0.1971  2.4003
 6572SOL    HW231353   2.990   2.748  14.691 -0.0585 -0.7592  0.1878
 6573SOL     OW31354   4.567   2.619   1.623  0.0436 -0.3040  0.3194
 6573SOL    HW131355   4.654   2.578   1.624  0.1686 -0.0640 -0.4642
 6573SOL    HW231356   4.587   2.696   1.570 -0.7015 -0.1671  0.2410
 6574SOL     OW31357   3.227   2.518   4.712  0.4452  0.3927 -0.4275
 6574SOL    HW131358   3.316   2.485   4.724 -0.1976 -0.4630  2.0460
 6574SOL    HW231359   3.173   2.440   4.699  0.7484  0.6056 -3.0015
 6575SOL     OW31360   1.009   2.785   5.077 -0.1648  0.1857 -0.2542
 6575SOL    HW131361   1.037   2.738   4.998  1.5638 -0.9827  1.0383
 6575SOL    HW231362   0.922   2.815   5.052 -0.9785 -0.2975  2.0384
 6576SOL     OW31363   0.904   4.002   5.138  0.0831  0.2301  0.0856
 6576SOL    HW131364   0.848   4.077   5.157  0.7232  0.7141  0.0597
 6576SOL    HW231365   0.891   3.995   5.043 -0.4799 -0.5243  0.2210
 6577SOL     OW31366   0.228   0.921   6.325  0.4165  0.3554  0.3140
 6577SOL    HW131367   0.174   0.988   6.282  2.1833  0.9683 -0.9364
 6577SOL    HW231368   0.168   0.847   6.331  1.5704 -0.5407  0.7121
 6578SOL     OW31369   0.771   1.978   5.268 -0.0235 -0.0427  0.2666
 6578SOL    HW131370   0.777   1.990   5.363 -0.5276  1.5426  0.0803
 6578SOL    HW231371   0.685   1.937   5.259 -1.1176  2.4474 -0.5532
 6579SOL     OW31372   0.300   0.747   8.581  0.6687 -0.0237  0.0671
 6579SOL    HW131373   0.360   0.815   8.614 -0.4161  0.7827  0.3856
 6579SOL    HW231374   0.220   0.773   8.627 -1.2594 -0.0292 -3.2576
 6580SOL     OW31375   0.745   1.469   4.820  0.0656  0.6612 -0.2893
 6580SOL    HW131376   0.651   1.471   4.803  0.2278  0.5762 -1.2175
 6580SOL    HW231377   0.774   1.549   4.775 -0.0526 -0.1919 -1.8663
 6581SOL     OW31378   1.592   4.240   2.538  0.9313  0.1426 -0.6796
 6581SOL    HW131379   1.510   4.255   2.584 -0.9709 -1.8237 -3.4292
 6581SOL    HW231380   1.574   4.168   2.477 -1.0761  0.0509  0.0375
 6582SOL     OW31381   0.033   3.096   3.139  0.0913  0.1655 -0.4227
 6582SOL    HW131382   0.076   3.030   3.084  1.5455 -0.0134  0.9110
 6582SOL    HW231383   0.027   3.037   3.214 -1.6970 -0.4550 -1.0645
 6583SOL     OW31384   0.068   4.561   2.603 -0.5762  0.0739  0.7317
 6583SOL    HW131385   0.015   4.552   2.524  3.3195  0.2130 -1.8738
 6583SOL    HW231386   0.140   4.502   2.582 -0.5380  0.2168  0.4589
 6584SOL     OW31387   3.130   2.433   7.985  0.1570  0.0322 -0.1477
 6584SOL    HW131388   3.066   2.454   8.054 -0.4899 -0.2956 -0.6491
 6584SOL    HW231389   3.216   2.445   8.025  0.2529  1.7615 -0.8421
 6585SOL     OW31390   3.095   2.777   6.502 -0.0333 -0.1474 -0.4888
 6585SOL    HW131391   3.039   2.841   6.457  0.7065  0.1110 -1.0575
 6585SOL    HW231392   3.045   2.697   6.488 -1.3839  0.5288  0.4926
 6586SOL     OW31393   1.260   0.135   7.424  0.3064  0.0204 -0.4162
 6586SOL    HW131394   1.190   0.189   7.387 -1.0530 -1.8417 -0.5652
 6586SOL    HW231395   1.215   0.111   7.505  0.2693  1.7811  0.0828
 6587SOL     OW31396   0.166   0.451   3.561 -0.2448 -0.6448  0.0546
 6587SOL    HW131397   0.213   0.408   3.632 -1.0359  0.6937  1.3630
 6587SOL    HW231398   0.074   0.445   3.586  0.0595 -0.6627  1.1583
 6588SOL     OW31399   3.005   3.214  14.698  0.2452 -0.1763  0.0779
 6588SOL    HW131400   3.079   3.220  14.638  1.7336 -1.4456  1.7819
 6588SOL    HW231401   3.046   3.155  14.760 -0.0834  0.5388  0.9782
 6589SOL     OW31402   3.590   3.559   7.721 -0.7360  0.5089 -0.0248
 6589SOL    HW131403   3.521   3.596   7.777 -3.1931 -0.0009 -2.7453
 6589SOL    HW231404   3.611   3.633   7.665 -3.4189  0.5070 -1.0523
 6590SOL     OW31405   4.164   4.478  16.685 -0.1013 -0.0517 -0.3784
 6590SOL    HW131406   4.087   4.429  16.712  0.0769 -0.8716 -1.3423
 6590SOL    HW231407   4.204   4.403  16.639 -0.6408 -0.3750 -0.3218
 6591SOL     OW31408   3.796   1.468   1.520 -0.1389 -0.4175  0.5747
 6591SOL    HW131409   3.738   1.414   1.466  0.7256 -1.9254  1.1443
 6591SOL    HW231410   3.751   1.551   1.528 -0.8231 -0.7477  0.1394
 6592SOL     OW31411   2.682   1.071  16.901 -0.3577  0.6385  0.6225
 6592SOL    HW131412   2.596   1.064  16.860  0.0884 -0.6859 -0.0930
 6592SOL    HW231413   2.672   1.025  16.984  1.6476 -1.5372 -0.3224
 6593SOL     OW31414   3.397   4.525  13.662  0.5455  0.5739 -0.0735
 6593SOL    HW131415   3.359   4.478  13.588 -1.0528  0.8289  0.5864
 6593SOL    HW231416   3.444   4.590  13.609 -0.2383  0.3701 -1.0161
 6594SOL     OW31417   4.191   0.612   2.069 -0.1875 -0.4013 -0.3121
 6594SOL    HW131418   4.225   0.672   2.135 -0.7638  1.7655 -1.9903
 6594SOL    HW231419   4.155   0.680   2.013  0.9971  0.2206 -0.2982
 6595SOL     OW31420   0.107   1.605  11.714  0.3485  0.1136 -0.0883
 6595SOL    HW131421   0.120   1.530  11.772 -0.3185 -0.6866 -0.9751
 6595SOL    HW231422   0.106   1.566  11.626  0.2742  0.8217 -0.3992
 6596SOL     OW31423   2.757   3.539  13.091 -0.2269 -0.1678 -0.8143
 6596SOL    HW131424   2.776   3.451  13.059 -0.3072 -0.1012 -1.0421
 6596SOL    HW231425   2.781   3.537  13.184 -0.9986  1.1667 -0.5872
 6597SOL     OW31426   2.395   0.317   5.116  0.4543  0.2732 -0.1090
 6597SOL    HW131427   2.315   0.311   5.063  1.6347 -0.1326 -1.8466
 6597SOL    HW231428   2.445   0.244   5.079 -0.9133 -0.8949  0.3486
 6598SOL     OW31429   0.066   2.599   7.079  0.2247 -0.0367  0.2910
 6598SOL    HW131430   0.099   2.676   7.033 -0.0236  1.0122  1.8690
 6598SOL    HW231431   0.042   2.636   7.164  0.1216 -3.6198  1.8154
 6599SOL     OW31432   3.556   1.503  17.125 -0.3288  0.0046 -0.3818
 6599SOL    HW131433   3.619   1.519  17.195 -1.4950  1.0309  0.4524
 6599SOL    HW231434   3.609   1.518  17.047  0.5665 -3.2274 -0.3844
 6600SOL     OW31435   3.418   1.535   8.843  0.0773  0.1561 -0.2101
 6600SOL    HW131436   3.481   1.543   8.914  1.1050 -3.9432 -0.6505
 6600SOL    HW231437   3.458   1.478   8.777  0.6344  1.1151 -0.7022
 6601SOL     OW31438   0.427   1.840  15.002 -0.1148 -0.2747 -0.0196
 6601SOL    HW131439   0.341   1.874  14.975  1.2669  1.5697 -2.1295
 6601SOL    HW231440   0.447   1.802  14.917 -1.2328  0.3784 -0.5895
 6602SOL     OW31441   1.743   1.312   6.586  0.4272  0.1577  0.3111
 6602SOL    HW131442   1.731   1.274   6.499  0.6466 -0.6197  0.6207
 6602SOL    HW231443   1.670   1.276   6.637 -0.2266 -0.9453 -1.3970
 6603SOL     OW31444   2.367   1.281   7.898  0.1748  0.5824 -0.5383
 6603SOL    HW131445   2.430   1.350   7.917  1.0663 -0.2070 -0.6284
 6603SOL    HW231446   2.361   1.235   7.981 -1.5216 -0.4936 -1.2406
 6604SOL     OW31447   0.043   3.067   4.782 -0.1767 -0.4531  0.4151
 6604SOL    HW131448   0.021   2.982   4.820 -0.6033 -0.4014  0.2741
 6604SOL    HW231449   0.136   3.070   4.806 -0.2811 -0.4207  0.8180
 6605SOL     OW31450   1.779   4.516  16.698 -0.5040 -0.3604 -0.0225
 6605SOL    HW131451   1.845   4.503  16.630 -0.5828 -0.4718 -0.0779
 6605SOL    HW231452   1.726   4.437  16.684 -2.0202  0.9813 -1.7981
 6606SOL     OW31453   3.860   3.110   3.948 -0.5817 -0.1879 -0.3420
 6606SOL    HW131454   3.937   3.074   3.904 -0.5182  0.1366 -0.4990
 6606SOL    HW231455   3.788   3.072   3.898 -2.7840  0.9920  1.9174
 6607SOL     OW31456   4.276   0.597  12.875 -0.4457  0.1810  0.0820
 6607SOL    HW131457   4.357   0.546  12.869 -0.3502  0.4087 -0.5511
 6607SOL    HW231458   4.293   0.673  12.819  1.3462  1.0836  1.8177
 6608SOL     OW31459   1.978   4.404   2.360 -0.5413 -0.2792 -0.0579
 6608SOL    HW131460   1.907   4.457   2.396 -2.1969 -1.3594 -1.7465
 6608SOL    HW231461   1.947   4.390   2.271  1.3245  0.4879 -0.8182
 6609SOL     OW31462   1.073   2.621   3.767  0.2781 -0.2317  0.2174
 6609SOL    HW131463   1.069   2.566   3.845  1.2266  0.6185  0.8654
 6609SOL    HW231464   1.027   2.700   3.794  3.4533  2.0757 -1.0223
 6610SOL     OW31465   0.579   4.079  10.374  0.0700  0.7454 -0.5682
 6610SOL    HW131466   0.656   4.028  10.350 -0.4452 -0.9577  1.4169
 6610SOL    HW231467   0.633   4.153  10.400  0.7750 -0.5908  1.8558
 6611SOL     OW31468   0.634   3.623  12.957 -0.4371  0.0430 -0.4593
 6611SOL    HW131469   0.649   3.699  12.901  1.9110  2.2333  3.1912
 6611SOL    HW231470   0.720   3.595  12.988 -0.2729  3.1626  1.8696
 6612SOL     OW31471   4.093   2.513   2.043 -0.2304  0.1695  0.2347
 6612SOL    HW131472   4.175   2.474   2.074 -0.2067 -0.0766 -0.1405
 6612SOL    HW231473   4.027   2.500   2.112  0.7820 -0.5173  1.0808
 6613SOL     OW31474   2.606   2.450   7.377  0.2526  0.3144  0.4914
 6613SOL    HW131475   2.661   2.460   7.454 -0.2181 -0.1037  0.8792
 6613SOL    HW231476   2.633   2.519   7.316 -0.6030 -0.6007 -0.9313
 6614SOL     OW31477   3.563   1.376   5.611 -0.7602  0.1475  0.1413
 6614SOL    HW131478   3.565   1.351   5.518 -0.0475 -2.0918  0.7652
 6614SOL    HW231479   3.480   1.425   5.613  1.3124  3.6973 -1.2811
 6615SOL     OW31480   3.621   4.227   2.489 -0.2466  0.4276  0.0430
 6615SOL    HW131481   3.688   4.294   2.498 -0.2038  0.1167  2.0514
 6615SOL    HW231482   3.664   4.154   2.534 -1.3020 -0.0303  0.3283
 6616SOL     OW31483   0.566   4.382  10.150  0.3329 -0.4583 -0.1653
 6616SOL    HW131484   0.648   4.400  10.196  0.0614  0.0019  0.1511
 6616SOL    HW231485   0.503   4.425  10.208  0.2839 -1.1105  0.2608
 6617SOL     OW31486   0.479   1.213   3.278  0.4030  0.7123 -0.4270
 6617SOL    HW131487   0.478   1.194   3.371 -0.3978  0.0210 -0.5738
 6617SOL    HW231488   0.413   1.281   3.266 -1.2581 -0.4304  2.2681
 6618SOL     OW31489   1.510   1.158  17.391 -0.0274 -0.4726  0.2699
 6618SOL    HW131490   1.509   1.063  17.406  2.9794 -0.3017  1.5601
 6618SOL    HW231491   1.603   1.171  17.371 -0.5122  2.4613 -0.0055
 6619SOL     OW31492   3.853   2.853  17.178  0.4019 -0.1016  0.2446
 6619SOL    HW131493   3.760   2.863  17.159  0.5999 -1.3175 -1.3588
 6619SOL    HW231494   3.882   2.933  17.135 -3.7808  0.2204 -1.9017
 6620SOL     OW31495   1.117   3.188  16.819 -0.1723 -0.0104  0.1678
 6620SOL    HW131496   1.094   3.274  16.855  1.6588 -0.2297  1.8234
 6620SOL    HW231497   1.050   3.165  16.754  0.1610 -2.1640  0.5952
 6621SOL     OW31498   3.496   1.668  13.727 -0.3887  0.2899  0.1583
 6621SOL    HW131499   3.574   1.614  13.718  1.6920  3.4455 -0.4998
 6621SOL    HW231500   3.434   1.599  13.702  0.3170  0.0696 -0.9928
 6622SOL     OW31501   2.043   0.203   1.706 -0.7825 -0.3020  0.1723
 6622SOL    HW131502   2.027   0.276   1.765 -2.8096 -2.7429  2.6405
 6622SOL    HW231503   2.132   0.209   1.671 -1.4657 -1.5096 -1.7729
 6623SOL     OW31504   0.401   0.036  10.571  0.0570  0.8785 -0.1325
 6623SOL    HW131505   0.491   0.016  10.544  0.2201  0.2300  0.9027
 6623SOL    HW231506   0.375   0.095  10.500  0.7830  0.7666 -0.4982
 6624SOL     OW31507   3.216   4.369   4.726  0.4937  0.5340 -0.0804
 6624SOL    HW131508   3.133   4.347   4.685  0.9842 -1.5563  0.0554
 6624SOL    HW231509   3.207   4.461   4.701  2.2031  0.8852  0.5237
 6625SOL     OW31510   4.410   4.451   9.505 -0.1359 -0.4739 -0.6561
 6625SOL    HW131511   4.473   4.474   9.573  0.8017 -0.0989 -1.6550
 6625SOL    HW231512   4.460   4.381   9.462 -0.1364 -2.4978  2.6117
 6626SOL     OW31513   0.367   3.189   1.781 -0.5542  0.3181 -0.2865
 6626SOL    HW131514   0.388   3.150   1.865 -1.8636 -1.7394 -0.9281
 6626SOL    HW231515   0.300   3.246   1.818  2.4871  2.2952  2.2286
 6627SOL     OW31516   2.112   0.871   2.682 -0.4412 -0.2940  0.4212
 6627SOL    HW131517   2.070   0.855   2.766  1.2225 -0.0787  1.3093
 6627SOL    HW231518   2.037   0.867   2.623 -0.1775 -2.4838  0.2295
 6628SOL     OW31519   0.436   2.587   2.750  0.2782  0.3523 -0.3542
 6628SOL    HW131520   0.401   2.641   2.821  1.9795  0.4325  0.4318
 6628SOL    HW231521   0.367   2.522   2.736 -0.7320  1.1117  1.0752
 6629SOL     OW31522   0.128   2.393   7.413  0.7147 -0.3874 -0.3690
 6629SOL    HW131523   0.213   2.425   7.382 -1.0737  1.7642 -3.0192
 6629SOL    HW231524   0.082   2.378   7.330 -1.1955 -0.1044  0.6318
 6630SOL     OW31525   3.145   2.311   5.381  0.2657  0.0308 -0.2333
 6630SOL    HW131526   3.096   2.296   5.462 -0.3218  0.1939 -0.5587
 6630SOL    HW231527   3.222   2.359   5.410  1.2381 -1.0142 -1.0538
 6631SOL     OW31528   2.745   0.285  10.069  0.5082 -0.4004  0.0997
 6631SOL    HW131529   2.832   0.255  10.093  0.0487 -1.7762  0.0405
 6631SOL    HW231530   2.727   0.351  10.136  4.1243  2.4631 -1.7341
 6632SOL     OW31531   2.871   4.053   4.077  0.4171 -0.1388  0.0131
 6632SOL    HW131532   2.789   4.098   4.057  1.6513  2.8687  1.7076
 6632SOL    HW231533   2.923   4.108   4.018 -1.7718  1.6840 -0.2264
 6633SOL     OW31534   2.532   1.136  11.474  0.0486 -0.3586  0.4442
 6633SOL    HW131535   2.444   1.150  11.440 -0.2122 -0.9092  0.8966
 6633SOL    HW231536   2.565   1.225  11.467 -0.0220 -0.1741  2.4693
 6634SOL     OW31537   2.471   4.697   4.496 -0.4510  0.0066 -0.6829
 6634SOL    HW131538   2.444   4.647   4.573  0.7833  0.5298  0.0855
 6634SOL    HW231539   2.388   0.008   4.500 -0.8121 -0.9935  3.5588
 6635SOL     OW31540   2.758   3.419   8.070 -0.2861 -0.1602 -0.4720
 6635SOL    HW131541   2.747   3.383   7.982 -0.1751 -0.5718 -0.3175
 6635SOL    HW231542   2.735   3.510   8.054  1.7331  1.1687  4.1678
 6636SOL     OW31543   2.089   0.440   5.794 -0.3501  0.2810  0.7805
 6636SOL    HW131544   2.144   0.433   5.715  0.5062 -1.8701  1.5579
 6636SOL    HW231545   2.006   0.427   5.749 -0.8105 -0.3782  1.8277
 6637SOL     OW31546   2.567   0.048   1.094  0.2087 -0.3295 -0.2909
 6637SOL    HW131547   2.602   0.094   1.018 -1.4426  0.3325 -0.6423
 6637SOL    HW231548   2.560   4.695   1.063  0.3088  0.0522 -1.3997
 6638SOL     OW31549   3.374   2.103   8.532 -0.4805 -0.5942 -0.3605
 6638SOL    HW131550   3.303   2.068   8.586  0.3790 -2.6743 -0.5641
 6638SOL    HW231551   3.402   2.173   8.591 -0.0022 -2.1081  1.2120
 6639SOL     OW31552   0.904   3.737   5.180  0.1206 -0.2578 -0.4092
 6639SOL    HW131553   0.912   3.832   5.168  0.4632 -0.3806 -1.1941
 6639SOL    HW231554   0.986   3.708   5.139 -1.0093 -2.3187 -1.2174
 6640SOL     OW31555   3.202   2.680  13.781 -0.2111  0.4863  0.1853
 6640SOL    HW131556   3.215   2.772  13.759 -1.4922  0.6648  0.1635
 6640SOL    HW231557   3.206   2.641  13.694  0.1066  1.8889 -0.4333
 6641SOL     OW31558   2.395   1.792   8.006 -0.1294  0.3840  0.1737
 6641SOL    HW131559   2.314   1.828   7.970  0.8492  0.6714 -1.7262
 6641SOL    HW231560   2.446   1.867   8.039 -0.2200 -0.5731  2.4884
 6642SOL     OW31561   2.716   1.276   3.724 -0.3324  0.3745 -0.7685
 6642SOL    HW131562   2.708   1.219   3.647 -1.0945 -1.5103  0.6983
 6642SOL    HW231563   2.725   1.210   3.792 -0.9209  1.1771  0.0893
 6643SOL     OW31564   1.382   0.208   2.678  0.0926  0.0821 -0.1369
 6643SOL    HW131565   1.476   0.214   2.692  0.0190 -1.1361  0.7970
 6643SOL    HW231566   1.372   0.255   2.595 -2.5425 -0.4611 -0.1303
 6644SOL     OW31567   3.898   0.693  10.343 -0.4995  0.5859  0.6195
 6644SOL    HW131568   3.865   0.776  10.307  0.7682  0.7342 -0.1826
 6644SOL    HW231569   3.955   0.657  10.276  0.6049  0.7907  1.4513
 6645SOL     OW31570   4.362   2.057   4.665 -0.5295 -0.3908 -0.1203
 6645SOL    HW131571   4.311   2.001   4.724 -1.6906  0.9073  0.1117
 6645SOL    HW231572   4.435   1.998   4.647 -0.3619  0.5014 -2.3621
 6646SOL     OW31573   1.015   0.936   6.345  0.0808 -0.7692  0.5643
 6646SOL    HW131574   0.998   0.848   6.379  0.9751  0.2229  3.5675
 6646SOL    HW231575   0.922   0.961   6.340 -0.7482 -3.9494  0.0629
 6647SOL     OW31576   0.376   3.575   6.201 -0.1030  0.4555 -0.6227
 6647SOL    HW131577   0.348   3.500   6.253  1.0549 -0.7331 -1.7324
 6647SOL    HW231578   0.367   3.642   6.269 -1.0131  0.5044 -0.7926
 6648SOL     OW31579   1.186   0.956   5.524  0.2213  0.1569  0.0707
 6648SOL    HW131580   1.227   0.872   5.505 -2.9339 -1.7915  2.0363
 6648SOL    HW231581   1.207   1.029   5.465 -1.3507 -0.1874 -0.8897
 6649SOL     OW31582   2.823   0.376   3.603 -0.2148  0.6746  0.0585
 6649SOL    HW131583   2.810   0.341   3.691 -0.6128  0.8920  0.0867
 6649SOL    HW231584   2.738   0.377   3.558 -0.4904  0.3955  0.5683
 6650SOL     OW31585   0.281   2.881   4.161  0.3379  0.3782 -0.2941
 6650SOL    HW131586   0.197   2.909   4.126  0.2975 -0.5905 -0.9592
 6650SOL    HW231587   0.278   2.938   4.238 -1.5528 -0.9713  0.6251
 6651SOL     OW31588   3.639   2.557   2.809 -0.2744 -0.0676 -0.5906
 6651SOL    HW131589   3.552   2.518   2.799 -0.0555 -0.8696  0.6668
 6651SOL    HW231590   3.616   2.625   2.872 -0.1524  0.8825 -1.5676
 6652SOL     OW31591   0.709   4.691  10.423 -0.2489 -0.0357 -0.2982
 6652SOL    HW131592   0.693   0.034  10.372 -1.4371 -2.2612 -3.4164
 6652SOL    HW231593   0.720   0.004  10.504 -0.8820  0.0623 -0.2732
 6653SOL     OW31594   2.421   1.298   6.920  0.0551  0.7083 -0.0525
 6653SOL    HW131595   2.363   1.288   6.845  1.1284 -1.8452 -0.5279
 6653SOL    HW231596   2.500   1.323   6.872  0.0297 -1.4580 -1.2123
 6654SOL     OW31597   2.580   1.568   5.244  0.5752  0.1434  0.0804
 6654SOL    HW131598   2.557   1.645   5.192 -4.4672 -0.7918  0.9000
 6654SOL    HW231599   2.488   1.553   5.267  0.9168 -0.6156  0.9403
 6655SOL     OW31600   3.354   2.122   6.517 -0.3357 -0.5529 -0.3018
 6655SOL    HW131601   3.391   2.148   6.432 -0.4338 -1.8521 -0.7407
 6655SOL    HW231602   3.382   2.030   6.514  3.5689  0.5891 -0.0497
 6656SOL     OW31603   0.750   1.777   1.263  0.5277  0.1535  0.2838
 6656SOL    HW131604   0.692   1.712   1.304 -1.2695  1.9418  0.5382
 6656SOL    HW231605   0.824   1.787   1.323 -0.4914 -0.7316  1.7068
 6657SOL     OW31606   2.115   2.362   1.701  0.0199  0.0813  1.1936
 6657SOL    HW131607   2.068   2.292   1.655  0.7339 -0.4228  1.2130
 6657SOL    HW231608   2.132   2.421   1.628 -0.2776  0.9071  1.8033
 6658SOL     OW31609   0.467   2.747  16.977  0.0849 -0.8218 -0.2438
 6658SOL    HW131610   0.385   2.722  17.021  0.9665 -2.2747  0.5760
 6658SOL    HW231611   0.490   2.821  17.032 -0.2965 -0.3889 -0.6661
 6659SOL     OW31612   1.135   3.624   5.050 -0.0345 -0.8351 -0.9562
 6659SOL    HW131613   1.223   3.656   5.073 -0.8268  0.2911  0.5043
 6659SOL    HW231614   1.119   3.560   5.119 -2.3377  0.3997 -0.3674
 6660SOL     OW31615   0.733   2.954   0.444 -0.0170 -0.1050 -0.0679
 6660SOL    HW131616   0.790   2.979   0.516 -1.3097 -0.6954  1.1635
 6660SOL    HW231617   0.647   2.987   0.471  0.3333  0.4632  0.3540
 6661SOL     OW31618   3.229   4.438   6.369  0.0480  0.0430 -0.3362
 6661SOL    HW131619   3.208   4.393   6.451 -0.7617  0.0081 -0.5602
 6661SOL    HW231620   3.325   4.438   6.366  0.0673  2.9200  0.3724
 6662SOL     OW31621   2.156   3.308   2.057 -0.1932  0.6391 -0.2604
 6662SOL    HW131622   2.107   3.254   2.118  0.9475 -0.4786 -0.3190
 6662SOL    HW231623   2.248   3.287   2.076 -0.6146 -1.2734 -0.3275
 6663SOL     OW31624   1.264   3.327   7.555 -0.3744 -0.4263  0.1385
 6663SOL    HW131625   1.232   3.416   7.569 -2.5868 -1.1489 -0.3505
 6663SOL    HW231626   1.211   3.273   7.613 -1.1738 -0.0481 -0.2385
 6664SOL     OW31627   1.828   0.835   0.343 -0.5280  0.3913 -0.0616
 6664SOL    HW131628   1.772   0.773   0.388  0.2805  0.3736  0.9300
 6664SOL    HW231629   1.771   0.912   0.350  0.6927  1.3053 -0.1112
 6665SOL     OW31630   1.982   1.231   6.263  0.0719  0.6499 -0.7073
 6665SOL    HW131631   1.952   1.151   6.218 -0.4852 -0.8745  2.3641
 6665SOL    HW231632   1.908   1.251   6.319 -0.4327 -1.6767 -0.5393
 6666SOL     OW31633   2.673   1.774  14.606 -0.0142 -0.1478  0.1742
 6666SOL    HW131634   2.613   1.783  14.532  0.2425  0.7276  0.0624
 6666SOL    HW231635   2.703   1.684  14.599 -1.8553 -0.8000  0.5968
 6667SOL     OW31636   2.493   4.278   0.614 -0.0272 -0.3356  0.2410
 6667SOL    HW131637   2.491   4.317   0.702  0.1725  1.3940 -0.5116
 6667SOL    HW231638   2.402   4.266   0.588  0.6067 -0.8654 -1.7106
 6668SOL     OW31639   0.517   2.338   4.815 -0.3189  0.2829 -0.4741
 6668SOL    HW131640   0.565   2.256   4.802  0.1906  0.4716  0.2038
 6668SOL    HW231641   0.537   2.358   4.906  2.1800 -0.0045 -0.9743
 6669SOL     OW31642   0.703   3.587   6.276  0.1305  0.4382 -0.1990
 6669SOL    HW131643   0.736   3.546   6.196  1.2364 -0.8162  0.9052
 6669SOL    HW231644   0.610   3.590   6.253 -0.0503 -2.1364  0.2343
 6670SOL     OW31645   1.276   0.688   2.366 -0.0893 -0.1902 -0.3591
 6670SOL    HW131646   1.253   0.609   2.416  0.7694 -0.0838  0.1948
 6670SOL    HW231647   1.355   0.673   2.314 -0.8882 -1.0380 -1.3425
 6671SOL     OW31648   1.298   2.477   7.670  0.0592  0.3717 -0.0502
 6671SOL    HW131649   1.385   2.497   7.707  0.9243 -0.1933 -1.8068
 6671SOL    HW231650   1.258   2.453   7.754 -1.0545 -1.0022 -0.9845
 6672SOL     OW31651   2.125   1.672   7.169 -0.0723  0.4025  0.1027
 6672SOL    HW131652   2.186   1.675   7.243  0.2148  1.1519 -0.1654
 6672SOL    HW231653   2.189   1.661   7.098  0.1923 -1.4431  0.6275
 6673SOL     OW31654   3.071   1.911   8.397  0.2203  0.1233  0.1741
 6673SOL    HW131655   3.095   1.983   8.455 -0.0980 -1.3075  2.0657
 6673SOL    HW231656   3.137   1.918   8.328 -1.6193  0.7855 -1.5103
 6674SOL     OW31657   0.024   0.822   2.484  0.0490  0.3933 -0.0043
 6674SOL    HW131658   0.064   0.889   2.539  1.3410  0.0128 -0.4924
 6674SOL    HW231659   0.039   0.856   2.396  0.6877 -2.6710 -1.0899
 6675SOL     OW31660   0.387   3.404   4.904 -0.0138  0.2426  0.0444
 6675SOL    HW131661   0.453   3.335   4.900  0.5324  0.8881 -2.0221
 6675SOL    HW231662   0.319   3.368   4.847 -0.4222  1.0112  0.0485
 6676SOL     OW31663   0.907   3.393   3.724 -0.0569 -0.0590  0.1358
 6676SOL    HW131664   0.884   3.350   3.807 -1.8125 -1.5059 -1.1290
 6676SOL    HW231665   0.968   3.331   3.684 -2.3591 -1.4282 -1.2245
 6677SOL     OW31666   4.321   1.821   9.250 -0.5633  0.2066 -0.0138
 6677SOL    HW131667   4.405   1.809   9.296 -0.9158 -1.4301  0.2188
 6677SOL    HW231668   4.347   1.899   9.202  2.1369 -0.7959 -0.1857
 6678SOL     OW31669   3.867   2.487  14.227  0.2703 -0.1205 -0.0094
 6678SOL    HW131670   3.893   2.574  14.259 -2.1716  0.5708  0.0807
 6678SOL    HW231671   3.771   2.491  14.227  0.2496 -0.4138 -1.8663
 6679SOL     OW31672   1.921   3.616   3.579 -0.0192  0.0436  0.0629
 6679SOL    HW131673   1.844   3.566   3.553 -1.0901  1.4125  0.5914
 6679SOL    HW231674   1.887   3.702   3.606 -1.4729 -0.8870  1.1693
 6680SOL     OW31675   0.993   1.983  13.276 -0.4093  0.0044 -0.0788
 6680SOL    HW131676   0.944   1.957  13.198 -1.9778  0.1319  0.8644
 6680SOL    HW231677   1.013   2.076  13.274 -0.2001 -0.0323  0.2587
 6681SOL     OW31678   3.912   1.060  11.951 -0.5108 -0.0484  0.0307
 6681SOL    HW131679   3.923   1.017  11.866  0.6699  0.5072 -0.0984
 6681SOL    HW231680   3.829   1.029  11.987 -0.5519 -0.2760 -0.2627
 6682SOL     OW31681   0.637   2.678   4.823 -0.1588  0.1159 -0.7124
 6682SOL    HW131682   0.579   2.662   4.897  0.1741  0.1445 -0.4455
 6682SOL    HW231683   0.667   2.587   4.817  0.7909  0.1698  2.9290
 6683SOL     OW31684   2.788   4.439   4.136  0.4153  0.5740 -0.8730
 6683SOL    HW131685   2.737   4.364   4.107 -0.3502  0.1961  1.4253
 6683SOL    HW231686   2.749   4.511   4.086 -1.7643 -0.6399 -0.8984
 6684SOL     OW31687   0.600   1.634   4.528  0.1113 -0.1446  0.5320
 6684SOL    HW131688   0.664   1.655   4.596 -0.2610  2.2756  0.1394
 6684SOL    HW231689   0.622   1.709   4.473  1.1789  0.3339  1.6042
 6685SOL     OW31690   3.912   2.963  11.953  0.2008 -0.0548 -0.0391
 6685SOL    HW131691   3.971   2.918  12.014  0.0096  0.1210  0.2716
 6685SOL    HW231692   3.858   2.893  11.917  1.8415 -1.1522 -0.3902
 6686SOL     OW31693   3.869   1.327  11.911  0.1530 -0.0861 -0.3941
 6686SOL    HW131694   3.866   1.232  11.926 -0.4636  0.1658  0.9743
 6686SOL    HW231695   3.833   1.374  11.986 -2.7007 -1.3817 -0.9519
 6687SOL     OW31696   4.630   0.938   7.099  0.5155  0.2613  0.5241
 6687SOL    HW131697   4.667   0.988   7.026 -1.1621  0.3868 -0.2231
 6687SOL    HW231698   4.643   0.847   7.070  1.5554  0.5538  0.0504
 6688SOL     OW31699   4.285   0.799   5.501 -0.3473  0.1072  0.5467
 6688SOL    HW131700   4.206   0.829   5.546 -1.0035  1.1225 -1.2612
 6688SOL    HW231701   4.303   0.716   5.544 -2.0271 -0.4111  0.2698
 6689SOL     OW31702   3.712   0.569   8.079 -0.8250  0.3513 -0.0982
 6689SOL    HW131703   3.792   0.518   8.068 -0.1373  1.0562  1.7023
 6689SOL    HW231704   3.676   0.532   8.160 -2.2281  0.0694 -0.8369
 6690SOL     OW31705   3.854   3.800  13.225 -0.2135  0.5850 -0.1572
 6690SOL    HW131706   3.889   3.798  13.136  2.9075  0.7558  1.0942
 6690SOL    HW231707   3.848   3.895  13.227 -0.0116  0.6086 -0.8484
 6691SOL     OW31708   0.434   4.682   5.701  0.0486 -0.3938  0.2832
 6691SOL    HW131709   0.415   4.590   5.718  0.9830 -0.7679 -0.6782
 6691SOL    HW231710   0.529   4.682   5.687  0.2445  0.2088  1.6069
 6692SOL     OW31711   4.114   0.271   3.493 -0.0988  0.0647  0.1354
 6692SOL    HW131712   4.059   0.304   3.422 -0.3867 -0.3167  0.1862
 6692SOL    HW231713   4.043   0.259   3.556  0.7672  1.0268  1.2992
 6693SOL     OW31714   2.873   3.499  13.323  0.1023 -0.2380 -0.2355
 6693SOL    HW131715   2.905   3.574  13.372  1.9177 -0.0290 -1.7299
 6693SOL    HW231716   2.845   3.441  13.394 -2.8218  1.2379 -0.1984
 6694SOL     OW31717   0.643   1.448  14.618  1.0187  0.3653 -0.2062
 6694SOL    HW131718   0.581   1.480  14.553 -1.7278 -3.9239  0.3312
 6694SOL    HW231719   0.587   1.438  14.695  0.0525 -0.7380 -1.0715
 6695SOL     OW31720   2.060   1.642   3.084 -0.0430  1.0238 -0.0749
 6695SOL    HW131721   1.971   1.669   3.062 -0.0452 -0.4533 -1.9306
 6695SOL    HW231722   2.073   1.565   3.029 -0.8240  0.8389  0.0013
 6696SOL     OW31723   3.194   4.339   5.760 -0.8658  0.0197 -0.3247
 6696SOL    HW131724   3.235   4.402   5.701  0.1903 -0.7205 -0.3948
 6696SOL    HW231725   3.101   4.357   5.748 -1.0423 -0.3551  0.4353
 6697SOL     OW31726   3.318   4.166   8.214 -0.2808  0.4107 -0.3685
 6697SOL    HW131727   3.279   4.204   8.293 -0.0680 -0.7295  0.2743
 6697SOL    HW231728   3.407   4.201   8.211 -0.0921 -0.1231 -0.9674
 6698SOL     OW31729   4.387   3.159   6.815  0.1342  0.3309 -0.0456
 6698SOL    HW131730   4.461   3.219   6.828  2.2272 -2.2926  0.2212
 6698SOL    HW231731   4.339   3.177   6.895 -0.9439 -1.2079 -0.3623
 6699SOL     OW31732   2.496   2.431  11.347 -0.0836 -0.9000 -0.5084
 6699SOL    HW131733   2.451   2.371  11.287 -1.2843 -0.2196 -0.2958
 6699SOL    HW231734   2.417   2.455  11.396  0.2987  0.9841 -0.8175
 6700SOL     OW31735   2.151   3.974   6.831 -0.0986  0.2955 -0.1406
 6700SOL    HW131736   2.070   4.020   6.806 -0.2086 -0.5127 -1.3001
 6700SOL    HW231737   2.195   4.039   6.886  2.8874 -1.7956 -0.1262
 6701SOL     OW31738   3.287   1.056   4.422  0.1148  0.1908 -0.6183
 6701SOL    HW131739   3.326   0.970   4.409  1.2134  0.1491  2.9161
 6701SOL    HW231740   3.242   1.046   4.506 -0.6631 -1.7144 -1.2597
 6702SOL     OW31741   1.930   3.887   6.628  1.1446 -0.4811  0.2449
 6702SOL    HW131742   1.950   3.874   6.721  0.5606 -0.9285  0.3036
 6702SOL    HW231743   1.954   3.980   6.624  2.0044 -0.6323  1.7991
 6703SOL     OW31744   0.878   3.239   1.567 -0.2804 -0.2219 -0.3597
 6703SOL    HW131745   0.967   3.213   1.543 -0.4185 -0.5850 -0.4796
 6703SOL    HW231746   0.869   3.327   1.530  2.7883  0.6605  0.9677
 6704SOL     OW31747   3.168   1.579   7.349  0.6728  0.1978 -0.1531
 6704SOL    HW131748   3.131   1.511   7.406  1.6323 -1.2329 -1.2260
 6704SOL    HW231749   3.259   1.574   7.379  0.7401 -4.1854 -1.0400
 6705SOL     OW31750   0.449   2.896   1.936 -0.2735  0.4340 -0.3012
 6705SOL    HW131751   0.459   2.841   2.014  1.1902  2.8483  1.2465
 6705SOL    HW231752   0.460   2.986   1.969 -0.0725 -0.4392  1.9847
 6706SOL     OW31753   0.284   4.086   7.102  0.4289 -0.1674 -0.5987
 6706SOL    HW131754   0.343   4.053   7.035 -0.4813  1.0691 -2.0050
 6706SOL    HW231755   0.321   4.174   7.103 -1.2169  0.5298 -0.8572
 6707SOL     OW31756   3.847   1.312   7.175 -0.1695 -0.2211  0.0403
 6707SOL    HW131757   3.914   1.304   7.243 -1.0991  1.1793  1.1249
 6707SOL    HW231758   3.897   1.362   7.110 -1.3474  0.2732 -0.4810
 6708SOL     OW31759   4.690   0.879   4.252 -0.1527  0.1134  0.3705
 6708SOL    HW131760   4.676   0.785   4.265 -0.1998 -0.0783 -1.0229
 6708SOL    HW231761   4.610   0.908   4.210  1.7644  2.5904 -1.5755
 6709SOL     OW31762   2.984   3.494   2.908  0.0750 -0.2308 -0.0030
 6709SOL    HW131763   2.971   3.514   3.001  0.3451 -1.1986  0.2470
 6709SOL    HW231764   3.051   3.558   2.884  0.2798 -1.0035 -1.4850
 6710SOL     OW31765   0.663   1.057  15.081 -0.2666  0.2034  0.0331
 6710SOL    HW131766   0.632   0.978  15.037  1.9486 -0.1191 -0.9479
 6710SOL    HW231767   0.741   1.016  15.119 -0.0645 -1.1413 -1.8175
 6711SOL     OW31768   4.127   2.807  10.513  0.1105 -0.0919 -0.3909
 6711SOL    HW131769   4.192   2.877  10.507 -1.4927  1.5471  1.4608
 6711SOL    HW231770   4.179   2.736  10.551  2.3984  1.4221 -0.6683
 6712SOL     OW31771   3.259   1.600  11.464  0.0704 -0.4119 -0.0627
 6712SOL    HW131772   3.344   1.557  11.458  1.0701  1.3945  1.1811
 6712SOL    HW231773   3.219   1.564  11.543  0.7478  1.3351  1.0942
 6713SOL     OW31774   0.627   3.294  16.088  0.2872 -0.7396 -0.5781
 6713SOL    HW131775   0.560   3.322  16.151  1.2402 -0.6737  0.4079
 6713SOL    HW231776   0.642   3.382  16.052  0.9908  0.0654  1.7190
 6714SOL     OW31777   2.202   4.008  10.422  0.7362  0.6261  0.2286
 6714SOL    HW131778   2.129   4.070  10.419 -0.3702 -0.7274 -0.9582
 6714SOL    HW231779   2.245   4.045  10.499  0.4769  2.3069 -0.4203
 6715SOL     OW31780   2.856   4.138   2.836  0.0646 -0.6498  0.2589
 6715SOL    HW131781   2.767   4.147   2.804  0.2500 -1.0493 -0.3740
 6715SOL    HW231782   2.899   4.223   2.827  0.3467 -0.8273 -0.1147
 6716SOL     OW31783   0.290   3.066  16.965 -0.0633  0.6398  0.0056
 6716SOL    HW131784   0.328   3.095  16.882  0.9603  0.8501  0.5459
 6716SOL    HW231785   0.203   3.104  16.953 -1.3022 -1.5045  2.2024
 6717SOL     OW31786   3.911   3.811   8.477  0.3203  0.1123  0.0310
 6717SOL    HW131787   3.917   3.809   8.572  2.5925 -0.4228 -0.1286
 6717SOL    HW231788   3.985   3.867   8.454 -1.6881  2.6913 -0.1019
 6718SOL     OW31789   3.704   3.277   7.181 -0.0109 -0.3908  0.0462
 6718SOL    HW131790   3.721   3.360   7.136  1.1938  1.0509  3.1920
 6718SOL    HW231791   3.656   3.236   7.109 -0.2314  0.5364 -0.3308
 6719SOL     OW31792   3.977   3.865   4.708 -0.0669 -0.3021  0.6739
 6719SOL    HW131793   3.982   3.955   4.739 -0.5050 -0.5950  1.5930
 6719SOL    HW231794   3.910   3.825   4.763 -2.4951 -0.3146 -2.2416
 6720SOL     OW31795   0.463   3.530   6.997 -0.7010 -0.2615  0.1731
 6720SOL    HW131796   0.437   3.470   6.927  0.0226 -0.1117 -0.2214
 6720SOL    HW231797   0.459   3.472   7.072  1.5580 -2.2019 -1.1988
 6721SOL     OW31798   3.273   4.208   6.172 -0.3544  0.8992 -0.5661
 6721SOL    HW131799   3.358   4.190   6.213 -0.4675  0.5428 -0.4909
 6721SOL    HW231800   3.234   4.278   6.225 -0.2406  1.4010 -1.1396
 6722SOL     OW31801   4.611   1.878   1.616  0.2619 -0.2647 -0.3660
 6722SOL    HW131802   4.562   1.813   1.666 -1.0472  0.8952 -0.1277
 6722SOL    HW231803   4.699   1.880   1.656  0.7631  1.0446 -1.5517
 6723SOL     OW31804   0.301   3.560   3.595 -0.4347  0.3185  0.2405
 6723SOL    HW131805   0.368   3.547   3.662  0.5387  0.7442 -0.6403
 6723SOL    HW231806   0.263   3.640   3.631  2.1810  0.3811  2.8497
 6724SOL     OW31807   3.679   1.673   7.959  0.1177 -0.1239 -0.2242
 6724SOL    HW131808   3.658   1.685   8.051 -0.7180  0.4506 -0.4829
 6724SOL    HW231809   3.623   1.599   7.934  0.2541  0.0051 -0.9186
 6725SOL     OW31810   3.096   3.262   7.325 -0.3362  0.1539 -0.1478
 6725SOL    HW131811   3.144   3.179   7.327 -1.2223 -0.3349  1.2349
 6725SOL    HW231812   3.087   3.283   7.418 -0.1204 -0.2927 -0.0282
 6726SOL     OW31813   2.856   1.024   8.479 -0.3993 -0.0652 -0.3014
 6726SOL    HW131814   2.830   1.096   8.536 -1.9897 -0.5892 -0.3600
 6726SOL    HW231815   2.945   1.054   8.466 -0.9000  1.9221  0.8893
 6727SOL     OW31816   2.573   3.282   5.119 -0.3517 -0.3638  0.7091
 6727SOL    HW131817   2.647   3.221   5.118 -0.2743 -0.2443 -1.6178
 6727SOL    HW231818   2.566   3.321   5.032 -1.0478  2.3218  1.9782
 6728SOL     OW31819   3.388   0.145   6.089  0.3185  0.3487 -0.1523
 6728SOL    HW131820   3.446   0.215   6.118 -0.6178  0.0774  2.3850
 6728SOL    HW231821   3.445   0.075   6.120  1.0741  2.3629  3.0189
 6729SOL     OW31822   3.749   2.235  10.949  0.0159  0.2574 -0.9684
 6729SOL    HW131823   3.754   2.149  10.907 -2.4259 -0.0202 -0.6873
 6729SOL    HW231824   3.696   2.222  11.027 -0.0500  0.2926 -1.0067
 6730SOL     OW31825   4.613   2.917   5.588 -0.2674 -0.5257 -0.2637
 6730SOL    HW131826   4.534   2.879   5.549  0.5092 -2.7683  0.3385
 6730SOL    HW231827   4.667   2.840   5.573  0.2232 -0.1889 -0.2208
 6731SOL     OW31828   3.538   0.074   6.410  0.7955 -0.1984 -0.2450
 6731SOL    HW131829   3.446   0.055   6.424  0.0772  1.9178 -2.0400
 6731SOL    HW231830   3.533   0.157   6.362 -2.6442 -0.3316 -0.0771
 6732SOL     OW31831   0.725   4.359   5.862 -0.3682  0.3293  0.4908
 6732SOL    HW131832   0.689   4.445   5.844  1.2652  0.9931  0.3582
 6732SOL    HW231833   0.708   4.315   5.778 -1.1621 -0.0676  0.8612
 6733SOL     OW31834   0.568   0.727   6.620 -0.1977 -0.0454 -0.2138
 6733SOL    HW131835   0.545   0.679   6.540  0.9581  1.2989 -1.3766
 6733SOL    HW231836   0.514   0.691   6.689  1.2317 -2.1403 -0.1930
 6734SOL     OW31837   1.279   0.788   0.509 -0.1360  0.0235 -0.2106
 6734SOL    HW131838   1.244   0.750   0.589  1.0896 -0.3079  0.1690
 6734SOL    HW231839   1.201   0.829   0.471  1.0707  1.0966 -1.5130
 6735SOL     OW31840   4.157   0.364   2.689 -0.3769  0.2278 -0.3480
 6735SOL    HW131841   4.103   0.350   2.768  0.2171  0.0438  0.0222
 6735SOL    HW231842   4.233   0.397   2.736 -1.2758  0.0072  1.2874
 6736SOL     OW31843   3.278   2.625   3.902 -0.5909 -0.4030  0.3554
 6736SOL    HW131844   3.337   2.551   3.886  0.4224  0.6893 -0.9413
 6736SOL    HW231845   3.267   2.620   3.997 -0.6934  1.9909  0.4685
 6737SOL     OW31846   3.529   2.356   9.368 -0.4995  0.0114  0.7232
 6737SOL    HW131847   3.537   2.334   9.461 -1.2470 -1.5413  0.4241
 6737SOL    HW231848   3.523   2.269   9.329 -1.3398  0.8248 -0.9619
 6738SOL     OW31849   2.756   3.020   8.234 -0.2859 -0.1028 -0.2083
 6738SOL    HW131850   2.700   3.089   8.270  0.4440  0.3592  0.0429
 6738SOL    HW231851   2.794   2.986   8.315 -1.6480  1.6031  1.1517
 6739SOL     OW31852   4.175   1.024   5.865  0.2219 -0.1632 -0.7653
 6739SOL    HW131853   4.163   1.039   5.959  1.0254 -3.8987 -0.0967
 6739SOL    HW231854   4.146   0.934   5.852 -0.8751  0.0612  0.0679
 6740SOL     OW31855   2.879   0.162  17.108 -0.2328  0.5391 -0.4421
 6740SOL    HW131856   2.888   0.248  17.066  2.7902  0.5150  0.1629
 6740SOL    HW231857   2.912   0.193  17.192  1.6488 -0.7283 -0.7165
 6741SOL     OW31858   0.762   2.756   5.392  0.3004 -0.3052  0.2638
 6741SOL    HW131859   0.750   2.661   5.393  1.1578 -0.4160 -2.1978
 6741SOL    HW231860   0.689   2.768   5.453 -0.5945 -2.4498 -0.3916
 6742SOL     OW31861   0.909   0.946  15.154 -0.3190 -0.8946  0.2986
 6742SOL    HW131862   0.938   0.862  15.118 -1.1307  0.1735 -2.9167
 6742SOL    HW231863   0.968   1.006  15.109 -1.6653 -1.3907 -2.1556
 6743SOL     OW31864   2.605   4.538   6.730  0.2275 -0.0180 -0.3008
 6743SOL    HW131865   2.618   4.444   6.719 -2.1887 -0.4280  0.3862
 6743SOL    HW231866   2.532   4.540   6.792 -0.3901 -0.9576 -0.9840
 6744SOL     OW31867   1.847   1.763   8.272  0.0135 -0.7038 -0.7828
 6744SOL    HW131868   1.871   1.675   8.243 -1.1952 -0.7229 -1.7280
 6744SOL    HW231869   1.775   1.752   8.334 -0.2715  4.3611 -0.2604
 6745SOL     OW31870   3.542   3.534   3.173  0.0479 -0.4742  0.4309
 6745SOL    HW131871   3.513   3.487   3.251 -1.8524  0.2277  0.1485
 6745SOL    HW231872   3.467   3.586   3.144  0.1661 -2.5206 -3.4780
 6746SOL     OW31873   1.200   0.290   5.139  0.3700 -0.2044 -0.2451
 6746SOL    HW131874   1.125   0.235   5.119 -1.2018  1.2647  1.6893
 6746SOL    HW231875   1.199   0.289   5.234 -1.6993 -0.0595 -0.2695
 6747SOL     OW31876   2.889   1.488  15.272  0.5690 -0.2311 -0.3608
 6747SOL    HW131877   2.880   1.469  15.179 -0.1830  0.8740 -0.5141
 6747SOL    HW231878   2.835   1.567  15.283 -0.1551 -0.1939 -4.1684
 6748SOL     OW31879   1.244   3.058  10.915  0.2594 -0.6591  0.0248
 6748SOL    HW131880   1.268   3.029  11.002 -1.4169 -0.0830  0.6763
 6748SOL    HW231881   1.193   3.137  10.930 -0.8624 -1.3125 -0.3384
 6749SOL     OW31882   2.791   1.111   4.330 -0.0024  0.4456  0.2946
 6749SOL    HW131883   2.853   1.174   4.294  1.2086  1.9089  5.0138
 6749SOL    HW231884   2.790   1.138   4.422  1.7229 -0.9108  0.7106
 6750SOL     OW31885   3.183   3.921   2.433 -0.2214  0.2472 -0.2903
 6750SOL    HW131886   3.158   3.982   2.503 -0.8777 -0.4507  0.0875
 6750SOL    HW231887   3.123   3.946   2.363 -0.3822 -2.1588 -1.0328
 6751SOL     OW31888   0.424   2.809  14.242  0.8838 -0.6828  0.1149
 6751SOL    HW131889   0.333   2.813  14.269  0.9077 -1.1956  0.2630
 6751SOL    HW231890   0.450   2.737  14.298  0.7953 -0.5021  0.3854
 6752SOL     OW31891   3.213   2.732   8.286  0.5322 -0.4017 -1.0510
 6752SOL    HW131892   3.227   2.726   8.192 -0.8123  1.0042 -1.3395
 6752SOL    HW231893   3.233   2.825   8.295 -1.2018 -0.1760  0.3715
 6753SOL     OW31894   3.410   3.631   7.369 -0.2644 -0.2613  0.3733
 6753SOL    HW131895   3.485   3.592   7.416 -0.5524 -0.8687  0.3330
 6753SOL    HW231896   3.410   3.718   7.407  1.2042 -0.0341 -0.1308
 6754SOL     OW31897   2.554   0.758  10.530  0.2177 -0.0932 -0.1862
 6754SOL    HW131898   2.625   0.820  10.515 -1.4113  1.4844 -1.5082
 6754SOL    HW231899   2.483   0.777  10.467  0.4700  1.5004 -0.0037
 6755SOL     OW31900   3.555   0.987   0.510 -0.0187  0.1576  0.2436
 6755SOL    HW131901   3.636   1.020   0.472 -0.4006 -1.6279 -2.1284
 6755SOL    HW231902   3.582   0.991   0.602  0.1678 -2.3655  0.3003
 6756SOL     OW31903   1.746   0.027   8.275 -0.3799 -0.2092 -0.4092
 6756SOL    HW131904   1.673   0.043   8.214 -0.4582 -1.1908 -0.5665
 6756SOL    HW231905   1.820   0.056   8.221  0.2178 -0.1776  0.4266
 6757SOL     OW31906   4.048   0.559   1.096  0.6877 -0.0412  0.5287
 6757SOL    HW131907   4.082   0.636   1.141  0.8653  0.1017  0.1481
 6757SOL    HW231908   4.037   0.496   1.167 -0.2324 -0.9739 -0.4448
 6758SOL     OW31909   1.226   1.999   3.538  0.4862 -0.5795  0.4617
 6758SOL    HW131910   1.174   2.064   3.585 -1.7241 -1.3184 -0.9689
 6758SOL    HW231911   1.300   1.978   3.595  1.4882  0.2577 -0.5289
 6759SOL     OW31912   2.070   3.976  15.349  0.3932 -0.4641 -0.0539
 6759SOL    HW131913   2.029   4.042  15.291  0.9463 -0.7837 -0.8079
 6759SOL    HW231914   2.136   3.935  15.293  0.1806 -0.8774 -0.0016
 6760SOL     OW31915   0.230   3.945  10.798 -1.1893 -0.5539 -0.1094
 6760SOL    HW131916   0.164   4.013  10.785 -1.0086 -0.3568  0.0171
 6760SOL    HW231917   0.224   3.894  10.717 -0.4625 -1.1904  0.2339
 6761SOL     OW31918   0.193   4.199   2.526  0.1936 -1.3230 -0.2393
 6761SOL    HW131919   0.165   4.148   2.450 -1.9681  0.2111 -0.4750
 6761SOL    HW231920   0.141   4.154   2.591 -0.8601  0.8281  0.4225
 6762SOL     OW31921   0.154   1.858   6.614 -0.0953 -0.0026 -0.2499
 6762SOL    HW131922   0.222   1.883   6.677  0.7870  1.3724 -1.7690
 6762SOL    HW231923   0.195   1.802   6.548  1.6164  1.3913 -0.3730
 6763SOL     OW31924   2.265   0.316  11.231  0.3394 -0.0866  0.3855
 6763SOL    HW131925   2.173   0.338  11.218  0.2789  0.0614  1.0888
 6763SOL    HW231926   2.280   0.383  11.164  1.1978 -0.0994  0.5635
 6764SOL     OW31927   2.638   3.755  11.590  0.2943  0.4454 -0.5669
 6764SOL    HW131928   2.576   3.790  11.526  0.2930  0.6468 -0.4552
 6764SOL    HW231929   2.628   3.818  11.661 -0.3799 -0.7633  0.4098
 6765SOL     OW31930   2.417   2.938   0.394 -0.5267  0.4394 -0.0009
 6765SOL    HW131931   2.333   2.954   0.436 -0.6559 -1.8743  0.6210
 6765SOL    HW231932   2.430   3.024   0.353  1.8630  0.4859  0.8572
 6766SOL     OW31933   2.481   2.021   3.323  0.1764  0.5815  0.4317
 6766SOL    HW131934   2.488   1.929   3.300 -1.9150  0.9536 -1.6637
 6766SOL    HW231935   2.486   2.068   3.240  0.7153  0.6087  0.4818
 6767SOL     OW31936   4.031   3.225   1.601  0.6201 -0.0435  0.2158
 6767SOL    HW131937   3.994   3.209   1.515  2.4387  1.9760 -0.9427
 6767SOL    HW231938   4.054   3.133   1.618 -0.5721 -0.1646  1.1612
 6768SOL     OW31939   3.076   0.805   4.165  0.6579  0.3818 -0.7697
 6768SOL    HW131940   3.075   0.735   4.099 -1.3329 -0.8247  0.5395
 6768SOL    HW231941   3.133   0.865   4.116  0.3147  0.4915 -1.0418
 6769SOL     OW31942   2.844   2.313   1.170  0.3515 -0.0156  0.3170
 6769SOL    HW131943   2.775   2.376   1.151  1.8649  1.2964 -0.8381
 6769SOL    HW231944   2.787   2.266   1.231 -0.5865 -1.0321 -1.3476
 6770SOL     OW31945   2.957   2.049  10.335 -0.4011  0.5430  0.3907
 6770SOL    HW131946   2.973   2.051  10.429 -1.6604 -2.0627  0.6711
 6770SOL    HW231947   2.872   2.006  10.321  1.8628 -3.6697 -0.5899
 6771SOL     OW31948   1.567   3.690   5.027 -0.3634  0.1733  0.0713
 6771SOL    HW131949   1.508   3.669   4.954 -0.8761  0.0184  0.5307
 6771SOL    HW231950   1.507   3.683   5.101 -0.5792 -0.9907 -0.2079
 6772SOL     OW31951   2.063   4.644   1.407  0.6549 -0.6773 -0.0902
 6772SOL    HW131952   2.099   4.711   1.349 -2.1992 -0.1332 -1.2635
 6772SOL    HW231953   2.022   4.575   1.355 -1.7127 -0.4449  1.4630
 6773SOL     OW31954   0.480   2.313   7.495  0.2018 -0.1848  0.6424
 6773SOL    HW131955   0.456   2.398   7.458  0.0193  0.5296  2.3724
 6773SOL    HW231956   0.482   2.257   7.418 -0.6015  0.3121  0.2499
 6774SOL     OW31957   3.065   3.247   7.700  0.0069 -0.3919 -0.1442
 6774SOL    HW131958   3.064   3.230   7.605  0.9320 -1.1913 -0.0044
 6774SOL    HW231959   3.097   3.336   7.686 -2.9377  0.5309 -1.1760
 6775SOL     OW31960   2.713   3.899   7.933 -0.1127 -0.1419  0.0043
 6775SOL    HW131961   2.663   3.858   7.863 -0.2487  2.9989 -1.7764
 6775SOL    HW231962   2.760   3.962   7.878 -2.0787 -0.6672 -2.2896
 6776SOL     OW31963   1.949   3.577   5.010  0.4891 -0.1236 -0.0346
 6776SOL    HW131964   1.917   3.569   5.100 -2.6091 -1.2440 -1.2330
 6776SOL    HW231965   2.018   3.637   5.039  1.7266 -1.9548  0.8413
 6777SOL     OW31966   3.536   0.315   7.684  0.2705 -0.4450 -0.1975
 6777SOL    HW131967   3.455   0.297   7.733 -1.0497  2.8735 -1.1733
 6777SOL    HW231968   3.532   0.235   7.632 -2.0123 -0.9193  0.6981
 6778SOL     OW31969   2.467   0.776   5.745  0.4672  0.2398 -0.1318
 6778SOL    HW131970   2.503   0.695   5.708 -0.1164  0.3073 -0.8400
 6778SOL    HW231971   2.384   0.765   5.697 -0.3750 -0.8176  1.5534
 6779SOL     OW31972   3.793   3.476   3.105 -0.6636  0.0706 -0.7214
 6779SOL    HW131973   3.812   3.491   3.197 -2.3292  1.9474 -0.6745
 6779SOL    HW231974   3.697   3.485   3.108 -0.4952  1.6552  0.1900
 6780SOL     OW31975   0.205   0.395   0.413 -0.0695  0.3809  0.1269
 6780SOL    HW131976   0.235   0.426   0.328 -0.6300  1.1100  0.1954
 6780SOL    HW231977   0.265   0.325   0.440  1.1830  1.3061 -0.2213
 6781SOL     OW31978   1.144   3.385   4.420  0.3838 -0.0537 -0.1370
 6781SOL    HW131979   1.165   3.442   4.345  0.2768  1.6372  1.1148
 6781SOL    HW231980   1.170   3.299   4.389  1.5044  0.2404 -0.0264
 6782SOL     OW31981   1.942   2.713   2.429 -0.0323 -0.9342  1.2999
 6782SOL    HW131982   1.908   2.668   2.351 -1.5956  0.2590  1.2753
 6782SOL    HW231983   1.881   2.787   2.432 -1.1869 -1.8050 -0.5217
 6783SOL     OW31984   4.413   1.719   1.771 -0.6744  0.1680  0.1256
 6783SOL    HW131985   4.441   1.635   1.808 -3.9612 -0.6989  0.5754
 6783SOL    HW231986   4.324   1.707   1.740  0.0833 -2.6821 -0.9112
 6784SOL     OW31987   0.658   0.780   4.698 -0.3566 -0.6232 -0.1473
 6784SOL    HW131988   0.728   0.767   4.634 -1.5669  1.0044 -1.8334
 6784SOL    HW231989   0.584   0.781   4.636 -1.6010 -0.3777  1.3438
 6785SOL     OW31990   0.193   2.834   7.429 -0.3840 -0.3784 -0.3004
 6785SOL    HW131991   0.137   2.771   7.383 -0.5937 -1.4276  1.4001
 6785SOL    HW231992   0.238   2.782   7.496 -1.9973 -0.6779  0.5337
 6786SOL     OW31993   0.891   2.762  17.105  0.0284  0.5945 -0.4059
 6786SOL    HW131994   0.943   2.796  17.032 -0.1758 -0.9170 -1.2567
 6786SOL    HW231995   0.887   2.840  17.161  0.2115 -1.0531  1.8911
 6787SOL     OW31996   0.720   1.012  12.609 -0.8322 -0.1928 -0.4900
 6787SOL    HW131997   0.766   0.936  12.644 -2.0114 -1.8308 -2.5656
 6787SOL    HW231998   0.680   1.035  12.693  2.7365 -0.6882  1.3412
 6788SOL     OW31999   1.852   3.977   1.765  0.7115 -0.3399  0.3703
 6788SOL    HW132000   1.794   3.957   1.692 -2.1581 -1.5078  2.9743
 6788SOL    HW232001   1.938   3.976   1.724  0.5780 -1.8953  0.1500
 6789SOL     OW32002   0.545   0.653   9.616 -0.0899 -0.1437  0.2748
 6789SOL    HW132003   0.588   0.592   9.675  0.6686 -0.5456 -0.6927
 6789SOL    HW232004   0.615   0.671   9.553  1.2554 -0.3222  1.7048
 6790SOL     OW32005   0.854   0.707   6.692  0.2301  0.0614  0.2351
 6790SOL    HW132006   0.767   0.742   6.671 -1.1955 -3.0148  0.9890
 6790SOL    HW232007   0.884   0.689   6.603  3.5113 -0.0119  1.3627
 6791SOL     OW32008   3.895   3.592  16.730 -0.1590  0.3686 -0.3917
 6791SOL    HW132009   3.946   3.614  16.652  1.9083  1.5099  1.3009
 6791SOL    HW232010   3.850   3.516  16.694 -0.6600  0.4463  0.0698
 6792SOL     OW32011   3.693   0.095  12.325  0.4229  0.6066 -0.2967
 6792SOL    HW132012   3.726   0.015  12.366  0.1263 -0.2152 -1.6599
 6792SOL    HW232013   3.675   0.058  12.239 -0.1733 -0.0763  0.1206
 6793SOL     OW32014   0.849   2.298  16.256  0.0977 -0.0063  0.3770
 6793SOL    HW132015   0.859   2.298  16.161  0.0110 -0.6978  0.3687
 6793SOL    HW232016   0.754   2.307  16.269  0.0676 -1.4770  1.1066
 6794SOL     OW32017   2.780   2.530   9.629  0.2353  0.6976  0.0911
 6794SOL    HW132018   2.743   2.581   9.557  0.2898  2.3911  1.2787
 6794SOL    HW232019   2.829   2.587   9.688 -0.2805  0.2994  0.8921
 6795SOL     OW32020   3.433   0.826   2.669 -0.3052 -0.4856 -0.1034
 6795SOL    HW132021   3.363   0.889   2.655  2.4334  2.6627  0.4141
 6795SOL    HW232022   3.477   0.852   2.750 -0.6174 -3.0114  0.8922
 6796SOL     OW32023   2.300   1.915   1.578  0.3991 -0.4424  0.6980
 6796SOL    HW132024   2.396   1.914   1.583  0.4295  0.5712  0.3165
 6796SOL    HW232025   2.290   2.010   1.583  0.2967 -0.3467 -1.5315
 6797SOL     OW32026   4.467   0.142   9.617  0.3604 -0.3515 -0.7031
 6797SOL    HW132027   4.453   0.093   9.698 -0.6897  0.4256 -0.4263
 6797SOL    HW232028   4.383   0.186   9.611 -0.1756 -0.9916  1.9447
 6798SOL     OW32029   3.843   4.289   7.774 -0.4161  0.8976  0.5563
 6798SOL    HW132030   3.780   4.218   7.772  1.6238 -0.8313 -2.0749
 6798SOL    HW232031   3.897   4.279   7.853  1.6930  0.7410 -0.8999
 6799SOL     OW32032   0.870   1.294   4.453 -0.1257  0.7051  0.4978
 6799SOL    HW132033   0.940   1.360   4.457  0.4237  0.1865 -0.5366
 6799SOL    HW232034   0.839   1.291   4.544  3.1170  0.1470  1.5741
 6800SOL     OW32035   2.582   0.927   2.089  0.0519 -0.0138  0.1176
 6800SOL    HW132036   2.569   0.971   2.005 -2.1265 -1.0426 -0.0881
 6800SOL    HW232037   2.509   0.865   2.088  0.6332 -0.6761 -1.5364
 6801SOL     OW32038   4.156   1.905   4.793  0.2536  0.1176 -0.0172
 6801SOL    HW132039   4.162   1.964   4.868 -1.3762 -1.0538  1.0495
 6801SOL    HW232040   4.156   1.825   4.846 -0.8114 -0.7359 -1.3100
 6802SOL     OW32041   0.444   2.535   8.926 -0.2372  0.4241  0.4026
 6802SOL    HW132042   0.528   2.490   8.933  0.1151  0.8444 -1.0235
 6802SOL    HW232043   0.409   2.507   8.841 -0.6254  1.7252  0.1214
 6803SOL     OW32044   2.228   1.842  10.696  0.8176  0.0343 -0.1823
 6803SOL    HW132045   2.282   1.917  10.721 -0.9063  1.1927  0.0202
 6803SOL    HW232046   2.154   1.843  10.756  0.2758 -0.1885 -0.8426
 6804SOL     OW32047   3.505   4.436  10.054 -0.2345  0.4804  0.4973
 6804SOL    HW132048   3.427   4.394  10.090  0.7730 -1.3619  0.5247
 6804SOL    HW232049   3.463   4.503  10.001 -0.2938  0.0552  0.0105
 6805SOL     OW32050   2.186   0.340   4.535 -0.1427 -0.4089 -0.1533
 6805SOL    HW132051   2.175   0.381   4.449 -0.5717  1.7332  0.9106
 6805SOL    HW232052   2.267   0.371   4.575 -1.9063  3.2648  0.6178
 6806SOL     OW32053   3.888   4.302   4.645 -0.3614  0.1526 -0.0236
 6806SOL    HW132054   3.805   4.340   4.615 -0.5546  0.5809  1.0711
 6806SOL    HW232055   3.951   4.330   4.578 -1.4136  1.2807 -0.5608
 6807SOL     OW32056   4.500   2.845   7.324  0.0199  0.2378 -0.4318
 6807SOL    HW132057   4.539   2.932   7.310 -0.7603  0.4940 -1.0132
 6807SOL    HW232058   4.475   2.825   7.234  2.2892 -1.2582 -0.7377
 6808SOL     OW32059   2.947   0.745   4.946  0.3714 -0.1390  0.4521
 6808SOL    HW132060   2.973   0.833   4.973  2.5179  0.3195 -3.0668
 6808SOL    HW232061   2.984   0.689   5.014 -0.7238 -0.2086  0.9855
 6809SOL     OW32062   2.750   1.082   6.492 -0.1429  0.0367  0.5186
 6809SOL    HW132063   2.792   1.093   6.407 -1.9517 -2.3509 -0.7113
 6809SOL    HW232064   2.762   0.988   6.504  0.7771  0.0195 -0.4870
 6810SOL     OW32065   2.849   2.072  14.372 -0.1801 -0.6625 -0.1638
 6810SOL    HW132066   2.928   2.098  14.420 -1.2600 -1.0518  1.7945
 6810SOL    HW232067   2.853   2.115  14.286  0.8271  0.0466  0.2311
 6811SOL     OW32068   0.872   1.765   3.830  0.4436 -0.1423  0.4865
 6811SOL    HW132069   0.854   1.849   3.871 -2.0968 -1.5488  2.1922
 6811SOL    HW232070   0.959   1.777   3.791 -0.5402  1.2543 -1.3483
 6812SOL     OW32071   0.351   4.310   9.475 -0.1727 -0.3423  0.3547
 6812SOL    HW132072   0.414   4.243   9.449 -0.1200 -0.3486  0.4966
 6812SOL    HW232073   0.285   4.302   9.407 -0.4628  0.7389  0.4988
 6813SOL     OW32074   1.508   3.244   4.858  0.0588 -0.1260 -0.2110
 6813SOL    HW132075   1.596   3.208   4.849 -0.1625 -1.3554  2.7040
 6813SOL    HW232076   1.506   3.253   4.953 -0.5600  1.7690 -0.3974
 6814SOL     OW32077   3.236   1.812   8.121  0.3413  0.1965  0.4490
 6814SOL    HW132078   3.194   1.824   8.036 -3.3080  1.2067  2.4285
 6814SOL    HW232079   3.293   1.888   8.113  3.2689 -1.9871  0.3386
 6815SOL     OW32080   4.243   1.520  14.667 -0.2932  0.1785  0.0286
 6815SOL    HW132081   4.153   1.546  14.686 -0.7821 -0.7476 -0.9977
 6815SOL    HW232082   4.239   1.429  14.698  0.1479  0.0037 -0.4349
 6816SOL     OW32083   3.692   3.059   7.721 -0.4173  0.2081  0.1777
 6816SOL    HW132084   3.760   2.995   7.745  0.4929  0.5292 -1.4996
 6816SOL    HW232085   3.630   3.045   7.792  0.2945 -4.0039  0.0022
 6817SOL     OW32086   1.557   4.342   5.446 -0.2083 -0.1282 -0.0987
 6817SOL    HW132087   1.478   4.312   5.489  1.2848 -0.0277  2.6931
 6817SOL    HW232088   1.599   4.259   5.421 -1.1001 -0.0740 -1.7590
 6818SOL     OW32089   3.179   4.351   2.908  0.4666 -0.1210 -0.0479
 6818SOL    HW132090   3.275   4.357   2.909  0.4565 -0.0776  1.1095
 6818SOL    HW232091   3.158   4.258   2.905  0.0877 -0.0517  0.4470
 6819SOL     OW32092   1.137   0.930   7.066  0.0046 -0.0809  0.1703
 6819SOL    HW132093   1.129   0.836   7.056 -1.9642  0.1622 -0.6180
 6819SOL    HW232094   1.173   0.948   6.979  0.0048  2.8914  0.7738
 6820SOL     OW32095   4.202   2.510  10.278  0.4203 -0.1426  0.6521
 6820SOL    HW132096   4.191   2.546  10.366 -0.2183  0.0757  0.4850
 6820SOL    HW232097   4.275   2.557  10.238 -0.4477  2.7756  2.5242
 6821SOL     OW32098   3.775   3.318   1.722 -0.1380 -0.0682  0.0734
 6821SOL    HW132099   3.801   3.231   1.693  0.1652 -0.0876  0.4097
 6821SOL    HW232100   3.719   3.344   1.648 -2.3444 -1.2813  1.3346
 6822SOL     OW32101   4.134   4.060   6.120 -0.2234 -0.1001 -0.2545
 6822SOL    HW132102   4.127   3.975   6.164 -2.5680 -0.2265 -0.8538
 6822SOL    HW232103   4.041   4.084   6.122 -0.1841  0.1034 -0.8266
 6823SOL     OW32104   3.786   4.671  11.914  0.2435  0.0463  0.1932
 6823SOL    HW132105   3.697   4.654  11.884  0.4527 -4.5273  2.0356
 6823SOL    HW232106   3.840   4.643  11.840 -0.1427  1.2636 -0.5364
 6824SOL     OW32107   1.516   3.286   1.314 -0.2890  0.5713  0.3637
 6824SOL    HW132108   1.449   3.319   1.254 -2.0496 -1.8206  1.0062
 6824SOL    HW232109   1.579   3.357   1.305 -1.7274  1.6826 -0.8721
 6825SOL     OW32110   0.563   3.224  16.849 -0.7874  0.4419 -0.0919
 6825SOL    HW132111   0.619   3.284  16.898  0.7794 -1.1980  0.1503
 6825SOL    HW232112   0.599   3.136  16.865  0.4152  0.7455 -1.0838
 6826SOL     OW32113   4.134   2.174   3.393  0.4853 -0.2510  0.1117
 6826SOL    HW132114   4.191   2.132   3.329 -0.4428 -0.7000 -0.4180
 6826SOL    HW232115   4.063   2.180   3.329  1.1947 -3.9119 -1.0139
 6827SOL     OW32116   1.109   3.116  13.779 -0.4938 -0.1276 -0.0952
 6827SOL    HW132117   1.122   3.168  13.700 -0.9744 -1.7139 -1.2105
 6827SOL    HW232118   1.193   3.115  13.827 -1.2681  3.9740  1.3754
 6828SOL     OW32119   4.168   1.622   4.287 -0.6310  0.6128 -0.0506
 6828SOL    HW132120   4.110   1.553   4.318 -0.0213  0.0457 -0.1777
 6828SOL    HW232121   4.171   1.664   4.373 -2.0808 -0.7983  0.6896
 6829SOL     OW32122   1.338   1.123   7.133  0.1337 -0.0385 -0.2293
 6829SOL    HW132123   1.309   1.034   7.148 -1.1484  0.4635  0.2243
 6829SOL    HW232124   1.424   1.101   7.097 -1.0899 -2.5201 -1.6255
 6830SOL     OW32125   2.330   0.524   8.834 -0.7341  0.6745 -0.4381
 6830SOL    HW132126   2.265   0.566   8.778 -1.6574  0.2315  0.2992
 6830SOL    HW232127   2.344   0.592   8.900  0.3178  1.7962 -1.8052
 6831SOL     OW32128   4.431   0.139   7.044  0.1878 -0.6766  0.4359
 6831SOL    HW132129   4.518   0.106   7.066 -0.4119 -1.7917  1.1315
 6831SOL    HW232130   4.409   0.088   6.966 -1.3047  0.3422  0.1935
 6832SOL     OW32131   1.812   2.438   6.633 -0.2481 -0.3182  0.0053
 6832SOL    HW132132   1.861   2.391   6.566  0.7056  0.5604  0.0844
 6832SOL    HW232133   1.870   2.439   6.709  0.1298  0.3595 -0.2933
 6833SOL     OW32134   1.281   0.650   4.617  0.0344 -0.2491  0.5812
 6833SOL    HW132135   1.296   0.707   4.541 -2.1559 -0.8213 -0.2733
 6833SOL    HW232136   1.353   0.587   4.605  0.5284  0.6333 -1.1697
 6834SOL     OW32137   0.253   0.522   6.821  0.1504 -0.1314  0.2035
 6834SOL    HW132138   0.258   0.479   6.735 -0.3826  2.8174 -1.3406
 6834SOL    HW232139   0.165   0.558   6.812  0.9346  2.2324  2.1462
 6835SOL     OW32140   3.569   3.332  15.320 -0.4829  0.7091 -0.0062
 6835SOL    HW132141   3.645   3.282  15.289 -0.6577 -0.8859  2.1214
 6835SOL    HW232142   3.569   3.405  15.258 -1.5581  0.5271 -0.2117
 6836SOL     OW32143   2.488   3.560   8.579  0.2201  0.2454 -0.4948
 6836SOL    HW132144   2.544   3.578   8.503  0.6237 -0.5632 -0.3841
 6836SOL    HW232145   2.441   3.644   8.581  0.3402  0.2796  1.8734
 6837SOL     OW32146   1.597   4.551   0.502 -0.4534 -0.8193 -0.1008
 6837SOL    HW132147   1.536   4.479   0.492 -1.4708 -0.0660  0.7568
 6837SOL    HW232148   1.667   4.515   0.447  1.2119  2.7845 -0.3452
 6838SOL     OW32149   3.064   3.950   5.136 -0.1245 -0.0593  0.1763
 6838SOL    HW132150   2.976   3.911   5.141  0.7742 -1.6476  3.6391
 6838SOL    HW232151   3.091   3.930   5.046 -0.8640  2.1601 -0.5434
 6839SOL     OW32152   0.773   4.736   8.555  0.3167 -0.3678  0.0656
 6839SOL    HW132153   0.711   4.664   8.552 -1.1138  0.9363 -2.0478
 6839SOL    HW232154   0.827   4.713   8.630  0.6896 -0.3296 -0.1885
 6840SOL     OW32155   1.545   4.718   8.505 -0.1545  0.0468  0.0399
 6840SOL    HW132156   1.612   4.651   8.523 -1.5892 -1.7569 -1.2908
 6840SOL    HW232157   1.600   0.034   8.446 -0.1309  1.9005  1.7452
 6841SOL     OW32158   3.447   2.430   3.274  0.0553 -0.6619  0.2136
 6841SOL    HW132159   3.410   2.501   3.326 -2.7767  0.2087 -2.9737
 6841SOL    HW232160   3.399   2.351   3.299 -2.2379  0.8697  0.7200
 6842SOL     OW32161   3.953   3.056  14.512  0.5987  0.6714  0.2497
 6842SOL    HW132162   4.031   3.081  14.463 -0.1576  3.2324  0.3407
 6842SOL    HW232163   3.981   3.036  14.601 -0.2886  0.8853  0.5777
 6843SOL     OW32164   3.831   2.735  12.671 -0.9476 -0.0797 -0.1511
 6843SOL    HW132165   3.832   2.653  12.720  1.6586  0.0738  0.0683
 6843SOL    HW232166   3.924   2.743  12.647 -0.8615  1.7417  0.7796
 6844SOL     OW32167   1.889   4.642   2.638  0.0990 -0.1155  0.0252
 6844SOL    HW132168   1.966   4.655   2.584 -0.8795  1.7438 -0.9265
 6844SOL    HW232169   1.832   4.585   2.586 -2.4542  1.9361  0.5875
 6845SOL     OW32170   4.302   2.739   3.096  0.4171  0.3987  0.2413
 6845SOL    HW132171   4.325   2.702   3.182 -0.6974  1.4007  0.9638
 6845SOL    HW232172   4.349   2.684   3.034  1.4732  2.5831 -0.8815
 6846SOL     OW32173   4.629   0.576  11.667  0.0255  0.2116 -0.5169
 6846SOL    HW132174   4.670   0.557  11.751 -0.5944  0.5842 -0.1308
 6846SOL    HW232175   4.612   0.670  11.670 -2.3640 -0.2531  0.2288
 6847SOL     OW32176   1.303   1.348  11.535  0.5597  0.1502 -0.1376
 6847SOL    HW132177   1.302   1.365  11.629 -1.7920  0.7883 -0.2716
 6847SOL    HW232178   1.305   1.252  11.539  4.5404  0.2167 -0.5455
 6848SOL     OW32179   3.498   3.274   7.706  0.1772  0.3684  0.6410
 6848SOL    HW132180   3.585   3.236   7.709  0.5394  1.1343 -0.1128
 6848SOL    HW232181   3.515   3.362   7.671 -0.7894  0.1363 -0.4368
 6849SOL     OW32182   2.293   3.008  14.345  0.4626 -0.1099 -0.6231
 6849SOL    HW132183   2.314   3.100  14.326 -1.2741  0.2155 -0.9692
 6849SOL    HW232184   2.384   2.979  14.345  0.7257  0.7123 -1.9009
 6850SOL     OW32185   1.741   1.959   0.346 -0.0873  0.1658 -0.2958
 6850SOL    HW132186   1.717   2.018   0.417  1.2263  1.9086 -1.3178
 6850SOL    HW232187   1.820   1.991   0.304  0.0189  0.5126  0.1640
 6851SOL     OW32188   3.278   4.064   4.651  0.2806  0.3608 -0.3798
 6851SOL    HW132189   3.263   4.156   4.671  1.0065  0.7008 -1.3911
 6851SOL    HW232190   3.245   4.057   4.561 -0.4105 -0.1344 -0.0945
 6852SOL     OW32191   1.163   3.113   8.245 -0.1388  0.3479  0.3597
 6852SOL    HW132192   1.236   3.055   8.267 -0.5651 -0.2229  0.2469
 6852SOL    HW232193   1.210   3.196   8.254  0.4322  0.1603 -0.9288
 6853SOL     OW32194   0.548   2.737  16.428 -0.0851  0.3341  0.0922
 6853SOL    HW132195   0.482   2.674  16.459 -0.1294  0.6666  0.6583
 6853SOL    HW232196   0.503   2.819  16.444 -1.0495 -0.0255 -0.7748
 6854SOL     OW32197   4.652   1.732   3.195 -0.4581  0.2230  0.2177
 6854SOL    HW132198   4.581   1.757   3.136 -0.1086 -0.1516 -0.3675
 6854SOL    HW232199   4.712   1.802   3.170 -0.3306 -0.2011 -0.6754
 6855SOL     OW32200   1.068   2.321  10.019  0.1048  0.0531  0.0703
 6855SOL    HW132201   1.161   2.341  10.021 -0.0768  1.1772 -2.2461
 6855SOL    HW232202   1.051   2.380   9.945 -0.0813 -1.2725 -0.9421
 6856SOL     OW32203   2.004   0.669   6.778 -0.2070 -0.1999  0.4799
 6856SOL    HW132204   1.945   0.595   6.789 -1.9003  1.2141  0.9532
 6856SOL    HW232205   2.008   0.677   6.683 -1.3697 -1.4486  0.3329
 6857SOL     OW32206   4.662   1.839   5.330 -0.0891  0.4568 -0.3620
 6857SOL    HW132207   4.699   1.923   5.303 -0.8014  0.8967  0.0236
 6857SOL    HW232208   4.722   1.823   5.403 -1.2946 -1.2975  0.2341
 6858SOL     OW32209   3.533   4.682   0.849 -0.0858 -0.4753  0.2064
 6858SOL    HW132210   3.445   4.646   0.852 -1.0543  1.7415 -2.6679
 6858SOL    HW232211   3.529   0.040   0.862 -0.6351 -0.3629 -0.7838
 6859SOL     OW32212   0.452   3.152   2.052  0.6455  0.2950  0.3826
 6859SOL    HW132213   0.374   3.164   2.107  0.4617  0.5710  0.0630
 6859SOL    HW232214   0.513   3.122   2.119  3.1995  2.7465 -0.8536
 6860SOL     OW32215   0.147   3.287  16.276 -0.0068 -0.2887 -0.3628
 6860SOL    HW132216   0.229   3.266  16.231 -0.4186  0.8876 -1.6566
 6860SOL    HW232217   0.163   3.371  16.319  1.7061 -0.8641  0.1198
 6861SOL     OW32218   4.571   2.769   7.821  0.5322 -0.2040  0.0824
 6861SOL    HW132219   4.538   2.798   7.736 -0.3064  2.0489  1.1968
 6861SOL    HW232220   4.663   2.765   7.798  0.0501  1.7127 -2.2084
 6862SOL     OW32221   4.272   3.409   8.825 -0.7414 -0.0036 -0.2735
 6862SOL    HW132222   4.251   3.502   8.834  0.6426  0.1481  1.2646
 6862SOL    HW232223   4.359   3.421   8.787 -0.6542  3.3717  1.0192
 6863SOL     OW32224   1.537   0.685  14.089  0.3741  0.0309 -0.2992
 6863SOL    HW132225   1.513   0.774  14.115 -0.0230 -0.1703  0.0225
 6863SOL    HW232226   1.556   0.649  14.176 -1.5189 -0.8080 -0.2270
 6864SOL     OW32227   1.773   3.205   8.232 -0.5601 -0.5319  0.3256
 6864SOL    HW132228   1.831   3.252   8.292  1.3539 -1.0582 -1.1194
 6864SOL    HW232229   1.821   3.185   8.152 -1.3671 -1.6302  0.1199
 6865SOL     OW32230   0.093   4.240  14.027 -0.3505  0.4197  0.2551
 6865SOL    HW132231   0.132   4.313  13.978 -0.5605 -0.0406 -0.6141
 6865SOL    HW232232   0.107   4.266  14.118  3.5115  1.3374 -0.5731
 6866SOL     OW32233   0.565   0.608   3.343 -0.1612  0.0216 -0.1550
 6866SOL    HW132234   0.471   0.607   3.361 -0.2499  0.5766 -0.5879
 6866SOL    HW232235   0.557   0.577   3.253 -2.1478 -1.3450  0.4876
 6867SOL     OW32236   3.495   4.099   6.315  0.0179 -0.2097  0.0605
 6867SOL    HW132237   3.539   4.077   6.398  1.8793  1.0798 -0.5802
 6867SOL    HW232238   3.550   4.048   6.255  1.1436  0.4156  0.5592
 6868SOL     OW32239   0.689   2.717   8.818 -0.0014 -0.2773  0.6471
 6868SOL    HW132240   0.650   2.800   8.848  2.1767  0.0259  2.6339
 6868SOL    HW232241   0.783   2.732   8.817 -0.0125 -0.3825 -2.2273
 6869SOL     OW32242   3.471   4.687   5.387  0.1965 -0.6524  0.4064
 6869SOL    HW132243   3.443   0.033   5.349 -0.7939 -1.2020 -0.0779
 6869SOL    HW232244   3.498   4.716   5.474  2.0241 -0.4836 -0.2328
 6870SOL     OW32245   1.131   2.784   8.454  0.2456 -0.2272  0.0248
 6870SOL    HW132246   1.100   2.857   8.507  0.7159 -0.3895  0.5169
 6870SOL    HW232247   1.179   2.831   8.386 -0.7137 -0.2132 -0.6492
 6871SOL     OW32248   2.134   0.832   1.189  0.2263 -0.5379 -0.7025
 6871SOL    HW132249   2.148   0.782   1.109  1.1637  0.4826 -1.1639
 6871SOL    HW232250   2.111   0.919   1.157  2.8836 -0.7418 -3.1535
 6872SOL     OW32251   0.286   2.914  11.221 -0.3493 -0.4343 -0.6363
 6872SOL    HW132252   0.201   2.892  11.182 -0.2439  0.3958 -1.3188
 6872SOL    HW232253   0.335   2.929  11.141 -1.1199 -2.5655 -1.5212
 6873SOL     OW32254   4.485   2.780   7.067 -0.2803 -0.0548  0.1806
 6873SOL    HW132255   4.579   2.790   7.083 -0.6034 -1.4290  2.8503
 6873SOL    HW232256   4.471   2.818   6.980 -0.5502 -1.5320 -0.4304
 6874SOL     OW32257   3.811   0.673   1.000 -0.8770 -0.0002  0.4750
 6874SOL    HW132258   3.752   0.622   0.945 -3.1146  1.6750  1.3359
 6874SOL    HW232259   3.850   0.606   1.055 -0.6413  0.0639  0.3873
 6875SOL     OW32260   4.698   0.800   6.456  0.1195  0.1281  0.0321
 6875SOL    HW132261   4.732   0.770   6.540  1.6880  1.1089 -0.2421
 6875SOL    HW232262   4.603   0.797   6.470  0.1896 -1.4320  0.1202
 6876SOL     OW32263   3.342   3.505   4.602  0.2568  0.0410  0.0533
 6876SOL    HW132264   3.266   3.561   4.612 -0.2554 -0.9752  1.9231
 6876SOL    HW232265   3.412   3.564   4.631  0.7137 -0.1594 -0.6429
 6877SOL     OW32266   2.779   1.086  10.801 -0.2212  0.5178  0.6930
 6877SOL    HW132267   2.819   1.040  10.726 -2.2014  0.4116 -0.3105
 6877SOL    HW232268   2.846   1.153  10.812 -0.6419  0.7789  1.6004
 6878SOL     OW32269   2.044   3.394   1.826  0.5423  0.3377  0.0580
 6878SOL    HW132270   2.063   3.351   1.909  0.2652 -0.1550 -0.1348
 6878SOL    HW232271   2.092   3.336   1.767 -1.8930  0.3105 -1.9096
 6879SOL     OW32272   3.452   2.313   4.400  0.7681 -0.4230  0.0625
 6879SOL    HW132273   3.537   2.269   4.409  0.3854 -1.4540 -1.3263
 6879SOL    HW232274   3.406   2.261   4.466 -1.4041  1.1781 -0.1824
 6880SOL     OW32275   0.735   2.211   4.136 -0.3014  0.4006 -0.3838
 6880SOL    HW132276   0.655   2.212   4.189 -0.6521 -3.9172 -0.8246
 6880SOL    HW232277   0.720   2.285   4.077  1.5603 -0.9622 -2.5599
 6881SOL     OW32278   0.688   1.147   2.505 -0.2946 -0.1022  0.1999
 6881SOL    HW132279   0.719   1.213   2.444  0.0487  0.9855  1.5593
 6881SOL    HW232280   0.768   1.105   2.535  0.6229 -1.0537 -3.6079
 6882SOL     OW32281   4.042   0.404   3.855 -0.1226  0.2519  0.1657
 6882SOL    HW132282   4.036   0.449   3.771 -2.6392 -2.4051 -1.0743
 6882SOL    HW232283   4.136   0.388   3.846 -0.1403 -0.3431  1.0272
 6883SOL     OW32284   3.093   4.628   7.041  0.3327  0.6145  0.3273
 6883SOL    HW132285   3.038   4.608   7.117 -0.0733  0.7176  0.0639
 6883SOL    HW232286   3.095   4.722   7.057 -3.0491  1.3603 -3.3223
 6884SOL     OW32287   0.245   0.771  13.245 -0.4122  0.9290 -0.1330
 6884SOL    HW132288   0.239   0.746  13.153  1.7168  1.4787 -0.4353
 6884SOL    HW232289   0.294   0.853  13.236  2.2458 -0.7687 -1.3097
 6885SOL     OW32290   3.220   0.171   7.569  0.2639  0.0839 -0.3413
 6885SOL    HW132291   3.205   0.263   7.588 -2.3899 -0.4514  0.1251
 6885SOL    HW232292   3.262   0.177   7.483 -1.8262  3.0989 -1.1632
 6886SOL     OW32293   3.657   2.802  16.968  0.0958 -0.1943 -0.0890
 6886SOL    HW132294   3.735   2.786  16.915 -1.9728 -2.1130 -2.5007
 6886SOL    HW232295   3.627   2.714  16.990  1.0506 -0.4067  0.3431
 6887SOL     OW32296   4.655   3.059   2.346  0.2628 -0.4277 -0.7992
 6887SOL    HW132297   4.656   2.996   2.418 -2.3095  1.0264  0.5047
 6887SOL    HW232298   4.661   2.995   2.275  3.5471  3.3391 -3.9333
 6888SOL     OW32299   0.075   3.791   3.942 -0.0727 -0.4891  0.1656
 6888SOL    HW132300   4.717   3.783   3.928 -0.1555  2.9779 -1.1181
 6888SOL    HW232301   0.079   3.747   4.027  0.3782 -2.0199 -0.6418
 6889SOL     OW32302   4.247   3.465  10.442  0.2228  0.3414 -0.7108
 6889SOL    HW132303   4.219   3.504  10.525  0.9143  1.1637 -0.8772
 6889SOL    HW232304   4.342   3.462  10.453  0.0941  1.6547  0.7000
 6890SOL     OW32305   1.039   0.887   7.351  0.1139  0.1622 -0.3225
 6890SOL    HW132306   1.097   0.903   7.425 -1.5721  1.5890  0.7160
 6890SOL    HW232307   1.099   0.874   7.278  0.1439  1.1663 -0.4813
 6891SOL     OW32308   3.815   1.103   0.492 -0.0620  0.4043 -0.3858
 6891SOL    HW132309   3.885   1.047   0.526  0.8880  1.6509 -0.3140
 6891SOL    HW232310   3.838   1.119   0.400  0.6817  2.0614  0.0938
 6892SOL     OW32311   3.803   2.754  15.682 -0.2587 -0.0053 -0.4553
 6892SOL    HW132312   3.762   2.774  15.598 -2.0643 -1.7960  0.0125
 6892SOL    HW232313   3.731   2.737  15.743 -0.5865 -0.1504 -0.8838
 6893SOL     OW32314   3.922   0.579   3.113  0.2303 -0.0964  0.3375
 6893SOL    HW132315   3.861   0.578   3.039  1.7316 -3.7112 -0.8845
 6893SOL    HW232316   3.871   0.628   3.178  0.7270  1.9654 -0.8273
 6894SOL     OW32317   3.580   4.145   5.898  0.7469 -0.5981 -0.2602
 6894SOL    HW132318   3.576   4.149   5.803 -0.4911  2.1530 -0.0784
 6894SOL    HW232319   3.492   4.140   5.935  0.1321  1.4109 -1.4810
 6895SOL     OW32320   2.068   2.763   7.777 -0.5857  0.5444 -0.0229
 6895SOL    HW132321   2.036   2.817   7.706 -3.7322 -1.5267 -0.1699
 6895SOL    HW232322   2.074   2.822   7.852 -1.7391 -0.7827  1.1125
 6896SOL     OW32323   2.258   2.897   1.611  0.5587  0.0363 -0.0761
 6896SOL    HW132324   2.164   2.878   1.604  0.5829 -0.1740  0.2028
 6896SOL    HW232325   2.261   2.986   1.576 -0.1737 -0.7595 -2.1729
 6897SOL     OW32326   2.768   1.767   8.198  0.4294 -0.3765  0.5624
 6897SOL    HW132327   2.794   1.740   8.286 -0.6253  0.2506  1.0676
 6897SOL    HW232328   2.791   1.860   8.199  0.9556 -0.4979  0.0207
 6898SOL     OW32329   0.846   1.324   5.803 -0.5251  0.2185  0.4780
 6898SOL    HW132330   0.766   1.363   5.769  0.2030 -0.0636 -1.5803
 6898SOL    HW232331   0.882   1.408   5.832 -2.2404  2.8375 -4.9700
 6899SOL     OW32332   2.848   3.264   2.780 -0.0381 -0.1660  0.2265
 6899SOL    HW132333   2.790   3.340   2.787 -0.4339 -0.4484  0.0324
 6899SOL    HW232334   2.926   3.295   2.826  0.6459 -0.8159 -0.4989
 6900SOL     OW32335   3.641   2.442   2.014 -0.2322 -0.0647 -0.5383
 6900SOL    HW132336   3.718   2.431   2.070  0.2417  2.9878 -0.6131
 6900SOL    HW232337   3.595   2.517   2.052  0.8772  0.3937 -0.0776
 6901SOL     OW32338   2.441   3.344  17.499  0.3873  0.1578  0.3537
 6901SOL    HW132339   2.357   3.373  17.462  0.5357 -0.9695 -0.8662
 6901SOL    HW232340   2.459   3.279  17.431  1.1635  3.5831 -2.7609
 6902SOL     OW32341   2.313   2.627   1.637 -0.1742 -0.1739 -0.0385
 6902SOL    HW132342   2.279   2.562   1.575  1.7127 -1.6765  0.4908
 6902SOL    HW232343   2.270   2.707   1.605  1.5309  1.0207  0.6805
 6903SOL     OW32344   0.154   1.865   8.173  0.5821 -0.6441  0.2291
 6903SOL    HW132345   0.183   1.907   8.092 -0.2632 -2.1989 -0.8831
 6903SOL    HW232346   0.094   1.802   8.133 -0.7431  0.6796  0.1292
 6904SOL     OW32347   0.736   3.013  13.843  0.4139  0.2720  0.2756
 6904SOL    HW132348   0.798   3.058  13.901  1.6872 -0.6057 -0.3975
 6904SOL    HW232349   0.704   3.083  13.786  0.3226 -1.4532 -1.7781
 6905SOL     OW32350   4.053   1.682   2.229 -0.1167  0.2486  0.7898
 6905SOL    HW132351   4.044   1.592   2.198 -0.2795  1.0799 -1.5704
 6905SOL    HW232352   4.131   1.670   2.283  0.9492  1.2039 -0.5467
 6906SOL     OW32353   2.291   0.953   1.420  0.4097  0.3278 -0.0436
 6906SOL    HW132354   2.248   0.906   1.348 -0.7964 -0.1164  0.9741
 6906SOL    HW232355   2.357   1.001   1.369  0.5974  0.9354  0.7864
 6907SOL     OW32356   0.633   1.939   6.147 -0.5630  0.6576  0.3684
 6907SOL    HW132357   0.670   1.898   6.225 -0.4356 -0.3148 -0.2017
 6907SOL    HW232358   0.641   2.032   6.171 -1.1527  0.2737  2.0484
 6908SOL     OW32359   2.057   3.049   8.293 -0.5056 -0.1625  0.1966
 6908SOL    HW132360   2.038   3.080   8.204 -0.7694 -0.1210  0.2681
 6908SOL    HW232361   2.142   3.091   8.310 -1.2842  0.8360  1.6073
 6909SOL     OW32362   1.160   1.045   6.646  0.3696  0.2775  0.4213
 6909SOL    HW132363   1.195   1.127   6.680 -0.7357  1.8560 -2.2596
 6909SOL    HW232364   1.155   1.074   6.556 -0.4628 -3.5775 -0.7966
 6910SOL     OW32365   3.472   3.452   0.726  0.8952 -0.0888 -0.4287
 6910SOL    HW132366   3.407   3.391   0.760  1.1638  0.2662  0.7602
 6910SOL    HW232367   3.443   3.537   0.760  0.8156 -0.5487  0.6724
 6911SOL     OW32368   2.068   2.307   4.190  0.3857  0.0014  0.5511
 6911SOL    HW132369   1.972   2.299   4.194  0.4280 -1.1403 -0.6807
 6911SOL    HW232370   2.102   2.232   4.239 -1.5051 -1.4323 -0.3280
 6912SOL     OW32371   4.436   2.667   6.041  0.4415 -0.2233  0.0875
 6912SOL    HW132372   4.443   2.576   6.012 -1.9886  0.3331 -2.1194
 6912SOL    HW232373   4.346   2.681   6.013  1.0745 -0.7373 -2.1923
 6913SOL     OW32374   0.602   4.251   0.993 -0.2239 -0.3474 -0.6255
 6913SOL    HW132375   0.585   4.345   0.988 -1.2880 -0.4179  1.3321
 6913SOL    HW232376   0.681   4.256   0.940  1.4135 -0.6938  1.7489
 6914SOL     OW32377   2.812   0.961   5.401  0.5806 -0.4220  0.1203
 6914SOL    HW132378   2.795   1.046   5.360  1.1914 -1.2428 -1.8390
 6914SOL    HW232379   2.900   0.975   5.437 -0.4329  1.2283  1.9236
 6915SOL     OW32380   3.683   2.166   4.438 -0.3721  0.6017 -0.1005
 6915SOL    HW132381   3.689   2.077   4.473  1.0760  0.6953 -0.1015
 6915SOL    HW232382   3.695   2.144   4.345 -1.5780 -1.9556  0.3259
 6916SOL     OW32383   0.570   3.275   2.928  0.0252 -0.7279  0.1319
 6916SOL    HW132384   0.642   3.268   2.990 -1.2696  1.6900  1.8884
 6916SOL    HW232385   0.607   3.231   2.850  0.1805 -0.7855  0.2372
 6917SOL     OW32386   2.290   0.416   7.900  0.4035 -0.5072  0.2488
 6917SOL    HW132387   2.237   0.488   7.935  0.1576 -0.9567  0.8045
 6917SOL    HW232388   2.373   0.455   7.872 -0.1140  1.4574  1.4813
 6918SOL     OW32389   4.172   4.136  17.673  0.4551 -0.5750 -0.2167
 6918SOL    HW132390   4.111   4.063  17.680 -1.2086  0.9433  0.8717
 6918SOL    HW232391   4.202   4.139  17.582 -0.3050  0.0322 -0.4420
 6919SOL     OW32392   4.251   1.090   2.123 -0.1565  0.2989  0.6860
 6919SOL    HW132393   4.254   0.996   2.107 -0.6808  0.7249 -1.8936
 6919SOL    HW232394   4.317   1.116   2.059  0.7761 -1.9415  0.7247
 6920SOL     OW32395   1.054   2.319   6.959 -0.4854  0.2887 -0.3248
 6920SOL    HW132396   1.076   2.387   7.023  0.5943 -0.0839 -0.2868
 6920SOL    HW232397   0.959   2.318   6.963 -0.5212  0.0013 -1.2264
 6921SOL     OW32398   1.248   2.654  14.610 -0.2220 -0.1319  0.3614
 6921SOL    HW132399   1.284   2.566  14.623 -0.0124 -0.2089 -0.7660
 6921SOL    HW232400   1.200   2.654  14.528  3.0991  0.6782 -1.5699
 6922SOL     OW32401   0.046   0.037   3.428  0.0154  0.5093 -0.1409
 6922SOL    HW132402   0.113   0.003   3.369  1.2298  0.9943  0.9471
 6922SOL    HW232403   0.063   0.128   3.402  1.0853  0.5227  0.5931
 6923SOL     OW32404   4.226   0.752  12.251 -0.2223 -0.1349 -0.4278
 6923SOL    HW132405   4.275   0.831  12.273 -0.4534  0.0647 -0.6394
 6923SOL    HW232406   4.164   0.757  12.324 -2.5594 -0.2393 -2.4111
 6924SOL     OW32407   2.658   3.145   1.604 -0.1296 -0.3797  0.0304
 6924SOL    HW132408   2.583   3.203   1.619 -0.1845 -0.8531  1.5740
 6924SOL    HW232409   2.661   3.092   1.684  1.1203 -0.3398  0.0124
 6925SOL     OW32410   4.041   2.815   2.779 -0.6021 -0.1412 -0.2907
 6925SOL    HW132411   3.959   2.775   2.750 -0.4503 -0.7728  0.1461
 6925SOL    HW232412   4.016   2.904   2.800  0.9252 -0.1035  1.3651
 6926SOL     OW32413   2.683   2.148   6.839  0.6155 -0.4119 -0.2774
 6926SOL    HW132414   2.762   2.105   6.872  0.2476 -0.7675  0.1431
 6926SOL    HW232415   2.624   2.074   6.849  0.3924 -0.5503 -2.6130
 6927SOL     OW32416   3.184   1.453   2.647  0.9322  0.0491 -0.6929
 6927SOL    HW132417   3.257   1.403   2.609  0.0313 -2.3524  0.6969
 6927SOL    HW232418   3.219   1.540   2.632 -0.8819  0.8062 -0.5673
 6928SOL     OW32419   0.166   2.214  14.473  0.4766 -0.1334  0.0568
 6928SOL    HW132420   0.133   2.147  14.413  2.9653 -0.3946 -1.0011
 6928SOL    HW232421   0.233   2.159  14.512  1.8301  1.4816 -0.0152
 6929SOL     OW32422   1.577   2.960   0.599  0.0883 -0.0104  0.6612
 6929SOL    HW132423   1.619   3.046   0.594 -0.1751  0.1011  0.3132
 6929SOL    HW232424   1.653   2.916   0.635  1.0490  0.3393 -0.9458
 6930SOL     OW32425   2.631   3.969  15.487  0.2235  0.0098 -0.3067
 6930SOL    HW132426   2.674   4.055  15.488  2.2936 -1.0547  3.6582
 6930SOL    HW232427   2.682   3.923  15.421  2.8641  2.0543  0.2978
 6931SOL     OW32428   2.359   1.824   5.884 -0.1345  0.2654 -0.4981
 6931SOL    HW132429   2.404   1.820   5.799  0.6986  0.0449 -0.0487
 6931SOL    HW232430   2.350   1.729   5.896  1.7076  0.4539  2.2764
 6932SOL     OW32431   0.740   0.155   8.060  0.0462 -0.0194  0.4307
 6932SOL    HW132432   0.670   0.115   8.111 -0.7822 -2.0627 -2.2901
 6932SOL    HW232433   0.729   0.248   8.079  0.4291 -0.0439  0.7734
 6933SOL     OW32434   1.905   0.268   6.139 -0.4719 -0.6437  0.0817
 6933SOL    HW132435   1.812   0.292   6.136 -0.0303  1.1579  0.9177
 6933SOL    HW232436   1.882   0.175   6.133  1.5206 -1.1285  0.1127
 6934SOL     OW32437   1.252   3.672   2.255  0.1418 -0.0787 -0.5752
 6934SOL    HW132438   1.329   3.701   2.206  1.8320  1.0183  2.7569
 6934SOL    HW232439   1.268   3.713   2.339 -2.2834  1.3182 -0.7996
 6935SOL     OW32440   0.677   4.082   9.837 -0.4988 -0.1828 -0.6324
 6935SOL    HW132441   0.607   4.022   9.811 -0.8394 -0.0723  0.0257
 6935SOL    HW232442   0.748   4.017   9.829 -0.2456 -0.2375  2.1162
 6936SOL     OW32443   1.500   3.865   6.203  0.3284 -0.2066 -0.1404
 6936SOL    HW132444   1.581   3.848   6.155 -1.3348 -1.3854 -2.5032
 6936SOL    HW232445   1.446   3.787   6.208  2.5844 -1.7944 -0.2011
 6937SOL     OW32446   0.670   0.631   1.579  0.1325 -0.0433  0.4538
 6937SOL    HW132447   0.747   0.654   1.528  0.5117 -0.0603  1.0247
 6937SOL    HW232448   0.704   0.578   1.651  1.2078  0.1751  0.1044
 6938SOL     OW32449   3.434   4.731  10.164 -0.3049 -0.3203 -0.1872
 6938SOL    HW132450   3.422   4.698  10.075 -1.1737  2.1994 -1.0027
 6938SOL    HW232451   3.424   4.650  10.213 -0.2844  0.6358  1.3903
 6939SOL     OW32452   1.273   3.026   7.891  0.3641  0.0795 -0.0764
 6939SOL    HW132453   1.280   3.120   7.875  1.9287  0.0020  0.1241
 6939SOL    HW232454   1.349   2.984   7.849  1.0022  1.7245 -0.5601
 6940SOL     OW32455   0.928   2.732  16.495 -1.1296 -0.3092 -0.4488
 6940SOL    HW132456   0.929   2.637  16.504 -1.2027 -0.3919 -1.2472
 6940SOL    HW232457   0.861   2.740  16.427 -2.3709 -2.2615  0.5587
 6941SOL     OW32458   0.234   1.896   4.287  0.2874 -0.4425 -0.1608
 6941SOL    HW132459   0.148   1.932   4.267  1.8391  2.5897 -1.3774
 6941SOL    HW232460   0.293   1.962   4.250  1.7569 -1.0955  0.9990
 6942SOL     OW32461   0.641   2.109   9.196 -0.4002  0.2213  0.1027
 6942SOL    HW132462   0.555   2.081   9.162 -0.1605 -0.3942 -0.0024
 6942SOL    HW232463   0.608   2.132   9.283 -3.0483 -1.1273 -0.5181
 6943SOL     OW32464   2.129   3.000   5.391  0.3491  0.3361  0.0234
 6943SOL    HW132465   2.111   2.917   5.348  1.3601  0.2698 -0.2758
 6943SOL    HW232466   2.123   3.057   5.315 -0.8815  0.4958  0.2349
 6944SOL     OW32467   0.639   4.729  13.318  0.2002 -0.1151  1.1536
 6944SOL    HW132468   0.695   0.037  13.254  0.2411  0.5838  1.6710
 6944SOL    HW232469   0.599   0.067  13.362  0.2199  0.8211 -0.4329
 6945SOL     OW32470   3.457   1.721   3.336 -0.2205 -0.6310 -0.2740
 6945SOL    HW132471   3.515   1.648   3.357  0.8360  0.0463 -0.8184
 6945SOL    HW232472   3.515   1.796   3.330  2.0945 -2.3648  0.4931
 6946SOL     OW32473   0.391   2.517   7.342  0.4369  0.1880 -0.6823
 6946SOL    HW132474   0.400   2.579   7.270 -1.6661  1.8072  0.4411
 6946SOL    HW232475   0.409   2.574   7.417  2.2366  0.1882 -1.1151
 6947SOL     OW32476   2.464   0.138   3.940 -0.0695  0.0969 -0.3497
 6947SOL    HW132477   2.410   0.093   4.004  2.5964  0.7491  2.3797
 6947SOL    HW232478   2.431   0.097   3.860  0.4696 -0.8801 -0.0716
 6948SOL     OW32479   0.822   3.762   8.739 -0.0736 -0.3655  0.4091
 6948SOL    HW132480   0.803   3.812   8.660  0.4080  1.4393  1.4581
 6948SOL    HW232481   0.760   3.689   8.736 -0.6038 -0.0124  2.3982
 6949SOL     OW32482   0.446   2.533   5.132 -0.0058 -0.3185  0.1018
 6949SOL    HW132483   0.533   2.496   5.116 -0.4777 -1.7391  0.8440
 6949SOL    HW232484   0.449   2.552   5.226 -1.2492 -0.5046  0.1776
 6950SOL     OW32485   3.173   1.459  14.432  0.9323 -0.0187  0.1678
 6950SOL    HW132486   3.138   1.546  14.447  1.2208  0.2073 -0.4686
 6950SOL    HW232487   3.211   1.463  14.344  2.4827 -0.4041  0.8146
 6951SOL     OW32488   0.495   0.310   6.313 -0.1769 -0.1199 -0.4009
 6951SOL    HW132489   0.579   0.346   6.283 -2.1055  2.7625 -2.3542
 6951SOL    HW232490   0.513   0.228   6.359 -1.1759 -0.0383  0.1141
 6952SOL     OW32491   3.391   1.127   1.890  0.3743 -0.3168  0.6439
 6952SOL    HW132492   3.354   1.044   1.861  0.6900 -0.8238  1.6989
 6952SOL    HW232493   3.392   1.111   1.985 -0.6131  0.3221  0.7615
 6953SOL     OW32494   3.072   0.735   8.734  0.3151 -0.2310  0.0443
 6953SOL    HW132495   2.995   0.771   8.778  0.3943 -0.6948  0.5571
 6953SOL    HW232496   3.140   0.783   8.781  0.4756  1.5529 -2.0212
 6954SOL     OW32497   3.096   4.562   2.155  0.2299 -0.3418  0.0864
 6954SOL    HW132498   3.146   4.588   2.077  1.0288  0.5817  0.8990
 6954SOL    HW232499   3.007   4.550   2.123  0.5075  1.6252 -1.4559
 6955SOL     OW32500   4.562   1.392  12.897 -0.3319  0.5158 -0.7188
 6955SOL    HW132501   4.514   1.472  12.920 -0.6199 -0.3284  1.6912
 6955SOL    HW232502   4.522   1.332  12.960  1.5964 -0.0318 -0.0365
 6956SOL     OW32503   0.889   0.439  16.667  0.2309  0.0100  0.1128
 6956SOL    HW132504   0.864   0.358  16.622 -0.0885 -2.1516  4.2749
 6956SOL    HW232505   0.942   0.459  16.590  0.4972  1.0832  0.5770
 6957SOL     OW32506   4.590   3.964  14.640 -0.1467 -0.5288  0.0196
 6957SOL    HW132507   4.530   3.931  14.707 -2.3746 -0.0851 -1.7177
 6957SOL    HW232508   4.653   3.893  14.637  1.9321  1.4265 -2.8664
 6958SOL     OW32509   2.421   4.378   6.179 -0.1465 -0.2971  0.3534
 6958SOL    HW132510   2.503   4.339   6.208 -0.3180 -2.2742 -1.7879
 6958SOL    HW232511   2.442   4.471   6.187  1.8006 -0.3377 -4.4730
 6959SOL     OW32512   3.976   2.073   4.381 -0.0934  0.6643  1.1894
 6959SOL    HW132513   3.887   2.065   4.344  0.5583  1.1472 -0.5011
 6959SOL    HW232514   3.956   2.056   4.473 -0.3811  1.5750  1.2934
 6960SOL     OW32515   1.506   0.059   8.138 -0.4601  0.1815 -0.1752
 6960SOL    HW132516   1.414   0.063   8.167 -0.4403  0.7256 -0.1996
 6960SOL    HW232517   1.515   4.705   8.108  0.4409  0.1748  0.1262
 6961SOL     OW32518   3.528   1.907   6.840 -0.4842 -0.2743  0.1615
 6961SOL    HW132519   3.579   1.971   6.889  0.7335 -0.3266 -1.0320
 6961SOL    HW232520   3.445   1.956   6.837  0.4321  1.2736  0.2200
 6962SOL     OW32521   4.032   4.251   7.151 -0.2263 -0.0681  0.0883
 6962SOL    HW132522   4.024   4.343   7.176  1.2771  0.3302 -0.9633
 6962SOL    HW232523   3.980   4.246   7.071  1.2785 -0.7433 -0.8537
 6963SOL     OW32524   4.351   4.088   6.672  1.0766  0.0869  0.2034
 6963SOL    HW132525   4.337   4.158   6.736  1.7718  0.7486 -0.3682
 6963SOL    HW232526   4.406   4.138   6.612  0.9466 -0.5041 -0.4115
 6964SOL     OW32527   2.111   0.826  11.116 -0.2661 -0.2259 -0.3190
 6964SOL    HW132528   2.191   0.799  11.161 -0.7476  1.2766  1.4459
 6964SOL    HW232529   2.143   0.888  11.051  0.2344  0.5381  0.6473
 6965SOL     OW32530   4.648   1.140   6.810 -0.4334 -0.1042  0.0122
 6965SOL    HW132531   4.582   1.071   6.817  1.9331 -2.4115 -0.1818
 6965SOL    HW232532   4.713   1.104   6.749 -0.4379  0.3031 -0.2300
 6966SOL     OW32533   0.258   3.594  13.034  0.7445  0.2535  0.4671
 6966SOL    HW132534   0.166   3.613  13.015  0.9591 -1.9617 -2.9059
 6966SOL    HW232535   0.295   3.673  12.995 -0.4251  0.1785 -0.8114
 6967SOL     OW32536   1.313   1.890   1.465  0.4014  0.0112 -1.1367
 6967SOL    HW132537   1.391   1.871   1.518 -0.1032  1.9068  0.2980
 6967SOL    HW232538   1.308   1.813   1.409 -1.1369 -0.1747 -0.7327
 6968SOL     OW32539   4.066   2.289   5.049 -0.5019 -0.1259  0.4753
 6968SOL    HW132540   4.063   2.371   5.097  1.6312 -0.0527  0.4778
 6968SOL    HW232541   4.153   2.249   5.053  1.2832  3.6985 -0.3123
 6969SOL     OW32542   0.272   4.392   2.709 -1.3059 -0.5430  0.2126
 6969SOL    HW132543   0.226   4.362   2.787 -2.0240  0.2111  0.0834
 6969SOL    HW232544   0.259   4.316   2.653 -2.7903 -0.1459  0.0063
 6970SOL     OW32545   1.513   2.630   2.185  0.1171 -0.0381 -0.6179
 6970SOL    HW132546   1.491   2.684   2.109  1.6847  1.3682 -0.0600
 6970SOL    HW232547   1.551   2.551   2.147  0.9494 -0.1264  0.4003
 6971SOL     OW32548   1.912   3.408  12.628 -0.1683 -0.1013 -0.0838
 6971SOL    HW132549   1.965   3.409  12.708 -1.1540 -0.3514  0.5762
 6971SOL    HW232550   1.928   3.322  12.588  2.2053  0.8478 -1.1928
 6972SOL     OW32551   3.041   0.492   8.151 -0.2270  0.0409 -0.2410
 6972SOL    HW132552   3.095   0.517   8.076  1.2944 -2.3629  0.0533
 6972SOL    HW232553   3.074   0.561   8.209 -0.1858  1.3442 -1.7920
 6973SOL     OW32554   3.491   1.940   1.542  0.2887  0.2818  0.1803
 6973SOL    HW132555   3.500   1.995   1.620 -1.7193 -1.3927  1.5835
 6973SOL    HW232556   3.416   1.980   1.498 -0.8617 -0.4868  1.4341
 6974SOL     OW32557   4.543   3.829   3.939 -0.5265  0.2952  0.2139
 6974SOL    HW132558   4.575   3.896   3.879  2.0535 -1.0374  0.0510
 6974SOL    HW232559   4.492   3.874   4.006  1.3488  0.2889  1.6476
 6975SOL     OW32560   1.279   0.863   3.594  0.1465  0.0068  0.3188
 6975SOL    HW132561   1.209   0.821   3.544 -0.9838  0.3732  1.5917
 6975SOL    HW232562   1.236   0.939   3.633  0.3916  0.7568 -0.8625
 6976SOL     OW32563   0.665   0.821   0.177 -0.0912  0.2425 -0.0801
 6976SOL    HW132564   0.735   0.809   0.113 -0.2489  1.1923 -0.4358
 6976SOL    HW232565   0.595   0.758   0.158 -0.5471 -0.2030  3.0540
 6977SOL     OW32566   2.452   3.437   8.264 -0.5634  0.2166 -0.0010
 6977SOL    HW132567   2.370   3.482   8.244 -2.2302 -2.5027  0.7310
 6977SOL    HW232568   2.510   3.511   8.285  2.2356 -1.8870 -0.3684
 6978SOL     OW32569   1.124   3.240   8.670  0.3754  0.4103 -0.4500
 6978SOL    HW132570   1.117   3.281   8.756  1.2531 -0.2933 -0.0544
 6978SOL    HW232571   1.217   3.231   8.654  0.5723  0.6110  0.6007
 6979SOL     OW32572   2.660   4.206   4.025  0.0500 -0.4660 -0.0317
 6979SOL    HW132573   2.582   4.178   4.073  2.4586 -2.4923  2.7424
 6979SOL    HW232574   2.618   4.227   3.942  1.2134 -2.7732 -1.1950
 6980SOL     OW32575   1.547   0.827   4.227 -0.0079 -0.4858 -0.0281
 6980SOL    HW132576   1.598   0.904   4.254  0.5556 -1.2272  1.0175
 6980SOL    HW232577   1.543   0.850   4.134 -0.1548  1.5960  0.4845
 6981SOL     OW32578   0.163   4.335   3.847  0.6146  0.7720 -0.1131
 6981SOL    HW132579   0.175   4.241   3.866  0.3392  0.5979 -0.7975
 6981SOL    HW232580   0.250   4.359   3.816  0.8110 -0.5368 -0.6045
 6982SOL     OW32581   3.432   1.333  17.278  0.2062  0.2902  0.4108
 6982SOL    HW132582   3.381   1.405  17.315  2.1692  1.1265  1.4475
 6982SOL    HW232583   3.490   1.379  17.217  0.2884  2.4256  2.1094
 6983SOL     OW32584   1.751   3.248   2.625  0.4254  0.3240 -0.2424
 6983SOL    HW132585   1.818   3.315   2.642  1.4748 -0.7934  0.0653
 6983SOL    HW232586   1.764   3.187   2.698  2.0090 -0.4301 -1.1537
 6984SOL     OW32587   4.446   2.922  14.398  0.2304 -0.0021 -0.7073
 6984SOL    HW132588   4.461   2.894  14.308 -2.3962  3.1806 -2.1299
 6984SOL    HW232589   4.455   3.016  14.384  3.3814  0.0361  1.4271
 6985SOL     OW32590   4.436   2.034   0.971  0.2438  0.2894  0.4608
 6985SOL    HW132591   4.368   2.097   0.994 -1.1402 -0.6194 -1.1159
 6985SOL    HW232592   4.502   2.057   1.036  1.7810  1.4098 -1.4665
 6986SOL     OW32593   4.514   0.647   5.023 -0.7845 -0.1485  0.2522
 6986SOL    HW132594   4.470   0.680   5.101 -3.4161  0.6353 -1.5537
 6986SOL    HW232595   4.505   0.553   5.040 -0.5018 -0.0097  1.1617
 6987SOL     OW32596   2.754   2.337   4.978 -0.4429  0.4414 -0.2639
 6987SOL    HW132597   2.794   2.424   4.979 -2.9883  1.6254 -1.2892
 6987SOL    HW232598   2.699   2.342   4.900 -0.8633  1.3916  0.0901
 6988SOL     OW32599   3.233   2.185   8.300  0.2567 -0.3781 -0.0268
 6988SOL    HW132600   3.191   2.245   8.362 -2.0122 -0.0972 -1.8048
 6988SOL    HW232601   3.307   2.151   8.350  0.0107 -1.4330 -0.3664
 6989SOL     OW32602   4.395   2.806   5.460  0.7410 -0.0772  0.6160
 6989SOL    HW132603   4.326   2.864   5.426  1.2558  0.1399 -0.0643
 6989SOL    HW232604   4.428   2.764   5.380 -1.5040 -2.7966  1.1397
 6990SOL     OW32605   2.332   2.919   6.202  0.3368 -0.5068  0.8160
 6990SOL    HW132606   2.274   2.852   6.238 -1.0540  0.5646  0.5884
 6990SOL    HW232607   2.325   2.920   6.106  0.9644  1.3145  0.7866
 6991SOL     OW32608   3.582   3.017   2.827 -0.0287  0.3242 -0.1602
 6991SOL    HW132609   3.554   3.062   2.907  0.5460  1.2763 -0.5025
 6991SOL    HW232610   3.625   3.085   2.776  1.6120 -1.1444 -0.7197
 6992SOL     OW32611   3.568   1.661   2.796 -0.0687 -0.0669  0.0353
 6992SOL    HW132612   3.615   1.597   2.849  1.3194 -0.7611 -2.0165
 6992SOL    HW232613   3.627   1.669   2.720 -4.4458 -0.1346 -3.4017
 6993SOL     OW32614   3.811   4.386  16.288 -0.0766 -0.0627  0.0156
 6993SOL    HW132615   3.902   4.373  16.263 -0.7880 -1.8432 -1.6610
 6993SOL    HW232616   3.798   4.337  16.369 -0.4474 -1.4433 -0.8762
 6994SOL     OW32617   3.290   0.180   4.147 -0.2549  0.0280  0.0042
 6994SOL    HW132618   3.385   0.192   4.144 -0.1056 -1.7277 -2.0364
 6994SOL    HW232619   3.265   0.273   4.145  1.7907  0.5721  0.0300
 6995SOL     OW32620   0.939   3.091   2.515  0.5105  0.1328 -0.4263
 6995SOL    HW132621   0.910   3.015   2.464  0.1303  0.1633 -0.2554
 6995SOL    HW232622   1.028   3.098   2.479  0.7117 -0.7803 -0.1243
 6996SOL     OW32623   2.857   2.529   3.783 -0.0014 -0.2929  0.3052
 6996SOL    HW132624   2.853   2.625   3.776 -0.1291 -0.5105 -2.4392
 6996SOL    HW232625   2.871   2.517   3.877  2.0134 -0.5012 -0.0074
 6997SOL     OW32626   1.197   0.361  11.957 -0.2651 -0.3274  0.1469
 6997SOL    HW132627   1.268   0.423  11.941  0.6695 -1.5094 -0.2359
 6997SOL    HW232628   1.229   0.307  12.029 -2.1717 -1.0428  0.4550
 6998SOL     OW32629   2.919   0.460  12.610  0.3220  0.7205  0.6151
 6998SOL    HW132630   2.878   0.407  12.542  1.0197 -0.0040  0.7553
 6998SOL    HW232631   3.008   0.444  12.578  0.1533  1.9862 -0.4747
 6999SOL     OW32632   3.465   2.921   6.059 -0.4009  0.1724  0.0745
 6999SOL    HW132633   3.381   2.885   6.030 -0.2545  1.6733 -2.2016
 6999SOL    HW232634   3.521   2.844   6.052  0.1487  0.5495  0.3088
 7000SOL     OW32635   0.203   0.982   7.665  0.4077  0.5699 -0.0864
 7000SOL    HW132636   0.211   1.067   7.621 -0.7854 -0.6987 -2.7514
 7000SOL    HW232637   0.268   0.984   7.735  1.5366 -0.2888 -1.0984
 7001SOL     OW32638   1.820   0.614   5.671 -0.8844 -0.2236 -0.0713
 7001SOL    HW132639   1.819   0.646   5.580  1.0276 -2.0879 -0.7606
 7001SOL    HW232640   1.824   0.519   5.660  1.2392 -0.1611  0.0985
 7002SOL     OW32641   0.772   0.759   4.303 -0.4373 -0.5564  1.1129
 7002SOL    HW132642   0.786   0.734   4.394  0.2701 -0.3055  1.0746
 7002SOL    HW232643   0.794   0.852   4.310  0.1384 -0.7252  1.4904
 7003SOL     OW32644   0.196   3.921   5.054 -0.2548  0.1422  0.7530
 7003SOL    HW132645   0.277   3.875   5.077 -1.6076 -0.4736  4.2351
 7003SOL    HW232646   0.144   3.862   5.000 -0.0668 -0.9218  1.7274
 7004SOL     OW32647   3.401   2.162   0.039 -0.1092  0.2239 -0.2712
 7004SOL    HW132648   3.339   2.215  17.734  0.7505  2.8605  1.4966
 7004SOL    HW232649   3.477   2.167  17.727 -1.0263 -1.2805 -1.6382
 7005SOL     OW32650   0.067   1.760   5.560 -0.5577 -0.0843  0.3322
 7005SOL    HW132651   0.081   1.665   5.557 -1.6481 -0.2136 -0.6935
 7005SOL    HW232652   4.727   1.762   5.617 -1.2028 -1.5911 -0.4790
 7006SOL     OW32653   1.472   2.668   8.412 -0.1125 -0.1505  0.4158
 7006SOL    HW132654   1.505   2.591   8.367 -3.6442 -1.2065 -0.4136
 7006SOL    HW232655   1.412   2.626   8.475 -0.0015 -2.0000 -0.7213
 7007SOL     OW32656   2.187   2.112   8.767 -0.6608 -0.3464  0.0594
 7007SOL    HW132657   2.164   2.200   8.796  2.8431  0.7383 -0.5236
 7007SOL    HW232658   2.210   2.070   8.850  1.4637 -0.9785 -0.8308
 7008SOL     OW32659   2.706   2.200   7.421 -0.3133 -0.3460  0.0229
 7008SOL    HW132660   2.632   2.177   7.477 -1.5994  0.2558 -1.4191
 7008SOL    HW232661   2.686   2.288   7.390 -0.9429  0.2808  2.1951
 7009SOL     OW32662   1.581   2.990   7.511  0.0832  0.5723  0.4031
 7009SOL    HW132663   1.519   3.032   7.451 -0.9751 -0.2101  0.9378
 7009SOL    HW232664   1.623   2.919   7.463 -0.0890 -0.5463  1.8853
 7010SOL     OW32665   2.485   4.522   5.137  0.4093  0.7054  0.9571
 7010SOL    HW132666   2.460   4.558   5.052 -0.9657 -2.0943  0.1586
 7010SOL    HW232667   2.577   4.509   5.118 -0.3468 -1.2341 -1.4116
 7011SOL     OW32668   3.953   4.007   0.964  0.2234 -0.2530  0.0560
 7011SOL    HW132669   3.899   4.077   1.002  0.2072 -0.6756  0.8015
 7011SOL    HW232670   4.032   4.025   1.015 -0.2950  2.8428 -0.2134
 7012SOL     OW32671   3.326   4.375   4.144 -0.0607  0.6119  0.7742
 7012SOL    HW132672   3.330   4.451   4.086 -1.3964 -0.1269 -0.2654
 7012SOL    HW232673   3.314   4.304   4.081  2.8347 -1.5073  2.6126
 7013SOL     OW32674   1.557   4.339   8.356  0.3030  0.2344  0.2419
 7013SOL    HW132675   1.512   4.255   8.361 -0.0571  0.4850  1.1733
 7013SOL    HW232676   1.569   4.351   8.261 -1.0171 -0.3175  0.0029
 7014SOL     OW32677   4.664   4.490   1.646 -0.2509 -0.4609  0.1129
 7014SOL    HW132678   4.706   4.431   1.584 -0.6290 -2.3810  1.6893
 7014SOL    HW232679   4.701   4.572   1.613 -1.5832 -0.5977 -1.7503
 7015SOL     OW32680   3.895   3.250   8.652 -0.0396 -0.0286  0.8414
 7015SOL    HW132681   3.827   3.315   8.668  0.2328  1.0566 -2.4096
 7015SOL    HW232682   3.837   3.179   8.627 -0.8809  1.2861 -0.9449
 7016SOL     OW32683   4.414   1.092   5.149 -0.3801 -0.2555  1.2001
 7016SOL    HW132684   4.443   1.029   5.082 -1.9561  0.9879 -0.6476
 7016SOL    HW232685   4.470   1.170   5.144 -2.5765  1.4015  2.6564
 7017SOL     OW32686   0.746   1.261   3.606 -0.2338  0.5586 -0.6159
 7017SOL    HW132687   0.658   1.241   3.640 -0.2408  0.4785 -0.6830
 7017SOL    HW232688   0.761   1.339   3.659  0.9758  1.1940 -1.9130
 7018SOL     OW32689   1.726   3.086   4.891  0.0095  0.2674  0.7751
 7018SOL    HW132690   1.685   3.036   4.961  0.0392 -1.0092 -0.1111
 7018SOL    HW232691   1.758   3.021   4.828  1.6523 -0.0431  1.9451
 7019SOL     OW32692   4.615   4.092   8.538 -0.4269  0.1708  0.5134
 7019SOL    HW132693   4.672   4.163   8.568  0.3228 -0.3517  0.3224
 7019SOL    HW232694   4.572   4.138   8.466  0.1469 -0.4813 -0.2469
 7020SOL     OW32695   0.206   2.064   9.034 -0.4275  0.2141  0.0096
 7020SOL    HW132696   0.294   2.025   9.037 -1.1691 -1.5564 -1.0652
 7020SOL    HW232697   0.201   2.098   8.944  1.2843  2.1941  0.6637
 7021SOL     OW32698   0.169   1.618  14.462 -0.2786 -0.0951 -0.1389
 7021SOL    HW132699   0.079   1.603  14.434  0.8385 -0.1291 -3.7008
 7021SOL    HW232700   0.172   1.580  14.550 -1.1399 -1.7740 -0.8338
 7022SOL     OW32701   0.582   2.661   9.115  0.3210  0.6585 -0.4762
 7022SOL    HW132702   0.522   2.617   9.056  1.8527 -1.1788 -0.6636
 7022SOL    HW232703   0.612   2.731   9.058  0.6067  1.1363  0.2570
 7023SOL     OW32704   3.547   4.017   6.596 -0.0591 -0.0272 -0.2349
 7023SOL    HW132705   3.623   4.022   6.654  1.2031  0.6738 -1.9450
 7023SOL    HW232706   3.478   4.040   6.659 -2.0386 -0.1550 -2.3667
 7024SOL     OW32707   2.579   1.905   1.555  0.5503  0.0238 -0.0968
 7024SOL    HW132708   2.647   1.856   1.601 -0.0570 -1.0644 -0.3510
 7024SOL    HW232709   2.587   1.879   1.464  3.1642 -0.1923  0.2120
 7025SOL     OW32710   2.499   2.881   4.753  0.1630 -0.1082  0.5284
 7025SOL    HW132711   2.417   2.888   4.704 -0.0009  1.7971  1.0922
 7025SOL    HW232712   2.499   2.971   4.784  1.1288 -0.0194  0.2569
 7026SOL     OW32713   4.645   0.283   8.438  0.1381  0.6800 -0.0970
 7026SOL    HW132714   4.662   0.209   8.379  0.1583  0.4429  0.2031
 7026SOL    HW232715   4.704   0.260   8.510  0.1837  0.5867 -0.1642
 7027SOL     OW32716   4.505   4.168  11.962 -0.0579  0.1590 -0.0194
 7027SOL    HW132717   4.495   4.258  11.993  0.9455  1.2403 -2.8331
 7027SOL    HW232718   4.543   4.189  11.876 -1.1246  0.0976 -0.5065
 7028SOL     OW32719   2.477   1.989   5.472  0.4005 -0.2142 -0.1361
 7028SOL    HW132720   2.534   2.024   5.541  0.7322  1.0420 -1.0473
 7028SOL    HW232721   2.442   1.916   5.523 -2.0335 -1.5834 -3.7725
 7029SOL     OW32722   2.730   0.761   3.009  0.5544 -0.2410 -0.3051
 7029SOL    HW132723   2.751   0.844   3.052 -2.6417  0.3225  0.1736
 7029SOL    HW232724   2.681   0.800   2.937 -1.8442 -0.9434  0.9539
 7030SOL     OW32725   3.809   1.820  15.193 -0.0146 -0.4009 -0.6064
 7030SOL    HW132726   3.862   1.900  15.188 -2.3416  1.1677  0.0271
 7030SOL    HW232727   3.742   1.841  15.257 -0.4123 -0.2724 -1.0660
 7031SOL     OW32728   4.735   3.987  14.257 -0.0015 -0.3635 -0.1281
 7031SOL    HW132729   0.066   3.936  14.302  1.6842  3.4791  1.6235
 7031SOL    HW232730   0.036   4.074  14.262 -1.5539  0.3337 -0.5961
 7032SOL     OW32731   1.695   1.464   2.700 -0.0871  0.7414 -0.2941
 7032SOL    HW132732   1.773   1.418   2.672 -0.2759 -0.5782  1.3467
 7032SOL    HW232733   1.737   1.535   2.749 -0.8265 -1.7261  3.9243
 7033SOL     OW32734   0.285   1.809   2.647 -0.6940  0.4500  0.1732
 7033SOL    HW132735   0.280   1.722   2.607 -1.8335  0.4757  0.2587
 7033SOL    HW232736   0.224   1.851   2.586 -1.3969  0.7834  1.1142
 7034SOL     OW32737   4.601   0.450   2.935  0.1902  0.0280 -0.4903
 7034SOL    HW132738   4.675   0.410   2.978 -0.1125  2.9226  2.7531
 7034SOL    HW232739   4.620   0.544   2.943  0.1422 -0.0665  0.6343
 7035SOL     OW32740   2.523   0.868   4.159  0.4118 -0.3030  0.5396
 7035SOL    HW132741   2.613   0.893   4.137 -0.7651  0.5663 -3.1938
 7035SOL    HW232742   2.529   0.774   4.142  0.3865  0.2744 -2.6688
 7036SOL     OW32743   4.731   3.826   8.967  0.0684 -0.4916 -0.3321
 7036SOL    HW132744   0.035   3.799   8.884  0.7336  0.2960 -0.2591
 7036SOL    HW232745   0.062   3.887   8.994  0.9352 -2.1278  1.1980
 7037SOL     OW32746   2.348   2.042   1.973 -0.7330  0.5398  0.2685
 7037SOL    HW132747   2.346   2.017   2.065 -1.8649  1.6220  0.5441
 7037SOL    HW232748   2.322   1.959   1.933  1.3603  0.1829 -0.3166
 7038SOL     OW32749   3.100   2.416   3.691 -0.0246 -0.0175 -0.0191
 7038SOL    HW132750   3.058   2.497   3.663  0.3472 -0.6459 -2.3350
 7038SOL    HW232751   3.023   2.369   3.724 -1.3631  0.6779 -2.1370
 7039SOL     OW32752   0.742   1.375   2.342 -0.5864  0.7224 -0.1909
 7039SOL    HW132753   0.799   1.443   2.380  2.1447  0.2036 -3.3839
 7039SOL    HW232754   0.795   1.313   2.293  1.3747  1.6375  0.7621
 7040SOL     OW32755   0.071   0.527  15.024 -0.4390  0.3475 -0.2928
 7040SOL    HW132756   0.093   0.473  15.100  0.9217  0.5992 -0.5004
 7040SOL    HW232757   0.072   0.462  14.953  0.7355  2.1407 -1.9315
 7041SOL     OW32758   2.990   2.157  14.666  0.3570  0.3878 -0.3890
 7041SOL    HW132759   3.003   2.214  14.741 -1.3401 -2.0046  1.7047
 7041SOL    HW232760   2.897   2.136  14.672  0.5931 -0.6434 -0.4125
 7042SOL     OW32761   2.967   2.095   5.717 -0.1776  0.2142 -0.1374
 7042SOL    HW132762   3.036   2.030   5.702  1.1163  1.8080 -1.0563
 7042SOL    HW232763   2.908   2.044   5.773 -0.7804  1.3847  0.2940
 7043SOL     OW32764   4.427   2.074   7.391  0.7058  0.1307 -0.3236
 7043SOL    HW132765   4.421   1.992   7.343  2.0564 -0.1573 -0.0070
 7043SOL    HW232766   4.522   2.077   7.406  0.5063  0.4966  0.8757
 7044SOL     OW32767   4.353   2.217  14.221 -0.0384  0.0639  0.3194
 7044SOL    HW132768   4.357   2.264  14.304  3.3418 -0.8282  0.6951
 7044SOL    HW232769   4.261   2.235  14.201 -0.8208 -1.3126  2.6190
 7045SOL     OW32770   0.616   1.452   6.262 -0.4522 -0.3651  0.9477
 7045SOL    HW132771   0.523   1.436   6.246 -0.0343 -0.5331 -1.2881
 7045SOL    HW232772   0.636   1.528   6.208 -2.7894 -0.0921  0.4798
 7046SOL     OW32773   2.305   0.198   1.658  0.2904 -0.3035 -0.3685
 7046SOL    HW132774   2.362   0.270   1.630 -1.0839  0.7703 -0.4250
 7046SOL    HW232775   2.284   0.169   1.570 -0.7738  1.3075 -0.6475
 7047SOL     OW32776   1.839   2.931   2.292 -0.6660 -0.7527 -0.0684
 7047SOL    HW132777   1.825   2.899   2.203 -0.4003 -1.6041  0.1969
 7047SOL    HW232778   1.755   2.923   2.338 -0.7473 -0.5540 -0.1814
 7048SOL     OW32779   3.139   4.230  16.550  0.5525 -0.2083 -0.8186
 7048SOL    HW132780   3.091   4.189  16.622 -0.0010  0.2747 -0.9072
 7048SOL    HW232781   3.094   4.195  16.473  0.6582 -1.7973 -0.1570
 7049SOL     OW32782   0.847   2.458  16.731 -0.6523 -0.4035 -0.1711
 7049SOL    HW132783   0.766   2.488  16.774 -0.8955 -0.5696 -0.5180
 7049SOL    HW232784   0.834   2.500  16.646  1.2350  1.2907  0.3841
 7050SOL     OW32785   1.419   1.480   4.481  0.6423  0.4431  0.1485
 7050SOL    HW132786   1.441   1.440   4.565  0.7611 -0.7597 -0.4534
 7050SOL    HW232787   1.366   1.553   4.514  0.5459  1.2742 -1.8764
 7051SOL     OW32788   2.009   4.107   8.136 -0.0288 -0.0673 -0.0662
 7051SOL    HW132789   2.070   4.164   8.090 -2.5934  0.9673 -2.1957
 7051SOL    HW232790   1.931   4.124   8.084  0.7800 -1.1400 -1.6447
 7052SOL     OW32791   1.956   2.794   7.085 -0.4525 -0.1330  0.3165
 7052SOL    HW132792   2.006   2.842   7.151  0.3019 -0.1147 -0.2658
 7052SOL    HW232793   1.867   2.821   7.107 -0.6840 -0.0178 -0.8022
 7053SOL     OW32794   4.392   1.339   0.290 -0.0335 -0.4340 -0.1539
 7053SOL    HW132795   4.365   1.365   0.378  2.4531 -2.1537  1.1273
 7053SOL    HW232796   4.314   1.372   0.247 -1.6334  0.5946  3.5102
 7054SOL     OW32797   3.514   1.107  15.358 -0.3729 -0.3171 -0.3126
 7054SOL    HW132798   3.453   1.160  15.409 -0.5101  1.0118 -1.8532
 7054SOL    HW232799   3.525   1.172  15.287 -0.4867  0.1810  0.1279
 7055SOL     OW32800   1.186   3.797   6.107 -0.5684 -0.0045  0.4829
 7055SOL    HW132801   1.118   3.852   6.068 -0.6899  0.2782  1.0888
 7055SOL    HW232802   1.197   3.839   6.193  0.2885  1.2621 -0.2316
 7056SOL     OW32803   0.853   2.971   1.627  1.0390  0.1812  0.2661
 7056SOL    HW132804   0.879   3.062   1.632  2.2863 -0.2033  0.6946
 7056SOL    HW232805   0.765   2.980   1.664  0.5166 -1.6848 -0.5048
 7057SOL     OW32806   0.083   1.006   8.399  0.2250 -0.0621  0.3422
 7057SOL    HW132807   0.090   0.915   8.370 -0.4894  0.0748 -0.2492
 7057SOL    HW232808   0.017   1.043   8.340 -0.4200 -1.2032  0.3410
 7058SOL     OW32809   3.975   3.541  17.404 -0.7947  0.2328 -0.0423
 7058SOL    HW132810   3.922   3.583  17.471  0.9166 -1.6025  2.5054
 7058SOL    HW232811   4.007   3.618  17.357 -1.0801 -0.2503 -1.0222
 7059SOL     OW32812   4.328   3.464  12.824  0.3135  0.0166 -0.3577
 7059SOL    HW132813   4.384   3.400  12.868 -1.0905 -0.4691  0.7262
 7059SOL    HW232814   4.341   3.540  12.880  1.5838 -1.6013  1.5343
 7060SOL     OW32815   1.301   3.390   2.270  0.0812  0.4457 -0.0671
 7060SOL    HW132816   1.392   3.389   2.298  0.4870 -0.1092 -1.3728
 7060SOL    HW232817   1.300   3.481   2.241 -1.5724  0.5530  0.3222
 7061SOL     OW32818   2.898   2.590   9.865  0.6713 -0.3901 -0.2170
 7061SOL    HW132819   2.985   2.618   9.836  0.3321 -2.1108 -2.9039
 7061SOL    HW232820   2.917   2.553   9.951 -0.6067 -1.4577 -0.3914
 7062SOL     OW32821   0.611   1.151   4.073  0.4978  0.4673  0.0382
 7062SOL    HW132822   0.597   1.157   4.167 -0.8006 -0.8001 -0.0676
 7062SOL    HW232823   0.550   1.079   4.053  0.6170  0.1808  0.6977
 7063SOL     OW32824   2.872   1.366  12.496 -0.5769 -0.0281  0.3132
 7063SOL    HW132825   2.933   1.434  12.526 -1.2364  0.9699 -0.6291
 7063SOL    HW232826   2.885   1.383  12.403  0.6351  0.1497  0.5094
 7064SOL     OW32827   0.914   2.931  13.084  0.6228  0.3422  0.5138
 7064SOL    HW132828   0.961   3.004  13.123  0.3792  1.4688 -1.2769
 7064SOL    HW232829   0.964   2.852  13.105  1.4337  0.5798 -0.5560
 7065SOL     OW32830   2.607   0.159   2.415 -0.2784 -0.2151 -0.3643
 7065SOL    HW132831   2.633   0.207   2.337 -1.0031 -0.2084 -0.6005
 7065SOL    HW232832   2.516   0.186   2.425 -0.1705 -0.5312  1.4972
 7066SOL     OW32833   2.789   3.532   5.017  0.2222 -0.2089 -0.4471
 7066SOL    HW132834   2.877   3.497   5.006  1.7824  2.7464  2.6309
 7066SOL    HW232835   2.782   3.537   5.113 -0.2212  2.4867 -0.6205
 7067SOL     OW32836   0.203   0.843  17.222 -0.2335 -0.4086  0.4730
 7067SOL    HW132837   0.250   0.918  17.188 -2.0175  0.3789 -0.2468
 7067SOL    HW232838   0.132   0.888  17.268 -0.5913  1.0177 -1.5130
 7068SOL     OW32839   3.629   0.792   8.628 -0.5041  0.0425  0.4809
 7068SOL    HW132840   3.602   0.706   8.596  2.1592  0.0512 -1.7621
 7068SOL    HW232841   3.569   0.791   8.703  1.4761  0.8962  2.0704
 7069SOL     OW32842   4.095   2.468   8.050  0.3182  0.1043  0.1234
 7069SOL    HW132843   4.150   2.440   7.976 -1.3389 -1.0779 -0.6680
 7069SOL    HW232844   4.071   2.389   8.099  0.1153  0.2759  0.3002
 7070SOL     OW32845   2.828   0.568   0.712 -0.3036  0.3662 -0.0734
 7070SOL    HW132846   2.855   0.646   0.664  2.4794  0.1166  1.1379
 7070SOL    HW232847   2.751   0.541   0.661 -1.2620  0.8209  1.1312
 7071SOL     OW32848   2.606   3.107  10.402 -0.4253  0.2019  0.3982
 7071SOL    HW132849   2.530   3.083  10.455  0.1094 -0.0783  1.0408
 7071SOL    HW232850   2.639   3.020  10.379 -0.0180  0.6173 -0.5797
 7072SOL     OW32851   3.768   1.915   6.376  0.2360  0.4639 -0.1085
 7072SOL    HW132852   3.742   1.853   6.444  1.3701  0.4732  0.3506
 7072SOL    HW232853   3.679   1.944   6.359 -0.8892 -2.2083  1.1161
 7073SOL     OW32854   0.151   4.666  16.870  1.0980 -0.2744 -0.0153
 7073SOL    HW132855   0.091   4.643  16.799  1.0479  0.2064 -0.1281
 7073SOL    HW232856   0.171   0.022  16.860  1.7967 -0.4161  0.0871
 7074SOL     OW32857   2.800   0.967   5.972 -0.1777  0.1265  0.0555
 7074SOL    HW132858   2.714   0.930   5.990  0.1172 -1.0863 -1.0803
 7074SOL    HW232859   2.834   0.982   6.061  0.8599 -0.6005 -0.2277
 7075SOL     OW32860   1.324   2.169   8.755  0.2982 -0.1086 -0.3489
 7075SOL    HW132861   1.390   2.102   8.774  1.0961  0.9396  0.5571
 7075SOL    HW232862   1.364   2.250   8.788 -1.0355 -0.4983  2.2107
 7076SOL     OW32863   2.328   0.530   6.426  1.0488 -0.0522 -0.3536
 7076SOL    HW132864   2.276   0.472   6.482 -0.2241  0.4736 -0.9796
 7076SOL    HW232865   2.373   0.577   6.496 -0.1327  1.6758 -0.7444
 7077SOL     OW32866   1.601   0.553   1.347 -0.6342 -0.4088 -0.3346
 7077SOL    HW132867   1.550   0.496   1.288 -0.1491  0.3856 -1.5196
 7077SOL    HW232868   1.598   0.637   1.302  1.3574  0.2790  0.8160
 7078SOL     OW32869   1.084   4.556   8.155  0.1443 -0.2110  0.1711
 7078SOL    HW132870   1.166   4.544   8.202 -0.2977 -0.4144  0.8873
 7078SOL    HW232871   1.041   4.600   8.228 -0.3479 -2.1588  1.0466
 7079SOL     OW32872   2.489   4.080   8.662  0.2643 -0.5276 -0.1597
 7079SOL    HW132873   2.473   4.172   8.643  1.4067  0.1653  2.2577
 7079SOL    HW232874   2.491   4.096   8.757  0.4826  0.6239 -0.3638
 7080SOL     OW32875   2.914   0.978   2.460  0.5259  0.3197  0.5158
 7080SOL    HW132876   2.920   0.909   2.394  0.5705 -1.0931  2.0093
 7080SOL    HW232877   2.886   0.931   2.538 -0.1848 -0.5076 -0.2301
 7081SOL     OW32878   1.681   2.476   9.219  0.2332 -0.1992 -1.1910
 7081SOL    HW132879   1.746   2.478   9.149 -0.8396  1.5731 -2.1368
 7081SOL    HW232880   1.609   2.531   9.187  0.5706  0.9941  0.0919
 7082SOL     OW32881   1.425   3.772   3.692  0.2168  0.3617 -0.8442
 7082SOL    HW132882   1.473   3.849   3.723 -0.9017  0.7642 -0.0930
 7082SOL    HW232883   1.338   3.793   3.726  1.2335 -0.6455  2.3822
 7083SOL     OW32884   2.328   1.258   4.145 -0.8171 -0.4978 -0.0332
 7083SOL    HW132885   2.381   1.211   4.210  1.9079  0.8300 -1.3044
 7083SOL    HW232886   2.323   1.190   4.079  0.0633 -2.4427  1.8996
 7084SOL     OW32887   2.066   1.705   4.790  0.4994  0.2211 -0.2269
 7084SOL    HW132888   2.129   1.695   4.719 -0.7764 -0.0186 -1.3077
 7084SOL    HW232889   1.996   1.756   4.749  0.4818  0.1635 -0.2697
 7085SOL     OW32890   1.364   1.194  14.004  0.1152  0.5249  0.1888
 7085SOL    HW132891   1.404   1.253  13.940 -1.3119  2.1699  0.8313
 7085SOL    HW232892   1.407   1.220  14.086  0.8188  1.3227 -0.4378
 7086SOL     OW32893   2.281   3.993   1.059  0.6188 -0.4949  0.4328
 7086SOL    HW132894   2.295   4.010   1.152  1.3378 -2.0203  0.6154
 7086SOL    HW232895   2.244   4.075   1.026  3.1738  0.8785  0.9291
 7087SOL     OW32896   4.129   0.102   3.215 -0.0906  0.2561  0.8328
 7087SOL    HW132897   4.189   0.173   3.193 -1.3258  0.1628 -2.8054
 7087SOL    HW232898   4.069   0.149   3.273  0.3800  1.1593  0.5977
 7088SOL     OW32899   2.630   4.567   3.291 -0.5422  0.1893  0.0149
 7088SOL    HW132900   2.715   4.610   3.286 -0.8143  0.9104  1.5079
 7088SOL    HW232901   2.572   4.629   3.247 -0.6757 -0.8756 -1.3210
 7089SOL     OW32902   0.093   1.909   1.969  0.3037  0.0726 -0.4677
 7089SOL    HW132903   0.117   1.866   2.051 -0.4099 -0.0499 -0.3228
 7089SOL    HW232904   0.074   1.998   1.997 -1.6310 -0.1711 -1.0007
 7090SOL     OW32905   1.863   1.231   1.299  0.0331 -0.1140  0.5060
 7090SOL    HW132906   1.787   1.285   1.323  0.0905  0.6466 -1.0375
 7090SOL    HW232907   1.845   1.161   1.362 -1.6669 -1.6406 -1.6735
 7091SOL     OW32908   2.556   4.119   2.985  0.1581  0.3411  0.2977
 7091SOL    HW132909   2.494   4.048   2.968 -0.5432  1.4589 -1.7896
 7091SOL    HW232910   2.592   4.139   2.899  0.4295 -3.9463 -0.5821
 7092SOL     OW32911   0.759   4.661   2.940  0.4345 -0.5039  0.0379
 7092SOL    HW132912   0.823   4.631   2.876  0.9864 -0.1949  0.4426
 7092SOL    HW232913   0.721   4.734   2.891  4.0877 -1.0590 -3.5997
 7093SOL     OW32914   4.007   3.934  17.728  0.1754  0.2592  0.2980
 7093SOL    HW132915   3.992   3.943   0.077  0.6285 -0.6184  0.4577
 7093SOL    HW232916   4.051   3.851  17.713 -1.2907 -0.4593  0.0014
 7094SOL     OW32917   2.004   1.681   9.424 -0.0257 -0.4975 -0.1860
 7094SOL    HW132918   2.029   1.599   9.467  1.2821 -0.2770 -0.5339
 7094SOL    HW232919   1.982   1.648   9.336  0.7607 -1.4360 -0.0290
 7095SOL     OW32920   0.740   2.968   3.527  0.0394 -0.3324 -0.3274
 7095SOL    HW132921   0.692   2.904   3.579  2.8982 -0.9144  1.6256
 7095SOL    HW232922   0.803   2.910   3.484 -0.6745 -0.2585 -1.4798
 7096SOL     OW32923   2.837   0.620   9.079  0.3901 -0.0074  0.4530
 7096SOL    HW132924   2.848   0.627   9.174  1.0416  0.7444  0.3175
 7096SOL    HW232925   2.903   0.556   9.053 -0.4223  0.4070 -2.5507
 7097SOL     OW32926   2.734   1.895  11.366 -0.0199  0.1635 -0.4688
 7097SOL    HW132927   2.708   1.869  11.277 -2.7665  0.4750  0.2398
 7097SOL    HW232928   2.655   1.861  11.408  0.2042 -1.5368 -1.4134
 7098SOL     OW32929   2.354   2.972   8.278  0.1761 -0.3706  0.2615
 7098SOL    HW132930   2.357   3.025   8.358 -1.9573  2.5669 -1.6066
 7098SOL    HW232931   2.286   2.908   8.301 -3.3667  3.3432  0.1515
 7099SOL     OW32932   0.359   2.104   5.626 -0.0652 -0.2368  0.3018
 7099SOL    HW132933   0.392   2.159   5.556 -0.4085  0.8613  1.0095
 7099SOL    HW232934   0.270   2.136   5.640  0.5359  1.5151  0.1368
 7100SOL     OW32935   2.224   3.574  12.547 -0.2451 -0.0715  0.5355
 7100SOL    HW132936   2.308   3.612  12.574  0.2616 -0.6567 -0.2193
 7100SOL    HW232937   2.161   3.609  12.610 -0.5407  1.1425 -0.4451
 7101SOL     OW32938   2.270   0.733   5.123 -0.0226  0.3062 -0.2647
 7101SOL    HW132939   2.324   0.808   5.098 -0.5840  1.1967  1.1722
 7101SOL    HW232940   2.334   0.667   5.148  0.7957  1.5457  0.9136
 7102SOL     OW32941   1.712   2.757   8.587 -0.6693  0.0448  0.4885
 7102SOL    HW132942   1.658   2.728   8.513 -0.9160  1.5783  0.0785
 7102SOL    HW232943   1.777   2.817   8.551 -0.8560 -0.5673 -0.8828
 7103SOL     OW32944   1.013   4.705   8.418  0.1356 -0.2561  0.0471
 7103SOL    HW132945   1.019   4.626   8.472  0.6168 -0.0072  0.3569
 7103SOL    HW232946   0.933   0.009   8.451  1.4368  1.8146  0.6687
 7104SOL     OW32947   2.008   0.678  17.529  0.1216 -0.0111  0.3052
 7104SOL    HW132948   2.087   0.680  17.584  0.0895  0.7637  0.3224
 7104SOL    HW232949   1.988   0.771  17.536  1.5974  0.2639  0.9615
 7105SOL     OW32950   0.292   1.369   8.755  0.3493 -0.3322  0.1357
 7105SOL    HW132951   0.318   1.298   8.696  0.3151  3.0879 -4.0231
 7105SOL    HW232952   0.250   1.432   8.697 -0.3824  0.6788  1.7605
 7106SOL     OW32953   0.815   1.205  12.427 -0.4666  0.2574 -0.0667
 7106SOL    HW132954   0.861   1.260  12.489 -0.4771  1.7762 -1.4160
 7106SOL    HW232955   0.787   1.133  12.484  1.1476  0.4845  0.9702
 7107SOL     OW32956   0.435   0.995  12.801  0.1735  0.7734  0.7561
 7107SOL    HW132957   0.495   1.069  12.792 -1.5435  1.7511 -2.5854
 7107SOL    HW232958   0.494   0.926  12.830 -0.7211  0.2389  1.2931
 7108SOL     OW32959   0.912   4.551  10.756 -0.3151  0.4681 -0.1911
 7108SOL    HW132960   0.942   4.477  10.810 -1.0359 -0.9682 -1.7362
 7108SOL    HW232961   0.829   4.567  10.803  0.4616  1.3620  0.8790
 7109SOL     OW32962   3.585   3.939   3.287  0.3325  0.9156  0.1186
 7109SOL    HW132963   3.661   3.896   3.247  0.0895  1.9158 -1.4399
 7109SOL    HW232964   3.628   4.012   3.334  1.8704 -0.0481  0.2133
 7110SOL     OW32965   2.014   2.355   6.044  0.2125 -0.6578 -0.2633
 7110SOL    HW132966   2.098   2.340   6.089 -0.2000  2.0057  1.3519
 7110SOL    HW232967   2.031   2.294   5.972 -1.7158  0.5531 -1.7312
 7111SOL     OW32968   0.067   3.001   3.576  0.7609  0.2583 -0.4865
 7111SOL    HW132969   0.049   3.085   3.536  0.4184  0.1520 -0.5566
 7111SOL    HW232970   0.155   3.028   3.602  1.0740  0.9565 -2.2998
 7112SOL     OW32971   2.832   2.526   4.612  0.7323  0.2869 -0.2742
 7112SOL    HW132972   2.815   2.523   4.707  3.0088 -1.3770  0.0869
 7112SOL    HW232973   2.740   2.530   4.585  1.0203  1.2810 -1.0885
 7113SOL     OW32974   1.894   1.448   3.854  0.4368 -0.1885  0.3182
 7113SOL    HW132975   1.925   1.453   3.945 -1.5749 -1.7189  1.0871
 7113SOL    HW232976   1.974   1.466   3.804 -1.0416 -0.0055 -1.9864
 7114SOL     OW32977   4.460   3.359   8.185  0.6491 -0.0920  0.1004
 7114SOL    HW132978   4.532   3.312   8.142  0.0117 -0.3540 -0.6848
 7114SOL    HW232979   4.413   3.401   8.113 -1.3107 -1.6096  0.4886
 7115SOL     OW32980   0.688   2.744  10.531  0.3920 -0.2241  0.3983
 7115SOL    HW132981   0.676   2.826  10.579 -1.5628 -0.7195  0.7903
 7115SOL    HW232982   0.610   2.753  10.477 -0.4177 -0.0438  1.5755
 7116SOL     OW32983   1.944   0.704   9.544  0.2322  0.3325 -0.5747
 7116SOL    HW132984   1.968   0.638   9.479 -0.6061 -0.1149 -0.4243
 7116SOL    HW232985   2.031   0.745   9.554 -0.6858  1.9197  0.9504
 7117SOL     OW32986   4.466   3.359   6.454  0.1691  0.5607  0.3552
 7117SOL    HW132987   4.516   3.277   6.455 -1.6249 -0.5995 -2.6228
 7117SOL    HW232988   4.379   3.326   6.477 -0.8599  1.6148 -1.9860
 7118SOL     OW32989   4.724   4.477   3.019  0.0955 -0.2152 -0.0607
 7118SOL    HW132990   4.685   4.565   3.026 -2.4214 -1.2502 -0.9485
 7118SOL    HW232991   0.027   4.458   3.104  0.4014  1.5758  0.1994
 7119SOL     OW32992   4.434   2.426   2.168 -0.0640 -0.2258  0.0154
 7119SOL    HW132993   4.393   2.376   2.097 -0.0402 -0.5022  0.1982
 7119SOL    HW232994   4.472   2.347   2.206 -1.2695 -1.0911 -0.6036
 7120SOL     OW32995   4.348   3.205   1.893 -0.0064  0.2293 -0.0130
 7120SOL    HW132996   4.343   3.261   1.971 -1.3712  0.9111 -0.6005
 7120SOL    HW232997   4.397   3.129   1.923  0.1121 -0.7442 -2.7122
 7121SOL     OW32998   2.554   0.267   6.510 -0.0108 -0.2898  0.0255
 7121SOL    HW132999   2.546   0.295   6.601 -0.6179 -1.0070  0.1888
 7121SOL    HW233000   2.602   0.348   6.493  0.4595 -0.6039 -0.1763
 7122SOL     OW33001   4.304   1.962  17.673 -0.1005  0.3630  0.2584
 7122SOL    HW133002   4.383   1.993  17.718  0.0573  2.2230 -1.2594
 7122SOL    HW233003   4.296   1.883  17.725 -1.2592  0.9595  0.9967
 7123SOL     OW33004   2.335   0.001  12.593 -0.1845  0.5717 -0.5116
 7123SOL    HW133005   2.338   0.009  12.689  0.4172 -1.1656 -0.3996
 7123SOL    HW233006   2.408   4.683  12.567  0.6398  1.6614 -0.4860
 7124SOL     OW33007   3.179   4.698  10.562  0.4774  0.0731 -0.2399
 7124SOL    HW133008   3.216   0.000  10.641 -4.0584  2.4428  0.6861
 7124SOL    HW233009   3.211   4.608  10.570  1.8081  0.5222 -0.4700
 7125SOL     OW33010   3.872   2.566   4.842  0.1787  0.1409 -0.1882
 7125SOL    HW133011   3.911   2.479   4.846 -2.1839 -0.8595  1.1134
 7125SOL    HW233012   3.795   2.555   4.898 -0.7933  0.7944 -1.3890
 7126SOL     OW33013   4.143   4.214   5.629 -0.2454  0.0043 -0.1763
 7126SOL    HW133014   4.191   4.194   5.549 -1.5184  0.5719 -1.0700
 7126SOL    HW233015   4.162   4.138   5.684  1.1039  1.0170  0.7736
 7127SOL     OW33016   4.283   2.204   1.556  0.9091  0.0915 -0.0953
 7127SOL    HW133017   4.285   2.162   1.642  0.0573  1.8232  0.7586
 7127SOL    HW233018   4.377   2.193   1.538  1.2643 -1.3858  2.6845
 7128SOL     OW33019   4.534   3.770  17.392  0.3386  0.3251 -0.5104
 7128SOL    HW133020   4.498   3.801  17.475 -1.7598 -1.5124 -0.7368
 7128SOL    HW233021   4.629   3.783  17.400  0.6781 -2.0053 -0.8177
 7129SOL     OW33022   0.924   0.217   9.231 -0.0757 -0.0447  0.6462
 7129SOL    HW133023   0.921   0.234   9.325  1.2790 -0.9273  0.8617
 7129SOL    HW233024   0.953   0.299   9.190  0.1463 -0.9665 -1.0592
 7130SOL     OW33025   3.495   4.330   1.730 -0.3973  0.7070  0.1598
 7130SOL    HW133026   3.579   4.373   1.746 -1.3542  2.2947  0.9107
 7130SOL    HW233027   3.526   4.257   1.676  0.5925  0.9583  0.3771
 7131SOL     OW33028   0.169   3.508   3.907  0.0166 -0.5765 -0.6285
 7131SOL    HW133029   0.150   3.454   3.830 -3.6198  1.6214 -1.2408
 7131SOL    HW233030   0.081   3.542   3.923 -0.0904 -0.7630 -0.8036
 7132SOL     OW33031   2.576   0.564   9.150 -0.6986  0.1604 -0.0452
 7132SOL    HW133032   2.519   0.634   9.119 -0.4702  0.8188  1.0448
 7132SOL    HW233033   2.660   0.600   9.121 -2.7024  2.7847 -2.5291
 7133SOL     OW33034   3.324   2.240   6.253 -0.6536 -0.5507 -0.0632
 7133SOL    HW133035   3.295   2.323   6.214 -1.2520 -1.8331 -2.3486
 7133SOL    HW233036   3.237   2.208   6.279 -0.1162 -0.9692  1.1990
 7134SOL     OW33037   4.005   1.000   2.316 -0.0664 -0.6191  0.1897
 7134SOL    HW133038   4.096   1.020   2.338 -0.3613 -0.0161  0.8425
 7134SOL    HW233039   4.013   0.929   2.252  0.3843  0.3742 -0.8480
 7135SOL     OW33040   0.922   2.081  12.221 -0.5633 -0.0703  0.0708
 7135SOL    HW133041   0.892   2.155  12.274  1.5024  1.6778 -1.2175
 7135SOL    HW233042   1.017   2.084  12.223 -0.5104 -1.4168 -0.4506
 7136SOL     OW33043   1.158   0.743   1.153 -0.4042  0.4634 -0.2858
 7136SOL    HW133044   1.224   0.731   1.221  0.5986 -0.1782 -1.3852
 7136SOL    HW233045   1.196   0.797   1.083 -0.1051 -1.3636 -1.5198
 7137SOL     OW33046   0.788   0.246   2.601  0.3129 -0.1153 -0.1088
 7137SOL    HW133047   0.779   0.324   2.546 -1.9154 -0.5706 -0.3968
 7137SOL    HW233048   0.776   0.175   2.538  0.3419 -1.0978  0.9898
 7138SOL     OW33049   1.988   2.784  12.511 -0.3699  0.1737 -0.2411
 7138SOL    HW133050   1.972   2.763  12.603  0.9866 -0.7573 -0.2110
 7138SOL    HW233051   1.944   2.713  12.464  0.4408  0.1271 -0.9339
 7139SOL     OW33052   3.685   2.465  11.176 -0.4147  0.0036  0.0112
 7139SOL    HW133053   3.776   2.433  11.174  0.1856  1.7173  0.1871
 7139SOL    HW233054   3.637   2.388  11.207 -1.4434  1.8401  3.0017
 7140SOL     OW33055   4.724   0.074   2.264 -0.4916  0.5223  0.1237
 7140SOL    HW133056   0.057   0.009   2.266 -0.3032  0.7053 -0.7755
 7140SOL    HW233057   4.703   0.072   2.171  0.4675 -3.5663  0.0178
 7141SOL     OW33058   3.443   2.795   1.849 -0.3370  0.2640 -0.8164
 7141SOL    HW133059   3.477   2.835   1.769  1.7589 -0.4875 -0.3075
 7141SOL    HW233060   3.365   2.745   1.827  0.8467 -0.9119 -2.3690
 7142SOL     OW33061   4.572   0.026   4.711 -0.3315 -0.1884  0.4164
 7142SOL    HW133062   4.546   0.113   4.681  1.1089  0.0936 -0.0162
 7142SOL    HW233063   4.501   4.725   4.763 -0.9401  0.6566  0.1948
 7143SOL     OW33064   2.517   2.808   7.880 -0.1124 -0.1422 -0.6354
 7143SOL    HW133065   2.528   2.860   7.960 -0.1672 -0.3236 -0.5112
 7143SOL    HW233066   2.448   2.856   7.834 -0.5254  0.6511  0.8005
 7144SOL     OW33067   4.434   4.519   6.274  0.1752 -0.8137  0.1525
 7144SOL    HW133068   4.491   4.455   6.231 -0.4416 -0.1996 -1.5851
 7144SOL    HW233069   4.457   4.598   6.224  2.6541  0.4901  3.2886
 7145SOL     OW33070   1.738   1.963   8.950  0.2672  0.2378  0.4020
 7145SOL    HW133071   1.716   1.911   9.028 -0.1917 -0.7502 -0.3954
 7145SOL    HW233072   1.801   2.024   8.989  0.4163 -0.4238  1.1979
 7146SOL     OW33073   3.145   0.331   4.915 -0.7641 -0.1501 -0.3797
 7146SOL    HW133074   3.155   0.370   4.829  0.6389  0.5788  0.0951
 7146SOL    HW233075   3.152   0.236   4.905  0.0649 -0.1173 -0.1349
 7147SOL     OW33076   0.958   3.753   2.505  0.2588  0.0190 -0.4812
 7147SOL    HW133077   0.976   3.843   2.531 -0.1511  1.0470 -3.8071
 7147SOL    HW233078   0.877   3.732   2.552 -0.5049  0.4094 -1.6318
 7148SOL     OW33079   0.026   2.960   6.759 -0.2985 -0.4813 -0.5118
 7148SOL    HW133080   4.681   2.927   6.796 -0.3730 -4.2321 -4.0739
 7148SOL    HW233081   4.735   2.949   6.668 -0.5696  4.1360 -1.0043
 7149SOL     OW33082   2.794   3.751   3.233  0.4209 -0.5626 -0.1486
 7149SOL    HW133083   2.800   3.839   3.196 -3.6778 -0.3626 -0.2967
 7149SOL    HW233084   2.700   3.743   3.250  0.6691  0.3226  1.5432
 7150SOL     OW33085   4.735   1.575   8.229 -0.0509 -0.2388 -0.2286
 7150SOL    HW133086   4.643   1.577   8.256  0.4163  0.4192  1.2812
 7150SOL    HW233087   0.025   1.515   8.299 -0.4380 -1.4968 -1.1380
 7151SOL     OW33088   1.986   0.831  10.363 -0.7409 -0.5159 -0.5417
 7151SOL    HW133089   1.939   0.780  10.297 -0.1449 -1.9608  0.1421
 7151SOL    HW233090   1.920   0.822  10.432 -0.9030  0.4442 -0.5743
 7152SOL     OW33091   2.190   4.656   5.595  0.0789 -0.1370 -0.0493
 7152SOL    HW133092   2.223   4.688   5.679 -0.1779  3.3190 -1.2548
 7152SOL    HW233093   2.205   4.562   5.598 -0.2382 -0.1284  2.4358
 7153SOL     OW33094   1.896   3.305   8.547 -0.3031 -0.8053 -1.1001
 7153SOL    HW133095   1.910   3.371   8.614 -1.5005 -1.1903 -0.4729
 7153SOL    HW233096   1.976   3.314   8.495 -0.5474  0.8512 -1.2098
 7154SOL     OW33097   4.106   4.651   6.000 -0.5031  0.4742 -0.0944
 7154SOL    HW133098   4.159   4.617   5.928 -0.8628  0.4358 -0.3413
 7154SOL    HW233099   4.071   4.570   6.036  2.8768 -0.1559  1.8067
 7155SOL     OW33100   2.894   0.660  10.960  0.4627 -0.1611  0.0781
 7155SOL    HW133101   2.884   0.674  11.054 -0.0246 -1.3161  0.2001
 7155SOL    HW233102   2.877   0.566  10.950 -0.3888  0.1445 -1.3373
 7156SOL     OW33103   4.088   2.399  13.397 -0.6110 -0.1145  0.1903
 7156SOL    HW133104   4.077   2.314  13.440  0.8093  0.5708  1.9506
 7156SOL    HW233105   4.076   2.374  13.306 -1.0945 -2.4940  0.8969
 7157SOL     OW33106   3.707   2.275   7.528 -0.4104 -0.1551 -0.5494
 7157SOL    HW133107   3.719   2.294   7.435  0.3787 -0.8572 -0.5914
 7157SOL    HW233108   3.647   2.201   7.526 -0.1847 -0.3315 -0.8427
 7158SOL     OW33109   4.187   1.493   0.107  0.0157  0.1004 -0.1918
 7158SOL    HW133110   4.105   1.540   0.123 -0.0027 -0.9159  2.6901
 7158SOL    HW233111   4.154   1.418   0.057 -1.3427  0.9396 -0.5799
 7159SOL     OW33112   4.444   3.028   7.876  0.0661 -0.4575 -0.5696
 7159SOL    HW133113   4.480   2.948   7.839  1.4015  0.4534 -1.2531
 7159SOL    HW233114   4.387   3.062   7.807 -1.1019 -0.9713  0.1432
 7160SOL     OW33115   1.328   2.774  11.928 -0.7453 -0.1609  0.1699
 7160SOL    HW133116   1.379   2.757  11.849  1.2493 -0.1986  1.4796
 7160SOL    HW233117   1.245   2.740  11.895 -0.7029  0.5589 -0.6887
 7161SOL     OW33118   1.891   3.479   3.860 -0.0543 -0.1386 -0.1574
 7161SOL    HW133119   1.921   3.511   3.774 -3.5120  1.1663 -0.9030
 7161SOL    HW233120   1.882   3.389   3.827 -1.2885  0.1609 -0.6508
 7162SOL     OW33121   4.186   1.171  14.899 -0.5706 -0.8714  0.1709
 7162SOL    HW133122   4.182   1.077  14.917 -0.8375 -0.6554  1.2585
 7162SOL    HW233123   4.231   1.186  14.815  2.1137 -0.4502  1.6872
 7163SOL     OW33124   3.695   3.515   3.815 -0.5006  0.2903 -0.7146
 7163SOL    HW133125   3.759   3.532   3.745  0.3842  2.1575  0.5685
 7163SOL    HW233126   3.762   3.504   3.882 -2.3282 -1.0645  0.8865
 7164SOL     OW33127   1.718   0.001   4.814 -0.2120 -0.2146 -0.2772
 7164SOL    HW133128   1.795   4.691   4.844 -0.2790  1.2085  2.0423
 7164SOL    HW233129   1.658   4.717   4.886 -0.9074  0.9652 -0.5174
 7165SOL     OW33130   4.517   1.990   7.035 -0.0753 -0.3956  0.6154
 7165SOL    HW133131   4.531   1.914   7.092 -0.5556 -1.8067 -1.1673
 7165SOL    HW233132   4.607   2.002   7.004 -1.1269  1.0380 -1.8776
 7166SOL     OW33133   1.457   2.022   3.665 -0.1169 -0.1668 -0.4237
 7166SOL    HW133134   1.552   2.008   3.668  0.0599  1.5342  1.7752
 7166SOL    HW233135   1.434   2.014   3.757  0.7904  2.3713  0.0440
 7167SOL     OW33136   0.269   3.742  13.383  0.1238  0.1790 -0.0292
 7167SOL    HW133137   0.334   3.738  13.313  0.4188 -0.3574  0.2751
 7167SOL    HW233138   0.188   3.762  13.336  0.8636 -0.2294 -1.4951
 7168SOL     OW33139   4.717   0.720   6.725 -0.1288 -0.1216  0.8762
 7168SOL    HW133140   0.027   0.791   6.770 -0.0579 -0.3244  1.1200
 7168SOL    HW233141   4.646   0.704   6.787 -0.5197  2.5511  1.1487
 7169SOL     OW33142   3.069   2.910  17.007  0.6727  0.0660 -0.4020
 7169SOL    HW133143   3.006   2.961  16.957  1.2381 -0.6862 -1.8847
 7169SOL    HW233144   3.145   2.916  16.950  0.8302 -1.1832 -0.3374
 7170SOL     OW33145   4.131   3.437   6.368 -0.4017 -0.3526  0.1202
 7170SOL    HW133146   4.121   3.343   6.352  0.6591 -0.1057 -1.9181
 7170SOL    HW233147   4.171   3.440   6.455 -1.4155 -1.4719  0.6274
 7171SOL     OW33148   2.819   0.644   3.639  0.0063 -0.1558 -0.2106
 7171SOL    HW133149   2.824   0.651   3.734 -0.8268  1.6628 -0.2977
 7171SOL    HW233150   2.826   0.551   3.619 -0.3350 -0.2504  0.1213
 7172SOL     OW33151   0.003   2.058   7.688 -0.0103 -0.5125  0.1575
 7172SOL    HW133152   0.076   2.092   7.636 -0.2768  2.5814  1.7944
 7172SOL    HW233153   4.712   1.984   7.635 -1.5657 -0.6674  1.1871
 7173SOL     OW33154   2.619   3.662   1.980  0.3401 -0.2800 -0.7921
 7173SOL    HW133155   2.652   3.598   2.042 -0.9173 -1.6884 -1.5820
 7173SOL    HW233156   2.696   3.663   1.924  1.1963 -0.2197  0.3935
 7174SOL     OW33157   1.323   3.328   8.385  0.3668  0.5927 -0.3746
 7174SOL    HW133158   1.290   3.408   8.427 -2.8134 -0.5276 -0.7261
 7174SOL    HW233159   1.365   3.291   8.462 -0.8335  1.3687  0.6683
 7175SOL     OW33160   1.629   2.072  15.651  0.2617 -0.3833  0.0902
 7175SOL    HW133161   1.678   2.091  15.571 -0.1774 -1.0454 -0.3334
 7175SOL    HW233162   1.629   2.161  15.688  0.3766 -0.0021 -0.8168
 7176SOL     OW33163   3.709   0.640   9.858  0.5552  0.1040  0.0503
 7176SOL    HW133164   3.671   0.655   9.944  2.2448  1.1914  0.6050
 7176SOL    HW233165   3.715   0.732   9.829 -1.1234 -0.3049 -1.5795
 7177SOL     OW33166   2.345   0.079   0.315  0.0051  0.1226  0.0438
 7177SOL    HW133167   2.318   0.115   0.399 -0.9940  1.5021 -0.8726
 7177SOL    HW233168   2.373   4.733   0.354  0.4486  0.0729 -0.3724
 7178SOL     OW33169   2.094   1.405   1.794 -0.3237 -0.8609  0.1233
 7178SOL    HW133170   2.068   1.347   1.723 -0.6685 -1.5046  0.7776
 7178SOL    HW233171   2.168   1.453   1.756 -0.5806 -0.8006 -0.3006
 7179SOL     OW33172   1.585   1.990  13.282 -0.1299 -0.0255  0.1053
 7179SOL    HW133173   1.531   1.981  13.361 -0.6281  1.7005 -0.0394
 7179SOL    HW233174   1.664   1.939  13.298 -1.7399 -2.9925 -1.3483
 7180SOL     OW33175   1.969   3.061   9.122 -0.6549  0.4318  0.1537
 7180SOL    HW133176   2.014   3.057   9.038 -1.2643  0.0824 -0.1570
 7180SOL    HW233177   1.916   3.138   9.102 -0.9088  0.8297  2.3078
 7181SOL     OW33178   3.245   0.315  14.777 -0.2744  0.3521  0.1696
 7181SOL    HW133179   3.301   0.355  14.711 -1.8713 -0.4881 -1.6991
 7181SOL    HW233180   3.192   0.268  14.713  0.7261  0.7583 -0.9382
 7182SOL     OW33181   2.067   3.555   5.523 -0.7309  0.1430 -0.1498
 7182SOL    HW133182   2.078   3.599   5.607 -0.3293  2.3281 -1.3333
 7182SOL    HW233183   2.147   3.572   5.474 -1.3300 -0.2510 -1.2946
 7183SOL     OW33184   0.708   0.029   7.313 -0.1269  0.2930  0.6103
 7183SOL    HW133185   0.665   0.089   7.252 -1.7098 -1.6220 -0.1658
 7183SOL    HW233186   0.762   0.080   7.373 -1.9082  0.0328  2.4184
 7184SOL     OW33187   4.542   2.388   3.385  0.7124  0.0688  0.2674
 7184SOL    HW133188   4.593   2.308   3.372 -1.2624 -1.1636  0.0128
 7184SOL    HW233189   4.523   2.384   3.478  1.4728  1.7140  0.4860
 7185SOL     OW33190   2.982   1.911  11.435  0.3635 -0.0941  0.0827
 7185SOL    HW133191   2.889   1.909  11.414  0.1276 -0.3023  1.1660
 7185SOL    HW233192   2.991   1.825  11.475  0.2415 -0.7033 -1.1949
 7186SOL     OW33193   2.831   1.772   8.756 -0.1770 -0.0921  0.0045
 7186SOL    HW133194   2.907   1.723   8.725  0.0666 -0.7417  1.5815
 7186SOL    HW233195   2.802   1.819   8.678  0.0565  0.3350  0.1765
 7187SOL     OW33196   2.167   3.955   3.756  0.0764  0.7128 -0.8986
 7187SOL    HW133197   2.244   4.001   3.723  0.2792 -0.1081 -1.5910
 7187SOL    HW233198   2.158   4.011   3.833  2.3435  0.4234 -0.4260
 7188SOL     OW33199   1.284   2.604   3.057  0.4863  0.1448 -0.1316
 7188SOL    HW133200   1.313   2.522   3.097  0.7632  0.6053  0.5997
 7188SOL    HW233201   1.356   2.621   2.997  1.5977 -1.5771  0.7130
 7189SOL     OW33202   0.023   0.278  12.905  0.0233  0.2064  0.4365
 7189SOL    HW133203   0.076   0.320  12.836  0.1000  1.3730  1.2021
 7189SOL    HW233204   0.070   0.195  12.914  1.6813  1.1046  0.2082
 7190SOL     OW33205   4.522   1.852  10.513  0.1704 -0.3293  0.0990
 7190SOL    HW133206   4.534   1.846  10.418 -0.9041 -1.6617  0.0387
 7190SOL    HW233207   4.443   1.905  10.524  1.8081  2.2178 -0.6863
 7191SOL     OW33208   1.387   1.000  16.379  0.2084 -0.2132  0.3804
 7191SOL    HW133209   1.423   1.053  16.450  0.9779  1.3634 -1.1775
 7191SOL    HW233210   1.352   1.068  16.321  0.8327  1.3957  1.9206
 7192SOL     OW33211   2.411   0.580   3.194  0.0828 -0.0095  0.7406
 7192SOL    HW133212   2.429   0.669   3.223 -1.1071  0.4233  0.1003
 7192SOL    HW233213   2.501   0.553   3.175 -0.5251 -0.0352 -2.0953
 7193SOL     OW33214   2.352   1.794   5.614 -0.2284  0.7245 -0.2606
 7193SOL    HW133215   2.261   1.816   5.596 -1.1675 -0.8309  2.5823
 7193SOL    HW233216   2.339   1.702   5.591 -2.0012  0.6829  0.9485
 7194SOL     OW33217   0.835   2.093   7.686 -0.4297 -0.1971 -0.4466
 7194SOL    HW133218   0.767   2.160   7.689 -2.6176 -2.4524 -0.2194
 7194SOL    HW233219   0.894   2.143   7.743  1.7472 -1.1903 -1.8261
 7195SOL     OW33220   1.649   1.623   5.885  0.1334 -0.3869  0.4252
 7195SOL    HW133221   1.656   1.555   5.818  0.6794  2.2826 -2.2346
 7195SOL    HW233222   1.570   1.669   5.857 -1.7541 -3.1288  1.2397
 7196SOL     OW33223   3.522   1.425   7.963 -0.0066  0.4972  0.3207
 7196SOL    HW133224   3.431   1.413   7.935 -0.0465  0.9874  0.2383
 7196SOL    HW233225   3.533   1.338   8.000 -0.6052 -0.1869 -1.1248
 7197SOL     OW33226   0.851   0.759  16.752  0.2323 -0.5470  0.3364
 7197SOL    HW133227   0.818   0.671  16.771  1.0692 -0.8112  0.5768
 7197SOL    HW233228   0.811   0.808  16.823 -1.7595 -1.0168 -0.4571
 7198SOL     OW33229   1.118   0.617  10.097 -0.1137 -0.5245 -0.2983
 7198SOL    HW133230   1.155   0.630  10.184  3.4795  2.4235 -2.2571
 7198SOL    HW233231   1.098   0.523  10.104 -1.0306 -0.2435  0.8782
 7199SOL     OW33232   0.638   0.263  16.408  0.6009  0.3929  0.1326
 7199SOL    HW133233   0.662   0.232  16.496  2.6678  1.6715  0.0174
 7199SOL    HW233234   0.637   0.358  16.416 -1.0950  0.2994  0.9311
 7200SOL     OW33235   3.544   3.690   2.501  0.2270  0.4658 -0.5242
 7200SOL    HW133236   3.501   3.622   2.448 -0.6837  1.3620 -0.9232
 7200SOL    HW233237   3.615   3.710   2.439  3.1528 -2.3917  1.9319
 7201SOL     OW33238   2.639   0.336   3.321  0.1360  0.3598 -1.0850
 7201SOL    HW133239   2.684   0.401   3.267  0.3141  0.9581 -0.2333
 7201SOL    HW233240   2.561   0.313   3.271 -1.2939  0.0754  1.2873
 7202SOL     OW33241   3.318   3.345   8.259 -0.2958  0.4330 -0.7825
 7202SOL    HW133242   3.270   3.295   8.193 -0.5440  0.7711 -0.8594
 7202SOL    HW233243   3.396   3.374   8.212  0.1250  1.2672  0.4360
 7203SOL     OW33244   4.173   2.908   6.276  0.3362 -0.5916 -0.0011
 7203SOL    HW133245   4.106   2.840   6.280  0.8704 -1.0705  0.5530
 7203SOL    HW233246   4.252   2.859   6.295 -1.1090 -1.9915  2.3344
 7204SOL     OW33247   3.037   0.134   7.158  0.1124  0.4340  0.0064
 7204SOL    HW133248   3.000   0.203   7.103 -1.3964 -0.7177 -0.4406
 7204SOL    HW233249   2.972   0.128   7.228  0.6335  3.5811  0.7540
 7205SOL     OW33250   2.327   3.573  12.151 -0.0577 -0.4780 -0.2944
 7205SOL    HW133251   2.373   3.508  12.205  0.4355  0.3806  0.3182
 7205SOL    HW233252   2.249   3.590  12.205 -0.8522  1.4971 -2.0658
 7206SOL     OW33253   1.807   2.139   3.401 -0.7292 -0.0655  0.7996
 7206SOL    HW133254   1.784   2.108   3.489  0.7206 -2.3184  0.3873
 7206SOL    HW233255   1.775   2.229   3.408  0.7651  0.4609  0.9249
 7207SOL     OW33256   3.853   1.860  14.848  0.1275  0.5382 -0.2049
 7207SOL    HW133257   3.895   1.804  14.783  1.4980 -1.0545  2.0131
 7207SOL    HW233258   3.933   1.898  14.886  0.4168  1.4019 -1.7143
 7208SOL     OW33259   1.948   1.424   2.658 -0.3173 -0.6268  0.0921
 7208SOL    HW133260   1.982   1.481   2.589 -0.1108 -1.9280 -0.8695
 7208SOL    HW233261   1.963   1.340   2.615 -3.2081 -0.5547 -1.0849
 7209SOL     OW33262   1.009   0.671   3.695  0.6399  0.2933  0.0787
 7209SOL    HW133263   1.003   0.764   3.720 -3.1520  0.1802 -0.3878
 7209SOL    HW233264   0.921   0.644   3.669 -0.1122  1.3761  1.4835
 7210SOL     OW33265   2.228   3.077  17.449 -0.4197 -0.1454 -0.3319
 7210SOL    HW133266   2.194   2.988  17.444 -1.1770  0.1535 -0.5774
 7210SOL    HW233267   2.323   3.071  17.442 -0.3398 -1.9377  2.5358
 7211SOL     OW33268   3.048   1.349   7.055  0.2001  0.3125 -0.2215
 7211SOL    HW133269   3.018   1.295   7.128 -0.6730  1.9760  0.6502
 7211SOL    HW233270   3.026   1.438   7.084 -1.3022  0.0463 -0.5373
 7212SOL     OW33271   1.701   2.786   2.802  0.9324 -0.0195  0.0978
 7212SOL    HW133272   1.745   2.870   2.806  1.0513 -0.0859  0.1611
 7212SOL    HW233273   1.617   2.798   2.756 -0.6991  0.4416  3.2322
 7213SOL     OW33274   0.412   2.694   0.575  0.5330 -0.0104  0.1321
 7213SOL    HW133275   0.462   2.620   0.540 -0.3005 -1.3160  1.6551
 7213SOL    HW233276   0.483   2.752   0.601  0.0904  0.6925 -0.2523
 7214SOL     OW33277   4.490   4.040   2.908  0.6793 -0.4637 -0.1093
 7214SOL    HW133278   4.453   4.113   2.858  0.7461  0.5443  1.3066
 7214SOL    HW233279   4.569   4.082   2.941 -0.6162  0.8661  1.3277
 7215SOL     OW33280   1.897   1.573   3.425  0.0535  0.0825 -0.0492
 7215SOL    HW133281   1.981   1.550   3.384 -0.6020  0.5182 -1.6198
 7215SOL    HW233282   1.888   1.492   3.476  1.7773  0.1449  0.3649
 7216SOL     OW33283   1.828   2.406   2.388 -0.1986 -0.1135  0.3006
 7216SOL    HW133284   1.860   2.444   2.306 -4.3759 -1.8654 -2.1308
 7216SOL    HW233285   1.734   2.392   2.379  0.0932 -3.2855  2.2847
 7217SOL     OW33286   2.595   4.648   4.239  0.2049  0.0710  0.7498
 7217SOL    HW133287   2.538   4.593   4.185  0.3643 -0.8082  1.4786
 7217SOL    HW233288   2.557   4.662   4.325 -1.9588  2.4706 -0.6154
 7218SOL     OW33289   1.222   0.212  13.630 -0.4482 -0.2443 -0.0073
 7218SOL    HW133290   1.268   0.286  13.669 -1.0380  0.4709 -0.6541
 7218SOL    HW233291   1.135   0.232  13.667  0.4717  1.0265  1.4703
 7219SOL     OW33292   0.418   3.445   9.649  0.4317 -0.4928 -0.2133
 7219SOL    HW133293   0.371   3.528   9.648  1.4012  0.0541 -0.1779
 7219SOL    HW233294   0.342   3.390   9.665  1.0115 -1.3132 -0.2646
 7220SOL     OW33295   3.092   2.674  15.747 -0.5948  0.2689 -0.4239
 7220SOL    HW133296   3.079   2.582  15.770  2.1459 -0.1832 -0.6578
 7220SOL    HW233297   3.120   2.674  15.656  2.2031 -2.0602  0.4519
 7221SOL     OW33298   1.303   2.464   8.167 -0.3585 -0.0071 -0.4043
 7221SOL    HW133299   1.234   2.468   8.234  0.1523 -1.9627  0.2556
 7221SOL    HW233300   1.378   2.451   8.225 -2.5114 -0.7724  2.2590
 7222SOL     OW33301   4.460   4.116   5.721  0.1681 -0.1839  0.7802
 7222SOL    HW133302   4.416   4.061   5.656  0.2918  2.1926 -1.3631
 7222SOL    HW233303   4.422   4.086   5.803 -0.1771 -0.7559  0.4111
 7223SOL     OW33304   1.394   4.270  10.476  0.1107  0.5701 -0.2812
 7223SOL    HW133305   1.459   4.339  10.487 -1.9454  2.2234  1.5192
 7223SOL    HW233306   1.433   4.207  10.415 -1.9115 -1.0619  0.1006
 7224SOL     OW33307   0.737   0.414   7.641  0.0085  0.1771 -0.3818
 7224SOL    HW133308   0.715   0.323   7.661  0.2533 -0.2975 -2.2776
 7224SOL    HW233309   0.756   0.420   7.548 -0.2220 -1.3952 -0.5330
 7225SOL     OW33310   1.360   3.787   6.693 -0.4483  0.2338 -0.0937
 7225SOL    HW133311   1.396   3.721   6.634  0.4343  1.3235 -0.7806
 7225SOL    HW233312   1.302   3.842   6.640 -2.6273 -2.1527 -0.1498
 7226SOL     OW33313   0.078   1.800  10.298  0.8574 -0.5264  0.3858
 7226SOL    HW133314   4.732   1.837  10.268  0.0930 -0.9000  2.0328
 7226SOL    HW233315   0.090   1.717  10.252 -0.3175 -0.2368 -0.4240
 7227SOL     OW33316   1.355   1.401  14.621  0.4468 -0.2016  0.6863
 7227SOL    HW133317   1.447   1.386  14.641  0.2664  0.4964  2.0915
 7227SOL    HW233318   1.358   1.493  14.595 -1.3355 -0.1577  0.6286
 7228SOL     OW33319   1.597   3.111   4.606  0.0143  0.0868 -0.3223
 7228SOL    HW133320   1.562   3.096   4.694 -2.2869 -1.0250 -1.4180
 7228SOL    HW233321   1.680   3.065   4.615 -0.6394 -1.0625 -0.0891
 7229SOL     OW33322   0.590   0.681   3.945  0.1776  0.0044 -0.9497
 7229SOL    HW133323   0.546   0.736   4.010  1.2861 -1.6051  1.1565
 7229SOL    HW233324   0.642   0.621   3.998 -1.7843 -0.6559  0.2138
 7230SOL     OW33325   2.125   3.673   5.757  0.5372  0.2822  0.3958
 7230SOL    HW133326   2.197   3.707   5.810  0.7701  0.7204 -0.1924
 7230SOL    HW233327   2.059   3.677   5.825 -1.5876  0.0776 -1.6458
 7231SOL     OW33328   2.479   2.054   6.181 -0.4628 -0.0331 -0.3006
 7231SOL    HW133329   2.466   2.147   6.161 -0.0552 -0.1336 -1.0502
 7231SOL    HW233330   2.391   2.028   6.207 -0.7089  1.3921  0.2737
 7232SOL     OW33331   2.226   0.851  13.758  0.2405 -0.2373 -0.1648
 7232SOL    HW133332   2.265   0.924  13.806 -0.8423 -1.5272  2.6499
 7232SOL    HW233333   2.198   0.904  13.683 -2.3914  0.3733  1.2588
 7233SOL     OW33334   2.584   1.034   3.879 -0.0124  0.5116  0.7727
 7233SOL    HW133335   2.577   1.072   3.792  3.7672 -1.1861 -0.2633
 7233SOL    HW233336   2.563   0.942   3.862  0.7609  0.5945 -0.6389
 7234SOL     OW33337   3.363   2.751   6.533  0.3508 -0.3248  0.6666
 7234SOL    HW133338   3.271   2.767   6.555  0.3111  2.1297 -1.3593
 7234SOL    HW233339   3.353   2.659   6.508  1.0078  0.2256 -1.5565
 7235SOL     OW33340   2.847   2.958   6.009  0.0365 -0.0500  0.0726
 7235SOL    HW133341   2.755   2.944   6.028  0.3502 -0.6606  1.1565
 7235SOL    HW233342   2.842   3.009   5.928  1.6691 -1.3138 -0.8206
 7236SOL     OW33343   3.767   4.425   8.622  0.2696  0.2081  0.7926
 7236SOL    HW133344   3.757   4.336   8.656  1.8808  0.0744  0.9184
 7236SOL    HW233345   3.778   4.456   8.712 -0.4775  1.3295  0.4984
 7237SOL     OW33346   0.801   3.000   8.003  0.0671  0.6779 -0.9625
 7237SOL    HW133347   0.719   3.034   7.967  0.1517 -0.2603 -2.0360
 7237SOL    HW233348   0.861   3.061   7.959  2.1027 -0.0867  0.7387
 7238SOL     OW33349   3.533   1.496   1.755 -0.1166  0.1825  0.2119
 7238SOL    HW133350   3.497   1.551   1.686 -1.0584  0.7418  1.1362
 7238SOL    HW233351   3.451   1.451   1.779 -1.1796  1.8233 -0.2987
 7239SOL     OW33352   3.040   0.544   7.179  0.2579 -0.1008 -0.2976
 7239SOL    HW133353   3.105   0.541   7.109  0.9335 -0.5758  0.3424
 7239SOL    HW233354   3.091   0.527   7.258  0.3603 -1.0073 -0.5640
 7240SOL     OW33355   1.556   3.564  13.460 -0.5443 -0.2415 -0.4368
 7240SOL    HW133356   1.477   3.588  13.411 -0.7333 -0.3143 -0.1631
 7240SOL    HW233357   1.537   3.473  13.482  0.2324  0.2125  2.1262
 7241SOL     OW33358   1.874   3.137   6.580 -0.2154 -0.2218  0.2414
 7241SOL    HW133359   1.969   3.125   6.577 -0.3502 -0.7205 -1.8188
 7241SOL    HW233360   1.849   3.080   6.653 -1.0019 -0.2194 -0.0219
 7242SOL     OW33361   4.415   0.768   6.548  0.0386 -0.1695 -0.4587
 7242SOL    HW133362   4.417   0.690   6.603  3.4053  0.7356  0.7176
 7242SOL    HW233363   4.395   0.727   6.464 -1.5013  4.1112 -2.1896
 7243SOL     OW33364   2.195   3.592   8.971 -0.1994 -0.0902 -0.1068
 7243SOL    HW133365   2.201   3.503   8.937  0.2318  0.5088 -1.5962
 7243SOL    HW233366   2.183   3.639   8.889 -1.6658  1.1615  0.8273
 7244SOL     OW33367   0.699   4.491  11.176 -0.2906  0.2212 -0.5325
 7244SOL    HW133368   0.774   4.499  11.234  0.8261  2.3469 -2.3173
 7244SOL    HW233369   0.647   4.565  11.206  0.0231  0.0476  0.4737
 7245SOL     OW33370   0.473   0.564   2.816  0.1757  0.7176 -0.2510
 7245SOL    HW133371   0.529   0.487   2.817 -2.2719 -1.0673 -0.2826
 7245SOL    HW233372   0.500   0.605   2.898 -1.7930 -1.0547  1.2830
 7246SOL     OW33373   4.207   2.823   3.415 -0.0531  0.0450  0.2724
 7246SOL    HW133374   4.125   2.781   3.388  0.7401 -0.7129 -0.9837
 7246SOL    HW233375   4.262   2.748   3.393 -1.0624 -0.5140 -0.3318
 7247SOL     OW33376   2.144   3.519  14.081  0.2625 -0.6555 -0.0281
 7247SOL    HW133377   2.118   3.550  13.995  0.2300  1.5341  0.7831
 7247SOL    HW233378   2.142   3.424  14.066  1.2263 -1.4290  4.7032
 7248SOL     OW33379   4.184   0.928   8.376  0.0965 -0.3923 -0.6966
 7248SOL    HW133380   4.127   0.851   8.368 -1.9018  0.9420  0.5468
 7248SOL    HW233381   4.272   0.900   8.355  1.5549  2.9269  1.0138
 7249SOL     OW33382   2.631   2.850  15.852 -0.0734 -0.5616  0.6117
 7249SOL    HW133383   2.668   2.914  15.913 -0.2464  2.0514 -1.9866
 7249SOL    HW233384   2.653   2.770  15.899  0.3096  1.5234  3.9815
 7250SOL     OW33385   4.103   0.285   4.263  0.2723  0.0510 -0.1302
 7250SOL    HW133386   4.129   0.202   4.303  3.2584  0.6691 -0.8202
 7250SOL    HW233387   4.062   0.333   4.335  2.7249 -0.5402  1.6334
 7251SOL     OW33388   4.619   3.202   8.021 -0.9658 -0.0204 -0.7623
 7251SOL    HW133389   4.687   3.135   8.013  0.2374  1.3083 -1.4947
 7251SOL    HW233390   4.547   3.157   7.976  1.1090 -0.6581 -3.4100
 7252SOL     OW33391   4.364   1.238   0.999  0.2032  0.4647  0.7612
 7252SOL    HW133392   4.346   1.149   0.969 -1.5210  1.1429 -0.3037
 7252SOL    HW233393   4.302   1.250   1.071 -2.3241 -0.6973 -1.1811
 7253SOL     OW33394   0.936   1.351   7.962  0.4329 -0.1992 -0.7787
 7253SOL    HW133395   0.880   1.314   7.895  1.7648 -2.5548 -0.5828
 7253SOL    HW233396   1.019   1.343   7.915 -0.0019  0.5379 -1.6573
 7254SOL     OW33397   2.468   0.393   8.500 -0.4379  0.5421  0.3578
 7254SOL    HW133398   2.515   0.312   8.478 -1.0245  0.2902  0.0400
 7254SOL    HW233399   2.521   0.463   8.464  2.5741 -0.0224  3.6734
 7255SOL     OW33400   2.696   3.249   7.273 -0.2367 -0.2320  0.7026
 7255SOL    HW133401   2.633   3.315   7.300  1.0932  1.5263 -0.4783
 7255SOL    HW233402   2.724   3.223   7.361  0.3666 -1.0602  0.2664
 7256SOL     OW33403   2.822   1.559  14.478  0.1230  0.0901  0.4858
 7256SOL    HW133404   2.857   1.639  14.439 -0.3426 -0.2322 -0.5733
 7256SOL    HW233405   2.832   1.500  14.403 -1.0869  1.1423 -0.4957
 7257SOL     OW33406   4.600   3.825  10.030  0.2578  0.2697 -0.0499
 7257SOL    HW133407   4.681   3.873  10.049  0.8247 -0.3306 -0.9656
 7257SOL    HW233408   4.625   3.744  10.073  0.8597 -0.2694 -1.4466
 7258SOL     OW33409   3.444   1.459   2.109  0.0514  0.5623  0.1410
 7258SOL    HW133410   3.398   1.428   2.031 -1.2535  3.3912 -0.2188
 7258SOL    HW233411   3.524   1.407   2.097  0.0647  0.1527  1.9719
 7259SOL     OW33412   4.460   4.127  13.333  0.1536  0.3363  0.4854
 7259SOL    HW133413   4.511   4.187  13.278 -1.9808  2.6593  1.0477
 7259SOL    HW233414   4.467   4.180  13.412  1.9580 -0.6926  1.0113
 7260SOL     OW33415   0.596   1.949   6.915 -0.3411  0.2012 -0.3521
 7260SOL    HW133416   0.622   2.027   6.964 -0.7329 -0.3740  0.7811
 7260SOL    HW233417   0.668   1.933   6.854  0.0172  0.7876 -0.0882
 7261SOL     OW33418   3.451   2.414   0.723 -0.1884 -0.0708  0.1147
 7261SOL    HW133419   3.377   2.409   0.783 -0.0273  0.5114  0.3658
 7261SOL    HW233420   3.458   2.321   0.703 -0.7777 -0.3304  1.1222
 7262SOL     OW33421   2.031   2.908   3.276 -0.3980 -0.2654 -0.5372
 7262SOL    HW133422   1.961   2.848   3.252 -1.0457  0.5037 -0.5422
 7262SOL    HW233423   2.030   2.911   3.372  0.2367  1.5976 -0.5953
 7263SOL     OW33424   0.399   0.972   4.031  0.3567 -0.0751 -0.2267
 7263SOL    HW133425   0.303   0.964   4.034  0.2430  1.2625 -0.2190
 7263SOL    HW233426   0.429   0.902   4.089 -0.3775 -1.3621 -1.4139
 7264SOL     OW33427   3.528   2.091   9.284 -0.5537  0.1426 -0.3231
 7264SOL    HW133428   3.594   2.038   9.240  1.2403  0.1197  2.3541
 7264SOL    HW233429   3.453   2.096   9.225 -0.2148 -0.7910 -0.8178
 7265SOL     OW33430   1.731   3.435   6.569 -0.2929  0.8052 -0.3886
 7265SOL    HW133431   1.813   3.483   6.573  0.4291 -0.4447 -0.4828
 7265SOL    HW233432   1.745   3.357   6.516  2.4979  1.6859 -0.9394
 7266SOL     OW33433   3.755   3.166   8.015  0.7953  0.1762  0.1783
 7266SOL    HW133434   3.754   3.070   8.008  0.7384  0.2154 -0.3095
 7266SOL    HW233435   3.776   3.161   8.109  0.9766  0.0027  0.1280
 7267SOL     OW33436   3.741   4.181   8.210  0.4322 -0.0340  0.4354
 7267SOL    HW133437   3.806   4.247   8.186  0.5461 -0.1092  0.5429
 7267SOL    HW233438   3.662   4.231   8.233  0.0382  0.3314 -1.6941
 7268SOL     OW33439   2.983   0.213   2.189 -0.3180 -0.2460  0.3504
 7268SOL    HW133440   2.920   0.171   2.249 -0.4968  0.4541  0.6525
 7268SOL    HW233441   2.994   0.300   2.227  2.1061 -0.0497 -0.8136
 7269SOL     OW33442   4.022   0.968   7.013  0.2509 -0.3479 -0.5186
 7269SOL    HW133443   4.067   1.052   7.014 -0.5932  0.0933 -0.3866
 7269SOL    HW233444   3.928   0.984   7.008 -0.0155 -1.2485  1.5614
 7270SOL     OW33445   1.641   1.722   4.650  0.0057 -0.6932  0.2659
 7270SOL    HW133446   1.657   1.813   4.625  1.0157 -1.0772 -0.4818
 7270SOL    HW233447   1.547   1.728   4.668 -0.0568  0.1987 -0.3513
 7271SOL     OW33448   0.480   0.585   2.403 -0.2659 -0.5431 -0.1237
 7271SOL    HW133449   0.413   0.578   2.471 -0.7122  0.1461 -0.4895
 7271SOL    HW233450   0.426   0.568   2.326 -1.0610  0.4893  0.1989
 7272SOL     OW33451   0.250   1.497  11.273  0.0880 -0.3892 -0.1078
 7272SOL    HW133452   0.203   1.522  11.352  0.2772 -2.8691  0.8037
 7272SOL    HW233453   0.329   1.550  11.263 -0.0597 -0.4516 -1.6909
 7273SOL     OW33454   2.190   3.140  16.872  0.5248 -0.3960 -0.5638
 7273SOL    HW133455   2.155   3.081  16.806  1.6062 -1.5541 -0.1004
 7273SOL    HW233456   2.142   3.221  16.857 -1.6908 -0.9379  3.4808
 7274SOL     OW33457   3.565   1.591   4.106  0.4324 -0.1508  0.1320
 7274SOL    HW133458   3.538   1.683   4.106  0.9540  0.0039 -2.4854
 7274SOL    HW233459   3.654   1.601   4.138  0.4539  0.2930 -0.0656
 7275SOL     OW33460   2.559   1.779   9.139 -0.4417 -0.0982 -0.1082
 7275SOL    HW133461   2.638   1.766   9.192  1.0996 -0.9135 -2.5935
 7275SOL    HW233462   2.507   1.838   9.193 -1.4680  0.1012 -1.2882
 7276SOL     OW33463   3.779   4.313   2.190 -0.2285  0.7347 -0.1314
 7276SOL    HW133464   3.814   4.377   2.251  0.6240 -0.3023  0.4817
 7276SOL    HW233465   3.836   4.328   2.115  1.8940  1.8032  1.7136
 7277SOL     OW33466   2.202   1.300   2.319 -0.2122 -0.0780  0.0254
 7277SOL    HW133467   2.177   1.208   2.320 -1.1527  0.2052  1.8624
 7277SOL    HW233468   2.290   1.292   2.281 -0.9529  1.2783 -1.9700
 7278SOL     OW33469   3.810   3.512   1.048  0.3620 -0.0497  0.4715
 7278SOL    HW133470   3.771   3.508   0.960 -2.2375  1.1296  1.5585
 7278SOL    HW233471   3.821   3.607   1.044  0.7822 -0.1543 -1.1436
 7279SOL     OW33472   3.283   0.894   1.794 -0.6514 -0.1561 -0.0258
 7279SOL    HW133473   3.272   0.799   1.797  2.0847 -0.3768  2.3948
 7279SOL    HW233474   3.195   0.929   1.809 -1.1479 -1.4438 -0.0022
 7280SOL     OW33475   1.678   4.216   6.211  0.1847  0.3443  0.1605
 7280SOL    HW133476   1.701   4.218   6.304  1.8173  0.1788 -0.2309
 7280SOL    HW233477   1.747   4.268   6.169 -1.0563 -1.1385 -3.7441
 7281SOL     OW33478   3.386   1.282   4.638 -0.0904 -0.4432  0.7896
 7281SOL    HW133479   3.454   1.349   4.648 -0.5792  0.2617 -0.6477
 7281SOL    HW233480   3.371   1.294   4.544 -1.1393  0.3232  1.0436
 7282SOL     OW33481   3.908   4.367   1.881  0.0093 -0.0529  0.6987
 7282SOL    HW133482   3.926   4.278   1.910  1.9268 -0.1493 -0.8108
 7282SOL    HW233483   3.998   4.395   1.869 -0.3153 -0.1078 -1.7242
 7283SOL     OW33484   0.197   2.257   3.369  0.3937 -0.1043 -0.1998
 7283SOL    HW133485   0.111   2.220   3.345 -0.3195  1.2342  0.3033
 7283SOL    HW233486   0.214   2.216   3.453  0.7779  1.9479  0.7097
 7284SOL     OW33487   3.813   3.458   4.758 -0.0038 -0.4252 -0.6357
 7284SOL    HW133488   3.802   3.363   4.767  0.3070 -0.6289 -2.3416
 7284SOL    HW233489   3.907   3.475   4.766 -0.1252  0.0092 -0.1458
 7285SOL     OW33490   1.991   1.302   1.564 -0.1889 -0.1152  0.1726
 7285SOL    HW133491   1.905   1.325   1.598 -1.3282 -1.1629 -2.0694
 7285SOL    HW233492   1.978   1.213   1.532  0.3155  0.1119 -0.6652
 7286SOL     OW33493   1.571   3.154  12.588  0.8228 -0.4787  0.1284
 7286SOL    HW133494   1.548   3.090  12.655  0.9635  0.8801  1.4990
 7286SOL    HW233495   1.500   3.142  12.526  0.0162  2.3131  0.5152
 7287SOL     OW33496   2.186   3.709   8.738  0.1255  0.0696 -0.4380
 7287SOL    HW133497   2.139   3.792   8.746 -2.1560 -1.1035 -1.6869
 7287SOL    HW233498   2.262   3.755   8.702  0.8490  0.6849  1.9007
 7288SOL     OW33499   0.688   3.635   3.957 -0.3416  0.2243 -0.6523
 7288SOL    HW133500   0.751   3.592   3.900  0.4871 -1.8389  1.8167
 7288SOL    HW233501   0.745   3.670   4.025  0.5583 -0.9030 -0.8331
 7289SOL     OW33502   4.612   1.833   7.236 -0.3970  0.0697  0.3108
 7289SOL    HW133503   4.696   1.863   7.201  0.0370  1.0137  2.1809
 7289SOL    HW233504   4.602   1.739   7.220  0.6616  0.0200 -0.0742
 7290SOL     OW33505   0.639   2.307   6.050  0.0713 -0.2987  0.3956
 7290SOL    HW133506   0.717   2.356   6.025  0.2276 -0.5931  0.3079
 7290SOL    HW233507   0.634   2.273   5.961 -1.4954  0.6755  0.1159
 7291SOL     OW33508   0.585   2.564  11.286  0.5571  0.5116  0.2435
 7291SOL    HW133509   0.495   2.575  11.317  0.5192  2.5171 -0.5690
 7291SOL    HW233510   0.644   2.584  11.359  0.2053 -0.1368  0.7071
 7292SOL     OW33511   3.767   0.498   7.196 -0.7175 -0.4400  0.1372
 7292SOL    HW133512   3.839   0.518   7.137  1.5427 -2.3469  2.2477
 7292SOL    HW233513   3.785   0.566   7.261  0.7859  0.5352 -1.3178
 7293SOL     OW33514   0.073   1.544   5.945  0.6020 -0.4394  0.0072
 7293SOL    HW133515   0.008   1.475   5.961  0.2357 -0.4746 -1.5835
 7293SOL    HW233516   0.031   1.617   5.992 -2.3379 -0.5898 -2.3415
 7294SOL     OW33517   3.415   3.936   3.802  0.2725  0.3093 -0.3383
 7294SOL    HW133518   3.498   3.889   3.805  0.2090  0.1561 -1.2305
 7294SOL    HW233519   3.435   4.009   3.861 -2.0699  1.6558 -1.2154
 7295SOL     OW33520   0.025   4.142  10.774 -0.4544  0.0913 -0.5946
 7295SOL    HW133521   4.717   4.130  10.857  1.7406 -0.8930  0.4166
 7295SOL    HW233522   4.733   4.227  10.738  0.3047  1.1963  1.4055
 7296SOL     OW33523   1.461   2.604   4.478 -0.1102  0.1861 -0.0828
 7296SOL    HW133524   1.447   2.650   4.395 -2.9021  1.5400  1.1193
 7296SOL    HW233525   1.399   2.648   4.536 -1.2768 -1.1785 -0.3197
 7297SOL     OW33526   3.081   3.573  10.645  0.2333  0.1491 -0.2220
 7297SOL    HW133527   3.102   3.636  10.715  3.2880 -1.8455  0.6512
 7297SOL    HW233528   3.173   3.552  10.630  0.7318 -0.3141  3.4674
 7298SOL     OW33529   0.153   3.030   5.431  0.4479  0.0380  0.1132
 7298SOL    HW133530   0.142   3.098   5.364  0.0558  0.8258  0.9876
 7298SOL    HW233531   0.063   3.008   5.452  0.9003 -1.3340  0.6067
 7299SOL     OW33532   0.322   0.615   7.995 -0.2483 -0.2167  0.2838
 7299SOL    HW133533   0.263   0.690   8.004 -0.0490 -0.1365  0.8985
 7299SOL    HW233534   0.390   0.643   8.056  0.1876 -0.6683  0.0090
 7300SOL     OW33535   3.076   2.679   4.209 -0.2339  0.4330 -0.1770
 7300SOL    HW133536   3.021   2.693   4.285 -0.5863  0.1089 -0.3744
 7300SOL    HW233537   3.071   2.767   4.170  0.2976  0.4753 -0.1473
 7301SOL     OW33538   0.927   4.050   9.569  0.2477  0.2965 -0.1865
 7301SOL    HW133539   0.926   4.130   9.621  0.0568  2.5500 -3.6221
 7301SOL    HW233540   0.931   3.983   9.637 -0.6365 -0.3055 -0.7280
 7302SOL     OW33541   2.750   3.640   7.441 -0.0774 -0.7520 -0.1872
 7302SOL    HW133542   2.692   3.715   7.456  1.0558 -0.0544  0.7968
 7302SOL    HW233543   2.778   3.621   7.531 -1.4370 -0.8750  0.2018
 7303SOL     OW33544   4.523   0.454   4.697  0.5642  0.0183  0.4759
 7303SOL    HW133545   4.617   0.439   4.687  0.3747 -0.4702 -0.5945
 7303SOL    HW233546   4.497   0.371   4.656 -0.0333  0.2702  0.3458
 7304SOL     OW33547   0.853   0.856  12.783  0.1536 -0.6595 -0.4556
 7304SOL    HW133548   0.913   0.784  12.763  0.5388  0.2323 -2.5152
 7304SOL    HW233549   0.915   0.929  12.770 -1.7766  0.8805 -1.0598
 7305SOL     OW33550   2.468   4.116   5.290  0.2536  0.3015  0.1583
 7305SOL    HW133551   2.522   4.099   5.212  1.2680  0.2724  0.8668
 7305SOL    HW233552   2.391   4.067   5.261  0.6596 -0.5919  0.5803
 7306SOL     OW33553   2.926   1.930   2.741  0.1857  0.8497  0.3247
 7306SOL    HW133554   2.995   1.995   2.736  0.3469  0.6402 -0.1788
 7306SOL    HW233555   2.961   1.872   2.809 -1.1354 -0.8082 -0.4192
 7307SOL     OW33556   4.628   4.607   4.130  0.1133 -0.1409  0.4878
 7307SOL    HW133557   4.657   4.528   4.176  1.5581 -1.5012 -2.7782
 7307SOL    HW233558   4.584   4.582   4.049 -3.7949  0.5087  2.4164
 7308SOL     OW33559   0.037   3.868  14.940 -0.3453  0.4665  0.2080
 7308SOL    HW133560   0.087   3.932  14.890  0.2859 -0.3751 -0.2386
 7308SOL    HW233561   0.036   3.803  14.870  0.2130  1.4143 -0.6833
 7309SOL     OW33562   4.237   0.354  10.410 -0.0900  0.0193 -0.3461
 7309SOL    HW133563   4.317   0.317  10.373 -0.0484 -0.3841  0.1481
 7309SOL    HW233564   4.274   0.428  10.457  0.3615 -0.1375 -0.4567
 7310SOL     OW33565   0.299   4.398  14.340 -0.0452 -0.5756 -0.5993
 7310SOL    HW133566   0.346   4.386  14.258  1.8814 -1.6284  0.6436
 7310SOL    HW233567   0.368   4.390  14.406 -0.4016 -2.4445 -0.4505
 7311SOL     OW33568   2.039   3.342   4.633 -0.4452  0.6161 -0.4298
 7311SOL    HW133569   1.948   3.322   4.657  0.0865 -1.8101 -0.4710
 7311SOL    HW233570   2.023   3.388   4.551 -0.2688 -0.3228 -0.9880
 7312SOL     OW33571   3.015   2.923  13.847  0.0518  0.2418  0.4481
 7312SOL    HW133572   3.103   2.948  13.817  0.0148  2.1643  1.9330
 7312SOL    HW233573   2.985   2.862  13.780  0.6832  0.5005 -0.0768
 7313SOL     OW33574   4.004   2.868   7.551  0.2991 -0.4436 -0.1811
 7313SOL    HW133575   4.092   2.885   7.519  0.3170  1.1769  0.7210
 7313SOL    HW233576   3.978   2.826   7.469 -0.1801 -1.8656  0.6923
 7314SOL     OW33577   3.876   3.362  16.550  0.3010  0.6372 -0.4776
 7314SOL    HW133578   3.964   3.383  16.583  0.7035  0.2744 -1.3204
 7314SOL    HW233579   3.876   3.270  16.523  1.8930  0.7077 -0.7611
 7315SOL     OW33580   1.957   1.598   6.286  0.1683  0.2708  0.4932
 7315SOL    HW133581   1.919   1.684   6.305 -0.7814  0.3052 -1.5407
 7315SOL    HW233582   1.923   1.578   6.199 -1.9466  3.2547  0.6222
 7316SOL     OW33583   0.996   2.768   8.761 -0.0080  0.8332 -0.3207
 7316SOL    HW133584   1.001   2.846   8.706 -0.2157  0.8891 -0.2603
 7316SOL    HW233585   0.959   2.708   8.695  0.0548  0.4990 -0.0534
 7317SOL     OW33586   1.921   3.734   4.658 -0.1595 -0.3113 -0.1615
 7317SOL    HW133587   1.945   3.654   4.704  1.4799 -0.8110 -1.8771
 7317SOL    HW233588   1.985   3.719   4.587 -1.2294  4.3413 -2.1243
 7318SOL     OW33589   4.694   1.484   3.788 -0.3504 -0.1345  0.2928
 7318SOL    HW133590   4.668   1.518   3.874 -0.1676 -0.4368  0.4685
 7318SOL    HW233591   0.048   1.464   3.810 -0.8864 -2.4926  0.3023
 7319SOL     OW33592   2.977   2.620  14.066  0.8539 -0.2583  0.3080
 7319SOL    HW133593   2.936   2.566  13.997 -0.1062 -0.5739  1.1327
 7319SOL    HW233594   2.905   2.672  14.100 -0.0205 -0.7337 -0.8298
 7320SOL     OW33595   4.410   3.191   6.123 -0.0920  0.2775  0.0528
 7320SOL    HW133596   4.484   3.242   6.089  0.4833 -1.4067 -1.2237
 7320SOL    HW233597   4.367   3.172   6.039  1.5350 -0.7629 -0.5450
 7321SOL     OW33598   2.062   4.693   3.868 -0.2913  0.4447  0.2227
 7321SOL    HW133599   2.079   4.603   3.839 -0.0022 -0.6157  3.7563
 7321SOL    HW233600   2.133   4.708   3.930 -1.0704 -0.1446  1.2509
 7322SOL     OW33601   3.851   0.608   8.762  0.1095  0.2977  0.1810
 7322SOL    HW133602   3.933   0.576   8.798  2.2367  2.4260 -2.7374
 7322SOL    HW233603   3.870   0.700   8.744 -1.6465  0.7340  0.5543
 7323SOL     OW33604   0.998   3.754   7.669 -0.0131 -0.2242  0.3378
 7323SOL    HW133605   1.008   3.848   7.688 -1.2907  0.0017 -0.0784
 7323SOL    HW233606   0.992   3.721   7.758  1.0832  1.6698  1.1134
 7324SOL     OW33607   3.902   1.547   3.917 -0.8728 -0.0227 -0.4637
 7324SOL    HW133608   3.979   1.492   3.931  0.1467  1.9179  1.4867
 7324SOL    HW233609   3.847   1.500   3.980 -0.2177  0.6760  0.6506
 7325SOL     OW33610   4.441   2.617   0.232 -0.8043  0.4454 -0.5034
 7325SOL    HW133611   4.449   2.663   0.149  2.1724  0.0838 -0.4266
 7325SOL    HW233612   4.531   2.589   0.248 -1.1878 -0.8558 -0.6400
 7326SOL     OW33613   2.535   0.708  12.676  0.5315  0.6820 -0.7640
 7326SOL    HW133614   2.588   0.704  12.756  0.7634 -1.6178 -1.0420
 7326SOL    HW233615   2.599   0.744  12.615 -0.7353 -0.4300 -2.7539
 7327SOL     OW33616   0.557   3.137   8.370  0.5144  0.1422 -0.1880
 7327SOL    HW133617   0.537   3.133   8.463  0.4296  1.4340 -0.1635
 7327SOL    HW233618   0.487   3.194   8.339 -0.9993 -1.7581 -0.2544
 7328SOL     OW33619   3.447   0.048   9.208 -0.1955  0.0987  0.7115
 7328SOL    HW133620   3.417   0.022   9.295  2.9185  0.4173  1.8791
 7328SOL    HW233621   3.369   0.091   9.172  0.6073  1.1136  0.1843
 7329SOL     OW33622   0.045   2.614   8.045 -0.5983  0.2569  0.3216
 7329SOL    HW133623   0.057   2.673   8.120 -0.4799 -0.5176  0.9086
 7329SOL    HW233624   0.135   2.584   8.040 -0.3219  1.3646 -1.2995
 7330SOL     OW33625   0.639   3.319   7.874  0.6027  0.1790 -0.1493
 7330SOL    HW133626   0.597   3.278   7.799  0.7714 -0.9647  0.3676
 7330SOL    HW233627   0.730   3.290   7.859  0.2740 -1.0742  0.2623
 7331SOL     OW33628   3.331   4.157   6.872  0.5110  0.0308  0.2878
 7331SOL    HW133629   3.338   4.187   6.782  0.6374 -0.0501  0.2709
 7331SOL    HW233630   3.275   4.081   6.864 -0.0169  0.2763  1.5828
 7332SOL     OW33631   0.426   0.809   3.652  0.3500 -0.7316 -0.4269
 7332SOL    HW133632   0.393   0.741   3.711  0.3776  1.2953  1.9495
 7332SOL    HW233633   0.486   0.858   3.709 -0.1288  0.3557 -0.8570
 7333SOL     OW33634   1.295   1.059   4.042  0.3961  0.3191 -0.0123
 7333SOL    HW133635   1.347   1.078   3.964  0.3221  0.1428 -0.1032
 7333SOL    HW233636   1.342   1.099   4.116  1.4852 -0.9346 -0.0235
 7334SOL     OW33637   2.887   1.332  16.216  0.2370 -0.0129  0.3884
 7334SOL    HW133638   2.799   1.354  16.185  0.0491 -1.3760 -0.0630
 7334SOL    HW233639   2.882   1.247  16.261  0.6725  0.1057  0.6548
 7335SOL     OW33640   3.146   2.455   8.630  0.7492 -0.2417  0.0965
 7335SOL    HW133641   3.236   2.466   8.658  0.4103 -0.9701  1.4881
 7335SOL    HW233642   3.099   2.519   8.683 -1.3411 -1.3539 -0.3739
 7336SOL     OW33643   0.979   1.317   5.323  0.0540  0.0005 -0.0157
 7336SOL    HW133644   1.057   1.373   5.326 -1.1786  1.6096  1.3483
 7336SOL    HW233645   0.919   1.368   5.377  1.4918  0.4528  1.1552
 7337SOL     OW33646   0.729   1.979  15.933 -0.0374  0.1334 -0.2083
 7337SOL    HW133647   0.757   1.951  15.845 -0.6268 -0.0178 -0.3428
 7337SOL    HW233648   0.647   2.023  15.910  0.3416  0.6879 -0.5044
 7338SOL     OW33649   0.186   1.133  17.111 -0.9901  0.2263 -0.2434
 7338SOL    HW133650   0.167   1.069  17.042  1.8308 -1.9779  1.0289
 7338SOL    HW233651   0.270   1.166  17.080  0.0159 -1.7507  0.3746
 7339SOL     OW33652   1.707   4.098   8.012 -0.2877 -0.4066  0.6465
 7339SOL    HW133653   1.630   4.042   8.022  0.7497 -2.1596 -1.1717
 7339SOL    HW233654   1.729   4.079   7.921 -0.4158 -1.2041  0.7814
 7340SOL     OW33655   2.781   2.695   7.267  0.2605 -0.2756  0.1488
 7340SOL    HW133656   2.750   2.706   7.178 -0.8533 -0.0315  0.5618
 7340SOL    HW233657   2.866   2.739   7.261  0.1415  0.2482  2.0251
 7341SOL     OW33658   2.846   2.248  10.898  0.3479  0.0846  0.3135
 7341SOL    HW133659   2.912   2.317  10.893  0.2957  0.1468  0.4633
 7341SOL    HW233660   2.866   2.197  10.976 -2.2121 -0.5244  0.5849
 7342SOL     OW33661   0.582   2.736  16.155 -0.2724  0.5462  0.6330
 7342SOL    HW133662   0.577   2.747  16.250 -2.6130 -1.1548  0.7213
 7342SOL    HW233663   0.612   2.825  16.137 -1.5906  0.8412 -0.1380
 7343SOL     OW33664   1.042   2.321   3.221  0.1315 -0.5328  0.6543
 7343SOL    HW133665   0.999   2.314   3.136 -0.5220 -1.3638  1.0511
 7343SOL    HW233666   1.065   2.229   3.237 -0.4861 -0.7334  0.3938
 7344SOL     OW33667   3.375   3.659   5.565 -0.0019 -0.0234 -0.1240
 7344SOL    HW133668   3.287   3.686   5.539 -0.5595 -0.0296  1.7569
 7344SOL    HW233669   3.346   3.635   5.653 -1.0470  0.1388 -0.4276
 7345SOL     OW33670   4.620   2.387   9.302  0.3082  0.0439  0.2163
 7345SOL    HW133671   4.702   2.342   9.284 -0.9210 -1.9959 -0.3061
 7345SOL    HW233672   4.608   2.366   9.394  1.7764  2.3496  0.9192
 7346SOL     OW33673   0.156   3.697   4.489 -0.5686 -0.5433  0.3318
 7346SOL    HW133674   0.149   3.756   4.564  1.3224 -0.4939  0.4713
 7346SOL    HW233675   0.176   3.615   4.536  0.4618 -1.7114 -2.1351
 7347SOL     OW33676   3.089   2.333   9.812  0.5429 -0.0682 -0.6337
 7347SOL    HW133677   3.124   2.409   9.859  1.3299 -1.7835  1.5835
 7347SOL    HW233678   3.136   2.338   9.729  0.6378  1.8439 -0.4671
 7348SOL     OW33679   3.370   1.099   3.326 -0.6287 -0.1285  0.1770
 7348SOL    HW133680   3.295   1.153   3.302  0.1006 -0.6240 -3.1941
 7348SOL    HW233681   3.420   1.106   3.245  1.0292  0.3519  1.2370
 7349SOL     OW33682   1.062   4.324  16.295 -0.5090 -0.5879 -0.7233
 7349SOL    HW133683   1.075   4.345  16.388  1.7384 -0.7152 -1.0170
 7349SOL    HW233684   1.060   4.403  16.242  0.5075 -1.6526 -2.3235
 7350SOL     OW33685   0.574   2.874   1.459  0.3814  0.3122  0.4386
 7350SOL    HW133686   0.570   2.844   1.550 -2.0969 -1.9208 -0.3699
 7350SOL    HW233687   0.538   2.961   1.471 -1.1221 -0.1235 -0.8587
 7351SOL     OW33688   3.495   4.318   4.792  0.1668 -0.0131 -1.0400
 7351SOL    HW133689   3.502   4.283   4.704  1.8653  0.2898 -1.0356
 7351SOL    HW233690   3.409   4.359   4.795  1.0703  1.7323  1.9329
 7352SOL     OW33691   4.386   1.048   7.190  0.1205  0.6241 -0.9240
 7352SOL    HW133692   4.330   1.048   7.113 -0.0174  0.2006 -0.8213
 7352SOL    HW233693   4.462   0.993   7.170 -0.6786 -0.8988  0.2596
 7353SOL     OW33694   2.917   1.754  10.951  0.3795 -0.2246  0.2894
 7353SOL    HW133695   2.993   1.794  10.909  0.0596  0.5566  0.4492
 7353SOL    HW233696   2.923   1.671  10.903 -1.0757 -0.0891 -0.1033
 7354SOL     OW33697   4.416   3.735   4.230 -0.0666 -0.2489  0.5928
 7354SOL    HW133698   4.387   3.696   4.147 -0.0332 -0.8189  0.8529
 7354SOL    HW233699   4.464   3.809   4.191 -1.2882  0.1521 -0.1638
 7355SOL     OW33700   3.529   4.388   8.242 -0.3673  0.3390 -0.1334
 7355SOL    HW133701   3.595   4.441   8.287 -0.3408  0.0732  0.1398
 7355SOL    HW233702   3.449   4.439   8.256 -0.4567  0.6988 -1.8912
 7356SOL     OW33703   0.414   2.604  11.650 -0.2566 -0.2931  0.2620
 7356SOL    HW133704   0.346   2.661  11.684 -0.4614  0.0380 -0.7091
 7356SOL    HW233705   0.445   2.655  11.575 -0.0341  0.2975  0.7523
 7357SOL     OW33706   1.057   0.876   5.198  0.4857  0.1107  0.4822
 7357SOL    HW133707   1.003   0.843   5.126  0.0756 -1.7684  1.6808
 7357SOL    HW233708   1.007   0.949   5.237  0.1073 -0.9524  1.9860
 7358SOL     OW33709   0.210   3.414   7.538 -0.4725  0.5811 -0.1647
 7358SOL    HW133710   0.231   3.414   7.445  2.4976 -3.0882  0.5200
 7358SOL    HW233711   0.186   3.504   7.560 -2.9105 -0.0308 -0.3360
 7359SOL     OW33712   3.825   3.477   7.527 -0.6000  0.3382  0.2463
 7359SOL    HW133713   3.753   3.540   7.534 -0.5042  0.4452  0.2621
 7359SOL    HW233714   3.782   3.392   7.513  1.9403 -0.8751 -0.2350
 7360SOL     OW33715   0.792   1.899  12.041  0.0590  0.4010 -0.2978
 7360SOL    HW133716   0.827   1.966  12.099 -0.2471  1.1771 -1.0127
 7360SOL    HW233717   0.706   1.897  12.084  0.0337  1.6871 -0.2820
 7361SOL     OW33718   0.392   0.793   5.363 -0.8533 -0.0090 -0.4195
 7361SOL    HW133719   0.474   0.771   5.319  0.6343 -0.0703  2.3836
 7361SOL    HW233720   0.338   0.727   5.319 -1.8515  0.2358  0.4514
 7362SOL     OW33721   1.530   4.684  12.104  0.0557 -0.1427  0.0903
 7362SOL    HW133722   1.536   4.701  12.011  2.4206  0.8010  0.4398
 7362SOL    HW233723   1.623   4.677  12.124 -0.2776  0.3564  1.8132
 7363SOL     OW33724   1.777   4.673   2.078 -0.3484  0.8360 -0.2001
 7363SOL    HW133725   1.691   4.703   2.049 -0.9065 -1.4243 -0.8999
 7363SOL    HW233726   1.804   4.627   1.998 -0.7449 -1.1013  0.7830
 7364SOL     OW33727   2.154   2.543   4.311 -0.4238  0.1388 -0.1303
 7364SOL    HW133728   2.116   2.544   4.399 -1.9713  0.9310 -0.8321
 7364SOL    HW233729   2.151   2.449   4.291  2.2797  0.2559 -1.1702
 7365SOL     OW33730   3.427   0.213   4.995 -0.1225  0.4498  0.4180
 7365SOL    HW133731   3.388   0.285   5.044 -0.5892  1.7680 -1.8837
 7365SOL    HW233732   3.505   0.196   5.048 -0.6902 -0.8473  0.8423
 7366SOL     OW33733   0.753   2.311   8.586 -0.5848  0.0973  0.5492
 7366SOL    HW133734   0.793   2.398   8.592 -0.0430 -0.0791 -0.5744
 7366SOL    HW233735   0.778   2.289   8.676 -0.8326 -2.0221  0.0903
 7367SOL     OW33736   0.251   3.057   4.355  0.0966  0.3478 -0.0888
 7367SOL    HW133737   0.182   3.081   4.417 -0.7023 -1.9349 -0.0897
 7367SOL    HW233738   0.254   3.126   4.290  0.4554  0.4005 -0.0136
 7368SOL     OW33739   0.671   0.417   8.057  0.4613 -0.1849 -0.1521
 7368SOL    HW133740   0.619   0.440   8.134  0.4635 -1.6206  0.2687
 7368SOL    HW233741   0.691   0.498   8.010  0.8781 -1.3417 -1.9482
 7369SOL     OW33742   1.550   4.727   1.940  0.0644 -0.2977  0.5131
 7369SOL    HW133743   1.521   4.639   1.966 -0.3620 -0.2708  0.1292
 7369SOL    HW233744   1.495   0.005   1.863 -0.1607 -2.2522  0.2932
 7370SOL     OW33745   0.453   1.365   2.263 -0.0106  0.4789  0.0763
 7370SOL    HW133746   0.521   1.314   2.307 -1.3177  0.1169  1.6682
 7370SOL    HW233747   0.500   1.375   2.180 -1.7194  1.6173 -0.7658
 7371SOL     OW33748   1.020   3.962   8.863 -0.1988  0.3905  0.5510
 7371SOL    HW133749   0.942   3.948   8.811  1.8482  1.8595 -2.9151
 7371SOL    HW233750   1.046   3.871   8.879  1.9523  0.9338  0.2818
 7372SOL     OW33751   2.140   2.839  11.535  0.5883 -0.1915  0.0880
 7372SOL    HW133752   2.169   2.912  11.589 -2.1960  0.6372  0.4366
 7372SOL    HW233753   2.210   2.848  11.470  1.0656  2.4504  0.9474
 7373SOL     OW33754   0.198   3.335   4.689  0.0547 -0.3259 -0.6660
 7373SOL    HW133755   0.138   3.260   4.682  0.2769 -0.7533  1.7895
 7373SOL    HW233756   0.264   3.311   4.624 -0.0826 -1.7101 -0.3016
 7374SOL     OW33757   2.645   2.349   3.335  0.6334  0.2450 -0.2806
 7374SOL    HW133758   2.658   2.360   3.429 -1.5721 -2.2373  0.3085
 7374SOL    HW233759   2.614   2.261   3.315  2.5897 -0.3331 -0.8034
 7375SOL     OW33760   2.264   2.773   2.040 -0.4536 -0.0881  0.0079
 7375SOL    HW133761   2.241   2.746   2.129  1.7840 -0.7585  0.3949
 7375SOL    HW233762   2.329   2.840   2.062  1.1598 -1.0498 -1.8654
 7376SOL     OW33763   0.789   2.896  12.414 -0.6124  0.3429 -0.2101
 7376SOL    HW133764   0.804   2.987  12.441  0.4943  0.1553 -0.2055
 7376SOL    HW233765   0.857   2.887  12.348  0.6386 -0.2962  1.1727
 7377SOL     OW33766   0.505   4.472   3.994  0.4203  0.6251 -0.3647
 7377SOL    HW133767   0.521   4.394   4.048 -1.9873  1.0984  1.0246
 7377SOL    HW233768   0.523   4.545   4.054 -0.3385  1.1472 -0.7835
 7378SOL     OW33769   2.551   2.751   0.270 -0.0295 -0.5328 -0.1853
 7378SOL    HW133770   2.484   2.816   0.289  0.4064 -0.2301  0.3123
 7378SOL    HW233771   2.622   2.804   0.306 -0.5514 -0.8370  1.2774
 7379SOL     OW33772   0.982   3.506   4.870 -0.3822 -0.4591 -0.5896
 7379SOL    HW133773   1.012   3.424   4.909  0.3010  1.0040  1.9510
 7379SOL    HW233774   1.038   3.568   4.916 -0.1156 -0.7890 -0.4709
 7380SOL     OW33775   3.810   2.532   3.787 -0.4698  0.1711  0.0187
 7380SOL    HW133776   3.857   2.596   3.839 -2.1067  0.4158  1.1935
 7380SOL    HW233777   3.844   2.546   3.699  0.8671 -2.4062  0.1033
 7381SOL     OW33778   1.768   2.231   1.869  0.3493  0.0219 -0.2376
 7381SOL    HW133779   1.679   2.247   1.837 -0.1223  1.1422  1.6334
 7381SOL    HW233780   1.812   2.219   1.784  1.9683 -2.0612  0.9089
 7382SOL     OW33781   4.722   2.797  16.905  0.5191 -0.1812 -0.0128
 7382SOL    HW133782   0.008   2.853  16.980 -0.4901  1.0293 -0.6022
 7382SOL    HW233783   4.634   2.825  16.881 -0.4751 -2.1380  1.3246
 7383SOL     OW33784   4.735   1.318   2.704  0.3106 -0.2676  0.0360
 7383SOL    HW133785   0.077   1.363   2.673  1.0329 -0.7481  1.2092
 7383SOL    HW233786   0.030   1.228   2.706 -0.8116 -0.6645  0.0391
 7384SOL     OW33787   2.919   3.125   4.360 -0.1878  0.5388 -0.6560
 7384SOL    HW133788   2.968   3.200   4.325 -2.4725  2.4874  0.3583
 7384SOL    HW233789   2.991   3.076   4.400 -2.6470 -1.0732  1.7401
 7385SOL     OW33790   4.369   3.700   2.608  0.4590  0.0506  0.2471
 7385SOL    HW133791   4.307   3.701   2.680 -0.3310  2.5954 -0.4794
 7385SOL    HW233792   4.349   3.612   2.575  1.8837 -0.5209  0.8573
 7386SOL     OW33793   0.411   3.374  11.505  0.2252 -0.1053 -0.0057
 7386SOL    HW133794   0.325   3.396  11.469  1.1156  0.1428 -1.9951
 7386SOL    HW233795   0.390   3.348  11.595  3.0487  0.5272  0.8164
 7387SOL     OW33796   3.281   1.873  10.279 -0.3136  0.7809 -0.4396
 7387SOL    HW133797   3.347   1.916  10.225 -1.9981  2.5841 -1.0255
 7387SOL    HW233798   3.203   1.923  10.258 -2.0902 -1.6024  0.4070
 7388SOL     OW33799   3.974   0.958   9.632 -0.2528 -0.1514  0.0705
 7388SOL    HW133800   4.023   1.005   9.700  1.7540  0.7431 -1.9846
 7388SOL    HW233801   4.035   0.895   9.594  1.1845  0.5973  1.1415
 7389SOL     OW33802   0.931   3.356   5.741 -0.2211  0.6773 -0.3475
 7389SOL    HW133803   0.850   3.336   5.694 -0.6733 -1.6702  1.4266
 7389SOL    HW233804   0.986   3.335   5.666 -0.3796 -2.6861  0.4696
 7390SOL     OW33805   4.189   1.782  14.677  0.1561 -0.3714 -0.3261
 7390SOL    HW133806   4.242   1.717  14.723 -0.0291 -0.0820  0.2886
 7390SOL    HW233807   4.199   1.746  14.588 -0.9245  1.7798 -1.3236
 7391SOL     OW33808   4.546   1.941   2.467  0.0597  0.0908 -0.1118
 7391SOL    HW133809   4.617   1.886   2.434 -1.0721  0.5174 -3.1892
 7391SOL    HW233810   4.494   1.869   2.503  0.2319 -0.9570 -1.9778
 7392SOL     OW33811   2.184   4.030   5.229 -0.1768  0.0963  0.3820
 7392SOL    HW133812   2.149   4.119   5.221 -2.7183 -0.6512  3.7403
 7392SOL    HW233813   2.154   4.001   5.143  1.1698 -2.3573  0.7379
 7393SOL     OW33814   1.194   2.926   4.562  0.5173  0.3494  0.3194
 7393SOL    HW133815   1.260   2.963   4.503  2.0715  0.3966  2.0882
 7393SOL    HW233816   1.130   2.996   4.557 -0.0559 -0.2017 -0.0378
 7394SOL     OW33817   1.151   4.019   8.236 -0.4219 -0.2440 -0.1122
 7394SOL    HW133818   1.168   3.983   8.323 -1.4075  1.1462  0.6620
 7394SOL    HW233819   1.146   3.941   8.180  0.2529 -1.1045  1.0371
 7395SOL     OW33820   0.701   2.579  11.532  0.4605  0.1700 -0.2498
 7395SOL    HW133821   0.765   2.637  11.574  1.6780 -1.8462  0.7084
 7395SOL    HW233822   0.647   2.560  11.609  0.6805  0.2233 -0.0786
 7396SOL     OW33823   0.825   3.667   1.982  0.2861 -0.1316  0.0201
 7396SOL    HW133824   0.779   3.665   2.066 -1.8860  2.1023 -1.0844
 7396SOL    HW233825   0.906   3.626   2.011  0.5028  0.2443 -0.0597
 7397SOL     OW33826   2.180   3.090   7.477 -0.3203  0.5893 -0.3308
 7397SOL    HW133827   2.093   3.130   7.467 -1.2490 -1.3870 -0.2042
 7397SOL    HW233828   2.174   3.004   7.435 -1.8289  0.2497  0.5630
 7398SOL     OW33829   3.557   0.001   2.167 -0.0272  0.1275  0.2283
 7398SOL    HW133830   3.615   0.008   2.091  2.1592 -3.3684  1.5822
 7398SOL    HW233831   3.501   4.667   2.134  0.6161 -0.7037  0.9070
 7399SOL     OW33832   1.959   1.265   7.562  0.0914 -0.1046  0.5408
 7399SOL    HW133833   1.943   1.322   7.637  0.0831 -0.4065  0.7671
 7399SOL    HW233834   2.050   1.242   7.583  0.1118 -0.8705 -0.4014
 7400SOL     OW33835   3.360   3.554   1.216  0.3999 -0.1710  0.0674
 7400SOL    HW133836   3.392   3.464   1.216 -0.0416 -0.3314 -0.3113
 7400SOL    HW233837   3.409   3.604   1.282 -0.8517 -0.8238  1.4771
 7401SOL     OW33838   4.573   1.194   2.265 -0.1897  0.1275  0.0463
 7401SOL    HW133839   4.612   1.252   2.200  0.8171  0.0505  0.5875
 7401SOL    HW233840   4.580   1.112   2.217  0.4657  0.2832 -0.1197
 7402SOL     OW33841   0.417   3.548   1.831 -0.1015 -0.1855  0.2798
 7402SOL    HW133842   0.325   3.522   1.825  0.1160 -0.8701 -0.1444
 7402SOL    HW233843   0.432   3.519   1.921  2.4432 -1.8720 -0.6855
 7403SOL     OW33844   1.803   1.091   3.346  0.3570 -0.5363 -0.2305
 7403SOL    HW133845   1.838   1.148   3.277 -0.1210  0.3377  0.2574
 7403SOL    HW233846   1.721   1.135   3.367  0.2929  0.0623 -1.6973
 7404SOL     OW33847   2.544   2.086   5.721  0.0456 -0.0561 -0.6582
 7404SOL    HW133848   2.455   2.069   5.753  0.5640 -1.4902 -0.0125
 7404SOL    HW233849   2.572   2.158   5.777 -0.3215 -0.3325 -0.1151
 7405SOL     OW33850   4.211   3.741   4.934 -0.0857 -0.1033  0.6455
 7405SOL    HW133851   4.155   3.800   4.885  2.3354  0.7748 -1.0775
 7405SOL    HW233852   4.298   3.748   4.894 -0.3313  1.2434  0.3601
 7406SOL     OW33853   1.578   1.438   9.055 -0.4985 -0.6061 -0.2537
 7406SOL    HW133854   1.499   1.491   9.067 -0.6556 -0.7229 -0.7797
 7406SOL    HW233855   1.583   1.404   9.144 -0.7280 -0.4612 -0.1833
 7407SOL     OW33856   4.695   0.436   8.008  0.0335  0.2554  0.3870
 7407SOL    HW133857   4.616   0.382   8.012  1.1524 -1.2613  1.6441
 7407SOL    HW233858   0.026   0.369   8.006 -1.5193 -1.2942 -1.0515
 7408SOL     OW33859   0.190   4.122   7.355 -0.3489 -0.3685  0.2087
 7408SOL    HW133860   0.241   4.049   7.390 -2.7166 -1.6790  0.9450
 7408SOL    HW233861   0.193   4.101   7.261  0.0380 -0.3447  0.2187
 7409SOL     OW33862   3.976   4.426   3.644 -0.3643  0.1583  0.4868
 7409SOL    HW133863   3.918   4.428   3.720  0.2316 -0.3869  0.9507
 7409SOL    HW233864   3.926   4.376   3.579 -0.2016  0.6272  0.0006
 7410SOL     OW33865   3.157   2.641  16.923  0.0586  0.0147 -0.2378
 7410SOL    HW133866   3.117   2.701  16.986  1.1996 -0.0199  0.5187
 7410SOL    HW233867   3.141   2.690  16.842 -0.5691  1.1194  0.5444
 7411SOL     OW33868   3.616   2.248  17.627 -0.3868 -0.9560  0.0810
 7411SOL    HW133869   3.659   2.325  17.588 -3.0317  1.1949  1.3589
 7411SOL    HW233870   3.555   2.222  17.558  0.3746  1.1564 -1.4117
 7412SOL     OW33871   0.577   2.938  10.688 -0.4629  0.1038 -0.0792
 7412SOL    HW133872   0.616   3.013  10.642  0.0426  1.5480  2.6706
 7412SOL    HW233873   0.598   2.948  10.780  0.2304  1.3198 -0.3699
 7413SOL     OW33874   2.671   2.337   2.611  0.1769  0.0289 -0.4003
 7413SOL    HW133875   2.657   2.427   2.582  1.2102  0.2022 -0.3461
 7413SOL    HW233876   2.764   2.325   2.594  0.2306  0.2420 -0.2632
 7414SOL     OW33877   4.121   2.462   9.240 -0.1463  0.4455 -0.0299
 7414SOL    HW133878   4.192   2.508   9.195  0.6546 -0.6329  0.1239
 7414SOL    HW233879   4.086   2.409   9.168 -0.5622  1.0905 -0.3046
 7415SOL     OW33880   2.765   4.209   8.419  0.2758 -0.3449 -0.3349
 7415SOL    HW133881   2.809   4.167   8.493 -0.6485 -1.7745 -0.5919
 7415SOL    HW233882   2.709   4.134   8.397  0.2990  0.3711 -2.8308
 7416SOL     OW33883   4.257   4.658  12.558  0.1635 -0.2357  0.0486
 7416SOL    HW133884   4.162   4.650  12.565  0.3704 -2.8181  0.1941
 7416SOL    HW233885   4.279   4.687  12.647 -3.1377  2.5272 -0.0213
 7417SOL     OW33886   4.015   4.103   9.729 -0.7896 -0.2075  0.1206
 7417SOL    HW133887   4.004   4.134   9.639  1.0000 -3.7909 -1.3344
 7417SOL    HW233888   3.999   4.184   9.778 -0.6240 -1.1368  1.7082
 7418SOL     OW33889   0.794   2.264   7.006  0.6246  0.7697  0.1359
 7418SOL    HW133890   0.713   2.221   7.033  0.5808  0.9547  0.2987
 7418SOL    HW233891   0.761   2.354   6.997 -1.2838 -0.0598 -1.1573
 7419SOL     OW33892   1.228   4.038   3.569  0.4786  0.2498  0.3455
 7419SOL    HW133893   1.234   4.115   3.626  2.0419  0.3223  0.1034
 7419SOL    HW233894   1.144   4.001   3.594  2.6579 -3.4449  2.0844
 7420SOL     OW33895   4.355   0.471   4.211  0.3447  0.5949  0.1281
 7420SOL    HW133896   4.303   0.393   4.230 -1.0179  1.8778  1.6969
 7420SOL    HW233897   4.352   0.516   4.296 -2.4678  0.5442  0.0576
 7421SOL     OW33898   1.609   2.586   6.717 -0.7884  0.0400  0.4403
 7421SOL    HW133899   1.573   2.616   6.634  3.3667 -0.6394 -1.6163
 7421SOL    HW233900   1.687   2.539   6.688 -0.3969 -0.2327  1.9428
 7422SOL     OW33901   2.271   2.466   3.749  0.2702 -0.0290  0.3514
 7422SOL    HW133902   2.359   2.444   3.781  0.3474  1.2835  1.0375
 7422SOL    HW233903   2.209   2.458   3.821 -0.0645  0.1655  0.0816
 7423SOL     OW33904   3.498   1.894   6.271 -1.2515  0.4155  0.2972
 7423SOL    HW133905   3.418   1.856   6.236 -0.4895 -0.0591 -0.9470
 7423SOL    HW233906   3.519   1.966   6.211  1.4281 -1.8817 -1.4844
 7424SOL     OW33907   3.072   1.170  16.941  0.2939  0.1846  0.1137
 7424SOL    HW133908   3.120   1.251  16.921 -0.2923  0.6877  0.7256
 7424SOL    HW233909   3.098   1.105  16.876 -0.6020 -0.6738  0.6146
 7425SOL     OW33910   0.838   0.318  14.154  0.5583  0.1130  0.1590
 7425SOL    HW133911   0.835   0.223  14.154  4.4285 -0.0281 -0.0550
 7425SOL    HW233912   0.887   0.329  14.072  1.3790 -3.1603  0.2197
 7426SOL     OW33913   2.214   2.927   0.641  0.2179  0.4892 -0.3560
 7426SOL    HW133914   2.189   2.990   0.573  0.7546 -1.4210 -2.3279
 7426SOL    HW233915   2.230   2.988   0.713 -0.6382 -0.7639  0.8928
 7427SOL     OW33916   4.101   2.385  10.077 -0.5488  0.2337 -0.3385
 7427SOL    HW133917   4.125   2.412  10.166  0.3950 -0.1877 -0.4652
 7427SOL    HW233918   4.155   2.447  10.028  2.2426 -2.6738 -0.9938
 7428SOL     OW33919   3.044   3.890   2.157  0.6842  0.5261 -0.6552
 7428SOL    HW133920   3.078   3.975   2.129  0.2567  0.4731 -1.3224
 7428SOL    HW233921   2.949   3.896   2.149  0.4066 -1.5234  1.0825
 7429SOL     OW33922   0.696   3.945   3.565  0.0608  0.2217  0.7156
 7429SOL    HW133923   0.687   3.850   3.562  1.1120  0.1313  0.1064
 7429SOL    HW233924   0.672   3.965   3.474  0.2072 -1.3238  0.3257
 7430SOL     OW33925   0.192   1.696   3.325  0.5040  0.4100  0.1518
 7430SOL    HW133926   0.141   1.755   3.381 -1.1828 -0.6238 -0.2984
 7430SOL    HW233927   0.141   1.705   3.245 -0.0322 -2.2491  0.1740
 7431SOL     OW33928   2.568   4.268  12.947  0.3141  0.0291  0.0417
 7431SOL    HW133929   2.518   4.320  12.884 -2.3723 -2.5808  0.0399
 7431SOL    HW233930   2.642   4.241  12.892 -0.7248 -0.5043 -1.0872
 7432SOL     OW33931   1.233   1.249   6.138 -0.1263 -0.3778 -0.2588
 7432SOL    HW133932   1.183   1.266   6.058  0.3770  2.3116 -0.0000
 7432SOL    HW233933   1.255   1.156   6.130 -1.4753 -0.8338  1.3751
 7433SOL     OW33934   2.621   3.448  17.688  0.3392  0.7181  0.8930
 7433SOL    HW133935   2.615   3.519  17.624 -1.9300 -0.0545  0.2346
 7433SOL    HW233936   2.551   3.396  17.648 -1.2507  1.1741  3.0382
 7434SOL     OW33937   0.203   0.763   8.995  0.5466 -0.1341  0.2772
 7434SOL    HW133938   0.297   0.777   8.984  0.0225  0.6428 -3.2303
 7434SOL    HW233939   0.190   0.807   9.080  2.0181  2.1250 -0.6565
 7435SOL     OW33940   1.722   0.887   5.748  0.0754 -0.6460  0.1045
 7435SOL    HW133941   1.765   0.801   5.744  1.2615 -0.0543  0.2248
 7435SOL    HW233942   1.702   0.898   5.841 -1.4684  1.9478 -0.5274
 7436SOL     OW33943   4.028   0.824  12.782  0.3840  0.0942  0.0241
 7436SOL    HW133944   3.979   0.879  12.843 -1.1463 -2.3551  0.9998
 7436SOL    HW233945   4.113   0.826  12.825  0.8513 -1.1805 -0.8221
 7437SOL     OW33946   0.998   2.300   7.411 -0.1068  0.4255  0.1020
 7437SOL    HW133947   1.043   2.363   7.467 -1.5450  1.0205  0.5837
 7437SOL    HW233948   1.038   2.316   7.325 -2.8743  4.3013 -0.5033
 7438SOL     OW33949   4.033   4.394   6.118 -0.1934 -0.7697  0.2086
 7438SOL    HW133950   4.103   4.343   6.158  1.4541  0.7846 -0.7206
 7438SOL    HW233951   3.967   4.326   6.130  1.8609 -2.6360  0.8450
 7439SOL     OW33952   2.714   0.784   4.413  0.1791  0.1920 -0.4201
 7439SOL    HW133953   2.799   0.749   4.388  0.2948 -1.1198  1.8944
 7439SOL    HW233954   2.677   0.814   4.329 -0.8637 -1.4736 -0.5537
 7440SOL     OW33955   0.661   0.299   8.833 -0.3638  0.5320 -0.2361
 7440SOL    HW133956   0.591   0.237   8.853  0.0257  0.8580  2.1305
 7440SOL    HW233957   0.737   0.242   8.828 -0.7448  0.0257 -0.2222
 7441SOL     OW33958   3.991   1.110   8.482  0.2873 -0.0278  0.6965
 7441SOL    HW133959   3.937   1.035   8.507  1.4505 -1.1654 -0.2813
 7441SOL    HW233960   4.061   1.058   8.442 -0.7049 -0.1311 -0.9162
 7442SOL     OW33961   3.240   4.353  11.618 -0.4956 -0.5335  0.0464
 7442SOL    HW133962   3.312   4.300  11.585 -0.2384  0.6572 -1.3064
 7442SOL    HW233963   3.178   4.351  11.545 -0.3205 -0.6982 -0.0957
 7443SOL     OW33964   3.030   0.392   9.022  0.4013 -0.0187  0.2220
 7443SOL    HW133965   3.125   0.379   9.025  0.3965 -0.2560 -0.6499
 7443SOL    HW233966   3.015   0.416   8.930 -2.3630 -1.2344  0.3706
 7444SOL     OW33967   0.961   1.347  16.177  0.7277 -0.1029 -0.3007
 7444SOL    HW133968   1.049   1.352  16.138  0.4859 -1.0307 -0.9814
 7444SOL    HW233969   0.969   1.385  16.264  0.4389 -1.5501  0.3569
 7445SOL     OW33970   1.146   3.964  13.267  0.0669  0.0019 -0.0360
 7445SOL    HW133971   1.116   3.954  13.177  0.3409 -1.4492  0.0283
 7445SOL    HW233972   1.084   4.032  13.296 -1.3590 -2.0284  1.7109
 7446SOL     OW33973   0.414   2.687   5.803  0.3370  0.0361  0.7394
 7446SOL    HW133974   0.392   2.599   5.773  3.5351 -0.0231 -1.5283
 7446SOL    HW233975   0.493   2.701   5.751 -2.1950  1.1333 -2.7805
 7447SOL     OW33976   4.024   1.458   4.465  0.2410  0.5617 -0.1941
 7447SOL    HW133977   4.024   1.479   4.559  3.3007  0.0711 -0.0862
 7447SOL    HW233978   4.015   1.363   4.469 -0.6872  0.6138 -0.9328
 7448SOL     OW33979   2.792   1.145   2.251  0.3537 -0.8412 -0.4413
 7448SOL    HW133980   2.772   1.052   2.245  1.3450 -1.0901  0.0557
 7448SOL    HW233981   2.858   1.137   2.320  1.6883 -0.1391 -1.6249
 7449SOL     OW33982   0.230   2.581   9.154 -0.4246 -0.4010  0.0285
 7449SOL    HW133983   0.189   2.524   9.089 -1.8548  0.7179 -0.0460
 7449SOL    HW233984   0.299   2.607   9.093 -0.3320 -0.4673  0.1053
 7450SOL     OW33985   4.091   2.749   4.885 -0.3923  0.4943 -0.0014
 7450SOL    HW133986   4.134   2.707   4.959  1.7169  1.5762 -0.5884
 7450SOL    HW233987   4.014   2.694   4.872  0.0256 -0.1789  0.3993
 7451SOL     OW33988   3.155   4.136   2.675  0.2736  0.1325 -0.3527
 7451SOL    HW133989   3.068   4.098   2.662  0.4040  0.4558 -2.1898
 7451SOL    HW233990   3.181   4.106   2.762  1.2848 -0.5169 -0.8696
 7452SOL     OW33991   2.397   3.805   6.785 -0.1139  0.0275 -0.1709
 7452SOL    HW133992   2.317   3.852   6.762  0.5646  2.1671  1.8965
 7452SOL    HW233993   2.460   3.872   6.761  0.8203 -0.7895 -0.0392
 7453SOL     OW33994   3.617   2.919   1.993 -0.8996  0.6078 -0.3576
 7453SOL    HW133995   3.576   2.950   2.074 -1.1366 -0.0861 -0.2141
 7453SOL    HW233996   3.541   2.887   1.944 -0.3889  0.7405 -1.2538
 7454SOL     OW33997   1.754   1.829   9.402 -0.1089 -0.3497  0.0856
 7454SOL    HW133998   1.848   1.825   9.419 -0.4112  1.2287  2.0527
 7454SOL    HW233999   1.736   1.922   9.388 -1.0915 -0.5365  0.1368
 7455SOL     OW34000   4.543   1.998   8.200 -0.1654 -0.4919  0.1404
 7455SOL    HW134001   4.514   1.932   8.137 -2.4654  1.6043 -0.9811
 7455SOL    HW234002   4.566   2.072   8.145 -0.0860 -0.6430 -0.0301
 7456SOL     OW34003   0.613   2.086  12.267  0.0254  0.2524  0.2737
 7456SOL    HW134004   0.565   2.022  12.318  1.2965  0.2634  1.4960
 7456SOL    HW234005   0.537   2.116  12.218 -1.2639 -1.8982  0.9756
 7457SOL     OW34006   1.828   3.130   3.563  0.3545  0.6263  0.1761
 7457SOL    HW134007   1.743   3.121   3.604  0.4233  0.5665  0.3063
 7457SOL    HW234008   1.805   3.096   3.477 -1.1176 -0.3280  0.9585
 7458SOL     OW34009   3.724   0.297   2.001  0.2069 -0.0620 -0.6393
 7458SOL    HW134010   3.688   0.287   2.089 -0.0924 -0.2105 -0.7777
 7458SOL    HW234011   3.814   0.303   2.033  0.2196  1.0318 -0.8964
 7459SOL     OW34012   1.286   0.043  10.594 -0.3052 -0.5674  0.1603
 7459SOL    HW134013   1.345   0.039  10.669  1.1712 -0.6438 -1.0162
 7459SOL    HW234014   1.284   0.139  10.591  1.8923 -0.5047  1.0240
 7460SOL     OW34015   0.515   1.849   3.833 -1.1492 -0.1646 -0.0717
 7460SOL    HW134016   0.579   1.842   3.762 -0.5638  0.3297  0.4088
 7460SOL    HW234017   0.429   1.829   3.796 -1.1636 -0.9229  0.3741
 7461SOL     OW34018   0.946   1.209   1.667  0.0140 -0.2687  0.2904
 7461SOL    HW134019   0.937   1.141   1.733  0.2472 -0.6971 -0.1165
 7461SOL    HW234020   0.877   1.269   1.696  1.0238 -0.8899  3.9596
 7462SOL     OW34021   2.068   3.776   7.626  0.3855  0.3548 -0.1314
 7462SOL    HW134022   2.021   3.694   7.634  1.2861 -0.1298  0.1612
 7462SOL    HW234023   2.059   3.784   7.531  0.5268  0.3786 -0.1430
 7463SOL     OW34024   4.565   3.620   4.453  0.3560 -0.5046  0.5717
 7463SOL    HW134025   4.628   3.692   4.451  0.4092 -0.5649  0.1539
 7463SOL    HW234026   4.498   3.658   4.396 -0.3238 -0.2924  1.5091
 7464SOL     OW34027   2.027   1.097  12.405 -0.6172 -0.3295  0.2649
 7464SOL    HW134028   2.092   1.049  12.457  1.9423  1.6191 -1.1826
 7464SOL    HW234029   2.031   1.185  12.441  0.8695  0.1191 -1.0099
 7465SOL     OW34030   4.264   2.088  10.133  0.1740  0.5673 -0.1879
 7465SOL    HW134031   4.256   2.176  10.095 -0.5860 -0.0724 -1.4860
 7465SOL    HW234032   4.260   2.102  10.228 -0.1944 -0.4047 -0.0648
 7466SOL     OW34033   4.033   1.182   4.455  0.2512 -0.8939  0.3567
 7466SOL    HW134034   4.051   1.109   4.514 -0.3146 -1.0334  0.3622
 7466SOL    HW234035   4.036   1.135   4.372  0.1317  2.9181 -1.8003
 7467SOL     OW34036   4.730   1.250  12.018 -0.0294 -0.1090 -0.9094
 7467SOL    HW134037   4.671   1.305  12.068 -0.8270 -2.5239  0.8251
 7467SOL    HW234038   0.041   1.316  11.968 -0.5758  0.7087 -0.3379
 7468SOL     OW34039   2.043   3.814   8.049 -0.4644  0.2000 -0.5556
 7468SOL    HW134040   2.028   3.855   7.964 -2.1452 -1.9718 -1.3045
 7468SOL    HW234041   2.055   3.897   8.095 -1.1737 -0.5691  1.0057
 7469SOL     OW34042   2.199   3.200  12.231 -0.4883  0.1366 -0.3075
 7469SOL    HW134043   2.255   3.248  12.293 -1.9349  1.0604  0.2842
 7469SOL    HW234044   2.127   3.260  12.211 -0.6056 -0.4471 -1.6195
 7470SOL     OW34045   0.051   2.862   9.879  0.1209 -0.3649  0.0215
 7470SOL    HW134046   0.139   2.826   9.865 -0.1782 -0.5230 -1.4461
 7470SOL    HW234047   4.722   2.806   9.837 -2.4959  0.6227  2.8118
 7471SOL     OW34048   0.569   2.378   3.211 -0.1534  0.4494 -0.7696
 7471SOL    HW134049   0.634   2.440   3.179  0.0034  0.0232 -1.2737
 7471SOL    HW234050   0.617   2.295   3.211 -0.4018  0.3046 -1.1805
 7472SOL     OW34051   4.506   2.864  13.825 -0.0132  0.1423  0.1664
 7472SOL    HW134052   4.588   2.875  13.776 -0.0222  2.1890  0.6179
 7472SOL    HW234053   4.498   2.769  13.820 -1.0756  0.2021  0.8170
 7473SOL     OW34054   4.557   3.646   5.884 -0.0779  0.4664  0.2872
 7473SOL    HW134055   4.624   3.585   5.916  1.4193  1.3147 -1.2422
 7473SOL    HW234056   4.499   3.589   5.833 -2.0405 -0.0119  3.0905
 7474SOL     OW34057   1.138   2.240   9.663  0.5434  0.2459 -0.2669
 7474SOL    HW134058   1.104   2.321   9.701  0.4280 -0.2777  0.7369
 7474SOL    HW234059   1.106   2.241   9.572  0.7584  0.2509 -0.3436
 7475SOL     OW34060   2.214   0.464   4.300 -0.0994  0.1275  0.0637
 7475SOL    HW134061   2.279   0.433   4.237 -1.0758  1.2609 -1.5188
 7475SOL    HW234062   2.177   0.532   4.243 -0.3536 -2.0381 -2.3512
 7476SOL     OW34063   2.485   4.343   4.249  0.1463  0.3295  0.1237
 7476SOL    HW134064   2.478   4.390   4.166 -0.3426 -0.2441 -0.1557
 7476SOL    HW234065   2.393   4.332   4.276  0.5816 -0.6006  1.2380
 7477SOL     OW34066   3.911   2.254   4.824  0.2800  0.1322  0.1703
 7477SOL    HW134067   3.957   2.273   4.905  0.2267 -1.3850  0.5524
 7477SOL    HW234068   3.844   2.194   4.855  0.5942  0.4744  1.4849
 7478SOL     OW34069   0.647   3.363   1.936 -0.2860 -0.0879 -0.1997
 7478SOL    HW134070   0.625   3.409   2.017 -0.5952 -2.4462  1.0719
 7478SOL    HW234071   0.559   3.324   1.930 -0.7856  0.6275  2.3966
 7479SOL     OW34072   1.247   2.998  11.187 -0.9926  0.3269  0.5299
 7479SOL    HW134073   1.158   3.008  11.220 -1.2023  1.0831 -0.2616
 7479SOL    HW234074   1.293   2.963  11.263 -1.4284  0.8987  1.0576
 7480SOL     OW34075   0.376   2.252   9.185 -0.0101  0.2344 -1.0788
 7480SOL    HW134076   0.330   2.188   9.130 -0.9912  1.3231 -1.5344
 7480SOL    HW234077   0.433   2.291   9.118  2.4046 -1.1256  0.2138
 7481SOL     OW34078   2.983   2.896  17.260 -0.7992  0.0146 -0.3531
 7481SOL    HW134079   2.988   2.806  17.293  1.2490 -0.1997 -1.2153
 7481SOL    HW234080   3.005   2.895  17.166  0.7347  1.1292 -0.0000
 7482SOL     OW34081   0.927   0.373   6.913  0.0934  0.7836  0.3757
 7482SOL    HW134082   0.901   0.455   6.955  1.6243  0.6241  1.6531
 7482SOL    HW234083   1.017   0.384   6.882  0.1945 -0.0117  0.3759
 7483SOL     OW34084   2.105   4.581   5.926  0.8994 -0.6894  0.0343
 7483SOL    HW134085   2.172   4.647   5.909  1.1763 -1.2564 -1.1219
 7483SOL    HW234086   2.159   4.531   5.988  2.7098  0.1398 -0.8622
 7484SOL     OW34087   3.745   0.893   9.775  0.3116 -0.2082  1.2529
 7484SOL    HW134088   3.736   0.976   9.821 -1.4530  0.0542  0.4756
 7484SOL    HW234089   3.817   0.905   9.714  0.7259 -0.0464  1.7792
 7485SOL     OW34090   1.235   0.218   0.602 -0.6039 -0.3892 -0.5953
 7485SOL    HW134091   1.246   0.172   0.519 -0.0792  1.5048 -1.5875
 7485SOL    HW234092   1.215   0.145   0.661  1.0046  0.6628  1.2686
 7486SOL     OW34093   0.724   4.648   5.719 -0.3885  0.2929 -0.0932
 7486SOL    HW134094   0.738   4.715   5.786  0.8244 -0.9727  0.9078
 7486SOL    HW234095   0.800   4.662   5.662 -2.2377  0.0355 -2.6078
 7487SOL     OW34096   0.680   4.344   2.070 -0.2280  0.2518 -0.3016
 7487SOL    HW134097   0.748   4.296   2.022 -0.9489 -0.9674 -0.0998
 7487SOL    HW234098   0.622   4.349   1.993  0.5197 -0.9513 -0.9436
 7488SOL     OW34099   3.815   4.608   4.440  0.0718  0.1001  0.4811
 7488SOL    HW134100   3.878   4.596   4.368  2.1637 -1.2367  2.5302
 7488SOL    HW234101   3.734   4.568   4.409 -0.0308  1.8533 -1.5410
 7489SOL     OW34102   1.911   2.273   2.628  0.0692  0.6651  0.0263
 7489SOL    HW134103   1.863   2.333   2.570 -1.0472 -1.6016 -1.3932
 7489SOL    HW234104   1.971   2.245   2.559  0.2730  0.3084  0.3509
 7490SOL     OW34105   3.639   3.069   6.223  1.0745  0.4571  0.6787
 7490SOL    HW134106   3.563   3.030   6.182  2.2317 -0.7950 -0.2628
 7490SOL    HW234107   3.628   3.161   6.196  0.5426  0.0643 -0.4257
 7491SOL     OW34108   0.502   2.371   0.893  0.4928 -0.6712  0.5747
 7491SOL    HW134109   0.516   2.295   0.950  0.2459 -3.0753 -2.5333
 7491SOL    HW234110   0.565   2.436   0.923  0.7275 -1.3599  1.5941
 7492SOL     OW34111   0.008   0.160   5.915  0.0040  0.0475 -0.8984
 7492SOL    HW134112   4.728   0.096   5.846  2.3710 -0.4573 -1.0032
 7492SOL    HW234113   0.103   0.161   5.903 -0.0161 -1.1297 -1.1135
 7493SOL     OW34114   0.436   4.387   9.150  0.1030 -0.3389  0.3148
 7493SOL    HW134115   0.427   4.340   9.067 -0.4883 -0.1894  0.2963
 7493SOL    HW234116   0.380   4.463   9.134 -1.0721 -1.2490  0.0943
 7494SOL     OW34117   4.402   1.969   7.736 -0.5187  0.1786  0.1204
 7494SOL    HW134118   4.393   1.934   7.648 -0.4050  1.0039 -0.2136
 7494SOL    HW234119   4.427   2.060   7.717 -1.2143  0.4167  0.3615
 7495SOL     OW34120   1.950   2.277  14.822 -0.1005  0.2795  0.1466
 7495SOL    HW134121   1.871   2.326  14.801  0.1282 -0.2602 -1.9423
 7495SOL    HW234122   2.008   2.349  14.795  0.9125 -0.4569  0.3665
 7496SOL     OW34123   0.015   1.611   1.446  0.3877  0.4905 -0.3707
 7496SOL    HW134124   0.032   1.588   1.354 -1.0196  2.4928 -1.1305
 7496SOL    HW234125   4.656   1.614   1.449  0.4363  0.7222  0.8503
 7497SOL     OW34126   2.076   1.009   6.981 -0.3930 -0.2695  0.2074
 7497SOL    HW134127   2.129   1.076   7.025 -0.8683  0.5047 -0.4076
 7497SOL    HW234128   2.040   1.047   6.901  1.6534  0.7115 -0.2390
 7498SOL     OW34129   3.744   2.794   7.356 -0.1757 -0.1244  0.2810
 7498SOL    HW134130   3.695   2.712   7.349  0.4303 -0.5378  0.8026
 7498SOL    HW234131   3.821   2.753   7.317 -0.4855 -2.9196  2.6288
 7499SOL     OW34132   0.611   0.292   5.119  0.2900  0.9213  0.6394
 7499SOL    HW134133   0.664   0.292   5.040  0.9106  0.4162  1.0489
 7499SOL    HW234134   0.569   0.205   5.119 -0.6774  1.3865  0.3498
 7500SOL     OW34135   0.016   0.946   5.292  0.2461  0.3828 -0.0540
 7500SOL    HW134136   0.012   1.022   5.235 -2.0388  1.7707  1.9503
 7500SOL    HW234137   4.674   0.950   5.345  0.6441 -0.5635  0.6102
 7501SOL     OW34138   3.936   0.453  11.878  0.2376 -0.4144 -0.2546
 7501SOL    HW134139   3.899   0.366  11.892  0.6359 -0.5916 -0.3081
 7501SOL    HW234140   3.998   0.428  11.809  0.2550 -0.2615 -0.2953
 7502SOL     OW34141   0.255   4.094   6.142  0.0925  0.2887 -0.2117
 7502SOL    HW134142   0.337   4.112   6.188 -1.8493  1.7255  2.7509
 7502SOL    HW234143   0.286   4.075   6.054  1.7398  3.5294 -0.3378
 7503SOL     OW34144   2.598   4.287   6.699  0.5155 -0.8670  0.1873
 7503SOL    HW134145   2.642   4.206   6.723 -1.0104 -1.8947 -0.4585
 7503SOL    HW234146   2.506   4.261   6.704  0.4226 -0.2088  2.1267
 7504SOL     OW34147   3.506   0.314   6.277  0.0051 -0.4727  0.0205
 7504SOL    HW134148   3.529   0.377   6.209  1.9280 -1.0084  0.1839
 7504SOL    HW234149   3.494   0.364   6.358 -1.2902 -0.6434 -0.0636
 7505SOL     OW34150   2.244   3.226   1.729 -0.1362 -0.1226 -0.2119
 7505SOL    HW134151   2.228   3.176   1.648 -0.1084 -0.9106  0.2679
 7505SOL    HW234152   2.248   3.153   1.791  1.0270  0.9201  0.9335
 7506SOL     OW34153   0.018   0.253   1.907 -0.2810  0.3928 -0.2597
 7506SOL    HW134154   4.729   0.295   1.825 -0.9201  2.7085  1.1342
 7506SOL    HW234155   4.711   0.321   1.958 -1.6833 -0.2956 -0.5295
 7507SOL     OW34156   4.493   4.502   4.436  0.6928  0.2164  0.2128
 7507SOL    HW134157   4.514   4.469   4.524  1.2684 -1.7859 -0.6689
 7507SOL    HW234158   4.573   4.478   4.389  0.1054 -0.7109 -0.3166
 7508SOL     OW34159   0.197   3.376   8.492 -0.0166  0.4010  0.5631
 7508SOL    HW134160   0.146   3.297   8.474 -1.5531  1.7482 -1.0778
 7508SOL    HW234161   0.259   3.375   8.419  0.3102 -1.1550  0.8691
 7509SOL     OW34162   2.682   0.268   4.524 -0.3486  0.1040 -0.0904
 7509SOL    HW134163   2.664   0.180   4.556  1.7934  0.5707  2.4259
 7509SOL    HW234164   2.658   0.318   4.602 -2.9245 -3.1140  1.1847
 7510SOL     OW34165   2.939   0.655   5.730  0.1332 -0.4966  0.1357
 7510SOL    HW134166   2.887   0.610   5.663 -0.8589 -0.1031  0.6337
 7510SOL    HW234167   2.992   0.581   5.760  0.7044 -0.1522 -0.0343
 7511SOL     OW34168   0.760   0.602  17.075  0.1715  0.2966  0.5081
 7511SOL    HW134169   0.745   0.559  17.160 -0.0754  0.3284  0.4827
 7511SOL    HW234170   0.849   0.569  17.068 -0.4125 -1.0473 -0.4148
 7512SOL     OW34171   0.386   3.533   2.723 -0.1795  0.4266 -0.0908
 7512SOL    HW134172   0.343   3.527   2.808  1.5724 -3.4911  0.4912
 7512SOL    HW234173   0.350   3.604   2.670  0.9693 -0.2956 -1.8433
 7513SOL     OW34174   1.283   4.560   3.422 -0.0708 -0.4077  0.3763
 7513SOL    HW134175   1.275   4.655   3.412 -0.7992 -0.4729  0.3677
 7513SOL    HW234176   1.305   4.540   3.331 -0.8622  0.2681  0.0332
 7514SOL     OW34177   3.866   0.715   4.000  0.2533 -0.6986  0.1038
 7514SOL    HW134178   3.943   0.771   3.988 -0.9022  1.2027  1.5486
 7514SOL    HW234179   3.849   0.696   3.908  0.3123 -1.0715  0.1735
 7515SOL     OW34180   3.078   0.076   6.344  0.3486  0.4052  0.1540
 7515SOL    HW134181   2.990   0.038   6.348  1.0063 -0.9865  1.5056
 7515SOL    HW234182   3.126   0.015   6.288 -1.0263  0.8325 -1.4664
 7516SOL     OW34183   1.035   4.147   2.175  0.4915 -0.4255 -0.4007
 7516SOL    HW134184   0.999   4.068   2.134  0.7444  0.0418 -1.4998
 7516SOL    HW234185   0.972   4.217   2.159  0.9873  0.3076  0.8586
 7517SOL     OW34186   1.908   2.946   1.575 -0.0954  0.0614 -0.4034
 7517SOL    HW134187   1.863   3.012   1.522 -1.0530  0.0043  0.3399
 7517SOL    HW234188   1.861   2.965   1.656  2.9655  0.5853  1.2471
 7518SOL     OW34189   1.159   2.026   6.353  0.3417 -0.3886  0.4944
 7518SOL    HW134190   1.220   1.954   6.370  3.0733  1.4064 -1.6839
 7518SOL    HW234191   1.084   1.988   6.308 -0.6888  4.1243 -1.5709
 7519SOL     OW34192   2.949   0.123   4.825 -0.0139  0.0330  0.4384
 7519SOL    HW134193   3.002   0.111   4.747  1.5551  0.8231  1.3913
 7519SOL    HW234194   2.873   0.073   4.796 -0.5476 -0.6188  2.8947
 7520SOL     OW34195   3.708   4.173  11.531 -0.3546 -0.1955 -0.0424
 7520SOL    HW134196   3.632   4.130  11.571  1.0240 -2.1084  0.5551
 7520SOL    HW234197   3.728   4.241  11.595 -0.6991 -0.4505  0.3354
 7521SOL     OW34198   0.031   2.086   2.541 -0.1434 -0.0785 -0.5124
 7521SOL    HW134199   0.087   2.107   2.466  0.2522 -1.5419 -0.6139
 7521SOL    HW234200   4.689   2.049   2.500  1.3685 -1.2680 -2.3494
 7522SOL     OW34201   0.476   1.636   3.499  0.1495  0.4530  0.3041
 7522SOL    HW134202   0.436   1.572   3.440 -2.5192  1.5849  0.9175
 7522SOL    HW234203   0.438   1.719   3.471 -0.4809 -0.5315 -1.7992
 7523SOL     OW34204   1.800   0.496   4.752  0.2228  0.0483  0.2966
 7523SOL    HW134205   1.872   0.433   4.750  0.2137  0.0134  1.0489
 7523SOL    HW234206   1.829   0.563   4.691 -1.4484  0.2164 -0.3131
 7524SOL     OW34207   2.072   2.474   3.338  0.8408  0.4042 -0.2418
 7524SOL    HW134208   2.094   2.431   3.420 -2.1739 -1.2058 -0.2657
 7524SOL    HW234209   2.159   2.487   3.303  0.3839  1.8854 -0.8258
 7525SOL     OW34210   0.869   0.197   3.470 -0.3200 -0.0667 -0.5670
 7525SOL    HW134211   0.876   0.141   3.548 -1.8466 -1.6267 -1.5591
 7525SOL    HW234212   0.920   0.144   3.410 -1.2402 -1.1302 -0.4174
 7526SOL     OW34213   4.315   1.476   5.196  0.6720  0.3537 -0.6097
 7526SOL    HW134214   4.336   1.502   5.286  3.1113  0.0203 -1.0825
 7526SOL    HW234215   4.223   1.502   5.196  1.1167  1.9058  1.1769
 7527SOL     OW34216   0.542   4.154   7.361 -0.1085  0.1790  0.4472
 7527SOL    HW134217   0.607   4.092   7.328  0.3239  0.6566  0.4149
 7527SOL    HW234218   0.510   4.196   7.281 -0.7047 -2.3928 -0.6569
 7528SOL     OW34219   1.165   3.140   2.398  0.0139 -0.7058 -0.6932
 7528SOL    HW134220   1.244   3.090   2.416  0.9919  0.5058 -1.5995
 7528SOL    HW234221   1.202   3.215   2.351 -2.5081 -0.3177 -2.0649
 7529SOL     OW34222   0.075   0.403  13.520  0.5429  0.4497  0.0078
 7529SOL    HW134223   0.012   0.454  13.571  0.5789  0.8446 -0.3412
 7529SOL    HW234224   0.145   0.404  13.586 -0.9016  1.4973  1.5289
 7530SOL     OW34225   2.430   2.180   4.345 -0.0097  0.1153  0.3201
 7530SOL    HW134226   2.344   2.161   4.384 -0.1606  1.0165  0.4383
 7530SOL    HW234227   2.419   2.116   4.275  2.3170  1.1712 -1.0189
 7531SOL     OW34228   1.651   3.447   1.608  0.1524  0.0173 -0.3255
 7531SOL    HW134229   1.687   3.522   1.560  0.8536  1.7927  2.9522
 7531SOL    HW234230   1.730   3.404   1.638 -1.3889 -3.5787 -1.4448
 7532SOL     OW34231   2.303   3.494   1.758 -0.0618 -1.0962 -0.7217
 7532SOL    HW134232   2.219   3.498   1.805  0.7237  0.4496  0.5239
 7532SOL    HW234233   2.303   3.399   1.749 -0.2801 -1.4926  3.6259
 7533SOL     OW34234   3.274   2.714   8.004  0.0656 -0.4414  0.5259
 7533SOL    HW134235   3.336   2.751   8.066  1.0828 -0.2418 -0.6159
 7533SOL    HW234236   3.326   2.648   7.959 -0.4912 -1.6136  1.6019
 7534SOL     OW34237   2.063   0.641   4.141  0.2469  0.1972  0.0074
 7534SOL    HW134238   1.972   0.662   4.119  0.4512  1.4307  0.3837
 7534SOL    HW234239   2.102   0.643   4.054 -0.5063  0.7102 -0.3102
 7535SOL     OW34240   3.811   4.401  12.336 -0.0321  0.7387  0.4732
 7535SOL    HW134241   3.807   4.469  12.268  1.8887  0.1936 -0.1878
 7535SOL    HW234242   3.825   4.465  12.406  0.1978 -0.7135  1.7243
 7536SOL     OW34243   1.259   0.185  16.815  0.2820  0.0818  0.8201
 7536SOL    HW134244   1.351   0.188  16.792  0.2572 -0.9326  0.5818
 7536SOL    HW234245   1.258   0.240  16.894  0.9309  2.5702 -0.9375
 7537SOL     OW34246   0.913   3.342   1.834  0.2532  0.0598  0.3323
 7537SOL    HW134247   0.821   3.363   1.855  0.3815 -1.2914  2.2134
 7537SOL    HW234248   0.906   3.317   1.742 -2.3684  1.2234  0.2149
 7538SOL     OW34249   0.696   1.518  10.909 -0.4247  0.1393 -0.1536
 7538SOL    HW134250   0.704   1.488  11.000 -2.6793  0.2750  0.1058
 7538SOL    HW234251   0.618   1.571  10.927 -0.4893 -0.9293  2.7221
 7539SOL     OW34252   2.019   0.868   2.972  0.1879 -0.2504  0.2783
 7539SOL    HW134253   2.003   0.782   2.934 -0.8248 -0.0895  0.3317
 7539SOL    HW234254   2.108   0.849   3.000 -0.2524 -1.0378  1.1558
 7540SOL     OW34255   0.031   1.931  17.546 -0.0614  0.3758 -0.3984
 7540SOL    HW134256   0.036   2.009  17.602  0.8693 -0.2224  0.3488
 7540SOL    HW234257   4.688   1.886  17.576  0.1567  0.9715  1.0909
 7541SOL     OW34258   2.670   3.022   4.409  0.2328  0.2236 -0.3005
 7541SOL    HW134259   2.678   2.930   4.436  0.6052  0.8264  1.6190
 7541SOL    HW234260   2.761   3.044   4.390  1.0713 -3.5625 -0.6023
 7542SOL     OW34261   1.653   0.983   9.216 -0.1395 -0.5789 -0.5202
 7542SOL    HW134262   1.667   0.901   9.264 -1.3114 -0.2039  0.4928
 7542SOL    HW234263   1.558   0.997   9.210  0.0045  1.3498  1.6913
 7543SOL     OW34264   3.767   2.859   8.047 -0.0829  0.3305  0.3219
 7543SOL    HW134265   3.826   2.825   8.114 -0.3631 -0.1077  0.3447
 7543SOL    HW234266   3.814   2.848   7.964  1.2367 -0.4075  1.1724
 7544SOL     OW34267   3.293   2.035  12.681 -0.4270  0.0648  0.3644
 7544SOL    HW134268   3.289   2.120  12.726  0.5353 -0.6990  1.9029
 7544SOL    HW234269   3.222   2.045  12.618  1.0746 -0.0233 -1.3447
 7545SOL     OW34270   2.308   0.213   6.339  0.5834 -0.3450  0.0959
 7545SOL    HW134271   2.230   0.265   6.359 -0.5454 -2.1090  0.2894
 7545SOL    HW234272   2.368   0.221   6.413 -0.6979 -0.7685  1.1965
 7546SOL     OW34273   4.377   1.231   3.768  0.6086 -0.2357 -0.0092
 7546SOL    HW134274   4.379   1.268   3.680  0.7166 -2.7607 -1.0579
 7546SOL    HW234275   4.439   1.288   3.814  0.1129  2.4602 -2.6320
 7547SOL     OW34276   1.040   3.707   6.562  0.2900  0.1464  0.3677
 7547SOL    HW134277   0.951   3.691   6.594  0.4394  0.1109  0.7602
 7547SOL    HW234278   1.048   3.797   6.593  1.8307 -0.6159  2.1599
 7548SOL     OW34279   2.920   4.094   5.908 -0.0298 -0.1118 -0.1772
 7548SOL    HW134280   2.935   4.126   5.819  2.3932 -1.7384 -0.3528
 7548SOL    HW234281   2.933   4.000   5.900  1.6071  0.0716  0.3675
 7549SOL     OW34282   4.558   4.473   7.735  0.0145 -0.3842  0.3935
 7549SOL    HW134283   4.562   4.460   7.830 -0.2212  0.8728  0.5799
 7549SOL    HW234284   4.650   4.469   7.710 -0.4409  0.1915 -1.3673
 7550SOL     OW34285   3.945   1.042  17.649 -0.2981 -0.1559 -0.4172
 7550SOL    HW134286   4.018   1.001  17.603  2.2743  2.1681  1.6464
 7550SOL    HW234287   3.890   0.964  17.663  0.2962 -0.7729 -1.4717
 7551SOL     OW34288   3.775   0.426  16.816 -0.1661  0.6088  0.3153
 7551SOL    HW134289   3.713   0.410  16.745  2.4829 -0.5561 -1.7559
 7551SOL    HW234290   3.729   0.420  16.900  0.8099 -0.3319  0.7885
 7552SOL     OW34291   4.529   0.834  12.757  0.0745 -0.1376 -0.3802
 7552SOL    HW134292   4.527   0.872  12.669  0.4309  1.2270  0.1924
 7552SOL    HW234293   4.511   0.913  12.809  2.6345  0.3071 -0.1680
 7553SOL     OW34294   3.506   4.683   7.303 -0.2071  0.0233  0.2342
 7553SOL    HW134295   3.590   4.638   7.289  1.4984  2.7336  1.5474
 7553SOL    HW234296   3.446   4.621   7.262 -0.0777 -0.8137  1.3037
 7554SOL     OW34297   0.144   4.236   4.150  0.5201 -0.0857  0.1135
 7554SOL    HW134298   0.197   4.315   4.144 -0.1721  0.5749  2.9396
 7554SOL    HW234299   0.187   4.177   4.087 -0.0641  0.6141 -0.9466
 7555SOL     OW34300   3.932   2.488  15.027  0.0259  0.1892  0.5366
 7555SOL    HW134301   3.974   2.448  15.103 -0.5908  0.5294  1.0596
 7555SOL    HW234302   3.884   2.561  15.067  0.8203  1.4461 -0.7986
 7556SOL     OW34303   2.128   4.335   8.548 -0.1240  0.5628  0.8984
 7556SOL    HW134304   2.206   4.378   8.581  1.3415 -1.2250 -0.2421
 7556SOL    HW234305   2.085   4.410   8.506 -1.6929  0.3141  2.0288
 7557SOL     OW34306   2.276   4.615   1.198 -0.0299  0.5254  0.3896
 7557SOL    HW134307   2.332   4.550   1.242 -0.0674 -0.5327 -1.1372
 7557SOL    HW234308   2.285   4.691   1.255 -1.7741  0.8018  0.2926
 7558SOL     OW34309   3.772   2.493   3.296  0.1444 -1.1304  0.3373
 7558SOL    HW134310   3.761   2.489   3.391  1.5258 -1.4100  0.4825
 7558SOL    HW234311   3.680   2.507   3.271  0.6472 -2.6134 -2.3644
 7559SOL     OW34312   0.968   2.853   3.873  0.0276  0.6214 -0.0569
 7559SOL    HW134313   0.945   2.903   3.795 -0.5075 -1.0714 -0.9834
 7559SOL    HW234314   0.995   2.925   3.930 -0.3638  0.7105  0.0138
 7560SOL     OW34315   4.348   1.829   5.338  0.0521 -0.6966 -0.0111
 7560SOL    HW134316   4.398   1.847   5.418 -0.1218 -0.0405 -0.0494
 7560SOL    HW234317   4.263   1.844   5.380  1.2488 -0.8851  2.4824
 7561SOL     OW34318   0.573   0.915   2.820 -0.0403 -0.6438  0.0024
 7561SOL    HW134319   0.637   0.984   2.836  0.6297 -1.5535  1.2105
 7561SOL    HW234320   0.592   0.887   2.730  1.9187  1.2717 -0.1815
 7562SOL     OW34321   0.316   3.885   2.409  0.4636  0.1932 -0.0529
 7562SOL    HW134322   0.236   3.936   2.397  0.5713  0.3311 -0.1977
 7562SOL    HW234323   0.381   3.930   2.355  2.5365 -1.6084  0.9252
 7563SOL     OW34324   2.019   1.382  12.464  0.4704  0.0864 -0.4129
 7563SOL    HW134325   1.962   1.431  12.404  1.2504  1.8727  0.3207
 7563SOL    HW234326   2.083   1.448  12.486 -0.5263  0.4981  1.2389
 7564SOL     OW34327   4.580   4.111   4.381  0.1622 -0.5062  0.7708
 7564SOL    HW134328   4.521   4.121   4.306  0.4204 -0.4537  0.5778
 7564SOL    HW234329   4.564   4.194   4.425  1.2925 -0.6017  1.3418
 7565SOL     OW34330   2.476   1.662   4.875 -0.0839 -0.0776  0.5030
 7565SOL    HW134331   2.562   1.633   4.844  0.4284  1.4994  0.4572
 7565SOL    HW234332   2.489   1.700   4.962 -1.2606  2.4015 -0.4170
 7566SOL     OW34333   1.197   0.909   9.980 -0.0083  0.0620 -0.1582
 7566SOL    HW134334   1.154   0.826  10.002 -0.5535  0.4228  0.1520
 7566SOL    HW234335   1.192   0.898   9.885  2.3121  0.7010 -0.3463
 7567SOL     OW34336   0.053   0.970  16.322  0.1293  0.8595  0.1674
 7567SOL    HW134337   0.143   0.990  16.296 -0.3147  2.1019 -0.4495
 7567SOL    HW234338   0.005   0.940  16.244 -0.2049 -0.7145  0.9813
 7568SOL     OW34339   1.211   0.560   3.215 -0.0772  0.2187  0.0694
 7568SOL    HW134340   1.246   0.582   3.129 -2.0888  2.0972 -0.2653
 7568SOL    HW234341   1.274   0.618   3.259  0.5806  0.7933 -1.6487
 7569SOL     OW34342   0.953   1.770   1.453 -0.0214  0.0608 -0.0300
 7569SOL    HW134343   0.994   1.707   1.512 -1.3046 -0.7109  0.0409
 7569SOL    HW234344   1.029   1.800   1.404 -0.3065  1.4595  0.3611
 7570SOL     OW34345   0.490   3.218   7.177 -0.3036 -0.2384  0.5684
 7570SOL    HW134346   0.505   3.126   7.200 -1.2447 -0.8286 -1.1929
 7570SOL    HW234347   0.571   3.259   7.207  0.2843 -0.4149 -0.7576
 7571SOL     OW34348   1.193   2.798   7.110  0.4734  0.2924  0.4091
 7571SOL    HW134349   1.126   2.749   7.062  0.3458  1.8018 -0.9559
 7571SOL    HW234350   1.243   2.729   7.153 -0.4456 -1.2640 -1.0141
 7572SOL     OW34351   3.672   3.775   3.855  0.1207  0.4396  0.2093
 7572SOL    HW134352   3.764   3.788   3.829  1.0978  1.1019  4.1124
 7572SOL    HW234353   3.667   3.684   3.825 -0.4855  0.5199  0.0715
 7573SOL     OW34354   1.094   3.522   8.263 -0.7844 -0.1891  0.1213
 7573SOL    HW134355   1.165   3.540   8.324 -0.1764 -1.4249 -0.2312
 7573SOL    HW234356   1.021   3.573   8.299 -0.5376 -0.4095  0.9354
 7574SOL     OW34357   0.934   1.662  17.328 -0.1162 -0.7606  0.2742
 7574SOL    HW134358   0.840   1.666  17.347 -0.2018  1.2244 -0.5178
 7574SOL    HW234359   0.941   1.570  17.303  1.7153  0.1267 -2.5372
 7575SOL     OW34360   0.218   0.763  15.046  0.4604 -0.4657  0.2565
 7575SOL    HW134361   0.213   0.801  14.958 -0.0429  1.2097  1.0097
 7575SOL    HW234362   0.188   0.674  15.030 -0.7771  0.1932 -1.2037
 7576SOL     OW34363   2.225   2.394   7.506  0.4390  0.8202 -0.3409
 7576SOL    HW134364   2.239   2.376   7.599  2.0471 -3.0133 -1.3088
 7576SOL    HW234365   2.173   2.474   7.505  0.5889  0.9285  0.2240
 7577SOL     OW34366   0.371   2.707   7.619  0.6659  0.1571 -0.4566
 7577SOL    HW134367   0.322   2.654   7.681  0.6065  1.1459  0.3507
 7577SOL    HW234368   0.421   2.761   7.681  3.1205 -2.0109 -0.5120
 7578SOL     OW34369   3.028   2.160   7.039 -0.2644  0.3977 -0.0535
 7578SOL    HW134370   2.962   2.224   7.067 -0.1075  1.0883 -1.2677
 7578SOL    HW234371   3.069   2.213   6.971 -1.0812  1.2264  0.0982
 7579SOL     OW34372   1.954   4.687   3.537 -0.1022 -0.2849  0.7989
 7579SOL    HW134373   1.996   0.016   3.593  0.1963 -1.6841  2.2005
 7579SOL    HW234374   1.916   0.007   3.471 -0.5627 -0.5514  0.8405
 7580SOL     OW34375   3.368   3.422   2.650 -0.9526 -0.0310  0.3412
 7580SOL    HW134376   3.401   3.430   2.561  1.3340  0.5986  1.2336
 7580SOL    HW234377   3.388   3.509   2.686 -0.8714 -0.3590  1.0964
 7581SOL     OW34378   1.926   0.293   4.575 -0.2266  0.2625 -0.0889
 7581SOL    HW134379   1.947   0.203   4.550 -0.4119  0.3242 -0.4737
 7581SOL    HW234380   2.018   0.319   4.570  0.1995 -0.7588  2.6246
 7582SOL     OW34381   3.505   1.958   8.346  0.1814  0.2040 -0.3143
 7582SOL    HW134382   3.519   2.034   8.291  1.9736  0.6110  0.7165
 7582SOL    HW234383   3.453   1.994   8.418  0.8470 -0.7139  0.6287
 7583SOL     OW34384   3.935   3.541   6.633 -0.2503  0.4828  0.1890
 7583SOL    HW134385   3.870   3.473   6.651  1.1715 -0.8394  0.2959
 7583SOL    HW234386   3.882   3.612   6.597 -3.6573 -2.0170  0.2833
 7584SOL     OW34387   4.647   4.329   4.004  0.1910 -0.4396  0.1636
 7584SOL    HW134388   4.716   4.317   3.939 -1.8015  1.7608 -2.3110
 7584SOL    HW234389   4.683   4.285   4.082  0.6838 -0.8825 -0.3091
 7585SOL     OW34390   0.376   0.313   5.336 -0.5140  0.0465  0.3194
 7585SOL    HW134391   0.382   0.314   5.432  0.6978 -1.1775  0.2593
 7585SOL    HW234392   0.462   0.279   5.313 -0.6333 -1.5421  2.1973
 7586SOL     OW34393   0.121   3.863   8.558  0.5620 -0.0794 -0.0213
 7586SOL    HW134394   0.041   3.913   8.576  1.0765  0.2476  1.3740
 7586SOL    HW234395   0.109   3.793   8.622 -1.0932 -0.1846 -0.4299
 7587SOL     OW34396   3.399   4.666   8.510 -0.2760  0.1820  0.3344
 7587SOL    HW134397   3.464   4.735   8.526  1.5954 -1.1362 -1.4624
 7587SOL    HW234398   3.334   4.734   8.491 -0.0436  0.9291  2.2455
 7588SOL     OW34399   3.876   1.292   7.969  0.2403  0.1076  0.0481
 7588SOL    HW134400   3.850   1.218   7.915  1.0329 -1.5109  1.8708
 7588SOL    HW234401   3.815   1.289   8.043  0.7298 -1.9746  0.3645
 7589SOL     OW34402   3.887   3.143   6.759 -0.6785 -0.4683  0.0914
 7589SOL    HW134403   3.854   3.080   6.695  1.1788 -2.5280  1.1668
 7589SOL    HW234404   3.946   3.087   6.809  2.4945  1.4111 -1.5559
 7590SOL     OW34405   1.337   0.105   5.776 -0.3729  0.3100 -0.1345
 7590SOL    HW134406   1.416   0.125   5.726  0.7963 -1.4449  0.9877
 7590SOL    HW234407   1.315   0.018   5.741 -0.2908  0.2449 -0.0251
 7591SOL     OW34408   3.011   0.003  12.794 -0.7364  0.5334  0.4088
 7591SOL    HW134409   3.040   4.690  12.718 -0.6235  2.1097 -0.5690
 7591SOL    HW234410   2.970   4.672  12.849 -1.1161 -0.1741 -0.7332
 7592SOL     OW34411   1.451   0.940  14.110 -0.4522 -0.4268 -0.3456
 7592SOL    HW134412   1.384   1.006  14.097 -0.7691 -0.9433 -1.2785
 7592SOL    HW234413   1.502   1.004  14.159 -0.4902 -0.7881  0.1694
 7593SOL     OW34414   3.477   0.823   3.352  0.0933 -0.5596  0.4508
 7593SOL    HW134415   3.435   0.909   3.343 -1.0101 -1.3282 -1.8031
 7593SOL    HW234416   3.548   0.857   3.406  1.4447  0.0355 -1.7162
 7594SOL     OW34417   0.861   0.287  15.151 -1.0047 -0.0337 -0.0263
 7594SOL    HW134418   0.867   0.287  15.246 -2.5542 -1.1374  0.0763
 7594SOL    HW234419   0.881   0.196  15.128 -0.7772 -0.3302  1.3336
 7595SOL     OW34420   3.768   1.417   8.232 -0.3000  0.0676  0.3741
 7595SOL    HW134421   3.692   1.410   8.175 -0.4661  1.9498  0.3547
 7595SOL    HW234422   3.796   1.508   8.225 -1.2730  0.2191 -1.5226
 7596SOL     OW34423   4.549   0.929  15.201 -0.0464  0.6677 -0.0633
 7596SOL    HW134424   4.603   0.855  15.229 -0.3948  0.2011 -0.6094
 7596SOL    HW234425   4.545   0.902  15.109 -1.2130 -0.1487  0.2219
 7597SOL     OW34426   1.430   4.671   7.645  0.2834 -0.1075  0.7613
 7597SOL    HW134427   1.444   4.692   7.738  1.9139  0.5891  0.3529
 7597SOL    HW234428   1.422   4.576   7.650  0.8545 -0.1489  0.9946
 7598SOL     OW34429   2.993   1.735   0.294 -0.0346  0.2770  0.0153
 7598SOL    HW134430   3.030   1.669   0.236  0.4878 -0.3216  1.0451
 7598SOL    HW234431   2.902   1.708   0.277  0.1401 -1.6188  2.1562
 7599SOL     OW34432   2.898   3.753   7.035  0.7111 -0.0857  0.2570
 7599SOL    HW134433   2.932   3.713   7.115 -0.8047  0.5085  1.1894
 7599SOL    HW234434   2.909   3.695   6.959 -1.0711 -2.0441  1.4638
 7600SOL     OW34435   0.530   1.430   3.978 -1.0014 -0.0720 -0.0306
 7600SOL    HW134436   0.514   1.387   3.894  1.2421  1.4862 -1.2611
 7600SOL    HW234437   0.546   1.361   4.043 -2.5687 -1.8708 -1.5581
 7601SOL     OW34438   0.310   4.593   2.958 -0.3063  0.1513  0.5340
 7601SOL    HW134439   0.236   4.558   2.908 -2.2343  0.2134  3.3611
 7601SOL    HW234440   0.342   4.666   2.904 -0.8993  0.1151  0.1315
 7602SOL     OW34441   2.325   0.387   9.378  0.4786  0.7145  0.2109
 7602SOL    HW134442   2.412   0.349   9.364  0.0121  0.3460 -1.6448
 7602SOL    HW234443   2.295   0.376   9.288 -1.9252 -0.6324  1.1580
 7603SOL     OW34444   0.560   3.150   7.661 -0.5873  0.1576 -0.2667
 7603SOL    HW134445   0.503   3.112   7.595 -1.9437  1.2577  0.2666
 7603SOL    HW234446   0.607   3.218   7.612 -0.1950  0.0167 -0.0917
 7604SOL     OW34447   4.402   3.268   2.186  0.2501  0.4322 -0.5293
 7604SOL    HW134448   4.496   3.250   2.182  0.4538  1.5990 -0.9671
 7604SOL    HW234449   4.396   3.353   2.230  1.5730 -0.9895  2.3230
 7605SOL     OW34450   0.546   1.832   1.029 -0.1585  0.1431  0.5453
 7605SOL    HW134451   0.578   1.773   1.097 -1.1913 -0.6298  0.3439
 7605SOL    HW234452   0.457   1.860   1.051  1.1191  2.2759  3.0482
 7606SOL     OW34453   3.754   3.324   6.058 -0.0278  0.3261  0.3787
 7606SOL    HW134454   3.768   3.391   6.124 -0.0939 -0.2833  1.0160
 7606SOL    HW234455   3.827   3.345   5.999  1.6826 -1.2565  1.9322
 7607SOL     OW34456   1.592   0.529   5.501  0.7750 -0.1805 -0.5657
 7607SOL    HW134457   1.654   0.582   5.450  1.3944 -1.3130 -0.9837
 7607SOL    HW234458   1.576   0.589   5.573 -1.3139  1.7810 -2.6557
 7608SOL     OW34459   1.587   2.745   1.885 -0.2287 -0.5507  0.1305
 7608SOL    HW134460   1.585   2.678   1.817  1.2134  0.9342 -1.3715
 7608SOL    HW234461   1.508   2.794   1.865 -0.2923  0.2884  2.4022
 7609SOL     OW34462   0.164   3.551  11.683 -0.1270  0.2131 -0.5798
 7609SOL    HW134463   0.185   3.545  11.590  0.0218 -0.1121 -0.5251
 7609SOL    HW234464   0.071   3.574  11.687  0.5204  2.7139  0.5943
 7610SOL     OW34465   2.176   2.880   7.288 -0.1945  0.5762  0.4844
 7610SOL    HW134466   2.227   2.818   7.340  1.1409  0.5423 -0.8730
 7610SOL    HW234467   2.205   2.855   7.201 -0.2110 -1.7382  1.1306
 7611SOL     OW34468   4.323   0.342   6.124 -0.0766 -0.3252 -0.1352
 7611SOL    HW134469   4.363   0.311   6.205 -2.6065 -0.2322  1.1775
 7611SOL    HW234470   4.341   0.271   6.063  1.2186 -0.3224  0.2459
 7612SOL     OW34471   3.445   0.786   8.824 -0.1817  0.2441  0.3239
 7612SOL    HW134472   3.492   0.774   8.907  0.1571  0.0252  0.1017
 7612SOL    HW234473   3.352   0.790   8.846  0.1333  0.5084  1.6395
 7613SOL     OW34474   1.194   3.007   6.230  0.0744 -0.0536  0.0788
 7613SOL    HW134475   1.110   3.035   6.266 -1.0457 -0.6097 -2.1422
 7613SOL    HW234476   1.165   2.950   6.158 -0.7231  0.6860 -0.1818
 7614SOL     OW34477   0.768   4.254   6.978  0.1060 -0.1161 -0.5307
 7614SOL    HW134478   0.814   4.176   7.011  1.2260  0.7847  0.0344
 7614SOL    HW234479   0.775   4.315   7.052 -1.4111  0.9964 -1.3056
 7615SOL     OW34480   2.052   3.405   7.621 -0.6440 -0.7196 -0.3421
 7615SOL    HW134481   2.016   3.317   7.632 -0.8663 -0.6460 -0.4684
 7615SOL    HW234482   1.975   3.461   7.635  0.3260  0.9063 -1.5153
 7616SOL     OW34483   4.491   0.107  10.532 -0.5881 -0.4289 -0.7705
 7616SOL    HW134484   4.561   0.043  10.527  0.8746  1.0419  0.8358
 7616SOL    HW234485   4.429   0.061  10.588  3.3556 -0.4579  3.5228
 7617SOL     OW34486   2.484   0.741   4.800 -0.5546 -0.3915  0.4903
 7617SOL    HW134487   2.455   0.811   4.859 -0.3385 -0.2414  0.4177
 7617SOL    HW234488   2.520   0.682   4.866  0.2385  0.0389  0.4334
 7618SOL     OW34489   1.128   1.314   2.663  0.0793  0.2424  0.1474
 7618SOL    HW134490   1.034   1.327   2.677 -0.5702 -0.0451 -4.1358
 7618SOL    HW234491   1.164   1.400   2.685  0.3865  0.0831  0.2713
 7619SOL     OW34492   2.724   1.501   1.761 -0.0102 -0.0155 -0.8114
 7619SOL    HW134493   2.749   1.498   1.854 -0.6244  2.6832 -0.5740
 7619SOL    HW234494   2.700   1.409   1.751  1.4820 -0.5444  0.2901
 7620SOL     OW34495   0.355   1.009   6.762  0.3971 -0.2884  0.2615
 7620SOL    HW134496   0.375   0.991   6.853  0.8168  2.5514  0.7560
 7620SOL    HW234497   0.443   1.042   6.742  0.4386 -0.6555 -0.1459
 7621SOL     OW34498   2.870   3.690   3.499 -0.4705 -0.0964  0.5195
 7621SOL    HW134499   2.856   3.698   3.405  0.2939 -1.5674  0.2840
 7621SOL    HW234500   2.963   3.668   3.498 -0.1238  1.3684  0.9241
 7622SOL     OW34501   1.111   0.285   0.163  0.7630 -0.8282  0.0306
 7622SOL    HW134502   1.031   0.281   0.110  0.8467 -1.7860 -0.0383
 7622SOL    HW234503   1.102   0.366   0.212 -3.5522 -1.6486  0.5667
 7623SOL     OW34504   2.859   2.618  17.360 -0.1722  0.0093  0.4518
 7623SOL    HW134505   2.766   2.609  17.382 -0.1664 -1.3968 -0.0725
 7623SOL    HW234506   2.898   2.591  17.443 -0.3221  0.8471  0.7863
 7624SOL     OW34507   1.630   4.708   7.870  0.0295 -0.0225 -0.5590
 7624SOL    HW134508   1.661   4.667   7.951 -2.9998 -0.3479  0.4282
 7624SOL    HW234509   1.708   0.021   7.846  0.6816 -0.8144 -0.0541
 7625SOL     OW34510   1.908   0.015   6.053  0.5716  0.1317  0.5020
 7625SOL    HW134511   1.825   0.025   6.007  2.4514 -0.4915 -3.0537
 7625SOL    HW234512   1.937   4.669   6.016  4.2422 -0.1672  4.1045
 7626SOL     OW34513   3.387   4.142   2.405 -0.8692  0.0427  0.3042
 7626SOL    HW134514   3.437   4.061   2.418 -2.8071 -0.9584  1.4630
 7626SOL    HW234515   3.450   4.206   2.438 -2.3476 -0.0114  3.2117
 7627SOL     OW34516   4.615   1.198   7.294  0.9398 -0.2584 -0.2149
 7627SOL    HW134517   4.536   1.151   7.269  1.0001 -0.9381  0.8629
 7627SOL    HW234518   4.590   1.210   7.386 -2.0600 -1.4784 -0.8962
 7628SOL     OW34519   3.654   4.256   1.440 -0.3297 -0.0173  0.4673
 7628SOL    HW134520   3.638   4.327   1.502 -1.4079  0.6012 -0.5265
 7628SOL    HW234521   3.585   4.267   1.375 -0.4106  0.8490  0.7029
 7629SOL     OW34522   0.838   0.033  12.711  0.0810 -0.3272  0.6215
 7629SOL    HW134523   0.774   0.069  12.650  0.1668 -0.4462  0.4619
 7629SOL    HW234524   0.915   0.027  12.654 -1.4804  0.6688 -1.6019
 7630SOL     OW34525   1.247   1.867   8.598  0.0172 -0.8092 -0.6422
 7630SOL    HW134526   1.297   1.821   8.665 -0.8877  2.6039  2.3454
 7630SOL    HW234527   1.161   1.828   8.615  0.0583 -0.7668 -0.3379
 7631SOL     OW34528   4.707   2.003   8.679 -0.4548 -0.2364  0.4950
 7631SOL    HW134529   4.699   1.996   8.584  1.2937  0.0478  0.3245
 7631SOL    HW234530   0.017   1.923   8.703 -0.6754 -0.1112  1.3224
 7632SOL     OW34531   2.075   4.001   5.889 -0.2998 -0.2871 -0.5828
 7632SOL    HW134532   2.067   3.912   5.924  1.1045 -0.8629 -1.7194
 7632SOL    HW234533   2.150   4.043   5.931  0.3111 -1.3868 -0.5848
 7633SOL     OW34534   3.658   1.315   0.563  0.2016  0.4747  0.5124
 7633SOL    HW134535   3.725   1.248   0.549 -0.6307 -0.1000 -0.8103
 7633SOL    HW234536   3.643   1.334   0.470 -0.8915 -0.5633  0.4802
 7634SOL     OW34537   4.627   1.762   5.792 -0.1145 -0.1662 -0.2563
 7634SOL    HW134538   4.607   1.819   5.866 -3.5081 -0.0856 -1.2655
 7634SOL    HW234539   4.574   1.682   5.796 -0.1531 -0.0078  2.3399
 7635SOL     OW34540   0.197   4.708   8.944 -0.1086  0.1870 -0.1525
 7635SOL    HW134541   0.132   0.041   8.953 -0.1461  0.0877  0.3226
 7635SOL    HW234542   0.216   4.682   9.034  0.6315  0.8679 -0.1125
 7636SOL     OW34543   2.004   3.546  11.511 -0.3527 -0.1669 -0.1099
 7636SOL    HW134544   1.963   3.464  11.484  1.3041 -1.2554  0.7124
 7636SOL    HW234545   2.091   3.512  11.533 -1.1112 -0.9884  1.6556
 7637SOL     OW34546   2.827   1.738   6.268 -0.0704 -0.1141 -0.5729
 7637SOL    HW134547   2.770   1.717   6.342 -2.5577  1.6240 -1.9924
 7637SOL    HW234548   2.918   1.728   6.296 -0.1327 -0.1172 -0.3764
 7638SOL     OW34549   2.008   3.393   4.349 -0.1661  0.2150  0.0133
 7638SOL    HW134550   2.059   3.376   4.269 -0.4574 -1.4073  0.1720
 7638SOL    HW234551   1.930   3.402   4.295 -0.0320  1.2309 -0.0121
 7639SOL     OW34552   3.863   0.489  10.725 -0.1618 -0.7751  0.2455
 7639SOL    HW134553   3.851   0.460  10.635  1.4238 -2.6281  0.6181
 7639SOL    HW234554   3.933   0.425  10.739 -0.5298 -1.4855 -1.1722
 7640SOL     OW34555   3.606   1.923   7.135 -0.7308  0.0799 -0.5101
 7640SOL    HW134556   3.639   2.000   7.089 -0.3899 -0.4011 -1.0651
 7640SOL    HW234557   3.515   1.950   7.120 -0.6909 -0.0381 -0.9444
 7641SOL     OW34558   1.333   1.506   5.791  0.3179 -0.4867 -0.1270
 7641SOL    HW134559   1.276   1.461   5.729  1.5761 -0.9133 -0.9804
 7641SOL    HW234560   1.379   1.566   5.732 -0.0235  1.6290  1.7717
 7642SOL     OW34561   2.687   2.813  10.427 -0.4601  0.0677  0.2289
 7642SOL    HW134562   2.765   2.855  10.465  0.1576 -0.0040 -0.9603
 7642SOL    HW234563   2.621   2.822  10.495 -1.2636 -1.4770 -0.3437
 7643SOL     OW34564   2.730   2.996   1.832 -0.4154  0.5889 -0.1641
 7643SOL    HW134565   2.808   2.956   1.794  0.0461  0.5589  0.8149
 7643SOL    HW234566   2.694   2.916   1.870 -0.1392  0.6941  0.3135
 7644SOL     OW34567   3.779   1.992   1.954 -0.3485  0.4668 -0.9842
 7644SOL    HW134568   3.856   1.935   1.956 -0.1057  0.8342 -0.1103
 7644SOL    HW234569   3.720   1.939   1.900 -0.3939  1.0586 -1.5117
 7645SOL     OW34570   3.936   0.559   4.581  0.5518 -0.3718 -0.3227
 7645SOL    HW134571   3.934   0.505   4.503 -1.1579  0.7596 -1.0802
 7645SOL    HW234572   3.881   0.502   4.635 -0.7604  1.0445 -0.1694
 7646SOL     OW34573   2.882   1.189   8.247 -0.0739  0.1475  0.0355
 7646SOL    HW134574   2.850   1.164   8.161 -1.1617 -0.8085  0.7127
 7646SOL    HW234575   2.814   1.244   8.285  0.5876  1.3309 -0.5154
 7647SOL     OW34576   1.043   0.595   1.977  0.2140  0.2554  0.1522
 7647SOL    HW134577   1.103   0.668   1.994  0.9628 -0.1656 -0.6937
 7647SOL    HW234578   0.972   0.603   2.040  1.2644 -1.3852  1.5873
 7648SOL     OW34579   0.684   2.406   3.963 -0.3572 -0.0514 -0.2754
 7648SOL    HW134580   0.706   2.492   3.998 -1.4675  0.1760 -0.1373
 7648SOL    HW234581   0.710   2.410   3.871 -1.8139 -1.0367 -0.7301
 7649SOL     OW34582   3.345   4.539  10.361 -0.1334 -0.1704 -0.0414
 7649SOL    HW134583   3.421   4.480  10.367  0.1219  0.4258  2.6153
 7649SOL    HW234584   3.274   4.478  10.343 -1.3425  1.0919  0.4637
 7650SOL     OW34585   4.489   4.277   8.387 -0.1978 -0.0024 -0.2049
 7650SOL    HW134586   4.469   4.359   8.432  1.0463  0.7224 -0.9789
 7650SOL    HW234587   4.571   4.291   8.340  0.8434  0.0952  1.5996
 7651SOL     OW34588   4.627   4.407   8.962  0.9824  0.3224  0.0884
 7651SOL    HW134589   4.553   4.468   8.961 -0.5241 -1.5021 -1.5885
 7651SOL    HW234590   4.698   4.468   8.980  2.7023 -1.6926  0.2592
 7652SOL     OW34591   2.029   4.237  10.434  0.0565 -0.5855  0.0311
 7652SOL    HW134592   2.040   4.332  10.440  1.0885 -0.8879  2.9799
 7652SOL    HW234593   1.998   4.222  10.523  1.9431  1.3630  1.0185
 7653SOL     OW34594   3.194   2.882   1.674 -0.0479 -0.1413 -0.1995
 7653SOL    HW134595   3.252   2.809   1.698 -1.1170 -1.0041 -0.2641
 7653SOL    HW234596   3.236   2.911   1.593 -0.3522  2.5376  0.6249
 7654SOL     OW34597   0.521   3.626   8.914 -0.5504 -0.7828  0.4642
 7654SOL    HW134598   0.607   3.601   8.949  0.9678  2.4328 -0.9912
 7654SOL    HW234599   0.485   3.682   8.984  0.1378 -0.2386  0.3890
 7655SOL     OW34600   1.548   3.874   6.972  0.0532  0.4541 -0.0604
 7655SOL    HW134601   1.563   3.870   6.878  0.6428 -0.7863  0.0796
 7655SOL    HW234602   1.461   3.908   6.993  0.6315  1.2497  1.0835
 7656SOL     OW34603   1.368   3.723   1.274 -0.2661 -0.4618  0.0702
 7656SOL    HW134604   1.350   3.641   1.321 -0.8694 -0.3250  0.0712
 7656SOL    HW234605   1.290   3.775   1.293 -0.1886 -0.1327 -0.5260
 7657SOL     OW34606   1.534   0.192   9.199  0.2040  0.3247  1.0181
 7657SOL    HW134607   1.483   0.251   9.145 -1.6203 -0.9903  1.2911
 7657SOL    HW234608   1.515   0.225   9.287 -1.1627  1.2317  0.3786
 7658SOL     OW34609   2.872   1.335  14.329  0.2939  0.0227  0.3553
 7658SOL    HW134610   2.955   1.289  14.313  1.5321  2.8324 -1.3310
 7658SOL    HW234611   2.834   1.283  14.259  1.2754 -0.5222  0.2246
 7659SOL     OW34612   3.593   4.092   7.443  0.3656 -0.9310  0.0815
 7659SOL    HW134613   3.636   4.107   7.527  0.2049  0.6393 -0.1318
 7659SOL    HW234614   3.643   4.012   7.423  0.5931 -0.1675 -2.3608
 7660SOL     OW34615   2.324   1.985   7.651  0.0126 -0.4465 -0.0741
 7660SOL    HW134616   2.402   1.931   7.660  1.4570  1.9258  1.6257
 7660SOL    HW234617   2.288   1.988   7.739 -0.3124  0.2236 -0.2283
 7661SOL     OW34618   3.120   0.805   2.946  0.3704  0.0858 -0.1261
 7661SOL    HW134619   3.115   0.863   3.022 -0.9146  0.5147 -0.5478
 7661SOL    HW234620   3.216   0.801   2.941  0.4842  0.3734  1.8554
 7662SOL     OW34621   0.252   1.499   7.170 -0.0540 -0.0587 -0.4196
 7662SOL    HW134622   0.172   1.451   7.148  0.0728 -0.4312 -0.0583
 7662SOL    HW234623   0.231   1.528   7.259 -0.8817  1.0667 -0.9827
 7663SOL     OW34624   0.725   2.945   7.557  0.0447 -0.4176  0.0386
 7663SOL    HW134625   0.680   3.029   7.560 -0.6713 -0.7638 -1.3097
 7663SOL    HW234626   0.664   2.882   7.597 -2.8322  1.2223 -1.7498
 7664SOL     OW34627   1.366   2.877  13.734  0.6513  0.0015 -0.4541
 7664SOL    HW134628   1.364   2.948  13.798  0.8131 -0.7037  0.3415
 7664SOL    HW234629   1.280   2.841  13.758  0.5055 -0.8210 -2.2508
 7665SOL     OW34630   3.081   2.823  16.709 -0.0543 -0.6978 -0.4520
 7665SOL    HW134631   3.018   2.891  16.685 -2.5019 -2.4780  0.9075
 7665SOL    HW234632   3.157   2.867  16.747  1.5057 -1.2842 -2.9015
 7666SOL     OW34633   3.042   0.014  16.869  0.3053 -0.4534 -0.0601
 7666SOL    HW134634   3.002   0.024  16.955 -1.4619  0.1893 -0.9642
 7666SOL    HW234635   3.131   4.720  16.888  0.8171  0.9696 -0.0924
 7667SOL     OW34636   0.720   0.608   6.227 -0.7715  0.1673 -0.0729
 7667SOL    HW134637   0.708   0.680   6.166 -1.0477 -0.4764 -0.7847
 7667SOL    HW234638   0.806   0.569   6.212 -0.0403  1.4278  0.8836
 7668SOL     OW34639   4.642   0.851  11.648 -0.7532 -0.5231  0.5129
 7668SOL    HW134640   4.618   0.910  11.720  0.1397 -0.9896  1.1977
 7668SOL    HW234641   4.668   0.911  11.579 -5.4341  0.4301 -0.3895
 7669SOL     OW34642   4.144   1.944   7.865 -0.5419  0.5188 -0.3490
 7669SOL    HW134643   4.080   1.933   7.795  1.1516 -2.4179 -1.4762
 7669SOL    HW234644   4.226   1.966   7.822  0.4485  2.0580  2.3139
 7670SOL     OW34645   3.558   0.423   7.029  0.3842 -0.4960  0.4123
 7670SOL    HW134646   3.631   0.458   7.080  1.8574  0.2643 -2.2134
 7670SOL    HW234647   3.549   0.343   7.081  3.5203 -0.8059  0.4560
 7671SOL     OW34648   1.937   2.690   1.474  0.2788  0.4566 -0.4534
 7671SOL    HW134649   1.939   2.708   1.380 -1.8112  0.9101 -0.4052
 7671SOL    HW234650   1.916   2.779   1.503 -0.9675  0.0985 -0.2238
 7672SOL     OW34651   0.896   0.303  10.455 -0.6443 -0.2115  0.1312
 7672SOL    HW134652   0.806   0.289  10.425 -0.1770 -1.0010 -0.8810
 7672SOL    HW234653   0.937   0.231  10.408 -1.7826 -0.2150 -0.8350
 7673SOL     OW34654   2.407   3.849  12.399 -0.2122 -0.1373  0.8571
 7673SOL    HW134655   2.314   3.856  12.375  0.1282 -0.4670 -0.5741
 7673SOL    HW234656   2.460   3.869  12.322 -0.7376  1.4565  0.9246
 7674SOL     OW34657   0.390   2.133   2.570 -0.3355  0.0793  0.1422
 7674SOL    HW134658   0.324   2.069   2.599 -0.5601  1.3641  2.4778
 7674SOL    HW234659   0.447   2.122   2.646  2.7151 -1.1111 -2.3372
 7675SOL     OW34660   0.246   4.244   7.925  0.3373  0.7081 -0.0105
 7675SOL    HW134661   0.284   4.189   7.857 -1.4499 -1.2598  0.5853
 7675SOL    HW234662   0.237   4.184   7.999  1.1183  0.6942  0.0739
 7676SOL     OW34663   0.427   1.235  17.016  0.7936  0.3224 -0.0700
 7676SOL    HW134664   0.476   1.222  17.098  0.8095 -0.0453 -0.1386
 7676SOL    HW234665   0.488   1.183  16.963  0.8020 -0.2231  0.4727
 7677SOL     OW34666   2.042   2.522  14.363  0.4660 -1.0787 -0.1532
 7677SOL    HW134667   2.123   2.505  14.411  0.1781 -0.0133  0.7011
 7677SOL    HW234668   2.056   2.616  14.353  1.1755 -1.1425  0.2273
 7678SOL     OW34669   2.238   0.541   2.804  0.5068  0.0246 -0.4622
 7678SOL    HW134670   2.180   0.499   2.868  1.2101  0.1970  0.2811
 7678SOL    HW234671   2.250   0.478   2.733  0.6990 -0.2748 -0.1627
 7679SOL     OW34672   1.702   0.071   5.886  0.9140 -0.3030 -0.2172
 7679SOL    HW134673   1.618   0.043   5.923  0.9108 -0.9171 -0.7030
 7679SOL    HW234674   1.692   0.164   5.866 -0.4503 -0.5017 -0.4341
 7680SOL     OW34675   3.156   3.789   5.389 -0.3319  0.2759  0.0518
 7680SOL    HW134676   3.181   3.726   5.321 -0.4574  1.8463 -1.4569
 7680SOL    HW234677   3.067   3.762   5.412  0.1082  1.4813  3.2338
 7681SOL     OW34678   3.281   1.204   2.846  0.4259 -0.3711 -0.4523
 7681SOL    HW134679   3.325   1.277   2.803  1.0109 -1.0667 -1.0369
 7681SOL    HW234680   3.257   1.142   2.777 -0.7819 -2.0346  1.4739
 7682SOL     OW34681   1.461   1.687  14.791  0.4197  0.3382  0.1416
 7682SOL    HW134682   1.523   1.650  14.853  0.5198  1.4404  0.7018
 7682SOL    HW234683   1.372   1.671  14.823  1.0697 -2.7764  0.3420
 7683SOL     OW34684   3.344   4.036  16.611  0.2891  0.0893 -0.0205
 7683SOL    HW134685   3.322   4.129  16.609 -0.2360 -0.0613 -1.2239
 7683SOL    HW234686   3.273   3.993  16.562 -1.1469  2.0355  0.3609
 7684SOL     OW34687   4.296   0.776  13.176  0.1551 -0.4665 -0.1721
 7684SOL    HW134688   4.233   0.705  13.161  0.4690  0.0129 -3.7460
 7684SOL    HW234689   4.370   0.728  13.140  0.1910  1.0866 -2.1738
 7685SOL     OW34690   1.368   2.538  16.545  0.3884 -0.1318 -0.0629
 7685SOL    HW134691   1.434   2.579  16.490 -0.9730  1.3501 -0.5719
 7685SOL    HW234692   1.321   2.612  16.583  2.5422  1.9330 -1.4658
 7686SOL     OW34693   3.016   4.014   1.844 -0.0790 -0.3294 -0.6355
 7686SOL    HW134694   2.945   4.034   1.905 -0.9492 -3.1310 -0.7088
 7686SOL    HW234695   3.036   4.098   1.805 -0.6620  1.0254  1.9662
 7687SOL     OW34696   3.696   3.612   4.251  0.2743  0.0385  0.0182
 7687SOL    HW134697   3.649   3.538   4.213  0.5636 -1.2346  2.1098
 7687SOL    HW234698   3.739   3.580   4.330  1.0542  1.5868  0.2139
 7688SOL     OW34699   2.749   0.849   3.421  0.4973  0.3065  0.4554
 7688SOL    HW134700   2.826   0.825   3.369  0.9381  0.6975  0.9321
 7688SOL    HW234701   2.766   0.794   3.498 -0.8182 -0.3892  0.2426
 7689SOL     OW34702   1.029   3.306   6.181  0.2369 -0.2933  0.1306
 7689SOL    HW134703   0.969   3.375   6.153 -1.5557 -1.8751  0.1086
 7689SOL    HW234704   1.090   3.361   6.231  1.1506  0.1178 -1.4379
 7690SOL     OW34705   3.213   4.727   3.573 -0.0942  0.6523 -0.1160
 7690SOL    HW134706   3.279   4.707   3.640  0.9436 -0.1997 -1.3830
 7690SOL    HW234707   3.195   0.084   3.580 -0.0260  0.6048  0.7141
 7691SOL     OW34708   3.346   1.633  16.825 -0.5429 -0.2047 -0.6406
 7691SOL    HW134709   3.258   1.600  16.809 -1.4696  2.1780 -0.4310
 7691SOL    HW234710   3.351   1.708  16.766  0.3275 -2.0127 -2.8254
 7692SOL     OW34711   1.038   2.551   5.240  0.1202 -0.2205  0.7412
 7692SOL    HW134712   1.037   2.633   5.190  0.4977  0.3312  1.6431
 7692SOL    HW234713   1.029   2.484   5.172 -1.3337  0.0508  0.6658
 7693SOL     OW34714   1.702   2.919   8.801 -0.0854  0.2377 -0.2567
 7693SOL    HW134715   1.692   2.864   8.723  1.5977  0.1857 -0.4535
 7693SOL    HW234716   1.776   2.969   8.765  1.1752 -0.9673  0.6568
 7694SOL     OW34717   1.164   0.828   2.061 -0.1697  0.4449 -0.1245
 7694SOL    HW134718   1.213   0.832   2.143 -2.1718 -0.5404  1.1083
 7694SOL    HW234719   1.228   0.875   2.007 -0.3150 -0.7170 -1.2994
 7695SOL     OW34720   2.346   3.600   9.204  0.2371  0.5727  0.7012
 7695SOL    HW134721   2.348   3.684   9.250  1.3664  1.1155 -0.3273
 7695SOL    HW234722   2.307   3.626   9.121 -0.3339 -2.2305  0.1141
 7696SOL     OW34723   3.920   2.172   9.997 -0.2531 -0.0206  0.3784
 7696SOL    HW134724   3.988   2.231  10.029 -1.5722  0.4118  2.3528
 7696SOL    HW234725   3.962   2.130   9.921 -0.2492  3.1887 -1.4331
 7697SOL     OW34726   1.631   3.514   7.827  0.1958 -0.0862 -0.0261
 7697SOL    HW134727   1.627   3.478   7.915  1.7797 -0.9508 -0.3033
 7697SOL    HW234728   1.581   3.448   7.778  1.1750  0.4004 -1.7037
 7698SOL     OW34729   4.178   1.219  12.433  0.0092 -0.1239 -0.3246
 7698SOL    HW134730   4.150   1.229  12.342  3.4220  1.5179 -1.1767
 7698SOL    HW234731   4.220   1.303  12.452 -1.0148  0.0466  1.2016
 7699SOL     OW34732   0.625   0.153   0.697 -0.6660  0.4227  0.1959
 7699SOL    HW134733   0.538   0.113   0.699 -0.1902 -0.4906  2.8446
 7699SOL    HW234734   0.654   0.091   0.630  2.2002  0.0418  1.7970
 7700SOL     OW34735   1.790   3.138   1.396 -0.6771  0.4500 -0.1268
 7700SOL    HW134736   1.720   3.159   1.334 -1.4743 -2.1383 -0.1013
 7700SOL    HW234737   1.769   3.172   1.482  2.6694  2.8468 -0.2784
 7701SOL     OW34738   0.374   1.566   0.737 -0.1603  0.3039  0.1696
 7701SOL    HW134739   0.311   1.506   0.698 -0.4925  1.0790 -0.4921
 7701SOL    HW234740   0.369   1.545   0.830  2.6965  0.4888  0.3632
 7702SOL     OW34741   0.582   3.004  11.781 -0.7047 -0.1890 -0.0619
 7702SOL    HW134742   0.614   2.940  11.717  0.3479  1.0375 -0.7499
 7702SOL    HW234743   0.491   3.016  11.753 -0.0683  1.3696 -1.4305
 7703SOL     OW34744   2.514   0.557   4.997  0.0017 -0.2689  0.4289
 7703SOL    HW134745   2.562   0.593   5.072 -1.9298  1.2748  0.9319
 7703SOL    HW234746   2.459   0.489   5.036 -1.0349 -1.1179 -2.5748
 7704SOL     OW34747   0.048   2.550  16.785  0.1396 -0.1899 -0.1097
 7704SOL    HW134748   0.140   2.572  16.773  0.0650  0.4141  0.4415
 7704SOL    HW234749   0.020   2.620  16.843 -0.2836 -1.7711  1.6009
 7705SOL     OW34750   1.590   1.698   5.432 -0.3546 -0.3269  0.2509
 7705SOL    HW134751   1.685   1.697   5.438 -0.4913  0.9979  2.6456
 7705SOL    HW234752   1.577   1.636   5.360 -1.8459 -0.8842  0.9953
 7706SOL     OW34753   3.514   4.489  12.176  0.4198 -0.0011 -0.1650
 7706SOL    HW134754   3.606   4.507  12.192  0.1966 -1.2629  2.7283
 7706SOL    HW234755   3.508   4.395  12.193  1.7043 -0.2398 -1.1050
 7707SOL     OW34756   0.358   3.750  13.671  0.8231  0.4770 -0.4849
 7707SOL    HW134757   0.294   3.822  13.676  0.8485  0.4696 -0.0698
 7707SOL    HW234758   0.369   3.744  13.576  0.3337  0.3782 -0.5370
 7708SOL     OW34759   1.530   3.296  16.852  0.1291  0.1651  0.0334
 7708SOL    HW134760   1.531   3.333  16.940  0.2903  1.7191 -0.6355
 7708SOL    HW234761   1.611   3.245  16.856  0.2014  0.2036 -0.8223
 7709SOL     OW34762   0.200   0.721  14.102  0.1209  0.0981  0.5386
 7709SOL    HW134763   0.277   0.668  14.125  1.1239  2.3864  2.4610
 7709SOL    HW234764   0.176   0.764  14.184 -0.0188  1.9648 -0.4898
 7710SOL     OW34765   3.565   3.200  17.162  0.3209  0.0135  0.1907
 7710SOL    HW134766   3.641   3.230  17.212  1.9366 -1.5668 -1.2877
 7710SOL    HW234767   3.554   3.273  17.102 -0.0995  1.7315  2.3709
 7711SOL     OW34768   4.275   2.745   3.880  0.0601 -0.3458 -0.6957
 7711SOL    HW134769   4.183   2.771   3.888  0.1669 -0.1163 -0.2555
 7711SOL    HW234770   4.278   2.705   3.793  2.4621 -0.5981 -0.5064
 7712SOL     OW34771   0.848   2.345  10.713  0.3415  0.4326 -0.2905
 7712SOL    HW134772   0.911   2.340  10.641  0.4885  2.5296 -0.3116
 7712SOL    HW234773   0.910   2.373  10.780  0.5115  0.2362 -0.3654
 7713SOL     OW34774   3.089   2.759   4.766  0.4929 -0.3800  0.0147
 7713SOL    HW134775   3.148   2.685   4.754 -0.3367 -1.2460  1.3293
 7713SOL    HW234776   3.044   2.762   4.682  0.2078  0.2954  0.1887
 7714SOL     OW34777   3.443   1.305   2.616  0.1864 -0.4603  0.1992
 7714SOL    HW134778   3.489   1.374   2.568  2.3664 -2.5515 -0.7069
 7714SOL    HW234779   3.471   1.224   2.574 -1.0405 -1.1277  0.6665
 7715SOL     OW34780   4.400   4.286   4.066  0.2469  0.2864  0.3100
 7715SOL    HW134781   4.476   4.327   4.025 -0.3095  2.6153  1.6525
 7715SOL    HW234782   4.345   4.273   3.989  1.2754 -0.2921 -0.3423
 7716SOL     OW34783   3.150   4.174   1.312  0.3490  0.3221 -0.3113
 7716SOL    HW134784   3.122   4.129   1.232 -0.9031 -1.0901  0.9177
 7716SOL    HW234785   3.075   4.229   1.332 -1.8416 -2.3464 -1.2041
 7717SOL     OW34786   3.466   2.100   3.697  0.0906  0.0752 -0.1233
 7717SOL    HW134787   3.408   2.041   3.649  0.7852 -1.2581  0.6754
 7717SOL    HW234788   3.553   2.061   3.690 -1.1879 -2.7592  0.0703
 7718SOL     OW34789   2.934   0.820   7.435  0.0767 -0.3069  0.1753
 7718SOL    HW134790   3.018   0.796   7.473 -0.2641 -1.8386 -0.0734
 7718SOL    HW234791   2.952   0.906   7.397  2.4044 -1.1479 -0.6009
 7719SOL     OW34792   0.976   1.954   6.900  0.4024  0.2925 -0.3851
 7719SOL    HW134793   1.041   1.907   6.953  1.0218  3.4355  1.6033
 7719SOL    HW234794   0.921   1.880   6.873 -0.1522  0.3845  0.5155
 7720SOL     OW34795   1.086   0.574   2.574  0.4000  0.1839 -0.5773
 7720SOL    HW134796   1.052   0.632   2.643  2.8537  0.7221  0.1775
 7720SOL    HW234797   1.055   0.622   2.497 -0.5841 -1.1038 -0.9798
 7721SOL     OW34798   1.905   2.363   4.576  0.1551 -0.0546 -0.1936
 7721SOL    HW134799   1.901   2.433   4.511 -0.8372 -1.3070 -1.4745
 7721SOL    HW234800   1.864   2.289   4.531  0.4731  0.4709 -1.3354
 7722SOL     OW34801   0.899   0.977   6.749  0.0769 -0.2931  0.7476
 7722SOL    HW134802   0.983   0.995   6.707  0.2009 -0.1632  1.0478
 7722SOL    HW234803   0.897   0.881   6.747 -0.5311 -0.2386 -1.8033
 7723SOL     OW34804   2.621   4.521   3.873 -0.5456  0.2579  0.2257
 7723SOL    HW134805   2.646   4.447   3.818 -1.0625  0.0701  0.2435
 7723SOL    HW234806   2.660   4.591   3.820  1.3754  0.1051  1.4393
 7724SOL     OW34807   0.623   1.062   0.279  0.2191 -0.8090 -0.0953
 7724SOL    HW134808   0.612   0.976   0.239 -0.8256 -0.2862 -0.9401
 7724SOL    HW234809   0.716   1.060   0.301  0.5473 -0.2722 -1.4555
 7725SOL     OW34810   3.094   0.316   2.886  0.0163 -0.3169 -0.1583
 7725SOL    HW134811   3.038   0.352   2.817  0.4779 -1.9052 -1.3507
 7725SOL    HW234812   3.079   0.387   2.949  4.4936 -1.3212  2.0258
 7726SOL     OW34813   2.856   3.234   5.179  0.4339  0.2267 -0.4927
 7726SOL    HW134814   2.915   3.296   5.222  1.5031 -1.7205  0.8653
 7726SOL    HW234815   2.858   3.159   5.239  2.1755  0.7573  0.1282
 7727SOL     OW34816   4.419   2.175  15.904 -0.3505  0.3609 -0.0396
 7727SOL    HW134817   4.478   2.237  15.860 -1.5030  2.1034  0.8902
 7727SOL    HW234818   4.366   2.234  15.956  0.2330  1.4820 -0.7124
 7728SOL     OW34819   0.790   0.837  11.539 -0.0744 -0.5746 -0.3305
 7728SOL    HW134820   0.719   0.865  11.595 -0.4804 -0.6556 -0.8029
 7728SOL    HW234821   0.780   0.741  11.540 -2.0731 -0.3641 -1.1750
 7729SOL     OW34822   0.528   3.597   6.580  0.3684 -0.1700 -0.4530
 7729SOL    HW134823   0.447   3.550   6.600 -0.3467  0.3407 -2.1923
 7729SOL    HW234824   0.563   3.524   6.530 -0.7408  0.0777 -1.5644
 7730SOL     OW34825   0.808   1.549   6.424 -0.2929 -0.4347 -0.4443
 7730SOL    HW134826   0.804   1.643   6.408 -0.1687 -0.5594 -1.2156
 7730SOL    HW234827   0.728   1.519   6.379 -1.3693 -0.2001  1.3049
 7731SOL     OW34828   3.497   3.635   1.451  0.3527  0.2381  0.6776
 7731SOL    HW134829   3.554   3.562   1.428  0.8305  0.8892 -0.2549
 7731SOL    HW234830   3.558   3.701   1.485 -2.8804  1.5977  3.7708
 7732SOL     OW34831   0.592   3.901   5.362  0.6790 -0.5327  0.0609
 7732SOL    HW134832   0.527   3.922   5.429  0.1464 -1.1355 -0.2695
 7732SOL    HW234833   0.615   3.815   5.397 -0.1522 -0.0555  1.7970
 7733SOL     OW34834   1.234   3.717   2.567 -0.8821  0.0266  0.5369
 7733SOL    HW134835   1.172   3.666   2.515 -2.1562 -1.0278  3.1006
 7733SOL    HW234836   1.261   3.643   2.620  2.9692  1.0545 -0.0143
 7734SOL     OW34837   3.757   0.062   1.530 -0.2362 -0.2301 -0.1374
 7734SOL    HW134838   3.837   0.110   1.510  0.3548 -0.5931  1.3309
 7734SOL    HW234839   3.731   0.112   1.607 -0.3606  0.0061 -0.3318
 7735SOL     OW34840   1.324   1.024   8.251  0.2230  0.1884  0.5318
 7735SOL    HW134841   1.392   1.022   8.184  0.0166  0.7208  0.3142
 7735SOL    HW234842   1.273   0.950   8.217 -0.6776  1.7606 -1.4916
 7736SOL     OW34843   3.542   1.850   4.184 -0.4570  0.4632  0.3701
 7736SOL    HW134844   3.513   1.934   4.148 -2.1078 -0.7188 -1.1312
 7736SOL    HW234845   3.636   1.866   4.184 -0.7005  1.8548  2.0546
 7737SOL     OW34846   1.726   4.393   4.105 -0.0253 -0.3401 -0.5148
 7737SOL    HW134847   1.634   4.367   4.111 -0.2548  0.7999  1.1047
 7737SOL    HW234848   1.731   4.473   4.053  0.4076  0.9325  1.4663
 7738SOL     OW34849   2.041   1.408   9.310 -0.5608 -0.0678  0.5332
 7738SOL    HW134850   1.967   1.348   9.298  1.0926 -1.5096 -2.4303
 7738SOL    HW234851   2.089   1.397   9.228  1.4438  0.3948  1.6450
 7739SOL     OW34852   2.834   1.920  17.332 -0.0324 -0.1773 -0.0258
 7739SOL    HW134853   2.821   1.830  17.363 -0.4422  0.1640  0.8081
 7739SOL    HW234854   2.928   1.934  17.336  0.2543 -1.9546 -0.5392
 7740SOL     OW34855   2.383   3.045  12.073 -0.1783  0.1311 -0.0030
 7740SOL    HW134856   2.301   3.079  12.110 -1.4020 -1.0052 -1.6278
 7740SOL    HW234857   2.428   3.128  12.063  0.3099  0.2790  3.3707
 7741SOL     OW34858   0.068   0.688  13.425 -0.3130  0.1201 -0.3410
 7741SOL    HW134859   0.075   0.592  13.427  2.2244  0.2669 -2.4655
 7741SOL    HW234860   0.137   0.703  13.361 -2.0352  0.4329 -2.1475
 7742SOL     OW34861   1.830   4.355   7.280 -0.1966 -0.2782  0.5085
 7742SOL    HW134862   1.881   4.296   7.336 -0.1464  1.5661  2.3987
 7742SOL    HW234863   1.796   4.299   7.211 -0.1899 -0.0696  0.3354
 7743SOL     OW34864   1.393   4.683   9.240 -0.3435 -0.6414 -0.0504
 7743SOL    HW134865   1.451   4.610   9.217  1.7125  1.4523 -1.4477
 7743SOL    HW234866   1.384   4.721   9.153  1.0063  0.7313  0.4246
 7744SOL     OW34867   2.126   0.147   3.675  0.2511  0.2331 -0.0161
 7744SOL    HW134868   2.099   0.091   3.748 -2.1858 -0.5819 -1.5428
 7744SOL    HW234869   2.208   0.103   3.655  1.4865  1.8553  1.4494
 7745SOL     OW34870   3.578   0.423  14.664 -0.1482  0.1520  0.1482
 7745SOL    HW134871   3.597   0.454  14.752  1.8968  0.6523 -0.4728
 7745SOL    HW234872   3.491   0.461  14.650 -2.0397 -3.8995  0.8656
 7746SOL     OW34873   2.784   2.442   0.331 -0.2791 -0.0803  0.1747
 7746SOL    HW134874   2.804   2.355   0.364 -0.0918  0.7730  2.3505
 7746SOL    HW234875   2.859   2.472   0.280 -0.9550  1.2957 -0.0149
 7747SOL     OW34876   1.617   1.531   5.218 -0.2109  0.1161  0.4968
 7747SOL    HW134877   1.583   1.556   5.132 -0.8534  0.2585  0.7877
 7747SOL    HW234878   1.622   1.437   5.200  1.8795  0.2192  0.6543
 7748SOL     OW34879   0.350   4.059   2.759  0.5986 -0.0154 -0.0814
 7748SOL    HW134880   0.255   4.050   2.768  0.6128 -0.1078 -0.0222
 7748SOL    HW234881   0.382   3.980   2.804  1.1401 -1.9627 -3.8714
 7749SOL     OW34882   2.337   3.848   6.369  1.3179 -0.0476  0.3869
 7749SOL    HW134883   2.315   3.764   6.409  0.3651  0.8973  1.8387
 7749SOL    HW234884   2.269   3.869   6.305  2.6777  0.5680 -0.8711
 7750SOL     OW34885   0.571   2.213   2.135 -0.4074 -0.0634 -0.3891
 7750SOL    HW134886   0.648   2.267   2.153  0.2129 -1.2916  0.6130
 7750SOL    HW234887   0.614   2.129   2.152  0.4821  1.0339  2.7721
 7751SOL     OW34888   1.092   2.581  16.122 -0.7143  0.6439  0.2662
 7751SOL    HW134889   1.028   2.610  16.057  0.7805  2.2587 -0.5277
 7751SOL    HW234890   1.104   2.648  16.190 -0.1304 -1.9215  2.6778
 7752SOL     OW34891   2.608   4.226   4.870  0.0080  0.3096  0.1554
 7752SOL    HW134892   2.628   4.311   4.831 -0.1284  0.6304  0.7808
 7752SOL    HW234893   2.603   4.172   4.791  1.0762 -1.6685  1.4386
 7753SOL     OW34894   1.862   3.566   7.696 -0.1149  0.5754 -0.3954
 7753SOL    HW134895   1.789   3.517   7.733  1.5151 -1.8184 -0.3374
 7753SOL    HW234896   1.813   3.634   7.650  2.2634  1.7981 -1.1015
 7754SOL     OW34897   3.968   1.650  16.904  0.0311  0.1775  0.1689
 7754SOL    HW134898   4.014   1.609  16.831 -2.7295  0.9448 -2.0129
 7754SOL    HW234899   4.016   1.733  16.903  2.1697 -1.0468  1.0430
 7755SOL     OW34900   1.524   1.437  11.411 -0.4984 -0.5446  0.3324
 7755SOL    HW134901   1.462   1.431  11.483 -0.1868 -0.0719  0.6387
 7755SOL    HW234902   1.472   1.403  11.339  0.1133 -1.9186  0.5339
 7756SOL     OW34903   2.832   4.639   6.451 -0.2129  0.0217  0.4078
 7756SOL    HW134904   2.852   4.552   6.487  2.1641  0.4492  0.1595
 7756SOL    HW234905   2.739   4.625   6.437  0.2099 -2.4061 -0.0506
 7757SOL     OW34906   2.347   4.287   7.867  0.1565 -0.1335  0.3147
 7757SOL    HW134907   2.307   4.290   7.954  1.0986  1.1588  0.7093
 7757SOL    HW234908   2.435   4.322   7.879  0.3472 -0.3734 -0.3603
 7758SOL     OW34909   0.832   2.473   5.982 -0.0338 -0.0502  0.4011
 7758SOL    HW134910   0.914   2.505   6.019 -1.0263  1.7425  1.0909
 7758SOL    HW234911   0.811   2.555   5.937  1.1133  0.5206  0.9248
 7759SOL     OW34912   1.382   2.417   6.758  0.0960  0.2415 -0.1309
 7759SOL    HW134913   1.313   2.426   6.693 -0.8336 -2.8323  0.4454
 7759SOL    HW234914   1.457   2.457   6.713  1.5402  0.4559  2.4548
 7760SOL     OW34915   4.223   2.852   7.092 -0.1148  0.0553 -0.2383
 7760SOL    HW134916   4.172   2.772   7.081  0.0107 -0.1268  0.5362
 7760SOL    HW234917   4.310   2.814   7.079 -1.0435 -1.5392 -1.7880
 7761SOL     OW34918   1.967   2.820   4.528 -0.2059  0.1875 -0.0490
 7761SOL    HW134919   2.044   2.823   4.585 -0.5516  0.3540  0.4071
 7761SOL    HW234920   1.990   2.889   4.466 -0.8076 -0.5492 -1.0902
 7762SOL     OW34921   1.354   1.620  12.292 -0.4181  0.0276 -0.0166
 7762SOL    HW134922   1.259   1.611  12.293 -0.3355 -0.5889  2.1460
 7762SOL    HW234923   1.386   1.578  12.371  0.2403 -0.6645 -0.6494
 7763SOL     OW34924   3.765   2.775   3.209  0.0903 -0.1137 -0.1108
 7763SOL    HW134925   3.731   2.733   3.130  1.2186 -3.4464  1.2109
 7763SOL    HW234926   3.687   2.756   3.260 -0.2216  2.2086  0.3154
 7764SOL     OW34927   1.069   2.735  11.725 -0.1561 -0.2878  0.3800
 7764SOL    HW134928   1.072   2.641  11.707  1.6360 -0.3747  1.0714
 7764SOL    HW234929   1.094   2.777  11.643  2.3297 -0.3562  1.0862
 7765SOL     OW34930   2.975   2.254   7.390 -0.8245  0.1086 -0.1978
 7765SOL    HW134931   2.884   2.224   7.394 -0.6559 -0.3949 -0.1348
 7765SOL    HW234932   2.966   2.348   7.406 -1.9421 -0.3591  1.9927
 7766SOL     OW34933   4.661   2.619   4.359  0.6135 -0.6273  0.6899
 7766SOL    HW134934   4.715   2.545   4.332  2.9646  1.1318  0.5026
 7766SOL    HW234935   4.592   2.619   4.293 -0.7469 -0.8778  2.1086
 7767SOL     OW34936   1.653   1.321   3.897  0.4085  0.7889 -0.4390
 7767SOL    HW134937   1.738   1.361   3.884  1.1806 -0.7975 -0.2622
 7767SOL    HW234938   1.611   1.359   3.819 -0.8336 -0.0927 -0.2118
 7768SOL     OW34939   2.951   1.581  13.254 -0.2824 -0.2287 -0.0638
 7768SOL    HW134940   2.961   1.673  13.280 -1.1003  0.1470 -1.0398
 7768SOL    HW234941   3.039   1.545  13.264  0.0917  0.4504 -0.8852
 7769SOL     OW34942   2.219   4.088   1.314 -0.1148 -0.2265 -0.1034
 7769SOL    HW134943   2.257   4.048   1.392 -0.9090  1.1898  0.9840
 7769SOL    HW234944   2.151   4.136   1.360 -1.2804 -0.5347 -1.4973
 7770SOL     OW34945   0.550   2.505   5.398  0.4381 -0.0530 -0.1552
 7770SOL    HW134946   0.543   2.537   5.488  2.6474  0.6189 -0.2305
 7770SOL    HW234947   0.641   2.475   5.400  0.3962 -0.2076 -0.5894
 7771SOL     OW34948   2.535   3.233   1.077  0.2602 -0.1136  0.4563
 7771SOL    HW134949   2.474   3.168   1.112  0.9910  0.1074  2.1410
 7771SOL    HW234950   2.611   3.211   1.131  1.6034  2.1072 -0.5362
 7772SOL     OW34951   0.757   0.970   6.301 -0.1726 -0.3885 -0.2447
 7772SOL    HW134952   0.672   0.966   6.344 -0.9654  1.4277 -1.6074
 7772SOL    HW234953   0.738   0.920   6.221 -1.9221  1.0130 -0.7043
 7773SOL     OW34954   0.852   3.733   9.982  0.4813 -0.3978  0.4512
 7773SOL    HW134955   0.886   3.660  10.033 -0.7250  0.0812  1.9277
 7773SOL    HW234956   0.829   3.797  10.050  0.0565 -0.2185  0.1355
 7774SOL     OW34957   4.569   1.244  11.158 -0.3967  0.4327  0.0054
 7774SOL    HW134958   4.637   1.205  11.104  1.6556  1.9118  1.5193
 7774SOL    HW234959   4.495   1.249  11.098 -0.8347  0.7636  0.5735
 7775SOL     OW34960   4.176   0.646   4.084  0.2507  0.2966  0.3078
 7775SOL    HW134961   4.146   0.694   4.162  1.3404  0.1040  0.8450
 7775SOL    HW234962   4.226   0.572   4.120  0.5942 -0.0465 -0.8910
 7776SOL     OW34963   1.455   0.362   1.822 -0.0124 -0.4364  0.5329
 7776SOL    HW134964   1.449   0.295   1.891 -0.4992  0.0888  0.9988
 7776SOL    HW234965   1.432   0.317   1.741 -2.4664  2.6125 -0.4707
 7777SOL     OW34966   2.820   1.160   6.226  0.2188  0.1219  0.3782
 7777SOL    HW134967   2.850   1.250   6.233  1.2495 -0.3590  2.1108
 7777SOL    HW234968   2.726   1.175   6.212  0.5438  2.0463  0.3809
 7778SOL     OW34969   0.214   3.352  17.198 -0.5808 -0.1735  0.0132
 7778SOL    HW134970   0.165   3.320  17.122 -0.3923  1.6651 -0.8823
 7778SOL    HW234971   0.157   3.426  17.218  0.2708  0.7121 -0.8391
 7779SOL     OW34972   3.359   1.103   0.367  0.1461 -0.3723  0.1939
 7779SOL    HW134973   3.406   1.082   0.447  0.4432  2.2874  0.7140
 7779SOL    HW234974   3.430   1.095   0.303 -1.4802  1.2684 -1.8386
 7780SOL     OW34975   3.035   0.185  14.644  0.0664 -0.4474  0.2090
 7780SOL    HW134976   2.986   0.184  14.562 -2.6685  1.0807  1.7985
 7780SOL    HW234977   2.985   0.120  14.694 -1.2251  0.3702 -0.0264
 7781SOL     OW34978   0.432   4.136   8.269 -0.5455  0.1518 -0.4019
 7781SOL    HW134979   0.512   4.152   8.218 -0.5072 -1.1722 -0.7436
 7781SOL    HW234980   0.432   4.041   8.274 -1.1588  0.4498  4.7237
 7782SOL     OW34981   1.097   1.167   2.428  0.0957 -0.3727  0.6127
 7782SOL    HW134982   1.160   1.101   2.457  1.0546  0.3263  0.1330
 7782SOL    HW234983   1.090   1.213   2.512  1.3856  1.3241 -0.2042
 7783SOL     OW34984   2.802   2.371   5.303  0.6184 -0.3180 -0.3284
 7783SOL    HW134985   2.858   2.351   5.378 -1.1619 -1.2683  0.7346
 7783SOL    HW234986   2.777   2.459   5.330 -3.3020 -1.6054  0.2572
 7784SOL     OW34987   2.040   1.988   4.249  1.3716 -1.0181 -0.4866
 7784SOL    HW134988   1.963   1.934   4.230  1.5350 -1.8355  1.1473
 7784SOL    HW234989   2.105   1.923   4.276  2.4040  1.9676  4.2754
 7785SOL     OW34990   1.568   2.660   6.984  0.0377  0.1971  0.2070
 7785SOL    HW134991   1.588   2.645   6.891 -0.1009 -1.0707  0.3843
 7785SOL    HW234992   1.585   2.581   7.034  1.8316  0.8671  0.6788
 7786SOL     OW34993   2.765   2.478   2.881 -0.1525  0.4777 -0.6128
 7786SOL    HW134994   2.722   2.486   2.795  0.6898  0.7103 -1.0053
 7786SOL    HW234995   2.831   2.410   2.866  0.4233  0.8625  0.2275
 7787SOL     OW34996   1.980   3.078   7.799 -0.3889  0.2800  0.2366
 7787SOL    HW134997   1.934   3.152   7.759 -0.0339  0.2586 -0.2114
 7787SOL    HW234998   2.064   3.095   7.757  0.0338 -1.5206  0.3819
 7788SOL     OW34999   4.207   2.713   5.896  0.2145 -0.3403 -0.1068
 7788SOL    HW135000   4.188   2.766   5.818 -0.0986  0.2918  0.3962
 7788SOL    HW235001   4.125   2.664   5.899 -0.5771  1.2364  3.2474
 7789SOL     OW35002   4.518   3.094   3.700  0.0441 -0.3524  0.0496
 7789SOL    HW135003   4.592   3.113   3.642 -0.2066  0.6141  0.0425
 7789SOL    HW235004   4.480   3.019   3.655 -1.8946  0.7225 -0.0873
 7790SOL     OW35005   3.032   0.247   5.494  0.2236 -0.2504  0.3085
 7790SOL    HW135006   3.040   0.255   5.399  1.0696 -0.2232  0.3800
 7790SOL    HW235007   3.113   0.297   5.511  1.3652 -2.6888  1.9824
 7791SOL     OW35008   1.652   3.196   0.917  0.1411 -0.1760  0.3402
 7791SOL    HW135009   1.569   3.191   0.966  1.5041 -1.8834  2.5059
 7791SOL    HW235010   1.710   3.256   0.963 -2.0093  1.0538  1.4706
 7792SOL     OW35011   3.765   0.970   3.086  0.2828 -0.3551  0.2358
 7792SOL    HW135012   3.744   0.955   2.994 -0.0484 -4.3858  0.9574
 7792SOL    HW235013   3.859   0.981   3.078  0.4054  0.7950  3.4164
 7793SOL     OW35014   0.014   3.664   1.855 -0.4750 -0.2181  0.0918
 7793SOL    HW135015   4.681   3.684   1.917 -0.3388  0.2990  0.0729
 7793SOL    HW235016   0.050   3.748   1.829  0.2699  0.2738  2.8444
 7794SOL     OW35017   4.282   2.533   4.580  0.2327  0.3332  0.3006
 7794SOL    HW135018   4.213   2.475   4.611  1.7414 -2.4073 -1.5689
 7794SOL    HW235019   4.257   2.531   4.488 -0.5669  2.5439  0.4547
 7795SOL     OW35020   3.715   1.719   5.584 -0.7504  0.3166 -0.2982
 7795SOL    HW135021   3.703   1.659   5.657  1.0343  0.1294 -0.1834
 7795SOL    HW235022   3.648   1.688   5.522  1.3897 -0.5323 -2.1595
 7796SOL     OW35023   3.324   3.249   4.736 -0.6479 -0.0774  0.0864
 7796SOL    HW135024   3.416   3.247   4.761  0.0011  0.5121 -2.2374
 7796SOL    HW235025   3.311   3.336   4.699 -0.7880 -0.7929 -1.5618
 7797SOL     OW35026   0.967   4.594   9.714 -0.3050  0.3159  0.1393
 7797SOL    HW135027   0.886   4.633   9.747 -1.1182 -1.2523 -0.0392
 7797SOL    HW235028   0.941   4.592   9.622  2.7267  0.9399 -0.7336
 7798SOL     OW35029   4.659   1.624   4.338 -0.1664 -0.2137 -0.6368
 7798SOL    HW135030   4.601   1.669   4.400 -1.0990 -1.4807 -0.5692
 7798SOL    HW235031   4.649   1.538   4.380  1.3762  0.2374  0.6844
 7799SOL     OW35032   1.578   0.888   7.993  0.1670 -0.4298  0.2754
 7799SOL    HW135033   1.665   0.897   7.954  0.7593 -0.7854  1.5025
 7799SOL    HW235034   1.601   0.852   8.079 -0.4648  3.5734  2.1134
 7800SOL     OW35035   2.896   0.425   6.203 -0.3757  0.4201  0.1307
 7800SOL    HW135036   2.807   0.389   6.199  0.2554 -0.8591 -2.5536
 7800SOL    HW235037   2.914   0.423   6.297  2.4246  0.1070 -0.4064
 7801SOL     OW35038   0.600   4.088   9.498 -0.3420 -0.1342 -0.1530
 7801SOL    HW135039   0.635   4.004   9.528 -0.2835  0.2351  0.8105
 7801SOL    HW235040   0.674   4.148   9.507 -1.5867  1.5318 -1.1421
 7802SOL     OW35041   0.560   2.034   1.322 -1.0827  0.7114  0.3565
 7802SOL    HW135042   0.622   2.061   1.390 -0.6564  0.0427  0.2286
 7802SOL    HW235043   0.559   1.938   1.330  1.7096  0.9322  3.1788
 7803SOL     OW35044   4.551   1.764  17.637 -0.4874  0.0930 -0.3879
 7803SOL    HW135045   4.600   1.684  17.618 -1.8308 -0.3588 -1.9578
 7803SOL    HW235046   4.482   1.725  17.690 -1.8691  0.1396 -2.1570
 7804SOL     OW35047   3.230   1.965   5.359  0.2478  0.3348  0.3877
 7804SOL    HW135048   3.192   1.947   5.273 -1.9416  0.8332  1.2525
 7804SOL    HW235049   3.148   1.990   5.402 -0.2263 -1.2112  0.3799
 7805SOL     OW35050   1.165   0.348   1.649  0.2409 -0.2764 -0.7089
 7805SOL    HW135051   1.153   0.259   1.618 -1.1396 -0.1018 -0.6508
 7805SOL    HW235052   1.145   0.342   1.743 -0.5554  0.1818 -0.8506
 7806SOL     OW35053   0.622   4.418   8.800 -0.0951 -0.3842 -0.1066
 7806SOL    HW135054   0.680   4.342   8.790 -0.1332 -0.3401 -0.6668
 7806SOL    HW235055   0.625   4.449   8.710 -1.9916  2.8100  0.9531
 7807SOL     OW35056   0.410   0.998   8.692 -0.2400  0.0907  0.6088
 7807SOL    HW135057   0.478   1.032   8.635 -0.0008  0.0078  0.8432
 7807SOL    HW235058   0.461   0.987   8.773 -0.7251  1.5486  1.1191
 7808SOL     OW35059   1.550   4.096   4.821  0.1193 -0.6703 -1.4225
 7808SOL    HW135060   1.475   4.074   4.876  1.8104  0.7607  1.4618
 7808SOL    HW235061   1.612   4.029   4.850  0.0214  0.7677  2.1225
 7809SOL     OW35062   2.553   1.404   6.455 -0.5271  0.3731  0.1901
 7809SOL    HW135063   2.632   1.427   6.503  0.5883 -0.6509 -1.1875
 7809SOL    HW235064   2.506   1.359   6.526  0.1698 -1.7507 -0.6944
 7810SOL     OW35065   0.539   0.332   9.448  0.2964 -0.0945  0.2716
 7810SOL    HW135066   0.590   0.376   9.516  0.6465  0.5131 -0.3754
 7810SOL    HW235067   0.597   0.260   9.423  0.1633  0.5973 -2.0157
 7811SOL     OW35068   2.737   1.939   5.617 -0.1477  0.1369 -1.0307
 7811SOL    HW135069   2.680   2.000   5.662  0.0262 -0.7169  0.3477
 7811SOL    HW235070   2.712   1.853   5.652  1.6223  0.7716  1.8121
 7812SOL     OW35071   3.194   1.975   4.024  0.1211 -0.1826 -0.0475
 7812SOL    HW135072   3.154   1.993   3.938  0.9702 -0.5108 -0.5063
 7812SOL    HW235073   3.283   1.946   4.004  0.9604  0.9970  2.0201
 7813SOL     OW35074   2.657   3.508   7.103  0.0670  0.0110  0.3184
 7813SOL    HW135075   2.610   3.494   7.185  1.2840  2.3654  1.4149
 7813SOL    HW235076   2.730   3.563   7.133  0.7313 -1.7225  1.8574
 7814SOL     OW35077   3.289   3.404   3.493  0.0704  0.0418  0.5836
 7814SOL    HW135078   3.382   3.426   3.493 -0.1698  1.0395  3.2925
 7814SOL    HW235079   3.277   3.422   3.400  1.9805  1.1974  0.5580
 7815SOL     OW35080   4.301   3.025  10.540  0.0607 -0.4206  0.3804
 7815SOL    HW135081   4.378   2.991  10.494  0.9647  1.3335  0.6019
 7815SOL    HW235082   4.335   3.074  10.615  1.7358 -1.3762  0.2626
 7816SOL     OW35083   1.598   0.952   8.643 -0.5509 -0.7735  0.4124
 7816SOL    HW135084   1.639   0.943   8.729 -1.1237 -0.7150  0.6914
 7816SOL    HW235085   1.666   0.995   8.590 -0.0310  0.4888  2.1266
 7817SOL     OW35086   4.626   4.440  16.869 -0.2901 -0.4443 -0.2465
 7817SOL    HW135087   4.670   4.456  16.952 -0.8892  0.5963 -0.1288
 7817SOL    HW235088   4.636   4.531  16.843 -0.9246 -0.5457 -0.8322
 7818SOL     OW35089   2.098   1.395  16.428  0.2158 -0.2837  0.5277
 7818SOL    HW135090   2.055   1.479  16.408  1.0553  0.1240  0.4532
 7818SOL    HW235091   2.129   1.411  16.517 -0.8594  1.7329  0.5561
 7819SOL     OW35092   4.414   0.401  11.629  0.6284  0.2344  0.3044
 7819SOL    HW135093   4.374   0.380  11.714 -2.4496  0.7777 -1.0082
 7819SOL    HW235094   4.484   0.462  11.650  0.0460  0.9123  0.2814
 7820SOL     OW35095   2.819   1.455   2.003 -0.0857  0.7290  0.3026
 7820SOL    HW135096   2.764   1.454   2.081 -0.8782  2.2566 -0.2402
 7820SOL    HW235097   2.896   1.501   2.035 -0.8112  2.4986 -0.5055
 7821SOL     OW35098   3.612   2.982   3.825  0.0585 -0.4417 -0.5758
 7821SOL    HW135099   3.546   3.047   3.799  0.3061  0.5468  1.2833
 7821SOL    HW235100   3.577   2.919   3.888 -0.2783 -1.1697 -1.4932
 7822SOL     OW35101   0.138   3.819   7.797 -0.2259  0.1861  1.0604
 7822SOL    HW135102   0.101   3.759   7.861  0.4111  1.0179  2.1966
 7822SOL    HW235103   0.080   3.894   7.810  0.3154  0.9737 -0.9552
 7823SOL     OW35104   0.990   2.934   9.014  0.3064 -0.3503 -0.4912
 7823SOL    HW135105   1.018   3.014   9.057 -1.4353 -0.2808  0.5332
 7823SOL    HW235106   1.061   2.923   8.952  1.0332 -1.0252  0.4621
 7824SOL     OW35107   1.683   3.244   9.069 -0.4894  0.3514  0.0220
 7824SOL    HW135108   1.651   3.156   9.046  2.7723 -0.6896 -0.4792
 7824SOL    HW235109   1.641   3.294   8.999  1.9568  2.1571 -0.1518
 7825SOL     OW35110   2.022   3.632   9.732 -0.2583  0.1295  0.3330
 7825SOL    HW135111   1.968   3.555   9.745  1.5489 -0.7597  2.5687
 7825SOL    HW235112   2.111   3.602   9.751 -0.2398 -1.2361 -1.9529
 7826SOL     OW35113   3.959   2.625  17.017  0.6419 -0.0153 -0.6346
 7826SOL    HW135114   4.035   2.585  17.059  0.1029 -0.4199 -0.0414
 7826SOL    HW235115   3.956   2.705  17.069  0.2991  0.1210 -0.8554
 7827SOL     OW35116   4.354   3.849   4.566  0.3069  0.4488  0.0661
 7827SOL    HW135117   4.419   3.814   4.505 -0.6904  1.1307 -1.3861
 7827SOL    HW235118   4.328   3.932   4.525 -2.0515 -0.5394 -0.4182
 7828SOL     OW35119   4.601   2.400   5.425 -0.6003 -0.3242 -0.7257
 7828SOL    HW135120   4.547   2.468   5.466 -0.1739 -0.7706  0.5961
 7828SOL    HW235121   4.557   2.328   5.469 -0.1223 -0.2338 -0.0977
 7829SOL     OW35122   1.342   0.650   3.778  0.2577  0.0243 -0.0487
 7829SOL    HW135123   1.307   0.725   3.730 -0.4922 -0.1251  0.2707
 7829SOL    HW235124   1.291   0.590   3.724  1.2956 -0.0072 -0.9883
 7830SOL     OW35125   0.903   3.222   5.316  0.3900 -0.3169  0.4123
 7830SOL    HW135126   0.972   3.270   5.362  2.9358 -3.4567 -0.0797
 7830SOL    HW235127   0.932   3.130   5.317 -2.7983 -1.3102 -0.4860
 7831SOL     OW35128   2.647   4.067   3.468 -0.1708  0.0711 -0.8353
 7831SOL    HW135129   2.577   4.097   3.410  0.5305  1.7964 -0.7639
 7831SOL    HW235130   2.719   4.043   3.410 -0.9307  1.5430 -2.3702
 7832SOL     OW35131   3.581   0.474   6.060  0.2758 -0.5202  0.3272
 7832SOL    HW135132   3.670   0.439   6.047  0.5169  0.0937  0.2954
 7832SOL    HW235133   3.547   0.479   5.971 -0.7970 -0.3466  0.7522
 7833SOL     OW35134   0.207   1.254   6.401  0.0657  0.2244  0.2325
 7833SOL    HW135135   0.147   1.266   6.474 -0.1093 -3.1737  0.6200
 7833SOL    HW235136   0.143   1.239   6.331  1.5151 -0.3366 -0.9573
 7834SOL     OW35137   4.136   2.298   8.489  0.1730 -0.0929  0.2620
 7834SOL    HW135138   4.176   2.335   8.568  1.6895  1.7423 -1.3616
 7834SOL    HW235139   4.189   2.349   8.427 -0.8284 -0.8678 -1.2312
 7835SOL     OW35140   3.208   4.360   3.310  0.0959 -0.3754  0.2522
 7835SOL    HW135141   3.260   4.288   3.348 -0.3712  0.7958  3.1190
 7835SOL    HW235142   3.275   4.406   3.259 -0.7996 -1.8327 -2.2174
 7836SOL     OW35143   4.698   3.496   9.952  0.1858  0.0701 -0.4711
 7836SOL    HW135144   4.715   3.536  10.037  2.1362  2.1612 -1.8724
 7836SOL    HW235145   4.733   3.555   9.886 -1.6349  1.3693 -0.2718
 7837SOL     OW35146   2.194   3.119   1.476 -0.0206  0.2151 -0.1522
 7837SOL    HW135147   2.254   3.181   1.435 -0.6659  1.3110  0.5701
 7837SOL    HW235148   2.108   3.140   1.441  0.3671  1.3996 -0.3892
 7838SOL     OW35149   0.733   3.416   3.292 -0.7419  0.0079 -0.4387
 7838SOL    HW135150   0.800   3.475   3.257  0.3367 -0.8930  0.1272
 7838SOL    HW235151   0.664   3.481   3.312 -1.7780 -0.9360 -0.9644
 7839SOL     OW35152   0.041   2.943   7.615 -0.6563  0.5643 -0.3327
 7839SOL    HW135153   0.099   2.921   7.541  0.6220  3.5098 -0.2415
 7839SOL    HW235154   0.006   2.856   7.631 -0.5859  0.1533 -2.4187
 7840SOL     OW35155   2.949   4.010   7.422  0.6563  0.7001  0.2122
 7840SOL    HW135156   2.905   4.054   7.350  0.4802 -2.0308 -1.3620
 7840SOL    HW235157   3.041   4.024   7.399  1.3649 -0.3883  2.3567
 7841SOL     OW35158   4.733   2.264   1.496  0.0837  0.4656  0.1016
 7841SOL    HW135159   4.650   2.216   1.495 -0.0294  0.7001 -2.2219
 7841SOL    HW235160   4.729   2.309   1.581 -1.4553 -1.2458  0.9276
 7842SOL     OW35161   3.056   0.498   2.218 -0.3249  0.2531 -0.0380
 7842SOL    HW135162   2.987   0.508   2.284 -0.1155 -0.8754  0.3564
 7842SOL    HW235163   3.140   0.513   2.263 -0.2457 -0.0266 -0.0909
 7843SOL     OW35164   1.319   2.299   7.423 -0.3517  0.1078 -0.2120
 7843SOL    HW135165   1.352   2.233   7.485  0.3472 -0.4067 -1.1423
 7843SOL    HW235166   1.303   2.373   7.482  1.2299  0.1356  0.1830
 7844SOL     OW35167   2.048   3.160   2.271 -0.4647  0.0393  0.6195
 7844SOL    HW135168   2.129   3.121   2.305  0.0850 -0.5862 -1.3807
 7844SOL    HW235169   1.985   3.088   2.271  1.6635 -1.8221  1.8416
 7845SOL     OW35170   2.932   1.554   8.387 -0.1708 -0.1472  0.3396
 7845SOL    HW135171   2.937   1.585   8.477  0.3425 -0.7589  0.5222
 7845SOL    HW235172   3.008   1.594   8.345 -0.1639 -0.5775 -0.0557
 7846SOL     OW35173   1.080   2.477   7.177  0.3058 -0.1047 -0.4103
 7846SOL    HW135174   1.016   2.542   7.206 -0.7711 -1.7843  0.9728
 7846SOL    HW235175   1.160   2.507   7.219 -0.0356 -0.8655  0.7627
 7847SOL     OW35176   3.782   0.384   4.759 -0.3645  0.0885  0.0468
 7847SOL    HW135177   3.687   0.395   4.764 -0.1706  0.8434  2.4126
 7847SOL    HW235178   3.793   0.298   4.799  1.5540  0.1251 -0.4150
 7848SOL     OW35179   1.567   4.569   7.162  0.3172  0.2071 -0.7302
 7848SOL    HW135180   1.556   4.627   7.237 -0.4053 -2.8718  1.5746
 7848SOL    HW235181   1.564   4.484   7.206 -0.7110  0.9490  0.6349
 7849SOL     OW35182   3.416   2.907   5.056  0.2359 -0.3275 -0.2880
 7849SOL    HW135183   3.382   2.970   5.120  0.5150  0.0090 -0.4693
 7849SOL    HW235184   3.488   2.952   5.012 -1.2321  0.1667 -2.2040
 7850SOL     OW35185   4.491   1.360   4.064  0.4221  0.2971  0.2218
 7850SOL    HW135186   4.566   1.382   4.118  1.7458 -1.6229 -0.8133
 7850SOL    HW235187   4.507   1.398   3.977 -1.7125  0.8413  0.0719
 7851SOL     OW35188   3.188   0.742   7.521  0.6389  0.3654  0.0100
 7851SOL    HW135189   3.229   0.802   7.584  2.4683 -2.3684  1.4245
 7851SOL    HW235190   3.240   0.780   7.450  0.6566 -1.7372 -1.0770
 7852SOL     OW35191   4.443   3.245   3.339  0.4401  0.3708 -0.2115
 7852SOL    HW135192   4.366   3.188   3.334  0.3332  0.4969  0.0348
 7852SOL    HW235193   4.478   3.233   3.251  3.0849  1.1882  0.7455
 7853SOL     OW35194   1.284   0.090  11.696 -0.0248  0.6048 -0.2136
 7853SOL    HW135195   1.343   0.114  11.768 -1.2817  0.8110  0.7589
 7853SOL    HW235196   1.197   0.092  11.737  1.0765  0.4095  2.1714
 7854SOL     OW35197   4.658   2.614  17.562  0.3786 -0.1232 -0.2849
 7854SOL    HW135198   4.613   2.575  17.637 -0.0908  0.5310 -0.2297
 7854SOL    HW235199   4.722   2.544  17.546  2.3247  1.0485  2.2174
 7855SOL     OW35200   0.770   2.091   8.130  0.4147 -0.0817  0.0380
 7855SOL    HW135201   0.754   2.104   8.223 -2.0450 -1.4056 -0.1920
 7855SOL    HW235202   0.726   2.165   8.089  0.5473 -0.1683 -0.2642
 7856SOL     OW35203   3.058   2.837   5.215 -0.2014 -0.2565  0.2227
 7856SOL    HW135204   2.993   2.893   5.257  0.5708  0.9428 -0.1919
 7856SOL    HW235205   3.064   2.873   5.127 -1.7974 -0.0098  0.2212
 7857SOL     OW35206   3.887   3.878   2.244  0.2787 -0.6079  0.1414
 7857SOL    HW135207   3.983   3.881   2.238  0.2529  1.1384  0.5606
 7857SOL    HW235208   3.871   3.925   2.326  1.7378  0.5600 -0.2480
 7858SOL     OW35209   2.982   4.275   2.237 -0.2781 -0.2618 -0.2233
 7858SOL    HW135210   2.962   4.187   2.269  1.9053 -0.1232  1.4693
 7858SOL    HW235211   3.069   4.254   2.205  0.9345  1.1277  2.1701
 7859SOL     OW35212   2.267   3.004   2.364 -0.2812  0.0663  0.2918
 7859SOL    HW135213   2.278   2.914   2.334  1.6973  0.4079 -0.0213
 7859SOL    HW235214   2.268   2.995   2.459 -0.3192 -0.2872  0.2559
 7860SOL     OW35215   0.176   0.364   9.345 -0.3052  0.6298  0.0496
 7860SOL    HW135216   0.192   0.273   9.372 -1.7979 -0.4795 -2.8097
 7860SOL    HW235217   0.086   0.377   9.375 -0.3769  0.3723 -0.0543
 7861SOL     OW35218   1.318   1.871  15.515  0.2928  0.7717 -0.2621
 7861SOL    HW135219   1.305   1.851  15.607 -0.4819 -1.3831 -0.8282
 7861SOL    HW235220   1.260   1.804  15.476  0.8357  0.8119 -1.1482
 7862SOL     OW35221   2.976   3.537  16.325 -0.4262 -0.0390  0.3867
 7862SOL    HW135222   2.975   3.543  16.421  0.0427 -0.6965  0.4311
 7862SOL    HW235223   2.973   3.630  16.301 -0.6638  0.5800  2.7598
 7863SOL     OW35224   2.089   0.912   1.772 -0.1268 -1.1217  0.1232
 7863SOL    HW135225   2.053   0.950   1.852  2.4538  1.9595 -0.1881
 7863SOL    HW235226   2.078   0.819   1.790 -2.8928 -0.8070  0.0486
 7864SOL     OW35227   1.810   0.527   1.773  0.1564  0.5082 -0.1197
 7864SOL    HW135228   1.904   0.540   1.784  0.5521 -2.0386 -0.5742
 7864SOL    HW235229   1.815   0.484   1.688  1.8816  0.9874 -0.2669
 7865SOL     OW35230   3.464   1.080   3.571  0.5055 -0.0929  0.3083
 7865SOL    HW135231   3.421   1.114   3.492 -1.4046 -0.1883  1.3160
 7865SOL    HW235232   3.548   1.127   3.577  1.0028 -1.2196  2.3000
 7866SOL     OW35233   0.745   4.411   0.636  0.4866 -0.3538  0.2746
 7866SOL    HW135234   0.809   4.349   0.672  0.2020 -0.0190  1.3572
 7866SOL    HW235235   0.731   4.456   0.719 -0.1899 -1.1084  0.5649
 7867SOL     OW35236   3.091   0.860   5.420 -0.1886 -0.2699  0.2532
 7867SOL    HW135237   3.120   0.839   5.509 -0.8126 -0.0838  0.4983
 7867SOL    HW235238   3.048   0.780   5.391 -0.3458  0.5966 -1.8591
 7868SOL     OW35239   0.642   1.772  12.276 -0.5617 -0.5042 -0.0653
 7868SOL    HW135240   0.594   1.824  12.340  1.4202 -0.2729  1.2054
 7868SOL    HW235241   0.590   1.771  12.195  2.2304  0.7809 -1.8957
 7869SOL     OW35242   0.245   3.208  15.217  0.4567  0.3110  0.4165
 7869SOL    HW135243   0.167   3.249  15.254  0.3103  1.5416 -1.2007
 7869SOL    HW235244   0.268   3.135  15.274 -1.8013  0.3770  1.4272
 7870SOL     OW35245   3.908   0.034   3.050 -0.4027 -0.0867  0.3652
 7870SOL    HW135246   3.937   4.709   3.117 -0.0693 -1.5810 -1.1474
 7870SOL    HW235247   3.993   0.047   3.009  0.0192 -1.6407  0.7707
 7871SOL     OW35248   4.569   4.644  13.006 -0.0182 -0.8310 -0.2939
 7871SOL    HW135249   4.552   4.730  12.967  0.3640 -1.0149 -0.8603
 7871SOL    HW235250   4.663   4.658  13.018 -0.2143  0.0589  0.2441
 7872SOL     OW35251   2.254   0.164   6.084  0.1245  0.3854 -0.0035
 7872SOL    HW135252   2.300   0.166   6.167 -0.9681  0.8755  0.5855
 7872SOL    HW235253   2.163   0.168   6.112 -0.3997  1.2027 -1.7878
 7873SOL     OW35254   0.416   2.612   7.090 -0.2077  0.0521 -0.0024
 7873SOL    HW135255   0.371   2.544   7.039 -0.4210  1.6221 -1.9147
 7873SOL    HW235256   0.427   2.689   7.034  0.3520  0.2687  0.4088
 7874SOL     OW35257   0.060   2.060  14.275  0.0607  0.6297 -0.2869
 7874SOL    HW135258   0.096   2.092  14.192  2.8042 -1.2925  0.1762
 7874SOL    HW235259   0.008   1.988  14.239  1.9581 -1.8509  2.0091
 7875SOL     OW35260   0.155   0.229  10.626 -0.8378 -0.2464  0.0295
 7875SOL    HW135261   0.216   0.261  10.560 -0.3494 -0.1289  0.5397
 7875SOL    HW235262   0.073   0.272  10.602 -0.7257  0.0620  0.2080
 7876SOL     OW35263   4.408   2.726   8.051 -0.1524 -0.0599 -0.0274
 7876SOL    HW135264   4.452   2.759   8.129  0.8806 -0.0116 -0.6321
 7876SOL    HW235265   4.470   2.737   7.979  1.5554  3.3048  1.9860
 7877SOL     OW35266   1.257   2.385   4.613  0.2766  0.4344 -0.3897
 7877SOL    HW135267   1.161   2.392   4.614  0.1296 -1.6351 -0.5064
 7877SOL    HW235268   1.286   2.476   4.603  0.9720  0.3959  1.2763
 7878SOL     OW35269   3.123   4.353  10.351 -0.6633 -0.0580 -0.6816
 7878SOL    HW135270   3.142   4.359  10.445 -0.3362 -1.9055 -0.6220
 7878SOL    HW235271   3.028   4.349  10.339 -0.6341 -2.1847 -0.3747
 7879SOL     OW35272   3.015   1.379  12.129 -0.4512 -0.8726  0.3825
 7879SOL    HW135273   2.986   1.289  12.145  2.9188 -2.0817 -0.2969
 7879SOL    HW235274   3.110   1.374  12.117 -0.3356  0.3330  0.8250
 7880SOL     OW35275   4.108   2.915   3.107  0.0831  0.0587 -0.1640
 7880SOL    HW135276   4.092   2.904   3.013  1.3147 -1.0967 -0.2469
 7880SOL    HW235277   4.165   2.842   3.132  1.8006  0.8725 -1.7035
 7881SOL     OW35278   0.485   2.624  14.443  0.0750 -0.0846 -0.0141
 7881SOL    HW135279   0.400   2.580  14.441 -1.0515  2.1112 -1.2515
 7881SOL    HW235280   0.536   2.548  14.418 -0.6674 -0.8784  0.8669
 7882SOL     OW35281   3.981   1.645   0.138 -0.0330  0.1912 -0.0440
 7882SOL    HW135282   3.897   1.673   0.176  0.7824 -0.7893  2.4880
 7882SOL    HW235283   4.002   1.730   0.099  1.2191  0.3331  0.9433
 7883SOL     OW35284   1.365   2.361  14.585 -0.0275  0.0907  0.2163
 7883SOL    HW135285   1.442   2.335  14.535 -0.9477 -0.3887 -0.9441
 7883SOL    HW235286   1.385   2.320  14.669 -2.1438 -0.4964  0.4506
 7884SOL     OW35287   1.877   2.747   7.372  0.1439 -0.2628  0.2154
 7884SOL    HW135288   1.892   2.824   7.427  1.7805 -1.0937  0.9162
 7884SOL    HW235289   1.782   2.748   7.360  0.1491 -1.4954  0.0815
 7885SOL     OW35290   2.253   3.249  10.794  0.3975 -0.2642  0.2996
 7885SOL    HW135291   2.297   3.276  10.713  0.9504 -3.1340 -0.3515
 7885SOL    HW235292   2.205   3.329  10.814 -0.0465 -0.2318 -0.8924
 7886SOL     OW35293   3.615   1.806   1.849  0.0670 -0.0509  0.5531
 7886SOL    HW135294   3.541   1.754   1.816  1.2320 -1.5511  0.2929
 7886SOL    HW235295   3.589   1.783   1.938 -0.2635 -0.1032  0.4463
 7887SOL     OW35296   1.506   0.764   5.639  0.0608  0.5878 -0.1618
 7887SOL    HW135297   1.564   0.833   5.607  0.2922  0.2202 -0.5388
 7887SOL    HW235298   1.512   0.759   5.735  0.7510  0.9745 -0.1875
 7888SOL     OW35299   4.000   3.765   8.734  0.5878  0.7981 -0.1247
 7888SOL    HW135300   4.068   3.717   8.783 -0.9510 -1.3208 -0.0456
 7888SOL    HW235301   3.923   3.781   8.789 -0.2412 -0.8707 -0.7970
 7889SOL     OW35302   3.643   0.354   3.455 -0.0551  0.2115 -0.7302
 7889SOL    HW135303   3.577   0.423   3.445  0.8902  1.3454  0.8575
 7889SOL    HW235304   3.600   0.269   3.462  0.5740 -0.1670 -1.5756
 7890SOL     OW35305   2.099   1.462   8.064 -0.3644 -0.4083 -0.6040
 7890SOL    HW135306   2.111   1.496   7.975 -0.0980 -2.5774 -1.4134
 7890SOL    HW235307   2.117   1.368   8.055 -2.1758 -0.9320  1.2414
 7891SOL     OW35308   0.686   0.452  17.303  0.0726  0.4091 -0.5559
 7891SOL    HW135309   0.661   0.543  17.321  0.3335  0.6518 -1.3805
 7891SOL    HW235310   0.645   0.404  17.375 -2.7404  3.1783 -0.3242
 7892SOL     OW35311   1.530   1.568   2.036  0.6009 -0.1299  0.1257
 7892SOL    HW135312   1.567   1.503   2.096  1.8938 -0.3902 -0.9626
 7892SOL    HW235313   1.461   1.611   2.087 -1.2991 -0.5336 -2.0621
 7893SOL     OW35314   0.477   1.828   4.706 -0.4523  0.1518 -0.2313
 7893SOL    HW135315   0.513   1.783   4.629  0.4409  1.0693 -0.3594
 7893SOL    HW235316   0.385   1.808   4.691  0.0543 -1.9500 -0.5544
 7894SOL     OW35317   4.295   0.921   1.758  0.0649 -0.3044 -0.3507
 7894SOL    HW135318   4.377   0.874   1.744 -0.2050 -0.6354 -0.8548
 7894SOL    HW235319   4.309   0.979   1.833 -1.8186  0.6176 -0.7049
 7895SOL     OW35320   2.870   2.551   6.698  0.2475 -0.0256  0.0156
 7895SOL    HW135321   2.874   2.572   6.605 -3.2001  0.4642  0.0100
 7895SOL    HW235322   2.841   2.637   6.729  0.4742 -0.7433  2.2135
 7896SOL     OW35323   2.126   3.788  10.653 -0.3491  0.5299 -0.1711
 7896SOL    HW135324   2.150   3.835  10.573 -2.3642  0.0653 -1.0466
 7896SOL    HW235325   2.031   3.783  10.638 -0.1797 -0.8664 -0.8104
 7897SOL     OW35326   1.751   4.620  11.836  0.3973  0.2040  0.1758
 7897SOL    HW135327   1.703   4.540  11.814  0.2851  1.6744 -5.0219
 7897SOL    HW235328   1.769   4.646  11.746  1.4430  1.6706  0.8134
 7898SOL     OW35329   3.225   3.463   3.251  0.3497  0.2172  0.4009
 7898SOL    HW135330   3.159   3.526   3.222  0.6433  0.8826  1.1866
 7898SOL    HW235331   3.262   3.434   3.167  1.9540  0.4464  1.0229
 7899SOL     OW35332   0.654   3.341   7.484 -0.6057  0.8955  0.4710
 7899SOL    HW135333   0.664   3.378   7.396 -2.3813 -1.0898 -0.5849
 7899SOL    HW235334   0.600   3.411   7.520  0.7084  2.4926 -0.6622
 7900SOL     OW35335   2.466   2.326   6.134  0.3547  0.2417 -0.4331
 7900SOL    HW135336   2.518   2.400   6.101 -0.9715  1.9497  1.3137
 7900SOL    HW235337   2.396   2.367   6.185  0.0604  1.0674 -1.4850
 7901SOL     OW35338   3.960   0.914   3.533  0.2899  0.0070 -0.3145
 7901SOL    HW135339   4.035   0.938   3.588  1.0615 -2.2687 -0.3819
 7901SOL    HW235340   4.004   0.909   3.449  0.4607  0.8057 -0.2759
 7902SOL     OW35341   3.478   0.944   6.923  0.0487 -0.8833 -0.8281
 7902SOL    HW135342   3.416   0.977   6.858  0.4536 -0.1715 -0.8497
 7902SOL    HW235343   3.417   0.886   6.968  1.6670 -1.6919  0.3145
 7903SOL     OW35344   0.818   2.813  11.834  0.0132  0.1231 -0.1999
 7903SOL    HW135345   0.903   2.788  11.799 -0.6396 -0.3731 -1.4326
 7903SOL    HW235346   0.795   2.726  11.868 -3.4131  0.0692 -2.6802
 7904SOL     OW35347   2.468   1.207   2.655  0.0737 -0.1171 -0.2076
 7904SOL    HW135348   2.385   1.195   2.701  0.2336 -0.7970 -0.0998
 7904SOL    HW235349   2.529   1.197   2.728  1.0475 -0.9310 -1.1388
 7905SOL     OW35350   3.609   0.815   1.704 -0.2641 -0.2078  0.1078
 7905SOL    HW135351   3.681   0.757   1.732 -0.6368 -1.1607 -0.8938
 7905SOL    HW235352   3.574   0.850   1.786 -0.4702 -2.0765  0.8168
 7906SOL     OW35353   2.959   2.325   3.159  1.0476 -0.3706 -0.1922
 7906SOL    HW135354   2.870   2.361   3.157  1.7478  1.3218 -0.9157
 7906SOL    HW235355   2.976   2.339   3.252 -0.1603  0.1602 -0.0499
 7907SOL     OW35356   1.519   2.936   6.811 -0.2321  0.1086  0.0175
 7907SOL    HW135357   1.498   2.845   6.792 -0.5875  0.7728 -2.7814
 7907SOL    HW235358   1.432   2.973   6.830 -1.4658 -1.7796 -2.0938
 7908SOL     OW35359   2.250   2.798   9.035  0.0097 -0.5125  0.4208
 7908SOL    HW135360   2.305   2.794   8.957 -1.2443 -0.7905 -0.4436
 7908SOL    HW235361   2.165   2.779   8.998 -0.8171  2.5589  0.7358
 7909SOL     OW35362   0.741   2.141   8.390  0.8360  0.3378  0.6452
 7909SOL    HW135363   0.725   2.204   8.460  1.4910  0.8634  0.3196
 7909SOL    HW235364   0.810   2.088   8.430 -0.3661 -0.4376  1.7168
 7910SOL     OW35365   0.156   1.758   7.670  0.4821  0.4367 -0.3232
 7910SOL    HW135366   0.078   1.790   7.625  1.2315  0.8905 -1.2982
 7910SOL    HW235367   0.123   1.675   7.706  2.1891 -0.2180 -0.2459
 7911SOL     OW35368   3.956   3.362   5.898  0.8208  0.1283 -0.0549
 7911SOL    HW135369   4.036   3.328   5.937  0.9780 -1.4082 -1.7170
 7911SOL    HW235370   3.958   3.314   5.815  1.0300  1.2906 -0.7271
 7912SOL     OW35371   2.142   2.822  17.461 -0.0600  0.2795 -0.4469
 7912SOL    HW135372   2.188   2.778  17.390  2.1366  0.4450  0.8529
 7912SOL    HW235373   2.109   2.749  17.513  1.2789  1.3906  1.9773
 7913SOL     OW35374   2.031   3.225  10.037  0.1318  0.0729  0.1052
 7913SOL    HW135375   1.992   3.180  10.112  2.5457 -2.4552 -0.1891
 7913SOL    HW235376   2.098   3.274  10.084 -0.0398  0.0439  0.3814
 7914SOL     OW35377   0.977   2.035   8.465  0.7425 -0.0221  0.0003
 7914SOL    HW135378   0.989   1.954   8.415 -3.9920 -0.0702 -1.0517
 7914SOL    HW235379   1.066   2.070   8.463  1.1045 -0.9140  0.5292
 7915SOL     OW35380   0.258   0.857   2.322 -0.4536  0.4327  0.0638
 7915SOL    HW135381   0.215   0.911   2.255  0.9803  1.1186 -0.2924
 7915SOL    HW235382   0.326   0.811   2.272  0.5608  2.1873 -0.1603
 7916SOL     OW35383   0.005   0.894  16.578  0.2291 -0.2123  0.0904
 7916SOL    HW135384   4.686   0.967  16.604 -0.4494 -1.0639  1.0124
 7916SOL    HW235385   0.021   0.925  16.489  1.0798 -0.0714  0.2975
 7917SOL     OW35386   0.402   3.343  15.016  1.1413  0.0916 -0.2029
 7917SOL    HW135387   0.349   3.298  15.082  1.3651 -0.3557 -0.3317
 7917SOL    HW235388   0.402   3.292  14.935  0.7003  1.7111 -1.2175
 7918SOL     OW35389   1.539   3.213   5.128  0.4216 -0.6747 -0.3870
 7918SOL    HW135390   1.547   3.146   5.195  3.7346  0.9435  0.8713
 7918SOL    HW235391   1.590   3.285   5.164  1.4330 -0.9055 -1.3387
 7919SOL     OW35392   1.345   0.710   5.909 -0.3641 -0.7721 -0.0641
 7919SOL    HW135393   1.265   0.725   5.960  0.0297 -1.0750  0.6430
 7919SOL    HW235394   1.328   0.631   5.857 -1.1039  0.0261 -1.0329
 7920SOL     OW35395   3.343   3.097   5.229  0.7097  0.1737  0.0866
 7920SOL    HW135396   3.277   3.166   5.234  2.3103  1.4548  3.6401
 7920SOL    HW235397   3.392   3.116   5.309  0.8117 -1.8129  0.5023
 7921SOL     OW35398   0.869   0.337   5.313  0.2814  0.0011 -0.5601
 7921SOL    HW135399   0.933   0.325   5.243  0.9093  0.3575 -0.0523
 7921SOL    HW235400   0.922   0.328   5.392  1.1421 -0.3269 -1.1796
 7922SOL     OW35401   2.870   4.522   1.216  0.0325  0.2949 -0.4449
 7922SOL    HW135402   2.845   4.589   1.280 -1.0487  0.6330 -1.2171
 7922SOL    HW235403   2.935   4.570   1.163 -0.8608 -1.7563 -3.3808
 7923SOL     OW35404   1.698   2.102  15.331  0.5043 -0.4903 -0.3698
 7923SOL    HW135405   1.698   2.191  15.366 -2.9537 -0.8972  0.7004
 7923SOL    HW235406   1.678   2.121  15.240 -3.1647 -0.9932  0.3213
 7924SOL     OW35407   1.329   1.400  11.825 -0.8251  0.9328 -0.2229
 7924SOL    HW135408   1.260   1.455  11.860 -0.2198 -0.1240  2.6717
 7924SOL    HW235409   1.350   1.354  11.907 -0.0807  1.5439 -0.0736
 7925SOL     OW35410   1.461   1.665   9.218 -0.3066  0.5750 -0.6468
 7925SOL    HW135411   1.458   1.730   9.287 -1.2661 -0.5583  0.3758
 7925SOL    HW235412   1.400   1.701   9.153 -0.5595 -1.6411 -1.6607
 7926SOL     OW35413   0.352   1.705   1.234  0.8909 -0.1031 -0.0542
 7926SOL    HW135414   0.370   1.737   1.322 -1.4032 -1.6632  0.9754
 7926SOL    HW235415   0.259   1.683   1.239  0.3996  1.8382 -0.3304
 7927SOL     OW35416   2.181   0.994   3.779 -0.1280  0.4677 -0.0605
 7927SOL    HW135417   2.218   1.019   3.864 -1.1209  0.4976  0.3647
 7927SOL    HW235418   2.145   1.075   3.743 -0.4718 -0.2531 -1.3327
 7928SOL     OW35419   2.717   1.570   3.455  0.1982  0.1876  0.2582
 7928SOL    HW135420   2.771   1.536   3.526  0.8746 -2.2458 -1.4447
 7928SOL    HW235421   2.646   1.601   3.512 -0.8927 -1.8943  0.0115
 7929SOL     OW35422   0.250   1.058   4.452  0.2618 -0.0234  0.2067
 7929SOL    HW135423   0.235   1.144   4.414  0.8468 -0.3256 -0.7151
 7929SOL    HW235424   0.171   1.011   4.427  0.0523  0.8114 -0.6660
 7930SOL     OW35425   0.407   4.381   3.775  0.1937  0.0899 -0.6345
 7930SOL    HW135426   0.462   4.419   3.706 -0.2542 -0.3845 -1.2570
 7930SOL    HW235427   0.447   4.413   3.856  1.6924 -1.1100 -0.9178
 7931SOL     OW35428   1.949   4.239   1.694  0.6587 -0.5759  0.3035
 7931SOL    HW135429   2.005   4.315   1.711  1.4695 -1.0356 -0.2829
 7931SOL    HW235430   1.951   4.201   1.781  0.7505  0.9947  0.9881
 7932SOL     OW35431   3.915   3.519   4.001 -0.4867  0.4480  0.7101
 7932SOL    HW135432   3.880   3.588   4.056 -1.0166 -0.7325  1.8526
 7932SOL    HW235433   3.913   3.447   4.065  1.2260  0.5837  0.9398
 7933SOL     OW35434   3.372   4.539   3.681 -0.2742 -0.2152  0.3934
 7933SOL    HW135435   3.444   4.569   3.626 -0.7167  0.5820  0.2474
 7933SOL    HW235436   3.404   4.451   3.701  3.1656  0.9355 -0.1470
 7934SOL     OW35437   0.149   0.565   7.729  0.1684  0.2757 -0.3461
 7934SOL    HW135438   0.191   0.527   7.806  0.7824  0.5865 -0.5229
 7934SOL    HW235439   0.216   0.625   7.697  0.1078  0.0475 -0.8927
 7935SOL     OW35440   0.479   0.550   8.675  0.1288  0.1081  0.1441
 7935SOL    HW135441   0.410   0.609   8.646  1.6830  1.3215 -1.0489
 7935SOL    HW235442   0.431   0.502   8.742 -1.0681 -0.3902 -1.0632
 7936SOL     OW35443   3.527   1.239   5.891  0.4436 -0.4035 -0.3713
 7936SOL    HW135444   3.562   1.305   5.831  0.2431  0.7055  0.7430
 7936SOL    HW235445   3.570   1.268   5.971 -1.7033  1.9310 -0.0759
 7937SOL     OW35446   2.232   2.048   8.305 -0.2417  0.1620 -0.2972
 7937SOL    HW135447   2.176   2.027   8.231  1.7914 -2.4832 -1.0732
 7937SOL    HW235448   2.181   2.004   8.373  2.8089 -3.0716 -0.1074
 7938SOL     OW35449   4.454   4.288  17.666  0.3486  0.1527 -0.0762
 7938SOL    HW135450   4.413   4.203  17.649  0.3329 -0.3181  2.3897
 7938SOL    HW235451   4.385   4.347  17.634  1.0000 -0.0728 -1.9242
 7939SOL     OW35452   2.242   4.070  12.622 -0.4488  0.3264  0.0734
 7939SOL    HW135453   2.319   4.124  12.604 -0.8656  1.3369  1.3679
 7939SOL    HW235454   2.193   4.125  12.683 -0.2841 -0.4961  0.9564
 7940SOL     OW35455   0.672   1.779  15.686 -0.2525  0.0403 -0.4348
 7940SOL    HW135456   0.708   1.867  15.677 -0.4220 -0.0224 -1.7783
 7940SOL    HW235457   0.587   1.793  15.644 -0.5059  0.0921  0.1036
 7941SOL     OW35458   1.468   1.707   5.657  0.0880  0.0056 -0.1656
 7941SOL    HW135459   1.389   1.754   5.631 -0.6407 -0.0535  1.8863
 7941SOL    HW235460   1.509   1.692   5.572  0.5978 -0.3208  0.1307
 7942SOL     OW35461   2.080   0.306  17.378  0.3445  0.3724 -0.3460
 7942SOL    HW135462   2.091   0.317  17.473 -0.2860  0.1697 -0.2484
 7942SOL    HW235463   2.050   0.215  17.377 -0.6508  0.6629  2.0200
 7943SOL     OW35464   1.855   4.224   3.787 -0.6601  0.2931 -0.4259
 7943SOL    HW135465   1.904   4.177   3.718 -1.4694 -1.8428  0.4580
 7943SOL    HW235466   1.857   4.166   3.863  0.1139  0.1769 -0.5283
 7944SOL     OW35467   0.807   1.212   7.779 -0.1591  0.1785 -0.6875
 7944SOL    HW135468   0.811   1.252   7.693  2.1347 -0.0788 -0.7175
 7944SOL    HW235469   0.738   1.149   7.759 -0.5334 -0.0853  1.3788
 7945SOL     OW35470   3.568   1.671   3.848  0.0367  0.6294  0.5399
 7945SOL    HW135471   3.656   1.700   3.825 -0.0718  0.0256 -0.6080
 7945SOL    HW235472   3.582   1.612   3.922  0.0040  0.4141  0.3709
 7946SOL     OW35473   4.397   4.511   3.553 -0.0584  0.1389  0.3040
 7946SOL    HW135474   4.443   4.577   3.501  0.8036  0.2197  1.1572
 7946SOL    HW235475   4.459   4.444   3.585 -0.6800 -0.6206 -0.1065
 7947SOL     OW35476   0.676   3.719  14.342 -0.5850 -0.2750  0.4021
 7947SOL    HW135477   0.717   3.797  14.380 -1.2814 -0.0554  0.7091
 7947SOL    HW235478   0.747   3.695  14.282  0.2734 -0.9470  1.6940
 7948SOL     OW35479   0.002   0.016   7.173 -0.2466 -0.4822 -0.3469
 7948SOL    HW135480   0.042   4.676   7.213 -0.1596 -0.4456 -0.3631
 7948SOL    HW235481   4.734   0.076   7.248  1.8830 -1.3438  0.4928
 7949SOL     OW35482   0.713   3.426   7.224  0.4171  0.0749  0.1594
 7949SOL    HW135483   0.741   3.467   7.142  0.3022 -0.4350 -0.1366
 7949SOL    HW235484   0.798   3.422   7.267 -0.1793  1.6254  1.4493
 7950SOL     OW35485   0.481   0.166  17.018 -0.6211 -0.0057  0.5155
 7950SOL    HW135486   0.408   0.160  17.079  0.4384  0.0210  1.8037
 7950SOL    HW235487   0.547   0.222  17.059 -0.6789 -0.5171  1.3127
 7951SOL     OW35488   3.348   4.478   5.943  0.2284 -0.1697 -0.4158
 7951SOL    HW135489   3.286   4.419   5.899 -0.9639 -0.9425  2.2686
 7951SOL    HW235490   3.404   4.498   5.868 -0.2466  2.0644 -0.1504
 7952SOL     OW35491   0.681   3.581   2.210 -0.7430  0.1765 -0.3215
 7952SOL    HW135492   0.647   3.627   2.287  0.5072  1.9667 -0.8353
 7952SOL    HW235493   0.704   3.496   2.247  1.4127  0.3807 -1.1935
 7953SOL     OW35494   4.444   3.611  15.585 -0.7485  0.0897  0.6377
 7953SOL    HW135495   4.502   3.673  15.541 -1.6960  1.4187  1.2756
 7953SOL    HW235496   4.364   3.663  15.587 -1.0039 -0.2731 -0.3034
 7954SOL     OW35497   3.644   2.600   7.678 -0.1351  0.3330 -0.3604
 7954SOL    HW135498   3.681   2.681   7.714  0.9260  0.5289 -1.8970
 7954SOL    HW235499   3.723   2.546   7.669 -0.4008  0.0965 -1.2626
 7955SOL     OW35500   2.569   1.427   4.365  0.1139  0.2935 -0.2635
 7955SOL    HW135501   2.529   1.403   4.449 -1.3489  0.5554 -0.8802
 7955SOL    HW235502   2.646   1.468   4.404 -0.0748  0.2409  0.1643
 7956SOL     OW35503   2.783   2.163   7.723  0.2167 -0.0123 -0.1831
 7956SOL    HW135504   2.777   2.155   7.628  2.3799 -2.6051 -0.1163
 7956SOL    HW235505   2.690   2.172   7.744  0.0792 -3.8862  0.8106
 7957SOL     OW35506   3.311   1.509   3.249  0.8500 -0.3563 -0.0841
 7957SOL    HW135507   3.369   1.585   3.255  0.2077  0.0090  1.5898
 7957SOL    HW235508   3.272   1.529   3.163  2.5271  1.9428 -0.3106
 7958SOL     OW35509   3.033   4.258   4.406 -0.0916  0.3581  0.4588
 7958SOL    HW135510   3.128   4.246   4.407 -0.0996  0.2991  0.5340
 7958SOL    HW235511   3.020   4.352   4.418  0.8766  0.4015  1.1334
 7959SOL     OW35512   3.562   3.948  14.191  0.6315  0.0616  0.4636
 7959SOL    HW135513   3.599   3.871  14.149 -0.6561 -0.5523  0.4758
 7959SOL    HW235514   3.527   4.013  14.130 -1.5080 -1.5772 -0.0490
 7960SOL     OW35515   1.376   2.000   5.261  0.0499  0.1037  0.0334
 7960SOL    HW135516   1.340   1.913   5.241  2.3392 -1.0247  0.8642
 7960SOL    HW235517   1.449   1.972   5.315 -0.0218 -2.9300 -1.4295
 7961SOL     OW35518   3.397   1.216  14.601 -0.2255 -0.7862  0.0782
 7961SOL    HW135519   3.313   1.224  14.646  0.7694  1.4423  1.5817
 7961SOL    HW235520   3.447   1.198  14.680  0.3706 -0.5043 -0.2286
 7962SOL     OW35521   2.441   0.416  16.973  0.5159 -0.0484 -0.5371
 7962SOL    HW135522   2.375   0.425  17.041 -0.3942 -1.9701 -1.1642
 7962SOL    HW235523   2.522   0.427  17.022 -0.6274  3.8962  0.4448
 7963SOL     OW35524   4.007   2.148  14.714 -0.0137 -0.6971  0.6104
 7963SOL    HW135525   4.015   2.243  14.724  0.5744 -0.7526  0.6838
 7963SOL    HW235526   3.970   2.145  14.626  0.5491 -0.7907  0.3763
 7964SOL     OW35527   3.089   1.553   3.595  0.2508  0.3811 -0.1233
 7964SOL    HW135528   3.085   1.640   3.556 -1.7123  1.2070  1.9231
 7964SOL    HW235529   3.002   1.558   3.636 -0.3572 -0.7353 -1.2738
 7965SOL     OW35530   2.700   4.465   5.550 -0.4087 -0.6415 -0.7081
 7965SOL    HW135531   2.619   4.462   5.499  1.1760 -0.7348 -3.2381
 7965SOL    HW235532   2.753   4.531   5.505 -1.7468  1.0982  0.2894
 7966SOL     OW35533   4.383   3.748   6.429  0.0798  0.6011  0.0507
 7966SOL    HW135534   4.435   3.783   6.501 -0.4723 -0.8336  1.1567
 7966SOL    HW235535   4.450   3.710   6.372  0.0097 -0.5713  0.7469
 7967SOL     OW35536   4.473   2.589   4.149 -0.0531  0.4214 -0.2166
 7967SOL    HW135537   4.493   2.539   4.070 -2.7337 -2.7638  1.1083
 7967SOL    HW235538   4.407   2.534   4.191  1.0164 -0.0590  0.8180
 7968SOL     OW35539   4.407   1.763   7.491  0.5954 -0.6597 -0.1646
 7968SOL    HW135540   4.416   1.691   7.429 -1.1230 -0.4672 -0.6443
 7968SOL    HW235541   4.325   1.742   7.535  0.5943  1.0968  0.7027
 7969SOL     OW35542   1.291   1.340   5.115 -0.4681  0.2038 -0.8152
 7969SOL    HW135543   1.305   1.246   5.108  1.0309  0.3402  0.3104
 7969SOL    HW235544   1.272   1.354   5.208  1.3668  0.7649 -0.5137
 7970SOL     OW35545   0.284   1.195   7.498 -0.1305 -0.2190 -0.1415
 7970SOL    HW135546   0.240   1.164   7.419  0.2447 -0.7172 -0.1547
 7970SOL    HW235547   0.375   1.169   7.483  0.2518  0.3469  1.2236
 7971SOL     OW35548   2.613   3.151   2.034 -0.5399 -0.2518 -0.4342
 7971SOL    HW135549   2.663   3.122   1.957  0.2454 -0.4489  0.1498
 7971SOL    HW235550   2.636   3.241   2.012  0.2763 -0.1163  1.0105
 7972SOL     OW35551   2.360   3.828   7.233  0.1862  0.3543  0.3618
 7972SOL    HW135552   2.315   3.749   7.206  0.4639  0.4232 -0.3107
 7972SOL    HW235553   2.418   3.845   7.158 -2.1419  2.9483 -0.8428
 7973SOL     OW35554   3.667   4.082   7.722 -0.2954 -0.4428  0.5895
 7973SOL    HW135555   3.722   4.015   7.763  1.6995  0.3695 -0.7347
 7973SOL    HW235556   3.594   4.095   7.783 -1.0048 -0.9187 -0.1638
 7974SOL     OW35557   0.426   1.806   7.818 -0.6566 -0.2891  0.8861
 7974SOL    HW135558   0.515   1.824   7.848 -0.4173  1.8717 -1.1333
 7974SOL    HW235559   0.439   1.738   7.752 -0.5110  1.9624 -1.4379
 7975SOL     OW35560   4.039   2.964  16.213  0.6866  0.0077 -0.6477
 7975SOL    HW135561   4.026   2.910  16.290  2.2235 -0.9118 -1.0280
 7975SOL    HW235562   4.132   2.956  16.190  0.6659  1.1371 -1.1430
 7976SOL     OW35563   4.044   2.373   6.648  0.5350  0.5284 -0.0376
 7976SOL    HW135564   4.067   2.427   6.573  1.1825 -0.1835 -0.3558
 7976SOL    HW235565   4.124   2.329   6.677 -1.3089 -1.5289  1.9854
 7977SOL     OW35566   1.583   3.741  14.752 -0.1296 -0.0069 -0.4921
 7977SOL    HW135567   1.489   3.761  14.748 -0.1778 -0.2381 -0.4958
 7977SOL    HW235568   1.604   3.719  14.842  1.0231  0.2578 -0.6940
 7978SOL     OW35569   3.891   1.120   6.082  0.2100  0.0241  0.1931
 7978SOL    HW135570   3.890   1.141   5.989 -1.7679  1.6811  0.5740
 7978SOL    HW235571   3.887   1.208   6.120 -3.1083 -0.1097  0.1361
 7979SOL     OW35572   1.356   2.553  12.866 -0.4549 -0.6069 -0.1055
 7979SOL    HW135573   1.271   2.517  12.890 -0.4325 -0.2182  0.5419
 7979SOL    HW235574   1.351   2.524  12.775 -1.6090 -1.2079  0.1549
 7980SOL     OW35575   0.207   0.284   6.624 -0.1465 -0.2256  0.2350
 7980SOL    HW135576   0.201   0.202   6.575 -2.0877  0.4743 -0.7135
 7980SOL    HW235577   0.199   0.239   6.708 -0.1085 -1.5820 -0.4797
 7981SOL     OW35578   3.234   4.624   2.939 -0.3583 -0.3662  0.3747
 7981SOL    HW135579   3.146   4.664   2.939  0.1335  0.7315  1.2930
 7981SOL    HW235580   3.218   4.530   2.940  1.6691 -0.6916  1.1013
 7982SOL     OW35581   2.483   0.669  12.224  0.6307  0.4286 -0.5032
 7982SOL    HW135582   2.577   0.688  12.217  0.8453 -0.5077 -0.1186
 7982SOL    HW235583   2.469   0.727  12.299 -3.5299 -1.3617  0.1251
 7983SOL     OW35584   3.250   4.216   9.021 -0.1259 -0.2702 -0.6404
 7983SOL    HW135585   3.178   4.225   8.958  0.3105 -2.6040 -1.4463
 7983SOL    HW235586   3.245   4.299   9.070 -0.3514 -0.2699 -0.6620
 7984SOL     OW35587   2.373   2.318  11.876 -0.1317  0.1874  0.5202
 7984SOL    HW135588   2.299   2.302  11.818  0.4652  0.3410 -0.2759
 7984SOL    HW235589   2.334   2.388  11.930  1.6582  0.9672  0.7888
 7985SOL     OW35590   1.515   2.224   3.080 -0.0137  0.7780  0.4029
 7985SOL    HW135591   1.443   2.227   3.017  0.1036  0.1869  0.2334
 7985SOL    HW235592   1.577   2.170   3.030 -0.2007  0.8487  0.0912
 7986SOL     OW35593   2.908   1.268   5.030 -0.2504  0.4255 -0.0074
 7986SOL    HW135594   2.845   1.339   5.020 -0.7818  0.0874  0.8680
 7986SOL    HW235595   2.904   1.267   5.126 -0.6758  0.3946 -0.0251
 7987SOL     OW35596   0.344   3.091  11.627 -0.4878 -0.2470  0.4784
 7987SOL    HW135597   0.289   3.152  11.676 -2.3572 -0.8983 -0.8017
 7987SOL    HW235598   0.341   3.135  11.542  1.9313  0.0938  0.5917
 7988SOL     OW35599   4.456   4.371   1.098 -0.3402 -0.0079  0.1266
 7988SOL    HW135600   4.448   4.328   1.183  1.5552 -2.6266 -1.0403
 7988SOL    HW235601   4.490   4.455   1.127  0.0675  0.4148 -1.5939
 7989SOL     OW35602   1.782   0.875  16.076 -0.3783  0.4117  0.7773
 7989SOL    HW135603   1.798   0.934  16.003 -2.9506  0.3054  0.1301
 7989SOL    HW235604   1.807   0.786  16.049 -1.3284  0.8350 -1.4642
 7990SOL     OW35605   0.500   3.100   0.515  0.3267  0.3674  0.0339
 7990SOL    HW135606   0.460   3.167   0.460 -2.9089  0.9035  3.0638
 7990SOL    HW235607   0.439   3.090   0.588  0.8380 -1.7273  0.1862
 7991SOL     OW35608   0.754   0.129   6.320 -0.5260  0.0282  0.2161
 7991SOL    HW135609   0.687   0.137   6.388 -2.1345 -0.3940 -1.3211
 7991SOL    HW235610   0.797   0.047   6.346  0.8971  1.1707  1.5125
 7992SOL     OW35611   4.636   0.868   8.607  0.7298 -0.2282  0.3821
 7992SOL    HW135612   4.667   0.922   8.535  1.5252 -2.8538 -1.2230
 7992SOL    HW235613   4.711   0.859   8.665  0.3415 -0.7517  0.8025
 7993SOL     OW35614   2.541   2.791   3.764  0.5081  0.3322  0.2318
 7993SOL    HW135615   2.615   2.762   3.710  0.5829 -1.6767  1.4161
 7993SOL    HW235616   2.573   2.874   3.801 -1.5286  1.4723 -0.5893
 7994SOL     OW35617   1.156   1.267   4.653  0.2974  0.0654 -0.4847
 7994SOL    HW135618   1.155   1.193   4.713  1.2246 -0.6055 -1.3081
 7994SOL    HW235619   1.072   1.299   4.685  0.1220 -1.2163  0.3269
 7995SOL     OW35620   0.366   1.699   6.485  0.3535 -0.2257  0.7978
 7995SOL    HW135621   0.324   1.704   6.399  2.9145 -1.1893 -0.5255
 7995SOL    HW235622   0.365   1.606   6.504  0.2157  0.2840  3.3156
 7996SOL     OW35623   1.891   1.072   9.522  0.6640  0.6883 -0.6106
 7996SOL    HW135624   1.900   0.984   9.558 -0.8207 -0.0775 -2.1018
 7996SOL    HW235625   1.812   1.101   9.568 -1.2392 -4.6758 -0.4550
 7997SOL     OW35626   1.638   4.702   5.179  0.0364 -0.2864 -0.5252
 7997SOL    HW135627   1.617   4.638   5.247  0.4367  1.8706  1.6323
 7997SOL    HW235628   1.561   0.021   5.171  1.1319  1.5645  2.1952
 7998SOL     OW35629   2.121   4.440   4.048  0.8420 -0.0023 -0.3462
 7998SOL    HW135630   2.146   4.517   4.099  2.3594 -0.0531 -1.0081
 7998SOL    HW235631   2.073   4.389   4.113 -1.2137  1.8731 -0.3966
 7999SOL     OW35632   2.223   2.496   1.247  0.2474 -0.1081  0.2545
 7999SOL    HW135633   2.316   2.472   1.254  0.8759  2.1842 -0.3382
 7999SOL    HW235634   2.226   2.524   1.156 -0.4480 -3.2376 -0.7447
 8000SOL     OW35635   0.594   4.013  15.333 -0.1330  0.3287  0.5112
 8000SOL    HW135636   0.524   3.958  15.296  0.4046  0.3198 -0.4824
 8000SOL    HW235637   0.563   4.099  15.307  2.3129  1.3861  1.0918
 8001SOL     OW35638   4.292   3.101   7.654 -0.1462  0.0868  0.4288
 8001SOL    HW135639   4.310   3.195   7.648 -2.6100  0.5188 -0.1739
 8001SOL    HW235640   4.199   3.098   7.634  0.0287  2.9094 -0.7868
 8002SOL     OW35641   4.206   4.054   5.841 -0.5112  0.3655 -0.4756
 8002SOL    HW135642   4.181   4.069   5.932  0.3956 -0.3213 -0.1150
 8002SOL    HW235643   4.169   3.966   5.831  0.3007 -0.1303  0.8287
 8003SOL     OW35644   4.449   3.287   5.045 -0.1915 -0.9069  0.2645
 8003SOL    HW135645   4.536   3.262   5.015 -0.2325 -1.9967  1.0579
 8003SOL    HW235646   4.459   3.365   5.099  0.8236 -1.1143  0.3734
 8004SOL     OW35647   1.264   0.932   2.517  0.2069  0.5969  0.8280
 8004SOL    HW135648   1.342   0.918   2.571  0.1819  0.1735  0.7565
 8004SOL    HW235649   1.265   0.850   2.467  0.7823  0.6105  0.8121
 8005SOL     OW35650   3.748   0.923   8.343  0.1930 -0.0095  0.0774
 8005SOL    HW135651   3.673   0.926   8.284  1.3322  0.4327 -1.3192
 8005SOL    HW235652   3.787   0.836   8.331  2.9238  1.4009 -1.2948
 8006SOL     OW35653   2.656   3.756   1.347 -0.0022  0.0140  0.3936
 8006SOL    HW135654   2.680   3.665   1.334 -0.6435  0.0029 -0.6745
 8006SOL    HW235655   2.607   3.773   1.266  0.5126 -0.4227 -0.0103
 8007SOL     OW35656   3.608   1.157  15.860 -0.5155  0.0405 -1.0049
 8007SOL    HW135657   3.675   1.146  15.927 -1.3114  1.8192  0.0830
 8007SOL    HW235658   3.534   1.120  15.908 -0.1932  0.6907 -0.0091
 8008SOL     OW35659   0.296   2.786  12.425 -0.1544  0.1000  0.4299
 8008SOL    HW135660   0.373   2.816  12.377 -0.9607  0.4691 -0.6481
 8008SOL    HW235661   0.336   2.740  12.499  1.9386  2.7637  0.9510
 8009SOL     OW35662   0.743   0.451   2.397 -0.0370  0.7811  0.5419
 8009SOL    HW135663   0.666   0.506   2.409 -0.4421  0.6067 -1.2109
 8009SOL    HW235664   0.709   0.396   2.326  0.4463  0.3243  0.6617
 8010SOL     OW35665   1.279   2.428   3.334 -0.1189  0.1579 -0.3337
 8010SOL    HW135666   1.201   2.387   3.297  1.0020 -1.3904 -0.9777
 8010SOL    HW235667   1.258   2.433   3.427  1.1371 -0.3755 -0.0258
 8011SOL     OW35668   0.818   2.997   4.632 -0.1622  0.0097 -0.7796
 8011SOL    HW135669   0.895   3.005   4.688  0.7952 -0.5624 -2.0154
 8011SOL    HW235670   0.849   3.019   4.544 -0.8910  2.1246 -0.4927
 8012SOL     OW35671   3.763   1.966  10.870 -0.3306 -0.4091 -0.4454
 8012SOL    HW135672   3.671   1.949  10.891 -0.2369 -1.8099 -1.2014
 8012SOL    HW235673   3.773   1.889  10.815 -1.0576  0.8967 -2.3833
 8013SOL     OW35674   0.692   1.853   7.759 -0.0052 -0.1128  0.0627
 8013SOL    HW135675   0.715   1.945   7.743  0.4861 -0.6252 -2.2246
 8013SOL    HW235676   0.741   1.811   7.687  0.4833  0.4443  0.0690
 8014SOL     OW35677   0.298   0.900  16.215  0.2962  0.7674  0.3401
 8014SOL    HW135678   0.372   0.937  16.166  0.5642 -1.1382 -0.6966
 8014SOL    HW235679   0.279   0.820  16.165 -0.0042  1.5968 -0.8597
 8015SOL     OW35680   3.444   2.528   1.090  0.4578 -0.2788  0.3061
 8015SOL    HW135681   3.517   2.491   1.041  0.1303  0.2120 -0.5506
 8015SOL    HW235682   3.374   2.527   1.025  0.7572 -1.5178 -0.0021
 8016SOL     OW35683   0.663   1.653   6.091 -0.0694  0.0132 -0.0781
 8016SOL    HW135684   0.592   1.669   6.029 -0.1034 -0.5666 -0.1853
 8016SOL    HW235685   0.670   1.747   6.112  2.4047  0.0810 -1.2931
 8017SOL     OW35686   1.939   3.168   3.946 -0.4961  0.3105  0.0632
 8017SOL    HW135687   2.002   3.217   3.997  1.0280 -1.4788 -0.1096
 8017SOL    HW235688   1.966   3.193   3.857  1.4486  2.7042  1.3374
 8018SOL     OW35689   0.938   0.748   1.507  0.1408 -0.3142 -0.4247
 8018SOL    HW135690   0.934   0.681   1.576  0.6814 -0.3453 -0.4272
 8018SOL    HW235691   1.020   0.786   1.538  1.6897 -2.1363 -2.3562
 8019SOL     OW35692   2.918   2.935   8.456 -0.0730 -0.2841  0.1118
 8019SOL    HW135693   2.890   2.964   8.543  2.4049  0.3456  0.7081
 8019SOL    HW235694   2.998   2.988   8.453 -0.3936  0.2936  1.8817
 8020SOL     OW35695   0.716   1.733   1.706 -0.0202  0.0242 -0.1633
 8020SOL    HW135696   0.633   1.716   1.750 -0.0908  2.6020  0.7046
 8020SOL    HW235697   0.699   1.677   1.631 -0.1888 -1.1202  0.7330
 8021SOL     OW35698   0.457   0.052   4.479 -1.0016 -0.6958  0.0016
 8021SOL    HW135699   0.410   0.104   4.415 -1.7231 -0.3918  0.7833
 8021SOL    HW235700   0.396   0.070   4.550  1.2971  1.2379  1.5010
 8022SOL     OW35701   1.946   2.408  11.905  0.6465  0.1259  0.0024
 8022SOL    HW135702   1.943   2.380  11.996 -0.8304  1.6165  0.4135
 8022SOL    HW235703   2.019   2.356  11.871  1.1191 -0.9335  2.6723
 8023SOL     OW35704   4.502   2.221   4.466 -0.2267  0.6822  0.0433
 8023SOL    HW135705   4.479   2.175   4.547  3.2517  0.5602  0.9419
 8023SOL    HW235706   4.433   2.193   4.406 -0.1740  0.7637 -0.0552
 8024SOL     OW35707   2.645   4.354  14.807 -0.3927 -0.5402  0.2091
 8024SOL    HW135708   2.597   4.398  14.737 -1.9107  0.4724  1.8842
 8024SOL    HW235709   2.573   4.339  14.869 -1.7679  3.8168 -0.3266
 8025SOL     OW35710   0.299   2.462   3.178  0.5734  0.2833  0.0138
 8025SOL    HW135711   0.257   2.408   3.244  0.3730  1.2192  0.6494
 8025SOL    HW235712   0.381   2.412   3.182 -0.5982 -1.5892  0.5662
 8026SOL     OW35713   1.405   1.241   2.723  0.5404  0.2495 -0.9214
 8026SOL    HW135714   1.461   1.300   2.673  1.4814 -0.8385 -1.1669
 8026SOL    HW235715   1.314   1.249   2.695 -0.2698 -0.5459  1.4353
 8027SOL     OW35716   3.064   4.215   3.521 -0.4517 -0.8697  0.2684
 8027SOL    HW135717   2.980   4.260   3.532  0.0226 -0.4280  2.0278
 8027SOL    HW235718   3.111   4.274   3.462 -2.7535 -0.1415 -0.8330
 8028SOL     OW35719   2.437   4.051   3.725 -0.2390 -0.0897 -0.0499
 8028SOL    HW135720   2.465   4.019   3.640  0.3951 -1.0347  0.5222
 8028SOL    HW235721   2.418   4.142   3.703  0.9379  0.5884  1.7490
 8029SOL     OW35722   1.542   1.421  16.011 -0.6198 -0.0027 -0.4146
 8029SOL    HW135723   1.493   1.475  16.073 -0.2855  0.8343 -0.8841
 8029SOL    HW235724   1.627   1.430  16.056  0.7874 -2.6950 -2.4968
 8030SOL     OW35725   1.706   1.321   9.589 -0.5311  0.3289 -0.3050
 8030SOL    HW135726   1.754   1.348   9.667  2.0888 -2.0577 -1.0814
 8030SOL    HW235727   1.698   1.410   9.554 -0.7104  0.8741  1.0978
 8031SOL     OW35728   2.204   4.059   4.215 -0.1712 -0.1719  0.1247
 8031SOL    HW135729   2.150   4.010   4.276 -1.2794  0.4878 -0.3328
 8031SOL    HW235730   2.291   4.036   4.248 -0.2298 -0.0756  0.3443
 8032SOL     OW35731   3.827   3.261  10.273 -0.2082  0.2214 -0.4284
 8032SOL    HW135732   3.873   3.179  10.289  0.9465  0.8902 -0.3266
 8032SOL    HW235733   3.899   3.313  10.236 -0.4982  0.4646 -0.6585
 8033SOL     OW35734   3.073   0.175  11.846 -0.6730  0.6176 -0.0606
 8033SOL    HW135735   3.145   0.230  11.817 -1.0901  2.0571  1.6093
 8033SOL    HW235736   3.024   0.218  11.916 -0.2132 -1.2159  1.4025
 8034SOL     OW35737   4.040   4.341   2.584  0.1751 -1.5529  0.3278
 8034SOL    HW135738   4.098   4.401   2.631 -0.1948 -0.2556 -0.8554
 8034SOL    HW235739   3.959   4.358   2.634 -0.0780 -2.3823  0.1938
 8035SOL     OW35740   3.879   2.096   9.411 -0.1783  1.1889 -0.7101
 8035SOL    HW135741   3.936   2.020   9.398  0.5037  1.4898  0.4431
 8035SOL    HW235742   3.861   2.119   9.320  1.9470  1.3038 -1.1150
 8036SOL     OW35743   4.214   0.433  14.263  0.1783 -0.1617  0.3721
 8036SOL    HW135744   4.149   0.503  14.253  0.0501 -0.2986  0.2459
 8036SOL    HW235745   4.154   0.359  14.278 -1.9304  1.4903  0.1392
 8037SOL     OW35746   4.492   3.733   8.678 -0.3697  0.0438 -0.1100
 8037SOL    HW135747   4.503   3.654   8.731  1.9583  1.0231  0.8578
 8037SOL    HW235748   4.441   3.695   8.606  1.6073  1.0142 -2.0137
 8038SOL     OW35749   0.279   3.293  14.362 -0.5573 -0.9234 -0.4379
 8038SOL    HW135750   0.314   3.242  14.435 -0.2939 -1.7749 -1.1591
 8038SOL    HW235751   0.341   3.365  14.351 -0.7518 -0.4482  1.5945
 8039SOL     OW35752   3.547   3.943   6.922  0.4546 -0.3729 -0.0773
 8039SOL    HW135753   3.478   3.999   6.957  1.7959  0.6650  0.9026
 8039SOL    HW235754   3.519   3.856   6.948  0.3089  0.1229  1.4095
 8040SOL     OW35755   0.762   1.023   7.397  0.0140  0.1160 -0.6546
 8040SOL    HW135756   0.842   1.009   7.348  0.4643 -0.0347  0.1162
 8040SOL    HW235757   0.802   1.015   7.484 -3.0091 -0.9367  0.6361
 8041SOL     OW35758   2.787   3.446   8.863 -0.1517  0.3741  0.3646
 8041SOL    HW135759   2.720   3.473   8.926 -0.8312  1.7235 -0.9354
 8041SOL    HW235760   2.847   3.520   8.862 -1.9378  1.8213 -0.5633
 8042SOL     OW35761   2.807   3.919  12.961 -0.6254 -0.6849 -0.3470
 8042SOL    HW135762   2.782   3.955  13.046  1.1328 -0.3423  0.0370
 8042SOL    HW235763   2.831   3.998  12.913 -0.2276 -1.1209 -0.8747
 8043SOL     OW35764   3.619   2.710   5.181 -0.0447 -0.3297 -0.0961
 8043SOL    HW135765   3.598   2.753   5.098 -0.9155 -2.2948 -0.8805
 8043SOL    HW235766   3.532   2.689   5.215  0.5714 -0.3628  1.4785
 8044SOL     OW35767   3.885   2.556   6.868 -0.0402  0.1998 -0.0121
 8044SOL    HW135768   3.819   2.617   6.836 -0.5253 -0.1063  0.4145
 8044SOL    HW235769   3.951   2.549   6.798 -0.7903  0.8473 -0.7807
 8045SOL     OW35770   0.163   1.755   0.689 -0.2557  0.0847  0.3665
 8045SOL    HW135771   0.247   1.763   0.736  0.5326 -1.3778 -0.7759
 8045SOL    HW235772   0.154   1.661   0.708  0.9277 -0.0134  0.4465
 8046SOL     OW35773   0.454   4.438  16.676  0.2062 -0.7552  0.2495
 8046SOL    HW135774   0.374   4.470  16.635  1.4666  0.5653 -1.1988
 8046SOL    HW235775   0.521   4.465  16.613  1.1401 -2.7039  0.3992
 8047SOL     OW35776   3.814   2.999   1.628  0.5869  0.5896  0.1474
 8047SOL    HW135777   3.734   3.034   1.588 -0.6587 -0.5775  1.6209
 8047SOL    HW235778   3.854   2.946   1.559 -1.2416 -2.9081  1.7780
 8048SOL     OW35779   2.140   0.518   4.807  0.0835 -0.0736 -0.3572
 8048SOL    HW135780   2.129   0.612   4.824  1.4797  0.0363 -0.0602
 8048SOL    HW235781   2.218   0.526   4.751 -0.2874  0.7008 -0.7624
 8049SOL     OW35782   4.451   1.837  14.349  0.2039 -0.2124  0.1656
 8049SOL    HW135783   4.390   1.858  14.279 -0.3685  1.5418  1.1865
 8049SOL    HW235784   4.536   1.857  14.309 -0.6049  3.3654  0.2153
 8050SOL     OW35785   1.182   4.519   6.754 -1.2083 -0.2058 -0.2938
 8050SOL    HW135786   1.248   4.529   6.822 -1.9060 -1.1496  0.5351
 8050SOL    HW235787   1.135   4.439   6.779  1.7544 -1.6578  0.6370
 8051SOL     OW35788   1.072   0.939   3.829  0.6256 -0.0964 -0.2606
 8051SOL    HW135789   1.029   1.023   3.845  3.4204  1.4446 -0.9160
 8051SOL    HW235790   1.131   0.935   3.904  0.6913 -3.1875 -0.4609
 8052SOL     OW35791   0.767   0.597  17.697  0.0836  0.3180  0.5623
 8052SOL    HW135792   0.799   0.516  17.657 -0.6476 -0.3908  1.4159
 8052SOL    HW235793   0.834   0.656  17.662  0.3583  0.0113  0.5762
 8053SOL     OW35794   4.247   2.937  15.096 -0.1701  0.4432 -0.3550
 8053SOL    HW135795   4.228   2.953  15.189 -2.7611  0.2211 -0.8537
 8053SOL    HW235796   4.275   3.021  15.061 -0.3227  1.5051  2.0537
 8054SOL     OW35797   4.504   4.170   6.439 -0.4028  0.7905 -0.2688
 8054SOL    HW135798   4.594   4.200   6.449 -0.5962  1.1051  0.5405
 8054SOL    HW235799   4.519   4.117   6.361 -1.5247 -2.1667  1.5524
 8055SOL     OW35800   1.437   2.157   2.321  0.0245  0.4852  0.3327
 8055SOL    HW135801   1.481   2.073   2.335 -0.9759  0.2228  1.9356
 8055SOL    HW235802   1.350   2.130   2.293  0.3715  1.1409 -1.3207
 8056SOL     OW35803   1.421   0.429   7.641  0.2422  0.3131  0.0217
 8056SOL    HW135804   1.325   0.428   7.646  0.2366 -0.1734 -0.1839
 8056SOL    HW235805   1.440   0.458   7.730  0.7539 -0.3987  0.1400
 8057SOL     OW35806   2.155   0.134  13.303 -0.1724 -0.5391  0.2409
 8057SOL    HW135807   2.063   0.124  13.277 -0.2600  1.3902 -0.2010
 8057SOL    HW235808   2.186   0.107  13.216  0.2234 -0.2510  0.2911
 8058SOL     OW35809   1.840   0.974   6.446  0.3633  0.0743  0.2437
 8058SOL    HW135810   1.889   0.895   6.470  0.8163  0.1854 -0.3089
 8058SOL    HW235811   1.881   1.035   6.507 -0.4083 -0.0340  0.8661
 8059SOL     OW35812   2.076   2.413   3.954 -0.2427 -0.1872 -0.1904
 8059SOL    HW135813   2.077   2.379   4.043 -0.2701  2.4883  0.8086
 8059SOL    HW235814   1.994   2.462   3.943  0.8045  1.9147  1.5438
 8060SOL     OW35815   4.158   4.667   3.650 -0.4342  0.4727 -0.5859
 8060SOL    HW135816   4.134   4.628   3.566 -0.8906 -1.0310  0.2514
 8060SOL    HW235817   4.240   4.622   3.669 -1.2652  0.1795  2.1692
 8061SOL     OW35818   1.140   2.383   5.027  0.2771  0.2234  0.0671
 8061SOL    HW135819   1.114   2.321   4.959  3.1999 -0.8719 -0.0644
 8061SOL    HW235820   1.233   2.362   5.041  0.3909  0.2062 -0.7028
 8062SOL     OW35821   3.678   1.725   1.507  0.0534 -0.2216 -0.2795
 8062SOL    HW135822   3.633   1.809   1.511  1.4904  0.6166 -2.1636
 8062SOL    HW235823   3.719   1.735   1.421 -0.8450  4.0089 -0.1732
 8063SOL     OW35824   3.583   2.779   2.978 -0.2184 -0.4428  0.3572
 8063SOL    HW135825   3.546   2.833   2.908  0.6212 -0.9005 -0.4503
 8063SOL    HW235826   3.504   2.778   3.032 -1.5789  1.1804 -1.5883
 8064SOL     OW35827   0.527   4.422   2.800  0.3799 -0.9689 -0.4495
 8064SOL    HW135828   0.440   4.396   2.769  0.9869 -1.5439 -1.6769
 8064SOL    HW235829   0.550   4.501   2.752 -1.3772  0.6782  1.3781
 8065SOL     OW35830   0.867   2.414   4.853 -0.2549 -0.1612 -0.7599
 8065SOL    HW135831   0.902   2.333   4.891 -0.2908 -0.3967 -1.2280
 8065SOL    HW235832   0.893   2.398   4.762 -0.5348 -1.7444 -0.5576
 8066SOL     OW35833   1.943   4.424   8.111 -0.4229  0.1747 -0.1724
 8066SOL    HW135834   1.993   4.505   8.120 -0.2889  0.4481 -3.1917
 8066SOL    HW235835   1.856   4.464   8.119 -0.8905 -0.3176 -2.5739
 8067SOL     OW35836   1.362   4.182  17.703 -0.7080  0.4622 -0.1119
 8067SOL    HW135837   1.426   4.187  17.633  0.3863 -0.1168  0.8533
 8067SOL    HW235838   1.410   4.209   0.036 -3.4431  0.3527  1.6259
 8068SOL     OW35839   2.772   0.969   4.965 -0.0953 -0.7905  0.0854
 8068SOL    HW135840   2.747   0.946   4.875  0.4069 -1.8724  0.2236
 8068SOL    HW235841   2.868   0.965   4.959 -0.0517  2.0243 -1.3286
 8069SOL     OW35842   2.605   2.202   1.420 -0.1583 -0.3638 -0.0860
 8069SOL    HW135843   2.697   2.202   1.443 -0.3721  2.0959  0.7537
 8069SOL    HW235844   2.571   2.132   1.476  0.8191 -0.2622  0.6201
 8070SOL     OW35845   2.740   3.740   4.804 -0.5257 -0.5121  0.0107
 8070SOL    HW135846   2.749   3.688   4.884  2.2082  2.7012  1.8452
 8070SOL    HW235847   2.821   3.711   4.762 -1.5993  0.0621 -2.4206
 8071SOL     OW35848   3.063   1.925  17.134 -0.6965  0.1481 -0.1700
 8071SOL    HW135849   3.080   1.909  17.041  2.7079  1.3588  0.2660
 8071SOL    HW235850   3.073   2.020  17.130  0.5759  0.0550  0.9773
 8072SOL     OW35851   0.640   2.104   1.816 -0.5122  0.2168  0.0378
 8072SOL    HW135852   0.598   2.180   1.777 -1.3529 -0.9558 -1.3715
 8072SOL    HW235853   0.721   2.137   1.853 -0.3860  0.7893 -0.7559
 8073SOL     OW35854   1.155   4.438   2.967  0.2594  0.2170 -0.0027
 8073SOL    HW135855   1.143   4.533   2.957  2.4297  0.6748  1.8147
 8073SOL    HW235856   1.069   4.406   2.997 -0.5800  0.7144 -1.8778
 8074SOL     OW35857   3.202   0.914   6.536  0.0965  0.7797  0.2202
 8074SOL    HW135858   3.240   0.846   6.480 -0.0140 -0.2513  1.3758
 8074SOL    HW235859   3.126   0.926   6.480 -0.4117  1.1534  0.9894
 8075SOL     OW35860   3.996   2.697   7.255  0.3602  0.4967  0.0131
 8075SOL    HW135861   4.040   2.625   7.299 -1.5532  0.4921  1.9777
 8075SOL    HW235862   4.021   2.682   7.164  1.9403  0.6197  0.4272
 8076SOL     OW35863   0.677   1.250   2.077  0.6938 -0.1962  0.1129
 8076SOL    HW135864   0.766   1.251   2.113  0.6046  0.7899  0.2925
 8076SOL    HW235865   0.662   1.158   2.098 -0.2503  0.0429  0.4542
 8077SOL     OW35866   4.649   1.702   6.924 -0.0068  0.1280 -0.5313
 8077SOL    HW135867   4.718   1.648   6.885 -1.1827  0.3341 -2.9087
 8077SOL    HW235868   4.653   1.782   6.871  1.9210 -1.0444 -2.1655
 8078SOL     OW35869   2.372   2.171   1.647 -0.6772  0.3404 -0.4896
 8078SOL    HW135870   2.436   2.179   1.718  0.8564 -0.7159 -1.7624
 8078SOL    HW235871   2.311   2.241   1.671 -1.1103 -0.6568  1.3031
 8079SOL     OW35872   4.725   0.050   3.717  0.1811 -0.0463  0.2224
 8079SOL    HW135873   0.036   0.131   3.735  0.3525 -0.1390  0.1866
 8079SOL    HW235874   0.047   4.718   3.748 -0.5511 -1.6094 -1.8528
 8080SOL     OW35875   2.016   3.510  14.313  0.3850  0.1804  0.4197
 8080SOL    HW135876   2.069   3.535  14.237  2.0969  0.4855  1.7084
 8080SOL    HW235877   1.944   3.573  14.305  0.5930  0.2541 -0.9668
 8081SOL     OW35878   4.650   1.931   3.630 -0.3067 -0.1886  0.3951
 8081SOL    HW135879   4.727   1.879   3.651  0.9468  1.0576 -1.1210
 8081SOL    HW235880   4.671   2.008   3.684  1.4683  0.7707 -1.6865
 8082SOL     OW35881   0.011   1.977   9.625 -0.5126 -0.3434  0.4142
 8082SOL    HW135882   4.737   2.005   9.534 -1.2127 -0.0310  0.5931
 8082SOL    HW235883   4.700   1.894   9.625 -0.6378 -0.2719  0.0762
 8083SOL     OW35884   1.209   1.487   3.360 -0.4930  0.5571  0.1909
 8083SOL    HW135885   1.128   1.500   3.409 -1.8003 -2.1887 -1.1886
 8083SOL    HW235886   1.193   1.401   3.320 -0.3658 -0.4144  2.2287
 8084SOL     OW35887   2.441   0.830  12.424  0.3114  0.2433 -0.4701
 8084SOL    HW135888   2.499   0.886  12.476  0.3232  0.7745 -1.0694
 8084SOL    HW235889   2.391   0.904  12.390 -1.2363 -0.8515 -0.5952
 8085SOL     OW35890   3.681   1.638  16.901 -0.5224  0.3653  0.0293
 8085SOL    HW135891   3.777   1.639  16.903 -0.4703  0.1752 -2.6990
 8085SOL    HW235892   3.658   1.632  16.809 -1.0508 -0.2382  0.2013
 8086SOL     OW35893   4.494   1.724  16.987  0.3144  0.1584 -0.6989
 8086SOL    HW135894   4.479   1.775  17.066 -1.0704 -1.0797 -0.1661
 8086SOL    HW235895   4.589   1.717  16.982  0.3484 -1.4917  2.6067
 8087SOL     OW35896   3.413   1.440   8.281  0.0759  0.3512 -0.0861
 8087SOL    HW135897   3.319   1.428   8.266 -0.0514  1.4304 -0.0995
 8087SOL    HW235898   3.426   1.497   8.205  0.3241  2.5788  1.6570
 8088SOL     OW35899   0.900   4.575   9.437  0.3272 -0.4447  0.5600
 8088SOL    HW135900   0.968   4.568   9.370 -1.5275 -1.5773 -1.1926
 8088SOL    HW235901   0.853   4.495   9.416 -1.3841  1.3820 -2.5961
 8089SOL     OW35902   4.290   3.458   5.308 -0.1236  0.4907  0.2333
 8089SOL    HW135903   4.236   3.473   5.230  0.0595 -2.0716 -0.4096
 8089SOL    HW235904   4.369   3.503   5.278 -0.6577  0.5874 -1.0382
 8090SOL     OW35905   4.442   3.221   4.340 -0.2713 -0.5309  0.5777
 8090SOL    HW135906   4.425   3.139   4.386 -1.7278 -0.1134  0.7679
 8090SOL    HW235907   4.388   3.283   4.389 -0.6044  1.2874 -2.0442
 8091SOL     OW35908   3.626   0.805   4.102  0.6850 -0.1993  0.4938
 8091SOL    HW135909   3.704   0.800   4.046 -1.5123  0.1069 -2.6244
 8091SOL    HW235910   3.563   0.816   4.031 -0.3941 -2.5163  1.1090
 8092SOL     OW35911   0.864   2.043   6.585 -0.9510  0.1463  0.1401
 8092SOL    HW135912   0.848   2.122   6.637 -2.8735  0.0599 -0.3273
 8092SOL    HW235913   0.790   1.992   6.618  0.6796 -1.7131  0.8475
 8093SOL     OW35914   4.484   3.325   8.460 -0.2592  0.2360 -0.1351
 8093SOL    HW135915   4.465   3.347   8.368  1.9172  1.0171 -0.4031
 8093SOL    HW235916   4.427   3.393   8.496 -2.2557 -1.8006  0.5174
 8094SOL     OW35917   2.775   2.365   1.775  0.2710 -0.3350  0.4294
 8094SOL    HW135918   2.767   2.280   1.731  1.2822  0.2072 -0.7826
 8094SOL    HW235919   2.690   2.405   1.755  1.6017  1.1225 -2.3943
 8095SOL     OW35920   0.673   0.887   3.475 -0.1365  0.8168  0.5016
 8095SOL    HW135921   0.724   0.901   3.555 -0.8445  0.2790  1.0386
 8095SOL    HW235922   0.610   0.820   3.500 -1.1227  1.5396 -0.0806
 8096SOL     OW35923   2.128   3.604   2.999 -0.3004  0.2787  0.2222
 8096SOL    HW135924   2.189   3.676   2.984 -0.9646  0.7001 -0.4555
 8096SOL    HW235925   2.147   3.548   2.924 -0.2877 -0.0651  0.4821
 8097SOL     OW35926   2.832   1.738   4.138  0.8715  0.3033 -0.2305
 8097SOL    HW135927   2.902   1.754   4.075  0.0278 -2.0106 -1.7932
 8097SOL    HW235928   2.800   1.819   4.177 -3.8694 -1.2914 -0.7423
 8098SOL     OW35929   3.066   1.169   2.558 -0.1748 -0.0585 -0.2927
 8098SOL    HW135930   3.017   1.252   2.557 -0.0235  0.0270 -0.9618
 8098SOL    HW235931   3.008   1.108   2.513 -0.6599 -0.2175  0.5547
 8099SOL     OW35932   3.237   0.104   2.177  0.1686  0.0109 -0.2939
 8099SOL    HW135933   3.152   0.137   2.206 -0.4726 -0.4484 -1.6095
 8099SOL    HW235934   3.251   0.036   2.243 -2.2415 -0.9951 -0.8071
 8100SOL     OW35935   0.903   3.679   8.400  0.3197  0.1384 -0.0001
 8100SOL    HW135936   0.867   3.605   8.449  0.5387 -0.8094 -1.2947
 8100SOL    HW235937   0.836   3.748   8.403 -0.0240 -0.1508 -1.1576
 8101SOL     OW35938   0.335   2.420  17.039 -0.4065 -0.6956 -0.1388
 8101SOL    HW135939   0.295   2.485  17.097 -0.6285 -1.9969  1.1520
 8101SOL    HW235940   0.429   2.435  17.050  0.0855 -2.4833 -1.9015
 8102SOL     OW35941   0.283   0.326   8.341 -0.2923 -0.0846  0.2366
 8102SOL    HW135942   0.285   0.422   8.341  2.4634 -0.1650  0.2814
 8102SOL    HW235943   0.208   0.304   8.397 -0.6631 -0.2589 -0.3247
 8103SOL     OW35944   3.514   3.339   9.285 -0.2661  0.4804  0.7878
 8103SOL    HW135945   3.449   3.338   9.215 -0.1622  0.8237  0.6869
 8103SOL    HW235946   3.472   3.275   9.343 -2.6460  0.0431 -1.4313
 8104SOL     OW35947   1.897   1.815   7.189  0.4085 -0.5285  0.4505
 8104SOL    HW135948   1.968   1.757   7.162  0.7554 -0.6296  1.5696
 8104SOL    HW235949   1.940   1.864   7.259  1.1565  1.5066 -1.4627
 8105SOL     OW35950   0.818   2.046   0.772  0.1043 -0.2467  0.1308
 8105SOL    HW135951   0.737   2.000   0.749 -0.4503  1.9524 -2.2075
 8105SOL    HW235952   0.803   2.058   0.866 -0.6061  0.4927 -0.0787
 8106SOL     OW35953   3.616   2.933   1.394 -0.3279  0.2696 -0.3412
 8106SOL    HW135954   3.711   2.936   1.380 -0.0931  1.0066  1.4871
 8106SOL    HW235955   3.573   2.978   1.321 -0.2592 -1.0594 -1.1944
 8107SOL     OW35956   1.770   2.024   4.732 -0.1942 -0.1985 -0.3966
 8107SOL    HW135957   1.726   2.101   4.768 -0.3680 -0.5518  0.1490
 8107SOL    HW235958   1.721   2.013   4.650 -1.0648 -0.7395  0.2007
 8108SOL     OW35959   0.286   0.854   2.796  0.4277 -0.0315  0.3083
 8108SOL    HW135960   0.376   0.880   2.815  0.4715  0.3077 -0.3607
 8108SOL    HW235961   0.243   0.840   2.881 -0.6823 -0.8949 -0.4032
 8109SOL     OW35962   1.688   3.695   5.903  0.4146 -0.6112 -0.0409
 8109SOL    HW135963   1.751   3.674   5.971  0.7113  0.3918 -0.0144
 8109SOL    HW235964   1.695   3.791   5.905  1.8961 -0.7056 -0.6416
 8110SOL     OW35965   1.240   2.010   7.913 -0.2934 -0.1927 -0.1676
 8110SOL    HW135966   1.153   1.996   7.951  0.0119  0.4538  0.7561
 8110SOL    HW235967   1.264   2.034   8.002  1.8664 -2.7289 -0.0656
 8111SOL     OW35968   3.454   3.821   4.639 -0.3110  0.0086 -0.2707
 8111SOL    HW135969   3.463   3.916   4.642  1.4425 -0.2017  0.9114
 8111SOL    HW235970   3.442   3.812   4.544  1.1079  0.3247 -0.4797
 8112SOL     OW35971   0.423   3.023   3.809 -0.3399  0.3938  0.0167
 8112SOL    HW135972   0.385   3.109   3.827 -0.2047  1.0663 -2.9103
 8112SOL    HW235973   0.344   2.969   3.803 -0.3395  0.2713  1.1219
 8113SOL     OW35974   1.301   4.252   3.707  0.1080  0.8018 -0.2171
 8113SOL    HW135975   1.301   4.271   3.800 -2.4786 -1.0135  0.1836
 8113SOL    HW235976   1.345   4.331   3.676 -3.8381  2.1727 -2.3444
 8114SOL     OW35977   3.630   2.255  14.510  0.1685 -0.1074  0.2764
 8114SOL    HW135978   3.665   2.344  14.510 -1.2500  0.4371  1.1671
 8114SOL    HW235979   3.649   2.228  14.420 -0.2947 -0.7741  0.3790
 8115SOL     OW35980   1.614   0.046   8.894 -0.4151 -0.4448 -0.1169
 8115SOL    HW135981   1.520   0.029   8.890 -0.9841  2.1915  1.9349
 8115SOL    HW235982   1.635   4.734   8.974  0.4520  0.0619 -0.0296
 8116SOL     OW35983   0.399   4.107   6.844 -0.0757  0.4761 -0.6511
 8116SOL    HW135984   0.446   4.024   6.837 -3.1277 -1.2086 -0.6721
 8116SOL    HW235985   0.309   4.082   6.827 -0.4153  1.1783  0.1293
 8117SOL     OW35986   1.107   2.432  12.858  0.3128  0.0522 -0.2459
 8117SOL    HW135987   1.027   2.442  12.910  0.2429 -1.1733 -0.1391
 8117SOL    HW235988   1.067   2.441  12.771  2.6993 -1.8973 -1.5194
 8118SOL     OW35989   4.302   4.345   4.968 -0.1489 -0.3880 -0.0452
 8118SOL    HW135990   4.309   4.336   5.063 -0.3310  3.4225  0.3253
 8118SOL    HW235991   4.212   4.314   4.963  0.4027 -1.9286 -0.6280
 8119SOL     OW35992   2.626   0.435   4.759 -0.3296 -0.0132  0.3825
 8119SOL    HW135993   2.686   0.509   4.753 -0.0595 -0.0090  2.9503
 8119SOL    HW235994   2.583   0.454   4.842  1.0753  1.4656  0.7664
 8120SOL     OW35995   1.287   2.591   8.597 -0.3277  0.0643  0.2929
 8120SOL    HW135996   1.238   2.669   8.570 -1.1869  0.4629  2.9840
 8120SOL    HW235997   1.251   2.574   8.685  0.5282 -0.1367  0.5987
 8121SOL     OW35998   0.143   0.861   6.902 -0.1273 -0.1086  0.1567
 8121SOL    HW135999   0.222   0.847   6.955  0.0452  0.9140  0.1702
 8121SOL    HW236000   0.170   0.937   6.850  1.3615  0.2253  1.4234
 8122SOL     OW36001   3.568   4.733  15.764  0.4776 -0.4929 -0.3478
 8122SOL    HW136002   3.570   4.648  15.808 -0.9831 -0.0697  0.5264
 8122SOL    HW236003   3.581   4.723  15.669  1.6779  0.5752 -0.3131
 8123SOL     OW36004   0.186   4.404   6.428 -0.1325 -0.0877  0.5300
 8123SOL    HW136005   0.201   4.431   6.518 -2.2082  1.7350  0.3115
 8123SOL    HW236006   0.181   4.490   6.386 -0.9141 -1.3207 -1.9294
 8124SOL     OW36007   1.224   1.813   5.471 -0.3099 -0.4683 -0.1314
 8124SOL    HW136008   1.129   1.807   5.456 -0.2410 -0.5741 -0.5379
 8124SOL    HW236009   1.259   1.782   5.387  2.1947 -2.2779  1.5986
 8125SOL     OW36010   4.327   1.293   8.770 -0.7295 -0.3807  0.2709
 8125SOL    HW136011   4.326   1.382   8.805  0.4761  0.3187 -1.4865
 8125SOL    HW236012   4.301   1.306   8.679 -1.2601 -1.9298  0.1910
 8126SOL     OW36013   2.457   4.667  16.214 -0.7562 -0.3029 -0.2280
 8126SOL    HW136014   2.459   4.573  16.236  0.1236 -0.2805 -0.2518
 8126SOL    HW236015   2.501   4.658  16.130 -1.8965 -1.4769 -0.7077
 8127SOL     OW36016   0.236   3.454   6.413 -0.1676 -0.0954  0.0110
 8127SOL    HW136017   0.234   3.478   6.506 -0.2131  1.0629 -0.2912
 8127SOL    HW236018   0.148   3.486   6.392  0.4781  1.1581 -0.7684
 8128SOL     OW36019   2.362   0.093   8.296 -0.2964  0.6720 -0.2337
 8128SOL    HW136020   2.408   0.155   8.238  1.8521  0.7865  1.5995
 8128SOL    HW236021   2.306   0.151   8.346  0.8092  1.2590  0.3227
 8129SOL     OW36022   4.211   0.112   7.941 -0.3128  0.2546  0.5644
 8129SOL    HW136023   4.226   0.068   7.857  1.8195  1.0025  0.5589
 8129SOL    HW236024   4.301   0.113   7.972 -0.3726  0.5792  0.7306
 8130SOL     OW36025   3.584   1.327  15.178 -0.0051  0.3439 -0.2352
 8130SOL    HW136026   3.603   1.336  15.084 -0.4675  1.4292 -0.2311
 8130SOL    HW236027   3.559   1.419  15.193 -0.8861  0.0417  0.1380
 8131SOL     OW36028   2.236   3.079  11.641  0.6093 -0.2681 -0.2060
 8131SOL    HW136029   2.301   3.146  11.659  0.5056 -0.0724 -0.5575
 8131SOL    HW236030   2.189   3.082  11.724 -1.1020  1.0028 -1.2325
 8132SOL     OW36031   3.987   0.759   8.570  0.2132  0.4746  1.3604
 8132SOL    HW136032   3.933   0.741   8.493  1.5561 -1.4710  0.8813
 8132SOL    HW236033   4.047   0.685   8.571 -0.3918 -0.0541 -2.1711
 8133SOL     OW36034   3.605   4.463   7.022 -0.0335 -0.1330  0.3670
 8133SOL    HW136035   3.567   4.549   7.005 -1.8299 -1.3691 -1.7414
 8133SOL    HW236036   3.621   4.469   7.117 -0.7444  1.5059  0.3904
 8134SOL     OW36037   0.674   2.392   5.058  0.0850  0.0658 -0.2823
 8134SOL    HW136038   0.741   2.330   5.084 -0.6907  0.6384  3.0404
 8134SOL    HW236039   0.731   2.434   4.994  0.6408 -1.1609 -0.5966
 8135SOL     OW36040   3.334   0.019   4.844 -0.4992  0.7610  0.3363
 8135SOL    HW136041   3.361   0.089   4.903  2.1764 -0.7271  0.9113
 8135SOL    HW236042   3.421   4.726   4.817 -0.0221  1.6193  0.9365
 8136SOL     OW36043   1.894   0.312  12.986  0.0902 -0.4463 -0.2403
 8136SOL    HW136044   1.949   0.337  12.912  0.0288  0.2238 -0.0568
 8136SOL    HW236045   1.838   0.243  12.951  0.2177  0.6258 -2.5088
 8137SOL     OW36046   0.306   4.487  13.952  0.0733  0.3447  0.3565
 8137SOL    HW136047   0.290   4.559  14.013  0.4246  0.8885 -0.2046
 8137SOL    HW236048   0.263   4.512  13.871  0.0440 -1.7766 -0.2841
 8138SOL     OW36049   1.761   2.977   1.800 -0.3767  0.0768 -0.4588
 8138SOL    HW136050   1.707   2.898   1.799 -1.3793  0.7462 -0.3107
 8138SOL    HW236051   1.715   3.028   1.867  2.6461 -1.1548  2.5166
 8139SOL     OW36052   3.188   3.565   8.443 -0.0365  0.3125  0.2889
 8139SOL    HW136053   3.247   3.512   8.497  1.5720 -0.0302 -1.7726
 8139SOL    HW236054   3.135   3.500   8.398 -0.5426  0.2834  0.9272
 8140SOL     OW36055   0.077   3.323  10.891 -0.7166 -0.1365  0.2324
 8140SOL    HW136056   0.009   3.352  10.830 -2.5040 -1.9311  1.3502
 8140SOL    HW236057   0.095   3.404  10.938  0.6200  0.6125 -1.5743
 8141SOL     OW36058   2.154   2.498   5.669 -0.4767 -0.1217 -0.2724
 8141SOL    HW136059   2.113   2.413   5.685 -0.1168 -0.2548 -0.0471
 8141SOL    HW236060   2.233   2.501   5.723 -2.7705  0.3631  3.0522
 8142SOL     OW36061   2.693   1.435   7.834  0.0115 -0.2019  0.0595
 8142SOL    HW136062   2.626   1.442   7.901  2.0291  0.3029  2.0079
 8142SOL    HW236063   2.737   1.515   7.863 -1.6937  1.1401 -0.9978
 8143SOL     OW36064   1.717   4.313   2.133  0.4162  0.2477 -0.1558
 8143SOL    HW136065   1.754   4.240   2.082  1.0104  0.9006 -0.6684
 8143SOL    HW236066   1.627   4.282   2.127  0.9445 -1.2950 -0.1233
 8144SOL     OW36067   0.491   3.546  13.189  0.5300 -0.5889  0.2830
 8144SOL    HW136068   0.411   3.587  13.155  1.7559  0.3633 -1.4243
 8144SOL    HW236069   0.563   3.573  13.132 -0.5242 -1.1540 -1.3163
 8145SOL     OW36070   3.785   4.406  11.715  0.3311  0.1929  0.3102
 8145SOL    HW136071   3.799   4.337  11.779 -1.6455 -0.3819  0.1340
 8145SOL    HW236072   3.863   4.393  11.661  0.7201  2.3680  0.3614
 8146SOL     OW36073   2.543   2.990   8.079  0.2881  0.0430 -0.0162
 8146SOL    HW136074   2.477   2.967   8.145 -0.3711  0.0265 -0.6751
 8146SOL    HW236075   2.622   2.983   8.133  0.3413  2.8814  0.2736
 8147SOL     OW36076   4.029   4.023   5.146  0.1264  0.5122  0.0400
 8147SOL    HW136077   3.991   3.935   5.149 -0.6089  0.8933  1.3388
 8147SOL    HW236078   3.977   4.074   5.208  0.2478  1.6707 -0.8064
 8148SOL     OW36079   2.076   1.421   6.003  0.0991 -0.3988  0.3885
 8148SOL    HW136080   2.041   1.332   6.006  3.0281 -1.6324 -1.4821
 8148SOL    HW236081   1.993   1.468   6.001 -1.0825 -2.4612  2.4384
 8149SOL     OW36082   3.973   3.715   5.238  0.2203 -0.3078 -0.2266
 8149SOL    HW136083   3.908   3.653   5.206 -2.8876  1.5703  2.5027
 8149SOL    HW236084   3.939   3.716   5.327  0.4992  0.1192 -0.1245
 8150SOL     OW36085   1.098   2.176   4.827  0.1694 -0.0255 -0.9004
 8150SOL    HW136086   1.167   2.213   4.772 -0.1884  0.0174 -1.3190
 8150SOL    HW236087   1.128   2.090   4.858  2.7786  1.9031  1.8583
 8151SOL     OW36088   1.184   1.541  10.940 -0.1951 -0.8716  0.9842
 8151SOL    HW136089   1.171   1.616  10.998  1.9806  0.2281  0.0506
 8151SOL    HW236090   1.262   1.574  10.897 -0.2688 -0.1338  1.4134
 8152SOL     OW36091   1.098   3.699   8.933 -0.1753  0.0692  0.2426
 8152SOL    HW136092   1.021   3.732   8.980  0.2343  1.2319  0.0845
 8152SOL    HW236093   1.135   3.642   9.000  1.0431 -0.3002 -0.7695
 8153SOL     OW36094   2.402   1.013   2.470 -0.5550  0.4048  0.0866
 8153SOL    HW136095   2.432   1.061   2.393  2.1435 -1.4052 -0.0144
 8153SOL    HW236096   2.448   1.049   2.546  0.4804 -1.7593  0.4980
 8154SOL     OW36097   0.153   2.558  12.022 -0.1750  0.1147  0.4095
 8154SOL    HW136098   0.097   2.633  12.040 -0.4829 -0.2484  0.9588
 8154SOL    HW236099   0.150   2.553  11.926 -0.6182  1.2631  0.3621
 8155SOL     OW36100   0.413   1.618   5.379 -0.2735  0.0861  0.5411
 8155SOL    HW136101   0.365   1.545   5.417 -0.3112  0.5629  1.4136
 8155SOL    HW236102   0.384   1.688   5.438 -1.6114 -1.4425  1.7113
 8156SOL     OW36103   1.565   2.841   9.270  0.0918  0.0231  0.5948
 8156SOL    HW136104   1.599   2.898   9.339  0.0852  0.4420  0.2512
 8156SOL    HW236105   1.619   2.868   9.195 -0.2007 -0.5043  0.1955
 8157SOL     OW36106   0.731   1.343   0.659 -0.2026 -0.0130 -0.2061
 8157SOL    HW136107   0.680   1.295   0.724 -1.4808 -1.4733 -2.2778
 8157SOL    HW236108   0.798   1.278   0.637  1.0464  1.5106 -0.8807
 8158SOL     OW36109   3.571   2.594   4.708  0.3310 -0.1353 -0.3555
 8158SOL    HW136110   3.508   2.612   4.778 -0.4515 -0.2483 -1.0289
 8158SOL    HW236111   3.615   2.511   4.730 -1.0170 -1.0426 -1.0751
 8159SOL     OW36112   1.743   3.088   2.849  0.4873 -0.1868  0.4414
 8159SOL    HW136113   1.677   3.111   2.914 -0.5292 -1.6833 -0.0702
 8159SOL    HW236114   1.825   3.114   2.892 -0.0330  1.9661  0.1475
 8160SOL     OW36115   3.107   1.381   7.532  0.2649 -0.3291  0.5830
 8160SOL    HW136116   3.122   1.430   7.612  1.8790  1.8101 -1.0409
 8160SOL    HW236117   3.129   1.290   7.554  1.3435  0.2401  1.8263
 8161SOL     OW36118   4.538   1.439   8.542  0.1899  0.4720 -0.2456
 8161SOL    HW136119   4.615   1.438   8.599  0.4449  1.7039 -0.5921
 8161SOL    HW236120   4.524   1.533   8.533 -2.3155  0.1015 -0.1587
 8162SOL     OW36121   3.482   4.586  11.919 -0.3466 -0.2424 -0.2321
 8162SOL    HW136122   3.402   4.639  11.922  0.1546  0.4381  1.1814
 8162SOL    HW236123   3.483   4.554  12.009 -1.2370  4.8072  1.5696
 8163SOL     OW36124   2.797   4.060  13.225 -0.3414 -0.2387 -0.4665
 8163SOL    HW136125   2.805   4.002  13.301  0.8146 -1.8740 -1.8527
 8163SOL    HW236126   2.757   4.138  13.265 -1.8193 -1.2606  0.0537
 8164SOL     OW36127   2.790   3.137   7.489 -0.5038 -0.2470  0.3585
 8164SOL    HW136128   2.836   3.061   7.526  2.1686  0.1391 -2.1233
 8164SOL    HW236129   2.722   3.140   7.555 -1.0294 -1.2754 -0.1408
 8165SOL     OW36130   3.148   4.619   4.701 -0.4960  0.2303  0.3567
 8165SOL    HW136131   3.088   4.685   4.665  0.0874  0.5477 -0.0219
 8165SOL    HW236132   3.217   4.674   4.736 -0.1128  0.9565 -1.5670
 8166SOL     OW36133   0.682   3.876  10.706  0.2323 -0.3139 -0.0895
 8166SOL    HW136134   0.763   3.829  10.725  1.0903  0.9610 -0.5676
 8166SOL    HW236135   0.704   3.967  10.726 -0.2885  0.0185 -1.0034
 8167SOL     OW36136   1.048   3.299  10.008 -0.2155  0.6207 -0.0679
 8167SOL    HW136137   1.042   3.383  10.052  0.7634  0.8043 -0.3035
 8167SOL    HW236138   1.104   3.249  10.067 -0.6725 -0.5407 -0.6160
 8168SOL     OW36139   0.362   1.119   7.159 -0.6584 -0.4083 -0.2500
 8168SOL    HW136140   0.270   1.131   7.181 -0.4016 -1.4896  1.4573
 8168SOL    HW236141   0.394   1.206   7.184 -0.4985 -0.7347  0.6676
 8169SOL     OW36142   1.124   0.188  16.489 -0.0862  0.6564  0.1409
 8169SOL    HW136143   1.189   0.128  16.452 -2.1668 -0.3744 -1.8449
 8169SOL    HW236144   1.180   0.265  16.499  1.4396 -0.2861 -0.9986
 8170SOL     OW36145   4.407   1.970   9.909  0.5876  0.2584 -0.1980
 8170SOL    HW136146   4.342   1.953   9.977 -0.3399 -0.1651 -1.2056
 8170SOL    HW236147   4.376   1.918   9.835  3.5106 -0.0359 -1.2293
 8171SOL     OW36148   2.205   1.823   4.571  0.0685 -0.2459 -0.0724
 8171SOL    HW136149   2.293   1.859   4.565 -0.0863  0.2341  0.5158
 8171SOL    HW236150   2.150   1.899   4.592  0.3674 -0.3030  0.9356
 8172SOL     OW36151   0.134   0.346  11.352 -1.0068 -0.7257  0.4801
 8172SOL    HW136152   0.080   0.267  11.351 -0.7513 -0.8773 -2.0299
 8172SOL    HW236153   0.122   0.367  11.259 -2.6662  2.0567  1.3272
 8173SOL     OW36154   4.442   3.520   1.903  0.0864 -0.0499 -0.1721
 8173SOL    HW136155   4.349   3.505   1.886  0.7921 -2.2929 -2.1441
 8173SOL    HW236156   4.444   3.593   1.841  0.3416 -0.1679 -0.3048
 8174SOL     OW36157   2.392   1.824   0.526 -0.1106  0.5007 -0.2686
 8174SOL    HW136158   2.424   1.859   0.443  0.1944  1.7042  0.3531
 8174SOL    HW236159   2.445   1.869   0.593  0.0191  0.7765 -0.5546
 8175SOL     OW36160   2.732   1.006   8.771  0.5480 -0.0146  0.4852
 8175SOL    HW136161   2.776   0.921   8.765 -0.7283 -0.5821 -0.9231
 8175SOL    HW236162   2.779   1.039   8.848  0.0806  1.1953  0.2491
 8176SOL     OW36163   2.313   2.321  11.166 -0.5774 -0.2658 -0.2362
 8176SOL    HW136164   2.330   2.255  11.099  2.0354  1.3090 -1.1377
 8176SOL    HW236165   2.220   2.340  11.152 -0.6016 -1.2855 -1.4835
 8177SOL     OW36166   0.457   3.465   5.718  0.2675  0.1774  0.5104
 8177SOL    HW136167   0.411   3.424   5.791 -0.4462 -0.8388 -0.5144
 8177SOL    HW236168   0.389   3.511   5.667  0.0927  0.5568  1.0820
 8178SOL     OW36169   4.031   3.637   9.835 -0.3827  0.3656  0.9641
 8178SOL    HW136170   4.069   3.630   9.748 -1.3964 -0.0883  0.5641
 8178SOL    HW236171   4.049   3.729   9.854 -0.2868  0.5577 -0.0955
 8179SOL     OW36172   1.180   4.355  10.144 -0.0696 -0.0385  0.3108
 8179SOL    HW136173   1.253   4.373  10.203  2.6502 -2.1985 -2.3856
 8179SOL    HW236174   1.123   4.414  10.192 -1.2719 -0.2449 -0.8707
 8180SOL     OW36175   1.687   2.819   8.020  0.3877  0.3738 -0.1950
 8180SOL    HW136176   1.749   2.786   8.085  0.5462  0.3355 -0.3636
 8180SOL    HW236177   1.604   2.775   8.034 -0.0384  0.3430 -2.7367
 8181SOL     OW36178   1.544   0.210   7.544 -0.2623  0.3843  0.0617
 8181SOL    HW136179   1.475   0.144   7.550  2.5185 -2.9473 -4.0813
 8181SOL    HW236180   1.497   0.289   7.570 -0.0363  0.0780  1.4170
 8182SOL     OW36181   1.119   4.264  10.505 -0.4528  0.1428 -0.1813
 8182SOL    HW136182   1.116   4.179  10.549 -0.6691 -0.2824 -1.0211
 8182SOL    HW236183   1.213   4.270  10.492 -0.0873 -4.9408 -0.1098
 8183SOL     OW36184   3.600   2.311   6.158 -0.7047 -0.1371  0.3951
 8183SOL    HW136185   3.626   2.391   6.203 -3.0021 -0.0116  1.5103
 8183SOL    HW236186   3.510   2.298   6.188 -0.0647 -2.2474  1.4044
 8184SOL     OW36187   1.348   2.319   5.724 -0.2516  0.0678 -0.0006
 8184SOL    HW136188   1.376   2.407   5.697 -2.2378  0.9935  1.0078
 8184SOL    HW236189   1.339   2.272   5.641 -0.8262 -0.3252  0.2826
 8185SOL     OW36190   4.688   4.519   9.315 -0.4612 -0.4789  0.2343
 8185SOL    HW136191   4.611   4.558   9.275  0.6536  0.7474 -0.7219
 8185SOL    HW236192   4.721   4.596   9.361  0.0432 -0.4994 -0.0861
 8186SOL     OW36193   0.266   2.457   6.434 -1.2917 -0.3112 -0.4147
 8186SOL    HW136194   0.358   2.456   6.462 -1.0799  0.9084 -1.0534
 8186SOL    HW236195   0.267   2.402   6.356 -2.0626  0.4108 -0.9416
 8187SOL     OW36196   0.695   0.838  11.278  0.2034  0.5961 -0.5769
 8187SOL    HW136197   0.728   0.832  11.368 -0.6215  1.5390 -0.2140
 8187SOL    HW236198   0.666   0.928  11.269  1.5553  0.8526 -2.3868
 8188SOL     OW36199   1.292   0.456   2.131 -0.1425 -0.1478  0.3161
 8188SOL    HW136200   1.204   0.466   2.168 -1.1682 -0.9403 -1.9402
 8188SOL    HW236201   1.293   0.366   2.099 -0.7539  0.0327 -0.2045
 8189SOL     OW36202   4.370   0.717  16.749 -0.6147 -0.3722  0.2423
 8189SOL    HW136203   4.426   0.756  16.816 -0.7597  1.0493 -0.4545
 8189SOL    HW236204   4.366   0.630  16.789  1.0415 -0.9159 -0.7466
 8190SOL     OW36205   2.246   0.168  11.629 -0.0372 -0.3554  0.3610
 8190SOL    HW136206   2.209   0.118  11.702  1.7962  0.0483  1.5770
 8190SOL    HW236207   2.336   0.136  11.634 -0.2632 -1.3490 -1.6750
 8191SOL     OW36208   2.090   0.382  13.531  0.0708  0.0943 -0.2704
 8191SOL    HW136209   2.176   0.368  13.490  1.1980 -2.1370  2.7939
 8191SOL    HW236210   2.039   0.428  13.465  1.7679  0.3401 -1.4256
 8192SOL     OW36211   2.782   3.236   3.765  1.1496  0.4401 -0.3864
 8192SOL    HW136212   2.744   3.320   3.741 -1.0217  0.1732  2.1025
 8192SOL    HW236213   2.869   3.246   3.728  0.4379 -0.3370 -2.2807
 8193SOL     OW36214   4.406   0.879   4.462 -0.1754  0.1831  0.3352
 8193SOL    HW136215   4.397   0.960   4.412 -0.4270  0.4205  0.7606
 8193SOL    HW236216   4.436   0.929   4.538  0.9507 -1.7077  1.1214
 8194SOL     OW36217   1.021   2.893   6.003 -0.1006  0.3234  0.3986
 8194SOL    HW136218   0.935   2.919   5.973 -0.1385 -1.1853 -0.7842
 8194SOL    HW236219   1.073   2.953   5.950 -2.5177  2.5389  0.5687
 8195SOL     OW36220   2.581   0.240   9.834 -0.3958  0.7261 -0.2356
 8195SOL    HW136221   2.592   0.255   9.741 -0.9693 -0.8023 -0.5629
 8195SOL    HW236222   2.635   0.312   9.867  1.0372 -1.2937  1.8884
 8196SOL     OW36223   0.018   0.739  16.799  0.1535  0.2571 -0.0789
 8196SOL    HW136224   4.731   0.789  16.721  0.7465  1.6847  0.6456
 8196SOL    HW236225   4.669   0.736  16.841 -0.0743  3.6210 -0.2993
 8197SOL     OW36226   3.016   3.339   6.672  0.5856  0.6128 -0.3059
 8197SOL    HW136227   3.098   3.313   6.713  0.5228  0.0303 -0.5480
 8197SOL    HW236228   2.961   3.338   6.750 -1.8989 -1.3233 -2.0519
 8198SOL     OW36229   4.341   4.427  13.463 -0.0895 -0.0982 -0.1477
 8198SOL    HW136230   4.328   4.506  13.514  1.3779  0.5768 -0.8390
 8198SOL    HW236231   4.378   4.454  13.379 -1.4153  0.3210 -0.5872
 8199SOL     OW36232   4.702   2.139   2.055  0.9615  0.3242  0.1818
 8199SOL    HW136233   4.642   2.160   2.126 -0.9299  0.6271 -1.5000
 8199SOL    HW236234   4.707   2.223   2.011  2.3342 -0.0626 -0.4094
 8200SOL     OW36235   4.615   0.025   7.696  0.2647 -0.4903  0.5636
 8200SOL    HW136236   4.615   4.705   7.619  0.2342 -0.5574  0.6130
 8200SOL    HW236237   4.562   0.097   7.663 -0.6059 -1.0935  0.6667
 8201SOL     OW36238   3.253   0.896  17.680 -0.2739  0.4284  0.1761
 8201SOL    HW136239   3.225   0.982  17.649 -0.9016 -0.4788 -1.8231
 8201SOL    HW236240   3.208   0.897   0.019  2.4781  2.7732  1.5853
 8202SOL     OW36241   3.298   0.988  14.444 -0.1589  0.2401  0.1610
 8202SOL    HW136242   3.345   1.068  14.468 -0.1458  0.1311  0.4962
 8202SOL    HW236243   3.346   0.954  14.368 -1.5093 -2.3461  0.4913
 8203SOL     OW36244   1.796   1.360  13.947  0.0915 -0.0802  0.1450
 8203SOL    HW136245   1.706   1.391  13.945 -0.3845 -1.5812 -1.7456
 8203SOL    HW236246   1.789   1.286  13.887 -0.1183  0.6274 -0.6897
 8204SOL     OW36247   3.854   2.954  15.187  0.3336 -0.1769 -0.4854
 8204SOL    HW136248   3.903   3.010  15.127  0.1509  1.5148  0.9223
 8204SOL    HW236249   3.806   2.901  15.123 -2.1527  0.0401  1.1804
 8205SOL     OW36250   2.082   1.453  16.900  0.0810 -0.0784 -0.5273
 8205SOL    HW136251   2.038   1.417  16.977  3.7500 -4.2379 -0.4267
 8205SOL    HW236252   2.055   1.545  16.894 -1.0270 -0.3161  0.6379
 8206SOL     OW36253   0.582   4.012  17.040  0.9276  0.1696  0.5846
 8206SOL    HW136254   0.535   4.056  16.970 -3.1213 -2.7617  1.4737
 8206SOL    HW236255   0.665   4.034  16.997  0.8633 -0.3772  0.1826
 8207SOL     OW36256   2.571   3.776   6.269  0.1840 -0.2906  0.1063
 8207SOL    HW136257   2.617   3.769   6.353 -0.5132 -3.6198  0.2308
 8207SOL    HW236258   2.496   3.820   6.308 -0.0734  0.1652 -0.9159
 8208SOL     OW36259   3.725   1.256   9.279 -0.4420 -0.3590 -0.0817
 8208SOL    HW136260   3.812   1.219   9.296  0.7083  3.0700  1.3949
 8208SOL    HW236261   3.711   1.331   9.336 -0.4876 -0.7946  0.4720
 8209SOL     OW36262   4.608   4.075  12.196  0.0971 -0.4837 -0.3682
 8209SOL    HW136263   4.545   4.084  12.267 -1.6293 -0.2316 -1.9175
 8209SOL    HW236264   4.571   4.117  12.118 -1.8196 -1.1071  0.1935
 8210SOL     OW36265   4.217   4.682   2.142 -0.2765 -0.6945  0.4490
 8210SOL    HW136266   4.129   4.692   2.179 -0.1543 -0.0548  0.5729
 8210SOL    HW236267   4.258   0.004   2.206 -1.3993  0.5759 -0.0006
 8211SOL     OW36268   1.344   2.084   7.632 -0.4811  0.7829  0.2315
 8211SOL    HW136269   1.314   2.007   7.583  0.5399  0.9711 -0.6851
 8211SOL    HW236270   1.311   2.064   7.720 -2.4978 -1.2628 -0.9728
 8212SOL     OW36271   2.969   2.571  10.359 -0.2942 -0.6495 -0.0761
 8212SOL    HW136272   3.007   2.658  10.361 -3.3458  0.6842  0.2268
 8212SOL    HW236273   2.970   2.552  10.265  0.5206 -1.7375  0.1518
 8213SOL     OW36274   2.379   1.336   1.855 -0.1947  0.3434 -0.0158
 8213SOL    HW136275   2.444   1.403   1.834 -0.0707  0.4312  0.6429
 8213SOL    HW236276   2.370   1.298   1.768  0.8465 -1.4705  0.6651
 8214SOL     OW36277   2.063   1.192   7.907  0.2571  0.2294  0.0765
 8214SOL    HW136278   2.116   1.120   7.941  0.2598  0.6045  0.8623
 8214SOL    HW236279   2.129   1.217   7.842  0.2064 -1.3823 -0.5783
 8215SOL     OW36280   3.412   2.188   2.921 -0.2721  0.2864  0.8286
 8215SOL    HW136281   3.394   2.098   2.894  2.8294  0.1234 -0.7604
 8215SOL    HW236282   3.461   2.174   3.002 -0.3651 -1.4497  0.5649
 8216SOL     OW36283   3.173   3.156   4.943  0.0524  0.2832  0.2929
 8216SOL    HW136284   3.218   3.148   5.027  0.1740  0.3325  0.2321
 8216SOL    HW236285   3.237   3.188   4.879 -0.5112  0.4586 -0.1929
 8217SOL     OW36286   2.822   3.089   8.675 -0.3457  0.3902  0.8207
 8217SOL    HW136287   2.845   3.112   8.765 -1.0924 -0.3481  1.1999
 8217SOL    HW236288   2.767   3.166   8.660 -0.2547  0.7165  2.2403
 8218SOL     OW36289   4.311   4.498   5.488 -0.0634 -0.0250  0.0983
 8218SOL    HW136290   4.237   4.501   5.548  0.0480 -0.8921  0.2884
 8218SOL    HW236291   4.372   4.462   5.553 -0.6101  0.7313  1.0014
 8219SOL     OW36292   0.409   1.480  14.445 -0.4298  0.5462  0.4164
 8219SOL    HW136293   0.320   1.507  14.464 -0.4991  1.0200 -0.6020
 8219SOL    HW236294   0.435   1.548  14.383 -1.1529 -0.3662 -0.8887
 8220SOL     OW36295   0.815   4.558  16.072 -0.0871  1.0065  0.2459
 8220SOL    HW136296   0.888   4.611  16.104  0.7719  0.7967 -1.3912
 8220SOL    HW236297   0.867   4.507  16.010 -3.5358 -2.7575  0.4827
 8221SOL     OW36298   1.026   1.176   7.296  0.4130 -0.1396  0.2366
 8221SOL    HW136299   1.043   1.184   7.202  3.4905 -0.0802  0.8017
 8221SOL    HW236300   1.044   1.082   7.300 -0.0837 -0.2494 -0.0655
 8222SOL     OW36301   3.252   2.895  16.155  0.2731 -0.5388 -0.0587
 8222SOL    HW136302   3.254   2.990  16.157 -0.8862 -0.5000 -0.2671
 8222SOL    HW236303   3.331   2.875  16.205  0.6559  0.6750 -0.1856
 8223SOL     OW36304   0.607   2.766   4.547 -0.7967  1.4597  0.2353
 8223SOL    HW136305   0.517   2.796   4.562 -1.8123 -1.2379 -0.5938
 8223SOL    HW236306   0.631   2.748   4.638  1.5709 -0.6567 -0.8133
 8224SOL     OW36307   2.056   0.238  10.002 -0.3660 -0.4788  0.0563
 8224SOL    HW136308   2.145   0.235   9.968 -0.2822 -0.2931  0.2546
 8224SOL    HW236309   2.059   0.201  10.091 -1.0651 -0.4657  0.0828
 8225SOL     OW36310   1.402   1.097   3.794 -0.8306  0.0550 -0.1298
 8225SOL    HW136311   1.468   1.078   3.727 -0.3399 -1.8682  0.8889
 8225SOL    HW236312   1.336   1.145   3.746 -1.0603 -0.8583 -0.7210
 8226SOL     OW36313   1.713   3.490   8.116 -0.2137  0.3929  0.0978
 8226SOL    HW136314   1.751   3.410   8.153 -0.4751 -0.1911 -0.8706
 8226SOL    HW236315   1.791   3.539   8.091  0.0715  1.0587  2.3644
 8227SOL     OW36316   2.558   3.653   5.318  0.6095  0.0029 -0.3091
 8227SOL    HW136317   2.492   3.588   5.340  0.7300  0.4398  1.3182
 8227SOL    HW236318   2.539   3.737   5.360 -0.1468 -0.5207  0.3651
 8228SOL     OW36319   2.271   1.435  15.708 -0.2408  0.1670 -0.1777
 8228SOL    HW136320   2.255   1.413  15.799  0.4980 -2.1255 -0.5833
 8228SOL    HW236321   2.183   1.428  15.672  0.5983  1.2829 -2.4759
 8229SOL     OW36322   0.660   4.252   5.619  0.0099  0.5044  0.5830
 8229SOL    HW136323   0.619   4.307   5.552  0.2766  0.0718  0.0606
 8229SOL    HW236324   0.710   4.194   5.562 -0.6679  0.5382 -0.0584
 8230SOL     OW36325   2.726   3.271  11.840  0.2387 -0.3337 -0.0862
 8230SOL    HW136326   2.639   3.271  11.801 -0.3312  1.0389  1.1984
 8230SOL    HW236327   2.705   3.207  11.909  0.0576  1.3927  1.4598
 8231SOL     OW36328   1.708   1.197   5.782  0.1274 -0.6450 -0.7112
 8231SOL    HW136329   1.802   1.188   5.799 -0.4118 -0.4374  2.4669
 8231SOL    HW236330   1.683   1.115   5.740  1.2044 -0.2543 -2.0958
 8232SOL     OW36331   1.799   3.019  16.144 -0.4364 -0.1658  0.1477
 8232SOL    HW136332   1.732   3.087  16.151 -0.1518 -0.1277  2.7443
 8232SOL    HW236333   1.753   2.943  16.108 -0.1497 -0.6794  0.8497
 8233SOL     OW36334   2.764   3.459   3.117  0.0309  0.2882 -0.4929
 8233SOL    HW136335   2.786   3.546   3.150  0.1182  0.2040 -0.3308
 8233SOL    HW236336   2.715   3.474   3.036  0.2637  0.4027 -0.6122
 8234SOL     OW36337   3.153   1.412   4.681  0.2754 -0.0687  0.0406
 8234SOL    HW136338   3.229   1.355   4.688  1.4490  1.2626 -1.6946
 8234SOL    HW236339   3.169   1.444   4.592 -2.9754  0.8196 -0.2374
 8235SOL     OW36340   1.625   4.000  14.596  0.2114 -0.0350 -0.2347
 8235SOL    HW136341   1.543   3.973  14.555 -1.4184  1.2256  2.1502
 8235SOL    HW236342   1.628   3.935  14.666  0.4666 -0.3130 -0.5061
 8236SOL     OW36343   3.221   1.197   3.105  0.5802 -0.0335  0.4834
 8236SOL    HW136344   3.276   1.214   3.029 -0.2376 -3.3262 -0.8331
 8236SOL    HW236345   3.152   1.259   3.083  0.6554 -0.3153 -0.5431
 8237SOL     OW36346   3.125   1.523   7.747 -0.2329  0.3213  0.4451
 8237SOL    HW136347   3.069   1.485   7.815  0.0114 -0.4619  0.2146
 8237SOL    HW236348   3.082   1.604   7.720 -1.7968 -0.6276  0.0566
 8238SOL     OW36349   1.522   4.297   8.081  0.7186  0.0591 -0.1620
 8238SOL    HW136350   1.486   4.318   7.996  1.5009  2.6441  0.1449
 8238SOL    HW236351   1.577   4.220   8.066  0.4714  0.1139 -1.2749
 8239SOL     OW36352   0.387   4.249   6.363  0.1991 -0.0760  0.2685
 8239SOL    HW136353   0.440   4.312   6.314 -0.2290 -1.1888 -1.6190
 8239SOL    HW236354   0.314   4.308   6.380  0.6536  0.5957 -0.1329
 8240SOL     OW36355   1.623   0.683  17.621 -0.1360  0.5662 -0.2635
 8240SOL    HW136356   1.552   0.715  17.676 -1.4337  3.0027 -3.3832
 8240SOL    HW236357   1.672   0.628  17.683 -3.3617 -1.8773  0.1117
 8241SOL     OW36358   0.931   0.540   7.778  0.0384  0.5811 -0.8696
 8241SOL    HW136359   0.859   0.498   7.731  2.4518 -0.7949 -3.3086
 8241SOL    HW236360   0.878   0.600   7.831  1.6361  1.9293 -0.7886
 8242SOL     OW36361   0.905   2.390   8.111 -0.5635  0.0574 -0.0242
 8242SOL    HW136362   0.971   2.345   8.165  0.7322  2.4286  0.3512
 8242SOL    HW236363   0.943   2.478   8.115  2.1925 -1.0929 -0.8894
 8243SOL     OW36364   3.133   2.600  14.997 -0.4560 -0.4452 -0.1541
 8243SOL    HW136365   3.088   2.642  14.923 -0.7509  0.8851  0.7946
 8243SOL    HW236366   3.208   2.557  14.955 -2.6730 -4.0221 -0.5470
 8244SOL     OW36367   0.759   2.002   1.571  0.1622  0.5682  0.1676
 8244SOL    HW136368   0.720   2.010   1.658 -2.2434 -1.0102 -0.7415
 8244SOL    HW236369   0.745   1.912   1.541  1.7397 -0.4009  2.4009
 8245SOL     OW36370   3.186   2.263   0.319 -0.1339  0.1758 -0.2733
 8245SOL    HW136371   3.277   2.240   0.340 -0.7021 -0.1492  1.7939
 8245SOL    HW236372   3.195   2.344   0.270  1.3695 -0.6312 -1.3181
 8246SOL     OW36373   3.317   0.904   7.703  0.6307  0.2339  0.8821
 8246SOL    HW136374   3.259   0.890   7.777 -0.6384  2.2681  0.2617
 8246SOL    HW236375   3.313   1.000   7.708  0.8078  0.2901 -0.1206
 8247SOL     OW36376   2.361   2.020   0.200 -0.3922  0.2463  0.4099
 8247SOL    HW136377   2.372   2.110   0.168 -2.4767 -0.2397 -1.6504
 8247SOL    HW236378   2.274   2.021   0.239 -0.6571  1.0577 -0.2118
 8248SOL     OW36379   2.323   2.156  10.952  0.0183  0.0499  0.3755
 8248SOL    HW136380   2.348   2.122  10.866 -1.7039 -2.7195  0.9449
 8248SOL    HW236381   2.241   2.111  10.976  0.1828 -0.2165  0.4386
 8249SOL     OW36382   1.199   1.390  16.049  0.0449  1.3960 -0.7282
 8249SOL    HW136383   1.195   1.405  15.954  1.9957 -1.5781 -1.2754
 8249SOL    HW236384   1.241   1.471  16.077 -1.6716  2.6911 -1.8874
 8250SOL     OW36385   1.301   1.057   1.746  0.0585  0.1389  0.2073
 8250SOL    HW136386   1.369   1.006   1.788  0.2279  1.4591  1.5368
 8250SOL    HW236387   1.300   1.125   1.813  0.8346 -1.0682  1.4335
 8251SOL     OW36388   0.498   0.933   5.015 -0.2442  0.1928 -0.2336
 8251SOL    HW136389   0.446   0.854   5.026  1.2288 -0.7314  0.0994
 8251SOL    HW236390   0.568   0.917   5.079  0.5546 -0.4863 -1.2775
 8252SOL     OW36391   2.705   1.931  10.580 -0.3548 -0.1579 -0.2065
 8252SOL    HW136392   2.718   2.006  10.638  0.2861  0.1717 -0.7739
 8252SOL    HW236393   2.749   1.867  10.636  1.8378 -0.2142 -2.0154
 8253SOL     OW36394   2.336   1.318  11.660  0.2897 -0.7428 -0.0842
 8253SOL    HW136395   2.301   1.405  11.677 -0.0304 -0.8803 -0.0433
 8253SOL    HW236396   2.260   1.281  11.616 -0.1390 -0.1690  0.1815
 8254SOL     OW36397   4.396   3.618   3.346  0.7387 -0.4158  0.5877
 8254SOL    HW136398   4.480   3.590   3.309  0.2686 -0.2652 -0.5985
 8254SOL    HW236399   4.358   3.530   3.349 -0.2069  0.0219  1.5381
 8255SOL     OW36400   0.658   3.793   8.454  0.0881  0.0324 -0.1465
 8255SOL    HW136401   0.594   3.780   8.384  1.6812 -1.1265 -1.3941
 8255SOL    HW236402   0.598   3.785   8.528  0.8172  0.8171  0.5273
 8256SOL     OW36403   2.682   4.711  17.052  0.5432 -0.4258  0.0863
 8256SOL    HW136404   2.622   0.006  17.120  0.5167  2.1677 -1.1583
 8256SOL    HW236405   2.759   0.031  17.061 -0.2612  0.9291 -1.7288
 8257SOL     OW36406   3.230   0.461   4.196 -0.4799 -0.6496  0.5728
 8257SOL    HW136407   3.167   0.502   4.136 -1.3420 -0.8549  1.3282
 8257SOL    HW236408   3.314   0.505   4.185  0.8124 -3.2000  0.0917
 8258SOL     OW36409   4.019   0.755   9.910 -0.7908 -0.1969  0.3781
 8258SOL    HW136410   4.023   0.722  10.000  0.8809 -2.8259 -0.6570
 8258SOL    HW236411   3.934   0.722   9.881 -0.7574  2.1841 -2.4170
 8259SOL     OW36412   0.261   1.465  17.103 -0.1005 -0.1561  0.4023
 8259SOL    HW136413   0.224   1.488  17.018  0.5830 -2.3264 -0.4633
 8259SOL    HW236414   0.333   1.409  17.075 -0.2043  1.0897 -2.3680
 8260SOL     OW36415   3.981   2.638   7.877 -0.9939  0.0886 -0.3312
 8260SOL    HW136416   4.010   2.579   7.807 -0.7855 -0.1129 -0.0771
 8260SOL    HW236417   3.986   2.577   7.950  0.1810 -0.0555 -0.5311
 8261SOL     OW36418   0.970   0.975   3.334 -0.2029 -0.6783 -0.7870
 8261SOL    HW136419   1.028   0.902   3.355 -0.0371 -0.0650  0.9083
 8261SOL    HW236420   0.921   0.947   3.257  0.1683  0.6461 -1.5130
 8262SOL     OW36421   0.099   1.368   8.416  0.6158 -0.4452  0.0399
 8262SOL    HW136422   0.103   1.442   8.476 -0.1272  0.1866 -0.6856
 8262SOL    HW236423   0.127   1.294   8.470 -2.4936  1.1157  3.8055
 8263SOL     OW36424   2.623   1.050   3.596 -0.7641 -0.6094  0.3209
 8263SOL    HW136425   2.552   0.991   3.571 -0.1487 -1.7516  1.2821
 8263SOL    HW236426   2.691   1.000   3.551  0.2974  1.4510 -0.3735
 8264SOL     OW36427   0.473   3.053   8.027 -0.1358  0.9337  0.1541
 8264SOL    HW136428   0.401   3.115   8.037 -1.4818 -0.3735 -1.3755
 8264SOL    HW236429   0.525   3.103   7.964 -0.5082  2.1739  0.8204
 8265SOL     OW36430   3.022   0.222   8.617 -0.3059 -0.2841 -0.4732
 8265SOL    HW136431   3.021   0.311   8.652 -1.2210 -0.1383 -0.8660
 8265SOL    HW236432   2.982   0.186   8.697 -1.4944  1.1050 -0.4386
 8266SOL     OW36433   3.522   2.117  13.987  0.7095 -0.0003 -0.4057
 8266SOL    HW136434   3.446   2.068  13.956  1.2955 -1.3858  0.3500
 8266SOL    HW236435   3.534   2.093  14.079  1.6956 -0.4161 -0.6364
 8267SOL     OW36436   3.316   1.963  16.967  0.4045  0.8724 -0.4182
 8267SOL    HW136437   3.232   1.941  16.927  0.6984 -2.6958  0.8915
 8267SOL    HW236438   3.345   1.885  17.015 -0.0458  0.6688 -0.4845
 8268SOL     OW36439   4.056   4.637   6.507  0.3485  0.2579 -0.3400
 8268SOL    HW136440   3.969   4.603   6.488  0.1118 -0.0292  1.2683
 8268SOL    HW236441   4.113   4.567   6.475 -0.8864 -1.3685  1.0414
 8269SOL     OW36442   2.615   4.378   5.801  0.7716  0.6499  0.4420
 8269SOL    HW136443   2.616   4.458   5.853  0.1868  0.7609  0.2770
 8269SOL    HW236444   2.647   4.397   5.713  1.2744  1.0390  0.7070
 8270SOL     OW36445   1.273   2.683   4.650  0.3410 -0.1097 -0.2376
 8270SOL    HW136446   1.239   2.765   4.614  1.5537 -0.2312 -1.6646
 8270SOL    HW236447   1.199   2.655   4.704  0.2901  0.2723 -0.1148
 8271SOL     OW36448   1.344   1.654   1.685 -0.0114  0.0427 -0.0675
 8271SOL    HW136449   1.408   1.678   1.618  0.8544  1.9057  1.4075
 8271SOL    HW236450   1.255   1.660   1.650 -1.3142  0.1778  3.2524
 8272SOL     OW36451   2.481   3.315  14.700 -0.1367 -0.0302  0.0803
 8272SOL    HW136452   2.467   3.313  14.605 -0.8708  0.7408  0.1683
 8272SOL    HW236453   2.551   3.380  14.697 -0.3928  0.1390 -2.0024
 8273SOL     OW36454   3.715   0.919   6.043  0.3163 -0.2890  0.0064
 8273SOL    HW136455   3.778   0.850   6.063  1.9091  1.2706  0.3297
 8273SOL    HW236456   3.770   0.994   6.065  1.9084 -1.0937 -1.2970
 8274SOL     OW36457   4.462   4.607   5.983  0.3023  0.6188  0.3068
 8274SOL    HW136458   4.540   4.560   5.955 -0.6288 -0.1293 -1.0092
 8274SOL    HW236459   4.389   4.561   5.941  0.7531 -0.7580  1.0425
 8275SOL     OW36460   2.656   4.304   7.990  0.1276  0.4690  0.0965
 8275SOL    HW136461   2.657   4.236   8.058  0.7495 -0.2394 -0.6313
 8275SOL    HW236462   2.696   4.375   8.040 -0.0965  0.4480  0.3084
 8276SOL     OW36463   0.624   3.838   7.784  0.0594  0.0955 -0.3782
 8276SOL    HW136464   0.595   3.913   7.837  1.5027  0.7078 -0.4452
 8276SOL    HW236465   0.554   3.778   7.809  0.8909 -0.4609  0.5769
 8277SOL     OW36466   1.743   2.754   9.021  0.1644 -0.7653 -0.2160
 8277SOL    HW136467   1.715   2.824   8.962 -2.3936 -1.5005  0.1213
 8277SOL    HW236468   1.663   2.706   9.040  0.2570 -0.1972  1.6103
 8278SOL     OW36469   2.649   3.526  12.167  0.1776 -0.2072  0.0234
 8278SOL    HW136470   2.681   3.568  12.247  0.1872  1.4636 -0.8470
 8278SOL    HW236471   2.685   3.588  12.104 -0.9124 -1.5019 -1.8358
 8279SOL     OW36472   3.669   1.441   9.458 -0.0512 -0.9037 -0.5586
 8279SOL    HW136473   3.580   1.466   9.482  1.1687  0.2760  2.7213
 8279SOL    HW236474   3.719   1.515   9.491 -0.0078 -0.8144 -0.8280
 8280SOL     OW36475   1.072   0.439   0.545  0.1038 -0.0216 -0.4190
 8280SOL    HW136476   1.131   0.365   0.528 -0.4888  0.0568 -2.8129
 8280SOL    HW236477   0.985   0.399   0.542  1.3278 -2.8301  1.4755
 8281SOL     OW36478   1.122   0.656   7.050 -0.0662  0.3716 -0.3292
 8281SOL    HW136479   1.046   0.636   7.104 -1.1544  0.6896 -1.7290
 8281SOL    HW236480   1.188   0.591   7.074 -1.2176 -1.7589 -2.9798
 8282SOL     OW36481   2.971   1.227  14.987 -0.0554 -0.2008 -0.3825
 8282SOL    HW136482   2.932   1.314  14.993 -2.2911 -1.2080 -0.1984
 8282SOL    HW236483   2.952   1.206  15.079 -0.1668  0.4808 -0.2540
 8283SOL     OW36484   3.979   3.163  15.062 -0.6361  0.4026  0.1462
 8283SOL    HW136485   3.943   3.246  15.029  1.4014  1.2663  0.1411
 8283SOL    HW236486   4.072   3.179  15.050 -1.1221  2.5010 -0.8812
 8284SOL     OW36487   2.948   4.523   4.341  0.0232  0.6492  0.2154
 8284SOL    HW136488   2.912   4.472   4.269  0.7749  0.5536 -0.0870
 8284SOL    HW236489   2.935   4.612   4.308  1.8099  0.6177 -0.5187
 8285SOL     OW36490   2.714   1.903  10.314  0.2704 -0.6969  0.1782
 8285SOL    HW136491   2.716   1.927  10.407 -2.1785 -1.9480  0.5379
 8285SOL    HW236492   2.662   1.973  10.275  1.4679  0.5067  0.7002
 8286SOL     OW36493   2.384   1.893  10.453 -0.1808 -0.1376 -0.1605
 8286SOL    HW136494   2.430   1.970  10.487  0.6359 -1.2760  1.3242
 8286SOL    HW236495   2.337   1.858  10.529 -1.2206  0.9802 -0.2956
 8287SOL     OW36496   2.159   1.303   4.364 -0.3154  0.2520  0.0318
 8287SOL    HW136497   2.234   1.332   4.311  0.2444  0.2846  0.8317
 8287SOL    HW236498   2.111   1.385   4.368  0.1754  0.5324  0.2512
 8288SOL     OW36499   1.780   4.247   2.726 -0.1368 -0.2703 -0.6584
 8288SOL    HW136500   1.737   4.180   2.779  1.1342 -0.5937 -0.0527
 8288SOL    HW236501   1.704   4.262   2.669 -0.3573 -0.0219 -0.2996
 8289SOL     OW36502   3.125   4.655   6.093 -0.1452  0.2407 -0.6825
 8289SOL    HW136503   3.189   4.592   6.061 -0.5576 -0.7517  0.4418
 8289SOL    HW236504   3.096   4.692   6.009  1.4953 -0.2956 -1.4745
 8290SOL     OW36505   4.726   2.842   3.325 -0.4131 -0.2224 -0.3275
 8290SOL    HW136506   0.038   2.861   3.406 -1.9518  0.7200  0.3729
 8290SOL    HW236507   4.732   2.747   3.320 -0.0275 -0.2170  0.0085
 8291SOL     OW36508   4.215   4.502   2.712 -0.2835  0.7293  0.0711
 8291SOL    HW136509   4.282   4.548   2.763  0.8202 -0.8635  0.0348
 8291SOL    HW236510   4.201   4.570   2.645 -0.1059 -0.9581 -1.6655
 8292SOL     OW36511   4.192   0.202   2.251 -0.1685  0.0554  0.0781
 8292SOL    HW136512   4.254   0.260   2.207 -0.5662  1.5535  1.5050
 8292SOL    HW236513   4.103   0.226   2.223 -0.4847 -2.2647 -0.9459
 8293SOL     OW36514   1.970   0.223   1.380 -0.4938 -0.1912 -0.4920
 8293SOL    HW136515   1.903   0.172   1.334 -1.5463 -0.3208  1.1706
 8293SOL    HW236516   1.907   0.272   1.433 -0.7894 -0.6133 -0.4524
 8294SOL     OW36517   0.546   2.186   7.085  0.2208  0.2988  0.3534
 8294SOL    HW136518   0.524   2.181   7.179 -0.5651 -0.8098  0.1114
 8294SOL    HW236519   0.478   2.245   7.052 -0.7935 -1.0745 -0.0324
 8295SOL     OW36520   1.103   2.068   7.157  0.7719  0.6293 -0.2881
 8295SOL    HW136521   1.042   2.113   7.099  0.7198  1.1078  0.1356
 8295SOL    HW236522   1.167   2.024   7.102  0.8994  1.7081 -1.0013
 8296SOL     OW36523   2.517   3.765   4.649 -0.6510 -0.3875 -0.0792
 8296SOL    HW136524   2.600   3.735   4.688 -0.1306  1.3478  0.1652
 8296SOL    HW236525   2.553   3.842   4.604 -1.6462 -0.3792 -0.8412
 8297SOL     OW36526   3.861   1.630  17.161 -0.2783  0.0002 -0.1362
 8297SOL    HW136527   3.847   1.725  17.160 -2.7656 -0.3285  2.1940
 8297SOL    HW236528   3.903   1.629  17.075  0.7700  0.8384  0.3660
 8298SOL     OW36529   4.323   0.586   5.740  0.2047  0.0915  0.0271
 8298SOL    HW136530   4.277   0.596   5.823 -0.8196 -0.2958 -0.4847
 8298SOL    HW236531   4.411   0.612   5.765 -0.0432  1.0898 -0.1351
 8299SOL     OW36532   4.374   2.273   0.111 -0.2657 -0.2912  0.3224
 8299SOL    HW136533   4.291   2.298   0.071  0.0032  0.5621  0.2959
 8299SOL    HW236534   4.348   2.293   0.201 -2.3774  1.7451 -0.7463
 8300SOL     OW36535   0.021   0.849   5.987  0.0404 -0.6612 -0.7256
 8300SOL    HW136536   0.058   0.898   5.914  0.4826  0.0235 -0.0394
 8300SOL    HW236537   0.080   0.774   5.992  0.5364 -0.1869  0.6173
 8301SOL     OW36538   4.033   4.237   8.576  0.1276  0.1567 -0.2086
 8301SOL    HW136539   3.948   4.209   8.544  0.6950 -1.8174 -0.0195
 8301SOL    HW236540   4.060   4.161   8.628  1.7192  1.4959  0.9275
 8302SOL     OW36541   0.928   2.430   1.026 -0.1808 -0.3068 -0.1520
 8302SOL    HW136542   1.010   2.411   1.072 -0.3052  2.0554  1.0819
 8302SOL    HW236543   0.946   2.400   0.937  0.3017  0.2612 -0.2483
 8303SOL     OW36544   4.262   2.061   5.037 -0.0072 -0.3440  0.8280
 8303SOL    HW136545   4.336   2.061   5.098 -0.0444  0.2427  0.8728
 8303SOL    HW236546   4.188   2.027   5.088  0.6437 -1.8116  0.8070
 8304SOL     OW36547   1.715   1.693   7.597 -0.0879 -0.4751  0.1780
 8304SOL    HW136548   1.636   1.667   7.644 -1.3151 -0.6926 -2.0391
 8304SOL    HW236549   1.769   1.699   7.676  0.8709 -1.3060 -0.4214
 8305SOL     OW36550   1.036   2.256   5.573 -0.2109 -0.2671 -0.2699
 8305SOL    HW136551   1.042   2.352   5.567  0.5692 -0.3948 -1.4036
 8305SOL    HW236552   1.130   2.239   5.570 -0.1521  0.1182 -0.6656
 8306SOL     OW36553   3.484   0.310   8.434  0.0302  0.4067 -0.2597
 8306SOL    HW136554   3.402   0.261   8.422  0.2704 -0.2116  0.6425
 8306SOL    HW236555   3.538   0.257   8.492  0.3304  0.7679 -0.2093
 8307SOL     OW36556   0.561   1.535   7.692  0.1883  0.1032  0.0256
 8307SOL    HW136557   0.633   1.596   7.677  0.1242 -0.1614 -1.4304
 8307SOL    HW236558   0.562   1.479   7.614 -2.1279 -1.4731  1.1149
 8308SOL     OW36559   1.005   1.738   1.769  0.4559  0.7773  0.2747
 8308SOL    HW136560   1.021   1.647   1.796 -0.1094 -0.4387 -3.4925
 8308SOL    HW236561   0.912   1.745   1.748  0.7043  2.6130 -0.1648
 8309SOL     OW36562   1.328   2.039  16.958 -0.5462  0.2606 -0.7660
 8309SOL    HW136563   1.279   2.099  16.900 -0.7581  0.2095 -0.6375
 8309SOL    HW236564   1.299   2.054  17.048 -0.3591  1.7101 -0.9407
 8310SOL     OW36565   1.137   0.552  16.114 -0.2005 -0.0099  0.2725
 8310SOL    HW136566   1.159   0.464  16.145 -0.3729  0.8573  2.8837
 8310SOL    HW236567   1.122   0.599  16.196 -0.7944  1.7425 -0.8284
 8311SOL     OW36568   1.014   4.296   6.814 -0.4359 -0.0751 -0.2647
 8311SOL    HW136569   0.935   4.275   6.863  0.0561 -1.4567 -0.0597
 8311SOL    HW236570   1.047   4.208   6.795 -0.8463 -0.2443 -0.1759
 8312SOL     OW36571   3.378   2.150   0.659  0.8369  0.6890 -0.1065
 8312SOL    HW136572   3.298   2.099   0.651  1.3322 -0.1409  0.2902
 8312SOL    HW236573   3.436   2.082   0.627 -0.9764 -0.3371 -1.1742
 8313SOL     OW36574   3.169   0.703   6.742 -0.3558 -0.4056 -0.4036
 8313SOL    HW136575   3.160   0.757   6.664 -0.3225  0.5201  0.2337
 8313SOL    HW236576   3.099   0.638   6.731 -0.3148  0.0618 -3.3079
 8314SOL     OW36577   0.716   0.404   7.339  0.3580  0.0373 -0.5756
 8314SOL    HW136578   0.637   0.457   7.326  0.8845  0.6413 -1.2765
 8314SOL    HW236579   0.699   0.329   7.282  1.1994 -1.1262  0.7058
 8315SOL     OW36580   3.447   0.832   3.656 -0.6495 -0.4061 -0.3414
 8315SOL    HW136581   3.440   0.915   3.609 -1.7387 -1.2582 -1.6877
 8315SOL    HW236582   3.537   0.808   3.636 -0.9805 -0.4082 -1.7993
 8316SOL     OW36583   0.298   0.803  12.426 -0.5441 -0.5729 -0.5364
 8316SOL    HW136584   0.389   0.782  12.447 -0.3939  0.1705 -0.4690
 8316SOL    HW236585   0.287   0.885  12.474  0.9204 -0.6746 -0.0253
 8317SOL     OW36586   0.438   0.293   0.090  0.1546 -0.0005 -0.2215
 8317SOL    HW136587   0.354   0.326   0.060  0.6789  0.7785 -0.8656
 8317SOL    HW236588   0.434   0.201   0.066  0.0167 -0.1285  0.3012
 8318SOL     OW36589   1.572   2.995   9.018  0.8193  0.1178  0.5725
 8318SOL    HW136590   1.617   2.971   8.937 -0.4467 -0.8436  0.1544
 8318SOL    HW236591   1.487   3.016   8.979  1.4918  1.4448 -0.1714
 8319SOL     OW36592   1.465   4.736   1.155  0.7754 -0.0141  0.4823
 8319SOL    HW136593   1.539   0.041   1.110 -0.8438 -0.5983 -2.6462
 8319SOL    HW236594   1.390   0.044   1.118 -0.3737 -1.4650  1.0535
 8320SOL     OW36595   3.191   3.717   4.473  0.6772  0.0768 -0.2069
 8320SOL    HW136596   3.252   3.711   4.400 -1.5296 -0.4832 -2.0119
 8320SOL    HW236597   3.194   3.808   4.503 -0.3868 -1.0125  3.2315
 8321SOL     OW36598   1.300   0.147   9.404 -0.5266  0.3111 -0.0601
 8321SOL    HW136599   1.378   0.199   9.424  1.3464 -2.3385 -0.5536
 8321SOL    HW236600   1.341   0.088   9.342 -0.0363 -1.0191  1.5467
 8322SOL     OW36601   2.300   4.618   3.034  0.7844 -0.2096 -0.2614
 8322SOL    HW136602   2.249   4.595   2.956 -0.7404  0.0261  0.6693
 8322SOL    HW236603   2.244   4.684   3.075  2.7889  1.2714  0.0950
 8323SOL     OW36604   0.037   1.707   9.016  0.6566 -0.5212 -0.2903
 8323SOL    HW136605   0.118   1.661   9.037  1.6731  1.1693 -0.6060
 8323SOL    HW236606   4.723   1.626   9.002 -0.3937 -0.0257  0.6318
 8324SOL     OW36607   0.175   3.970   4.249  0.0221  0.6930  0.2752
 8324SOL    HW136608   0.143   4.042   4.194 -1.6987  1.0948  1.8193
 8324SOL    HW236609   0.259   4.005   4.281  0.4607 -0.9941  0.9583
 8325SOL     OW36610   3.835   2.712   5.551  0.5988  0.0097  0.1093
 8325SOL    HW136611   3.877   2.653   5.613  1.9833  0.9721  0.0714
 8325SOL    HW236612   3.902   2.778   5.534 -0.2609  0.8133 -0.1407
 8326SOL     OW36613   4.328   0.583   4.468  0.0547 -0.1617  0.2272
 8326SOL    HW136614   4.266   0.625   4.528 -0.9338 -0.5932 -0.4855
 8326SOL    HW236615   4.398   0.646   4.479  1.1081 -1.3104  0.1068
 8327SOL     OW36616   0.366   3.742  11.526  0.7251  0.5073  0.4478
 8327SOL    HW136617   0.440   3.695  11.486  1.3414  1.3314  0.6279
 8327SOL    HW236618   0.358   3.715  11.618 -1.2948  1.3243  0.4974
 8328SOL     OW36619   1.409   1.240  10.138 -0.1130 -0.2388  1.0211
 8328SOL    HW136620   1.458   1.317  10.110  0.9139 -1.2772 -0.0524
 8328SOL    HW236621   1.382   1.268  10.225 -1.0401 -1.5252  1.1581
 8329SOL     OW36622   0.391   1.439   6.536 -0.0213 -0.0327  0.3481
 8329SOL    HW136623   0.464   1.381   6.513 -0.6496 -0.4617 -0.5443
 8329SOL    HW236624   0.323   1.397   6.485 -0.6671 -0.7647  1.8016
 8330SOL     OW36625   1.658   0.822   6.290 -0.4087  0.1684  0.8008
 8330SOL    HW136626   1.625   0.761   6.356 -0.3605  1.5328  2.0938
 8330SOL    HW236627   1.726   0.869   6.340  0.2107 -0.4248  0.5225
 8331SOL     OW36628   2.940   2.374  14.186 -0.5176  0.5894  0.3024
 8331SOL    HW136629   2.886   2.321  14.127 -0.1824  0.1892  0.3599
 8331SOL    HW236630   2.955   2.454  14.135 -2.5275 -0.1558 -1.5012
 8332SOL     OW36631   0.741   1.958   2.193 -0.2981 -0.0651  0.6054
 8332SOL    HW136632   0.755   1.885   2.253 -2.1143 -1.5749 -0.8180
 8332SOL    HW236633   0.830   1.993   2.191 -0.7532  1.1909  2.7076
 8333SOL     OW36634   3.845   1.839  10.496  0.4643 -0.3986 -0.1207
 8333SOL    HW136635   3.782   1.829  10.567 -1.1414 -0.8516 -1.5847
 8333SOL    HW236636   3.825   1.766  10.437 -2.2703 -0.9103  1.4649
 8334SOL     OW36637   3.844   1.506   3.655  0.1475  0.2675  0.5359
 8334SOL    HW136638   3.898   1.428   3.651  0.8302  0.8682 -2.1083
 8334SOL    HW236639   3.872   1.532   3.743  1.9354 -1.2196  0.3953
 8335SOL     OW36640   3.107   0.273   3.602  0.2510  0.7663 -0.3993
 8335SOL    HW136641   3.175   0.301   3.663  0.8127 -0.9425 -0.2400
 8335SOL    HW236642   3.034   0.332   3.620 -2.0595 -1.7973 -1.4280
 8336SOL     OW36643   1.349   3.184  16.690  0.3333 -0.3512 -0.1089
 8336SOL    HW136644   1.271   3.159  16.740  0.4554 -0.1745  0.1688
 8336SOL    HW236645   1.408   3.223  16.755  0.7891 -0.3973 -0.4949
 8337SOL     OW36646   1.140   2.487   8.394 -0.4482 -0.3527  0.2496
 8337SOL    HW136647   1.207   2.475   8.461 -0.3455 -0.1855  0.1751
 8337SOL    HW236648   1.108   2.577   8.400  0.2153 -0.0185 -1.1688
 8338SOL     OW36649   0.492   2.878   3.066 -0.2298  0.2699 -0.4704
 8338SOL    HW136650   0.428   2.814   3.036 -0.9549  0.2807  1.0224
 8338SOL    HW236651   0.445   2.961   3.058 -1.4632 -0.1773  2.0380
 8339SOL     OW36652   2.046   0.551   5.419  0.3283 -0.3971 -0.8378
 8339SOL    HW136653   2.113   0.510   5.475 -0.9110  0.3225  1.1542
 8339SOL    HW236654   2.047   0.497   5.340 -0.7380 -1.5499 -0.0678
 8340SOL     OW36655   3.066   3.797  16.172  0.0449  0.1016 -0.2136
 8340SOL    HW136656   3.156   3.801  16.140 -0.0266  0.5158 -0.3646
 8340SOL    HW236657   3.027   3.797  16.085  2.5961 -0.0947 -1.3647
 8341SOL     OW36658   0.744   4.271   2.472 -0.4354 -0.4156 -0.1416
 8341SOL    HW136659   0.703   4.192   2.505 -0.0312 -0.0824  1.1540
 8341SOL    HW236660   0.677   4.307   2.414 -1.8369 -2.4576  0.2252
 8342SOL     OW36661   0.219   4.678  13.117 -0.1985 -0.5226  0.0758
 8342SOL    HW136662   0.296   4.734  13.107  0.6945 -1.5552  1.2400
 8342SOL    HW236663   0.189   4.707  13.204 -1.6291 -0.5085 -0.4190
 8343SOL     OW36664   0.744   4.414   6.124  0.0005 -0.0325 -0.0613
 8343SOL    HW136665   0.766   4.403   6.032 -0.2210  0.9683 -0.2339
 8343SOL    HW236666   0.705   4.327   6.136 -1.5718  0.6723 -0.0002
 8344SOL     OW36667   3.298   2.173   3.372 -0.3030  0.7253 -0.4845
 8344SOL    HW136668   3.281   2.144   3.462 -0.0042  1.3892 -0.2083
 8344SOL    HW236669   3.238   2.240   3.339 -1.6738 -0.5449 -0.5434
 8345SOL     OW36670   2.077   0.218   4.195  0.1076  0.1091 -0.7095
 8345SOL    HW136671   2.064   0.242   4.103 -0.0918  0.8780 -0.4820
 8345SOL    HW236672   2.059   0.301   4.239  2.3135 -0.7792  1.8557
 8346SOL     OW36673   3.202   1.066   3.706 -0.2105 -0.7658  0.7467
 8346SOL    HW136674   3.287   1.045   3.667 -1.1489 -0.1618 -1.6090
 8346SOL    HW236675   3.214   1.160   3.720 -1.9526 -0.6899  1.6949
 8347SOL     OW36676   4.414   2.041   9.091  0.1872 -0.0370  0.2259
 8347SOL    HW136677   4.506   2.014   9.091  0.7676  1.9497 -1.7216
 8347SOL    HW236678   4.423   2.135   9.108  1.4100  0.3582 -2.5814
 8348SOL     OW36679   3.741   2.852  15.407  0.2650  0.0979  0.1663
 8348SOL    HW136680   3.785   2.909  15.345  0.0532 -0.2888 -0.3418
 8348SOL    HW236681   3.733   2.783  15.341  2.5494  1.6868 -1.7726
 8349SOL     OW36682   3.211   3.939   8.279  0.4564  0.4841  0.3794
 8349SOL    HW136683   3.277   3.999   8.244 -0.9831  0.8053 -1.8097
 8349SOL    HW236684   3.232   3.863   8.224 -1.2164 -1.1770  2.0400
 8350SOL     OW36685   2.673   4.354   4.438  0.8837  0.3143  0.5812
 8350SOL    HW136686   2.601   4.357   4.374 -0.8036 -0.3729  2.4623
 8350SOL    HW236687   2.734   4.386   4.372  1.4980 -0.0252  0.9928
 8351SOL     OW36688   0.990   3.196   9.189 -0.6287 -0.4857 -0.8127
 8351SOL    HW136689   1.016   3.288   9.179 -1.4408 -0.0805  0.8484
 8351SOL    HW236690   0.916   3.193   9.249 -1.1657  0.3353 -1.4356
 8352SOL     OW36691   2.163   4.566  14.160  0.2710 -0.0384 -0.3008
 8352SOL    HW136692   2.213   4.542  14.238 -1.1307  2.0696  1.2418
 8352SOL    HW236693   2.142   4.479  14.124  0.9598 -0.1743 -0.3632
 8353SOL     OW36694   3.045   1.414   5.614  0.0305  0.1436  0.0855
 8353SOL    HW136695   3.005   1.390   5.698  1.1151 -1.2004  0.2189
 8353SOL    HW236696   3.012   1.502   5.594  2.0726  0.3952 -2.1621
 8354SOL     OW36697   0.605   2.583   6.469 -0.7624  0.2613 -0.2236
 8354SOL    HW136698   0.660   2.653   6.503 -2.3255  1.5606 -0.3368
 8354SOL    HW236699   0.633   2.573   6.378 -2.7594 -1.4663 -0.6610
 8355SOL     OW36700   0.376   3.524   7.908  0.2941 -0.5118 -0.5567
 8355SOL    HW136701   0.429   3.445   7.914  0.6606 -0.4736 -3.6074
 8355SOL    HW236702   0.290   3.483   7.903  0.0079  0.1080 -0.6121
 8356SOL     OW36703   1.488   4.619   5.425 -0.1373  0.5322 -0.0781
 8356SOL    HW136704   1.550   4.657   5.486  2.1057 -3.0867 -0.0950
 8356SOL    HW236705   1.501   4.530   5.459  0.1080  1.0059  1.0425
 8357SOL     OW36706   3.419   4.311  16.506  0.3706  0.0764 -0.3041
 8357SOL    HW136707   3.393   4.374  16.574  0.1123 -0.6495  0.2702
 8357SOL    HW236708   3.331   4.295  16.472  0.6964 -0.6620 -0.7821
 8358SOL     OW36709   3.716   0.524   2.930 -0.0275  0.0617 -0.2616
 8358SOL    HW136710   3.699   0.462   3.002 -1.0081  2.4912  1.6101
 8358SOL    HW236711   3.630   0.555   2.902  0.1472  0.4091 -0.4088
 8359SOL     OW36712   3.802   1.872   4.131 -0.3055  0.0818  0.1986
 8359SOL    HW136713   3.871   1.830   4.183 -0.3993 -1.4837 -0.9579
 8359SOL    HW236714   3.805   1.838   4.042 -1.2632  1.2858 -0.2944
 8360SOL     OW36715   3.546   3.855   4.064 -0.0446 -0.3251  0.4527
 8360SOL    HW136716   3.603   3.812   4.129 -1.1493  0.4614  1.9381
 8360SOL    HW236717   3.600   3.824   3.991 -1.8710 -0.7677 -0.7046
 8361SOL     OW36718   3.108   4.613   3.331 -0.1223 -0.0080 -0.2212
 8361SOL    HW136719   3.153   4.645   3.410  1.1691  0.0503 -0.9724
 8361SOL    HW236720   3.132   4.521   3.338  1.5905  0.4757  0.3934
 8362SOL     OW36721   0.078   1.490  17.300 -0.3978 -0.5365  0.3672
 8362SOL    HW136722   0.078   1.586  17.307 -0.4728 -0.6300  1.5905
 8362SOL    HW236723   0.145   1.482  17.232 -0.2347 -0.7213  0.5543
 8363SOL     OW36724   2.767   1.003  16.311 -0.4589  0.0548  0.0165
 8363SOL    HW136725   2.684   0.976  16.271 -1.0541 -1.3643  2.2346
 8363SOL    HW236726   2.833   0.960  16.256 -1.7336 -0.0437 -1.4482
 8364SOL     OW36727   3.130   1.589   8.832  0.0846 -0.2163 -0.8483
 8364SOL    HW136728   3.214   1.544   8.833 -0.2825 -0.9057 -1.1861
 8364SOL    HW236729   3.136   1.628   8.745 -1.4892  2.2971  0.1795
 8365SOL     OW36730   4.559   0.915  11.292 -0.6607 -0.0787  0.0338
 8365SOL    HW136731   4.487   0.914  11.354 -2.3905  0.0230 -1.9832
 8365SOL    HW236732   4.517   0.948  11.213  1.2370  1.5426 -0.3134
 8366SOL     OW36733   2.191   4.410   0.326 -0.4881 -0.1655  0.6327
 8366SOL    HW136734   2.126   4.381   0.262 -0.0995 -1.4160  0.8141
 8366SOL    HW236735   2.233   4.330   0.356 -1.3797 -0.8555  0.0430
 8367SOL     OW36736   4.499   1.295   6.431  0.4222 -0.2004 -0.3281
 8367SOL    HW136737   4.468   1.208   6.407 -0.1901  0.1982 -0.9814
 8367SOL    HW236738   4.419   1.322   6.476 -0.0691 -0.8853 -0.8010
 8368SOL     OW36739   3.219   2.722  14.059 -0.1156 -0.1238  0.1783
 8368SOL    HW136740   3.132   2.686  14.076  0.3059 -0.6432  1.2724
 8368SOL    HW236741   3.203   2.748  13.969 -1.1726  3.0918  1.2860
 8369SOL     OW36742   0.411   1.658   2.039 -0.1755 -0.2834  0.5264
 8369SOL    HW136743   0.433   1.750   2.027  1.2870 -0.8025 -0.7665
 8369SOL    HW236744   0.479   1.626   2.097 -1.4141 -2.2838  0.8734
 8370SOL     OW36745   4.168   2.938   7.378  0.3360  0.3955 -0.0693
 8370SOL    HW136746   4.179   3.033   7.378 -3.8936  0.8666  1.5437
 8370SOL    HW236747   4.158   2.916   7.286 -0.7410  1.7204 -0.2522
 8371SOL     OW36748   2.321   2.012   5.178  0.1484  0.5017  0.6064
 8371SOL    HW136749   2.244   1.963   5.149  0.6385  0.1662 -0.1427
 8371SOL    HW236750   2.290   2.071   5.247  0.5110 -0.4962  1.6113
 8372SOL     OW36751   0.974   2.865   7.786 -0.0795 -0.5400 -0.0078
 8372SOL    HW136752   1.028   2.836   7.860  1.7371 -0.5971 -1.3437
 8372SOL    HW236753   0.900   2.906   7.830  0.6518  0.0205  0.7033
 8373SOL     OW36754   4.382   0.870   9.298 -0.1391  0.3012  0.7355
 8373SOL    HW136755   4.398   0.847   9.206  2.3386 -0.1247  1.2746
 8373SOL    HW236756   4.469   0.886   9.334 -0.2141  0.1522  0.9805
 8374SOL     OW36757   4.261   4.007   8.130  0.2524  0.7800  0.1494
 8374SOL    HW136758   4.238   3.988   8.039 -0.3880  1.8297  0.0961
 8374SOL    HW236759   4.180   4.047   8.161 -0.8718 -1.1381 -0.2895
 8375SOL     OW36760   4.053   3.831   3.891 -0.2489  0.4103 -0.2914
 8375SOL    HW136761   4.135   3.856   3.850 -0.2150  2.0624  0.7756
 8375SOL    HW236762   4.092   3.798   3.972 -0.3815 -0.4165 -0.5647
 8376SOL     OW36763   0.877   0.280   2.079 -0.3766 -0.1137  0.5515
 8376SOL    HW136764   0.872   0.194   2.038  0.4289 -0.1127  0.4465
 8376SOL    HW236765   0.802   0.277   2.139 -0.0282  0.7150  1.0397
 8377SOL     OW36766   4.522   3.873   7.782  0.1695  0.3930  0.1497
 8377SOL    HW136767   4.572   3.827   7.851 -0.1115 -0.3042 -0.1088
 8377SOL    HW236768   4.525   3.965   7.807  1.1426  0.6370 -0.8929
 8378SOL     OW36769   2.353   3.369  12.394 -0.4852  0.4513  0.2121
 8378SOL    HW136770   2.447   3.385  12.401 -1.3016  5.8656 -1.2955
 8378SOL    HW236771   2.307   3.436  12.445 -1.1871 -0.6809  1.0686
 8379SOL     OW36772   1.729   1.994   3.671 -0.1280 -0.1975  0.1902
 8379SOL    HW136773   1.712   1.928   3.604 -0.1497 -0.2509  0.2483
 8379SOL    HW236774   1.813   1.964   3.704  0.4064  0.7761 -0.2603
 8380SOL     OW36775   4.368   0.245   3.564 -0.2958 -0.3339 -0.0143
 8380SOL    HW136776   4.378   0.150   3.554  0.0442 -0.1106 -1.7594
 8380SOL    HW236777   4.274   0.255   3.555 -0.3785 -0.8295  0.3084
 8381SOL     OW36778   2.376   4.370   8.639  0.7544  0.0380 -0.3594
 8381SOL    HW136779   2.398   4.373   8.546 -0.2722  3.3732 -0.4891
 8381SOL    HW236780   2.438   4.431   8.679 -0.9715  0.0100  2.3858
 8382SOL     OW36781   0.316   3.294   0.467 -0.3816  0.2497 -0.4459
 8382SOL    HW136782   0.221   3.296   0.452 -0.5358 -3.3848  0.0694
 8382SOL    HW236783   0.312   3.280   0.562 -0.4193 -1.6593 -0.7214
 8383SOL     OW36784   4.468   4.704   1.779  0.2887  0.4595 -0.5016
 8383SOL    HW136785   4.529   0.000   1.713  0.2753  0.2113 -0.6345
 8383SOL    HW236786   4.387   0.007   1.747 -2.7632 -1.9803  4.2029
 8384SOL     OW36787   2.180   4.735   4.775  0.0591 -0.2676 -0.0764
 8384SOL    HW136788   2.198   0.032   4.687  1.8227 -2.0519 -0.3995
 8384SOL    HW236789   2.158   4.643   4.758 -1.1445  0.0315 -0.1370
 8385SOL     OW36790   3.463   1.993   3.156 -0.5969 -0.6542 -0.1132
 8385SOL    HW136791   3.456   1.920   3.095  1.8672  1.7467 -3.2389
 8385SOL    HW236792   3.523   1.957   3.221  0.5569 -0.3442 -1.0151
 8386SOL     OW36793   2.397   3.098  10.101  0.7059  0.2765  0.6569
 8386SOL    HW136794   2.343   3.125  10.175  0.7624  0.0446  0.7828
 8386SOL    HW236795   2.432   3.016  10.137  0.3626 -0.6097 -0.9988
 8387SOL     OW36796   3.567   3.241   1.986  0.0562  0.1543  0.3597
 8387SOL    HW136797   3.653   3.278   2.007 -0.7347  2.8847 -1.1851
 8387SOL    HW236798   3.589   3.148   1.974  0.0326  0.4516 -1.9671
 8388SOL     OW36799   4.680   3.231   3.511  0.3415 -0.5861  0.0585
 8388SOL    HW136800   4.593   3.219   3.472 -1.2108 -0.5361  3.4572
 8388SOL    HW236801   4.715   3.274   3.433  1.2069 -2.6490 -0.6715
 8389SOL     OW36802   0.241   1.049  12.571 -0.3908 -0.6335 -0.1755
 8389SOL    HW136803   0.157   1.062  12.526 -0.8503  1.3825  1.2761
 8389SOL    HW236804   0.220   1.103  12.647  0.5887 -0.3920 -0.0803
 8390SOL     OW36805   3.489   1.416   4.362  0.4786  0.2231 -0.1734
 8390SOL    HW136806   3.445   1.438   4.280  2.0343  1.5610 -0.6620
 8390SOL    HW236807   3.570   1.376   4.329  0.1711 -1.6359  1.3212
 8391SOL     OW36808   1.649   0.130   2.596  0.1164 -0.3435  0.6777
 8391SOL    HW136809   1.686   0.064   2.538  2.0001 -0.9280  2.5627
 8391SOL    HW236810   1.632   0.200   2.533 -3.7138 -1.1261  0.8099
 8392SOL     OW36811   0.098   2.029   1.198 -0.1544 -0.1737  0.5853
 8392SOL    HW136812   0.142   2.031   1.283  0.2047  0.7102  0.3782
 8392SOL    HW236813   0.019   1.985   1.228  0.1325 -0.7736  0.4576
 8393SOL     OW36814   0.070   0.475   4.203  0.5691  0.3959 -0.2049
 8393SOL    HW136815   0.109   0.523   4.131 -0.1299  0.2451 -0.6927
 8393SOL    HW236816   4.718   0.459   4.171 -0.0024 -2.4785  2.7767
 8394SOL     OW36817   3.644   4.107  12.034  0.0012 -0.0732  0.0431
 8394SOL    HW136818   3.569   4.049  12.049  0.7399 -1.1667 -0.6078
 8394SOL    HW236819   3.605   4.183  11.990  0.8443 -0.6997 -1.7832
 8395SOL     OW36820   0.021   3.621  16.080 -0.5275  0.3959  0.3845
 8395SOL    HW136821   4.695   3.637  16.010  0.3093  1.5663 -0.0889
 8395SOL    HW236822   0.032   3.704  16.126 -1.1539  0.6451  0.0720
 8396SOL     OW36823   2.979   0.223  17.356  0.1467  0.1265 -0.7121
 8396SOL    HW136824   2.966   0.178  17.440 -2.0148  0.5561 -0.8047
 8396SOL    HW236825   2.988   0.316  17.376  1.4934 -0.0362 -0.5744
 8397SOL     OW36826   0.120   1.760  17.336 -0.2525  0.0211 -0.2547
 8397SOL    HW136827   0.078   1.806  17.409  0.3117  1.7255 -0.9900
 8397SOL    HW236828   0.124   1.829  17.269 -1.5560 -0.3563 -0.7111
 8398SOL     OW36829   1.604   1.312  16.771 -0.5566 -0.5021 -0.4123
 8398SOL    HW136830   1.612   1.298  16.866  0.4432  0.2097 -0.3886
 8398SOL    HW236831   1.696   1.308  16.747 -0.3413  0.6452  0.2094
 8399SOL     OW36832   3.572   0.061   1.744 -0.2855  0.2178  0.3422
 8399SOL    HW136833   3.648   0.045   1.799  0.0304  0.7648  0.0668
 8399SOL    HW236834   3.505   0.055   1.812  0.8938  0.4403  1.5220
 8400SOL     OW36835   4.695   0.586  11.402 -0.5770  0.4460 -0.4787
 8400SOL    HW136836   4.729   0.497  11.393  0.3651  0.6533  0.9106
 8400SOL    HW236837   4.650   0.579  11.487  0.3374  0.8619  0.0411
 8401SOL     OW36838   3.199   2.051   3.079  0.0677 -0.3448 -0.6814
 8401SOL    HW136839   3.291   2.033   3.096  0.2359  0.1565 -1.0342
 8401SOL    HW236840   3.194   2.024   2.987  0.8915 -0.0744 -0.8075
 8402SOL     OW36841   0.484   3.526   7.558 -0.0817 -0.0045 -0.9953
 8402SOL    HW136842   0.435   3.467   7.615  0.8886  0.3694  0.2245
 8402SOL    HW236843   0.420   3.539   7.488  1.3990  0.3469 -2.2881
 8403SOL     OW36844   4.613   4.334   6.151 -0.0528 -0.0392 -0.2985
 8403SOL    HW136845   4.573   4.247   6.148  0.0042 -0.0427 -1.1413
 8403SOL    HW236846   4.692   4.323   6.204  0.2048 -0.6719 -0.8064
 8404SOL     OW36847   0.675   0.590   4.905 -0.4568 -0.6177 -0.6018
 8404SOL    HW136848   0.677   0.678   4.866  2.1641  0.0422  1.0460
 8404SOL    HW236849   0.610   0.607   4.973  2.1223 -1.4514  2.0688
 8405SOL     OW36850   1.720   4.065   7.468  0.3515  0.5317  0.0415
 8405SOL    HW136851   1.663   4.141   7.475  1.9003  1.7215 -0.3420
 8405SOL    HW236852   1.772   4.081   7.389  0.2928 -2.7601 -0.6846
 8406SOL     OW36853   0.672   3.335   2.278 -0.1138 -0.2248  0.1781
 8406SOL    HW136854   0.621   3.268   2.323  1.7144 -2.1580 -0.6129
 8406SOL    HW236855   0.746   3.281   2.251  0.0317  0.2368 -0.3465
 8407SOL     OW36856   1.429   2.866   4.811  0.0867 -0.1671 -0.1393
 8407SOL    HW136857   1.507   2.826   4.773 -1.1319 -0.8350 -1.8994
 8407SOL    HW236858   1.355   2.818   4.774 -1.3986  1.0165  1.2691
 8408SOL     OW36859   0.953   2.225  16.658  0.2594  0.2059  0.1399
 8408SOL    HW136860   0.882   2.183  16.707 -0.1726  1.8068  0.8630
 8408SOL    HW236861   0.929   2.313  16.689 -0.4710  0.2267 -0.4696
 8409SOL     OW36862   3.314   3.779   2.624  0.4909  0.2013 -0.0563
 8409SOL    HW136863   3.405   3.754   2.608  0.3183  0.6152 -1.6321
 8409SOL    HW236864   3.295   3.828   2.544 -0.5965 -1.5025 -0.8323
 8410SOL     OW36865   1.538   3.131   7.123  0.5756  0.2573 -0.0607
 8410SOL    HW136866   1.498   3.172   7.200  1.2690 -1.2797  1.1216
 8410SOL    HW236867   1.458   3.123   7.071 -0.0396  0.7727  0.8111
 8411SOL     OW36868   4.587   0.381   4.102  0.5508  0.2096  0.0895
 8411SOL    HW136869   4.563   0.289   4.112  0.7739  0.2783  1.2376
 8411SOL    HW236870   4.496   0.412   4.100  0.5869  0.3432  0.4771
 8412SOL     OW36871   1.778   2.432  14.393  0.6458 -0.2921 -0.2977
 8412SOL    HW136872   1.748   2.419  14.303  1.0557 -0.9476 -0.3445
 8412SOL    HW236873   1.861   2.479  14.381  0.7038 -0.3558 -0.1488
 8413SOL     OW36874   1.464   1.367   6.859  0.4422 -0.0121 -0.0858
 8413SOL    HW136875   1.526   1.373   6.932 -0.8860  1.5680  0.9129
 8413SOL    HW236876   1.492   1.279   6.835 -0.4541 -0.8939  2.0925
 8414SOL     OW36877   1.917   2.206   5.128 -0.1598  0.6500  0.6148
 8414SOL    HW136878   1.830   2.185   5.162  0.2266 -0.3299  0.9994
 8414SOL    HW236879   1.951   2.270   5.189  0.2432  0.6795  0.3572
 8415SOL     OW36880   1.080   4.183  16.079  0.0125 -0.1700  0.6272
 8415SOL    HW136881   1.095   4.229  16.161 -1.0964  1.3114  0.0046
 8415SOL    HW236882   1.170   4.179  16.046  0.2042  1.0443  1.0075
 8416SOL     OW36883   1.164   2.183   5.236 -0.0986  0.4052 -0.5500
 8416SOL    HW136884   1.201   2.253   5.182 -1.6373  1.0194 -0.8103
 8416SOL    HW236885   1.222   2.107   5.224  0.6555  1.1411 -1.5467
 8417SOL     OW36886   1.287   2.755  16.703  0.6168 -0.1571  0.0352
 8417SOL    HW136887   1.276   2.685  16.767 -1.4802 -0.5488 -0.7526
 8417SOL    HW236888   1.372   2.786  16.734 -0.2202  2.3207 -0.2086
 8418SOL     OW36889   4.100   1.503   8.359 -0.1064 -0.0268 -0.1881
 8418SOL    HW136890   4.155   1.578   8.382 -0.0906  0.5449 -2.0999
 8418SOL    HW236891   4.010   1.535   8.367 -0.1630 -0.3855  0.6024
 8419SOL     OW36892   2.162   0.607   6.000 -0.1013 -0.2396  0.5223
 8419SOL    HW136893   2.113   0.688   6.000 -0.9238 -0.7198 -2.7519
 8419SOL    HW236894   2.137   0.568   5.916  0.5253 -2.8282  1.5199
 8420SOL     OW36895   2.919   1.786   2.266 -0.2424  0.0518  0.1982
 8420SOL    HW136896   2.849   1.741   2.219  1.2303 -1.1915 -0.7759
 8420SOL    HW236897   2.876   1.862   2.307  1.6878  1.5966 -0.6119
 8421SOL     OW36898   0.483   0.660  11.279 -0.0913  0.4420  0.4184
 8421SOL    HW136899   0.453   0.734  11.226 -1.9552 -0.8873 -0.3670
 8421SOL    HW236900   0.567   0.688  11.316  0.3844 -0.5267  0.0748
 8422SOL     OW36901   1.800   3.803   8.887 -0.1069 -0.1803  0.2615
 8422SOL    HW136902   1.777   3.859   8.961  1.4331  0.0783  0.5547
 8422SOL    HW236903   1.742   3.729   8.907 -0.6730 -0.1425 -1.2674
 8423SOL     OW36904   3.218   3.648   6.777 -0.4530 -0.3654 -0.2667
 8423SOL    HW136905   3.213   3.572   6.835  3.1748  0.5747  1.3076
 8423SOL    HW236906   3.303   3.618   6.744 -0.9815  0.9449 -2.7723
 8424SOL     OW36907   0.829   4.074  12.147  0.2417  0.7105  0.5969
 8424SOL    HW136908   0.805   3.991  12.106 -1.9635  1.2926  0.7294
 8424SOL    HW236909   0.778   4.142  12.105 -1.0543 -0.9024 -0.4437
 8425SOL     OW36910   1.141   1.150   8.760  0.4326  0.4878 -0.3833
 8425SOL    HW136911   1.220   1.144   8.707 -0.1638  1.0257 -1.3409
 8425SOL    HW236912   1.190   1.184   8.834  1.0007 -1.7232  0.2537
 8426SOL     OW36913   0.333   0.259  10.389 -0.1735 -0.0776 -0.3330
 8426SOL    HW136914   0.396   0.322  10.423 -0.8006  1.6083 -2.3211
 8426SOL    HW236915   0.366   0.237  10.302 -1.0574 -0.1668 -0.6443
 8427SOL     OW36916   1.968   0.917  17.604  0.0407 -0.5274  0.0656
 8427SOL    HW136917   1.996   1.007  17.619 -0.9731 -0.6690  2.8938
 8427SOL    HW236918   1.986   0.880  17.691 -1.7520 -1.5272 -0.0078
 8428SOL     OW36919   2.001   3.254  14.247  0.0158 -0.4391  0.4502
 8428SOL    HW136920   2.007   3.346  14.273  0.6476 -0.1870 -0.5889
 8428SOL    HW236921   2.046   3.251  14.163 -1.2941 -0.9030 -0.2373
 8429SOL     OW36922   0.440   2.823  15.364 -0.7875  0.1791 -0.1242
 8429SOL    HW136923   0.424   2.904  15.413 -0.8207  0.0863  0.0189
 8429SOL    HW236924   0.349   2.795  15.352 -1.3068  0.9536  1.9551
 8430SOL     OW36925   0.611   2.457   5.730 -0.1129 -0.5622  0.1517
 8430SOL    HW136926   0.647   2.369   5.736 -0.5599 -0.7535  0.0166
 8430SOL    HW236927   0.517   2.442   5.721  0.0030 -0.9597 -0.4164
 8431SOL     OW36928   0.103   3.677   8.749 -0.1842  0.4082 -0.7347
 8431SOL    HW136929   0.093   3.610   8.816  0.3965  2.4556  1.3863
 8431SOL    HW236930   0.185   3.646   8.709 -1.4088 -1.3108 -1.9324
 8432SOL     OW36931   3.765   2.332   5.943 -0.2253  0.4101 -0.2496
 8432SOL    HW136932   3.696   2.296   5.886 -0.3084 -0.2322  0.2544
 8432SOL    HW236933   3.719   2.325   6.027  1.0310  0.1660  0.4143
 8433SOL     OW36934   3.798   2.936   6.600  0.4213 -0.0045  0.0063
 8433SOL    HW136935   3.825   2.992   6.528  1.3377 -1.3087 -0.6757
 8433SOL    HW236936   3.761   2.860   6.554  1.2643 -0.8613  0.7327
 8434SOL     OW36937   2.999   2.961   6.894  0.2376  0.1405 -0.0572
 8434SOL    HW136938   3.079   2.962   6.843  0.9385 -1.4015  1.0017
 8434SOL    HW236939   2.991   3.043   6.943 -2.0666  0.0610 -0.2779
 8435SOL     OW36940   1.734   4.503   1.485  0.1590  0.2157 -0.1109
 8435SOL    HW136941   1.676   4.474   1.415  0.1704 -3.4130  1.3782
 8435SOL    HW236942   1.790   4.562   1.436  1.2925 -0.9486 -0.2349
 8436SOL     OW36943   3.042   1.094   7.428  0.1703 -0.3381 -0.0028
 8436SOL    HW136944   2.988   1.158   7.381 -0.4400 -1.2721 -0.5706
 8436SOL    HW236945   3.112   1.100   7.362  0.3165  2.1006  0.3790
 8437SOL     OW36946   0.752   3.019  16.501  0.3794 -0.6733  0.2760
 8437SOL    HW136947   0.691   3.087  16.472  1.0820 -0.9987 -2.0425
 8437SOL    HW236948   0.784   2.987  16.416  1.2221  1.1508 -0.0954
 8438SOL     OW36949   0.880   4.578   3.398 -0.4159 -0.5345 -0.4122
 8438SOL    HW136950   0.969   4.613   3.397 -0.5164 -0.2875 -0.8415
 8438SOL    HW236951   0.831   4.640   3.344  2.5687  0.0887 -2.3590
 8439SOL     OW36952   0.823   2.040   7.343  0.2969 -0.2799 -0.1484
 8439SOL    HW136953   0.897   2.089   7.307  0.9698 -1.2673 -0.1113
 8439SOL    HW236954   0.835   2.031   7.437  0.3183  0.8437 -0.0386
 8440SOL     OW36955   0.758   0.096   4.476  0.2783  0.3279 -0.2736
 8440SOL    HW136956   0.668   0.080   4.446  1.2366 -0.1450 -2.8686
 8440SOL    HW236957   0.766   0.067   4.567  1.1259  2.9228  0.4714
 8441SOL     OW36958   4.181   0.936   3.692  0.0383 -0.5152  0.5507
 8441SOL    HW136959   4.229   0.917   3.773  0.9371 -0.3939  0.0482
 8441SOL    HW236960   4.255   0.913   3.636 -2.0686 -2.0195 -1.6725
 8442SOL     OW36961   0.933   3.002   7.381  0.6359  0.2331 -0.1406
 8442SOL    HW136962   0.887   2.962   7.307  1.0781 -2.8637  1.2822
 8442SOL    HW236963   0.866   2.977   7.444 -2.0422  1.4180 -2.4988
 8443SOL     OW36964   0.741   4.613  12.441  0.8907 -0.0459 -0.9881
 8443SOL    HW136965   0.671   4.568  12.487  1.2576 -0.6266 -0.9956
 8443SOL    HW236966   0.727   4.704  12.467 -0.8072 -0.5115 -0.2719
 8444SOL     OW36967   3.870   3.530   0.467  0.4825  0.0109 -0.2723
 8444SOL    HW136968   3.775   3.540   0.460  0.1785 -0.5335  3.2013
 8444SOL    HW236969   3.878   3.435   0.462  1.9348  0.1778 -1.2432
 8445SOL     OW36970   2.260   3.416  14.519 -0.1325 -0.1513 -0.1774
 8445SOL    HW136971   2.330   3.402  14.455  0.7170  0.4506  0.6168
 8445SOL    HW236972   2.194   3.468  14.474  0.0349 -1.1421 -1.5570
 8446SOL     OW36973   1.813   4.624  15.988 -0.0803 -0.2403 -0.7639
 8446SOL    HW136974   1.753   4.591  15.921 -1.6574 -0.5685  0.8098
 8446SOL    HW236975   1.795   4.716  16.006 -1.4807 -0.4438 -1.0908
 8447SOL     OW36976   2.790   2.161   6.475 -0.5142  0.1803 -0.2094
 8447SOL    HW136977   2.797   2.111   6.393  0.1119  1.9525 -1.2482
 8447SOL    HW236978   2.768   2.094   6.539  0.4090 -3.0638 -3.2474
 8448SOL     OW36979   0.022   2.968   4.083  0.0151 -0.9128 -0.5274
 8448SOL    HW136980   4.715   2.939   4.004 -0.6852  0.2322 -0.5477
 8448SOL    HW236981   0.008   3.062   4.081 -1.1133 -1.0783 -0.2513
 8449SOL     OW36982   3.788   1.606   2.631  0.3377  0.6573 -0.6222
 8449SOL    HW136983   3.864   1.609   2.573  2.0501 -1.2786  1.5065
 8449SOL    HW236984   3.822   1.561   2.709  2.3974  0.8126 -1.4284
 8450SOL     OW36985   3.844   0.220   3.617  0.5064  0.1117 -0.3728
 8450SOL    HW136986   3.794   0.177   3.686  0.5036  0.0649 -0.4045
 8450SOL    HW236987   3.796   0.294   3.579  1.4405  1.1778  0.4892
 8451SOL     OW36988   1.917   3.866  13.042  0.0044  0.1607 -0.5295
 8451SOL    HW136989   1.828   3.861  13.076  0.1801  0.4715 -0.0215
 8451SOL    HW236990   1.938   3.957  13.063 -0.5279 -0.0217  0.8219
 8452SOL     OW36991   1.530   0.201  16.695  0.5324  0.5257  0.3777
 8452SOL    HW136992   1.594   0.264  16.659 -0.8402  0.7356 -1.6887
 8452SOL    HW236993   1.555   0.194  16.787 -1.1770 -0.3979  0.7749
 8453SOL     OW36994   0.148   1.734   0.030  0.6947  0.2219 -0.4936
 8453SOL    HW136995   0.108   1.812  17.738 -0.2130  0.0913  0.2141
 8453SOL    HW236996   0.072   1.689   0.068  1.2462  0.7241  1.1769
 8454SOL     OW36997   2.003   1.065   4.355  0.0511  0.3210 -0.1717
 8454SOL    HW136998   2.048   1.149   4.346 -1.5922  1.0779 -1.2160
 8454SOL    HW236999   2.059   1.010   4.300 -1.9217 -0.2539 -1.6085
 8455SOL     OW37000   4.546   4.435   2.167  0.0004 -0.2456  0.2738
 8455SOL    HW137001   4.457   4.400   2.175  0.4250 -1.6245 -1.0509
 8455SOL    HW237002   4.559   4.409   2.076 -1.9005 -1.4730  0.3540
 8456SOL     OW37003   4.452   4.436  14.833 -0.3475  0.3280  0.3912
 8456SOL    HW137004   4.419   4.435  14.743  1.2770 -0.4295 -0.1819
 8456SOL    HW237005   4.541   4.464  14.813 -0.3992 -0.3361 -0.7587
 8457SOL     OW37006   1.222   1.133   4.427 -0.0591  0.1090 -0.1784
 8457SOL    HW137007   1.193   1.193   4.496  0.7517  0.9918 -0.6072
 8457SOL    HW237008   1.261   1.073   4.491  0.1232  0.7631  0.3243
 8458SOL     OW37009   2.046   4.295   8.821  0.4910 -0.3433  0.0278
 8458SOL    HW137010   1.994   4.216   8.834  0.9914 -0.5758  0.6199
 8458SOL    HW237011   2.054   4.302   8.726 -0.6167 -0.0363 -0.0428
 8459SOL     OW37012   1.749   1.952   5.011  0.4813  0.3429 -0.1002
 8459SOL    HW137013   1.731   1.859   4.998 -1.9812  0.7083  0.7480
 8459SOL    HW237014   1.767   1.969   4.918 -0.8262  0.9930 -0.2238
 8460SOL     OW37015   4.004   1.669   8.823  0.3640 -0.4951 -0.1068
 8460SOL    HW137016   4.018   1.581   8.788  1.2589  0.5580 -2.4145
 8460SOL    HW237017   3.997   1.725   8.746 -1.0676 -1.5265 -0.7352
 8461SOL     OW37018   1.996   3.898   5.483 -0.0999  0.3150  0.4253
 8461SOL    HW137019   1.946   3.835   5.534 -1.4685  1.7260  0.8346
 8461SOL    HW237020   1.931   3.923   5.417  1.6221 -0.4112 -1.5439
 8462SOL     OW37021   2.930   2.140  12.622  0.0703  0.0136 -0.2960
 8462SOL    HW137022   2.995   2.101  12.564 -1.5745 -0.4294 -1.8603
 8462SOL    HW237023   2.973   2.139  12.707  2.6675 -0.9766 -1.6422
 8463SOL     OW37024   0.821   4.582  14.356  0.2625 -0.2496 -0.5318
 8463SOL    HW137025   0.827   4.608  14.448  0.5928 -0.5945 -0.4556
 8463SOL    HW237026   0.904   4.535  14.362  1.0831  1.2669  0.1740
 8464SOL     OW37027   1.350   3.724  12.376 -0.3338  0.2141 -0.5659
 8464SOL    HW137028   1.436   3.687  12.395 -1.4543 -1.5292  1.0378
 8464SOL    HW237029   1.381   3.803  12.330  1.0283  1.0418  1.7447
 8465SOL     OW37030   0.070   0.244  14.482 -0.4252  0.7854 -0.5567
 8465SOL    HW137031   0.003   0.243  14.413 -0.9835 -1.7305  0.0052
 8465SOL    HW237032   0.145   0.270  14.428  0.4695  2.9056  1.7361
 8466SOL     OW37033   0.336   2.661   2.992  0.2341  0.3227  0.5377
 8466SOL    HW137034   0.333   2.580   3.044  0.4476 -0.1983 -0.2673
 8466SOL    HW237035   0.256   2.701   3.026 -1.0598 -2.0766  0.3325
 8467SOL     OW37036   0.640   2.342   9.053  0.9890  0.0313  0.2455
 8467SOL    HW137037   0.652   2.254   9.090  1.3000 -0.2175 -0.4516
 8467SOL    HW237038   0.711   2.331   8.990  2.2767 -0.1904  1.7279
 8468SOL     OW37039   1.655   4.722   5.615  0.1364  0.1906 -0.4636
 8468SOL    HW137040   1.678   4.732   5.708 -1.4663 -0.1927 -0.0264
 8468SOL    HW237041   1.733   4.704   5.563  1.8002  2.2145  1.3359
 8469SOL     OW37042   4.666   1.608   7.955 -0.0695 -0.3183 -0.0854
 8469SOL    HW137043   0.013   1.584   7.916 -1.6081 -2.0967 -2.3744
 8469SOL    HW237044   4.680   1.614   8.049 -1.4096 -0.2307  0.1113
 8470SOL     OW37045   2.340   4.156   6.996  0.3853 -0.4573 -0.7923
 8470SOL    HW137046   2.342   4.197   6.910  0.2806  1.0535 -0.0710
 8470SOL    HW237047   2.433   4.172   7.012  0.3548  0.6023 -1.6407
 8471SOL     OW37048   2.226   4.087   5.558  0.7136  0.3272 -0.0979
 8471SOL    HW137049   2.149   4.032   5.568  1.4933 -0.4564  1.7455
 8471SOL    HW237050   2.187   4.135   5.486  0.9397 -0.4152 -0.7122
 8472SOL     OW37051   2.483   1.246   8.401 -0.2935 -0.0643 -0.0156
 8472SOL    HW137052   2.560   1.269   8.452  0.2264  0.8141 -1.2113
 8472SOL    HW237053   2.466   1.333   8.364  1.7840  0.9783  1.5052
 8473SOL     OW37054   0.237   2.765   3.808 -0.5486 -0.7588  0.2274
 8473SOL    HW137055   0.273   2.756   3.720 -0.7178  4.5077 -0.3503
 8473SOL    HW237056   0.230   2.672   3.833  0.9266 -1.0955 -0.6520
 8474SOL     OW37057   3.959   2.440  14.757  0.3818 -0.2818 -0.0235
 8474SOL    HW137058   3.933   2.455  14.848  0.3258  0.0403 -0.0958
 8474SOL    HW237059   4.001   2.524  14.740  0.1176 -0.3497 -1.0096
 8475SOL     OW37060   2.464   0.606   5.253  0.3554  0.3426  0.4841
 8475SOL    HW137061   2.548   0.648   5.272 -0.3576  2.6425 -1.3815
 8475SOL    HW237062   2.468   0.526   5.305 -0.2951 -0.3480 -0.5452
 8476SOL     OW37063   2.337   3.163   8.028 -0.1306  0.1196  0.9160
 8476SOL    HW137064   2.345   3.247   8.072  0.6693 -0.1212  1.2250
 8476SOL    HW237065   2.423   3.122   8.036 -0.4225 -1.0692 -1.9653
 8477SOL     OW37066   4.370   2.328  14.489  0.2613  0.1050  0.3505
 8477SOL    HW137067   4.332   2.251  14.531  0.5805 -0.1860  0.1055
 8477SOL    HW237068   4.464   2.317  14.507  0.4129  6.2027  3.1800
 8478SOL     OW37069   1.682   1.321   7.027 -0.5027  0.0695 -0.0024
 8478SOL    HW137070   1.765   1.276   7.042 -0.3308  0.2234 -0.4891
 8478SOL    HW237071   1.677   1.368   7.111  1.9578 -1.2794  0.8816
 8479SOL     OW37072   0.156   2.623   0.356  0.0012  0.7627  0.6111
 8479SOL    HW137073   0.211   2.560   0.403  2.5863  1.0409 -2.1087
 8479SOL    HW237074   0.075   2.575   0.374  1.8222 -2.2638  0.8262
 8480SOL     OW37075   3.330   4.153   1.522 -0.2213  0.2499 -0.3477
 8480SOL    HW137076   3.393   4.174   1.453  0.8029  0.5780  0.6919
 8480SOL    HW237077   3.244   4.154   1.481  0.2753  1.7125 -1.3533
 8481SOL     OW37078   1.124   2.419  14.436  0.0454 -0.1190  0.1370
 8481SOL    HW137079   1.189   2.367  14.482  0.1638 -0.5184 -0.4821
 8481SOL    HW237080   1.173   2.492  14.397  0.5369 -0.8246 -0.5742
 8482SOL     OW37081   0.063   3.412  13.174 -0.1929 -0.3152  0.2664
 8482SOL    HW137082   0.007   3.443  13.102  0.3033 -0.5761 -0.2338
 8482SOL    HW237083   0.145   3.461  13.164 -0.5629  0.1824 -0.2912
 8483SOL     OW37084   0.336   2.596   7.859  0.5468  0.1069 -0.9714
 8483SOL    HW137085   0.419   2.633   7.889 -0.1534  0.2312  0.7833
 8483SOL    HW237086   0.321   2.526   7.923  0.7125  0.3947 -0.6184
 8484SOL     OW37087   3.210   3.340   5.242  0.1526 -0.2999 -0.0026
 8484SOL    HW137088   3.128   3.377   5.275  0.3725  1.3475 -1.3072
 8484SOL    HW237089   3.228   3.389   5.162  0.4705  1.7714  1.3291
 8485SOL     OW37090   3.951   2.916   8.788 -0.1161  0.2876  0.8138
 8485SOL    HW137091   3.955   3.010   8.800  1.7370  0.4430 -0.9645
 8485SOL    HW237092   3.867   2.895   8.746 -0.4662  0.6686  1.3246
 8486SOL     OW37093   2.558   0.365   7.538  0.3815  1.1432 -0.2182
 8486SOL    HW137094   2.563   0.401   7.626 -2.0452  0.8886  0.0381
 8486SOL    HW237095   2.463   0.353   7.529  0.3269  2.4221 -1.4144
 8487SOL     OW37096   2.134   0.087   3.125  0.4939 -0.4992 -0.0296
 8487SOL    HW137097   2.111   0.146   3.197  0.7095 -0.7207  0.2234
 8487SOL    HW237098   2.052   0.038   3.139 -0.2696  0.1985 -2.0545
 8488SOL     OW37099   0.557   0.211   1.957 -0.1062 -0.5415  0.2955
 8488SOL    HW137100   0.480   0.155   1.961  0.7000 -1.4415  3.2656
 8488SOL    HW237101   0.511   0.286   1.918  0.1601 -2.1164 -3.0189
 8489SOL     OW37102   3.867   0.317   4.442  0.1695  0.0108  0.0467
 8489SOL    HW137103   3.788   0.314   4.388  0.4110  1.3517 -0.3963
 8489SOL    HW237104   3.863   0.241   4.498  1.6278 -1.0019 -1.2303
 8490SOL     OW37105   3.836   4.729   5.739 -0.3231  0.6942 -0.0395
 8490SOL    HW137106   3.797   4.657   5.690  0.9524 -2.3010  3.3808
 8490SOL    HW237107   3.789   4.715   5.821 -1.3016 -0.6043 -0.8346
 8491SOL     OW37108   2.820   2.383  14.447 -0.1671 -0.2177  0.5007
 8491SOL    HW137109   2.880   2.398  14.374  2.2242  0.0376  2.5138
 8491SOL    HW237110   2.852   2.448  14.509  0.7617  2.8138 -3.1532
 8492SOL     OW37111   2.702   1.446   5.021  0.5993 -0.1966 -0.1086
 8492SOL    HW137112   2.663   1.494   5.095  0.0915  0.5087 -0.8245
 8492SOL    HW237113   2.639   1.375   5.008  0.2942 -0.0814  0.7431
 8493SOL     OW37114   0.606   3.428   3.631  0.0223 -0.3046  0.6682
 8493SOL    HW137115   0.569   3.342   3.650 -0.4629 -0.0651  0.8001
 8493SOL    HW237116   0.697   3.409   3.653 -0.1350 -1.1016  0.6339
 8494SOL     OW37117   0.653   1.562   6.667  0.0826 -0.7517 -0.3033
 8494SOL    HW137118   0.712   1.527   6.600 -1.3504 -0.8558 -1.5002
 8494SOL    HW237119   0.581   1.601   6.618  0.3726 -0.7228 -0.7060
 8495SOL     OW37120   2.846   4.694   5.383  0.1127 -0.0157  0.3885
 8495SOL    HW137121   2.836   0.052   5.385 -1.2524 -0.0897 -2.3964
 8495SOL    HW237122   2.886   4.683   5.296 -1.4451 -1.7107 -0.1184
 8496SOL     OW37123   2.118   4.481   4.733 -0.1744 -0.1043 -0.1314
 8496SOL    HW137124   2.044   4.485   4.672 -1.0551  0.0508  0.9381
 8496SOL    HW237125   2.070   4.456   4.812  0.6333 -2.3577 -0.3385
 8497SOL     OW37126   3.341   3.387   7.892 -0.0987  0.0619  0.0812
 8497SOL    HW137127   3.352   3.481   7.877 -3.8326  0.5692  0.5962
 8497SOL    HW237128   3.373   3.341   7.814  1.4699  1.6823 -0.2470
 8498SOL     OW37129   2.816   3.044   3.338  0.1179  0.8096  0.7040
 8498SOL    HW137130   2.773   2.959   3.335  0.1732  0.7610  1.2827
 8498SOL    HW237131   2.741   3.097   3.314  0.2976  0.6854 -0.1314
 8499SOL     OW37132   1.185   0.258   4.040  0.3883 -0.1246 -0.0535
 8499SOL    HW137133   1.126   0.320   3.997  3.0249  1.8416 -0.8327
 8499SOL    HW237134   1.260   0.316   4.026  1.7200 -1.1765  2.8509
 8500SOL     OW37135   4.079   1.860   8.115 -0.4643  0.1670  0.0019
 8500SOL    HW137136   4.003   1.850   8.057 -0.2688 -0.8653 -0.0775
 8500SOL    HW237137   4.131   1.909   8.051 -1.4344  0.0731 -0.8547
 8501SOL     OW37138   1.608   0.368   0.344  0.5478  0.4097  0.8868
 8501SOL    HW137139   1.603   0.275   0.319  1.0412  1.0108 -1.4252
 8501SOL    HW237140   1.568   0.366   0.431  0.5232  1.6298  0.8975
 8502SOL     OW37141   1.477   4.201   2.141  0.2963 -0.1386  0.0324
 8502SOL    HW137142   1.503   4.148   2.216 -0.0984 -0.6527 -0.1947
 8502SOL    HW237143   1.438   4.130   2.090 -0.7286 -0.2534  0.9559
 8503SOL     OW37144   2.024   3.739   7.375  0.0640 -0.4381 -0.0229
 8503SOL    HW137145   2.084   3.730   7.301 -0.2541  0.1826 -0.3642
 8503SOL    HW237146   1.961   3.671   7.349 -0.9563  1.1172 -1.6726
 8504SOL     OW37147   3.942   2.741   8.247  0.0787  0.3281  0.3726
 8504SOL    HW137148   4.032   2.732   8.216  0.3726 -1.6406  1.8179
 8504SOL    HW237149   3.944   2.674   8.316 -2.1392  0.6356  0.7251
 8505SOL     OW37150   1.327   2.576   7.228 -0.6603  0.0035  0.2977
 8505SOL    HW137151   1.289   2.589   7.315 -2.3457  0.5318 -0.5152
 8505SOL    HW237152   1.398   2.515   7.247  1.2291  1.9447 -0.6827
 8506SOL     OW37153   0.512   4.495   6.305  0.5450  0.1929 -0.6064
 8506SOL    HW137154   0.552   4.519   6.389 -0.9983 -0.1258  0.2239
 8506SOL    HW237155   0.586   4.503   6.245  0.6797 -0.1210 -0.4793
 8507SOL     OW37156   0.402   2.143  14.890  0.2105  0.1919 -0.1744
 8507SOL    HW137157   0.333   2.170  14.951  0.4940  1.1219 -0.2573
 8507SOL    HW237158   0.373   2.055  14.867 -0.5288  0.1369  0.9873
 8508SOL     OW37159   0.229   1.428   2.629 -0.3724 -0.1929 -0.1004
 8508SOL    HW137160   0.267   1.461   2.547 -0.7794  0.5404  0.0120
 8508SOL    HW237161   0.304   1.384   2.669  0.3736 -0.7219 -2.0949
 8509SOL     OW37162   0.287   3.166   8.879 -0.4258  0.2946  0.0375
 8509SOL    HW137163   0.206   3.196   8.920  1.7484  2.0572  3.0215
 8509SOL    HW237164   0.337   3.248   8.881 -0.5706  0.4207 -2.1906
 8510SOL     OW37165   0.651   3.200   9.053  0.3529  0.0108  1.0067
 8510SOL    HW137166   0.668   3.162   9.139  0.5670 -0.0888  0.9210
 8510SOL    HW237167   0.575   3.251   9.081  0.2971  1.1439 -1.2246
 8511SOL     OW37168   0.552   4.057   8.757 -0.2088 -0.0329 -0.1058
 8511SOL    HW137169   0.471   4.082   8.713 -1.0075 -1.4884  0.5541
 8511SOL    HW237170   0.553   3.964   8.734  0.5886 -0.0550  0.0173
 8512SOL     OW37171   0.028   1.690  16.950 -0.7115  0.2207  0.2814
 8512SOL    HW137172   0.109   1.701  16.900  0.5006 -0.6117  2.0710
 8512SOL    HW237173   0.013   1.596  16.949 -0.3504  0.1582  1.0856
 8513SOL     OW37174   2.357   4.106  13.374 -0.4738 -0.2543 -0.3290
 8513SOL    HW137175   2.362   4.051  13.296 -2.2088 -0.7528 -0.0911
 8513SOL    HW237176   2.418   4.176  13.349 -2.6908  2.1500  1.0330
 8514SOL     OW37177   0.615   0.227   8.524 -0.2203  0.3050 -0.1294
 8514SOL    HW137178   0.639   0.135   8.513 -1.2247  0.1368 -0.9847
 8514SOL    HW237179   0.656   0.245   8.608  0.6088 -2.8121  0.1391
 8515SOL     OW37180   4.393   0.879  14.336 -0.3263  0.2015 -0.5288
 8515SOL    HW137181   4.325   0.829  14.380 -1.0385  1.8179  0.2070
 8515SOL    HW237182   4.340   0.916  14.264 -2.4252  1.7885  1.8275
 8516SOL     OW37183   1.501   1.444  16.310 -0.4757  0.2237 -0.6126
 8516SOL    HW137184   1.535   1.361  16.344 -2.0278 -0.8493 -1.6822
 8516SOL    HW237185   1.439   1.468  16.378  1.4099 -1.7160  1.8302
 8517SOL     OW37186   2.088   2.980  16.642  0.1984  0.0431 -0.5866
 8517SOL    HW137187   2.182   2.969  16.627 -0.0714 -3.0812  0.0406
 8517SOL    HW237188   2.052   2.954  16.557  0.4280 -0.8676 -0.4076
 8518SOL     OW37189   1.502   4.030   1.680 -0.1884  0.1165  0.4335
 8518SOL    HW137190   1.565   4.063   1.615 -0.1250  0.8222  0.8461
 8518SOL    HW237191   1.455   3.966   1.627 -3.6318 -0.1028  3.7290
 8519SOL     OW37192   3.718   0.509   4.070 -0.7104 -0.1005  0.9913
 8519SOL    HW137193   3.789   0.446   4.055 -0.5789  0.3260 -0.1966
 8519SOL    HW237194   3.759   0.596   4.074  0.9260 -0.8983  1.7601
 8520SOL     OW37195   0.773   3.979   7.063  0.4801  0.0050 -0.0200
 8520SOL    HW137196   0.846   3.917   7.056  0.9526  0.2866  2.7863
 8520SOL    HW237197   0.736   3.947   7.145  2.2361 -3.0257 -0.4121
 8521SOL     OW37198   2.223   1.771   4.300 -0.2528 -0.1790 -0.8204
 8521SOL    HW137199   2.221   1.758   4.395 -0.4078  0.9525 -0.6638
 8521SOL    HW237200   2.299   1.724   4.266 -0.8229 -2.2705  0.8440
 8522SOL     OW37201   1.638   4.629   3.543 -0.1768 -0.7980  0.2263
 8522SOL    HW137202   1.710   4.663   3.597  0.5196 -2.1509  0.1497
 8522SOL    HW237203   1.687   4.562   3.495  1.1447 -0.7017  1.4683
 8523SOL     OW37204   0.687   4.308  15.926  0.5350 -0.5178  0.1439
 8523SOL    HW137205   0.705   4.256  16.004 -0.5170  1.0136  1.3947
 8523SOL    HW237206   0.775   4.344  15.910  1.0774 -0.5746  3.0541
 8524SOL     OW37207   3.099   0.957   3.169 -0.5962 -0.5449  0.3601
 8524SOL    HW137208   3.150   1.038   3.168 -2.1768  0.4564  0.5226
 8524SOL    HW237209   3.014   0.998   3.153 -1.4759 -1.9764  1.3535
 8525SOL     OW37210   4.125   0.031   6.751  0.2921  0.0479  0.3161
 8525SOL    HW137211   4.115   0.123   6.727  1.8561  0.0922 -0.1729
 8525SOL    HW237212   4.095   4.728   6.670  3.5918 -0.3382 -0.7371
 8526SOL     OW37213   1.253   4.660   0.628  0.0710  0.3841 -0.0196
 8526SOL    HW137214   1.207   4.585   0.590 -1.1027  1.0485  0.1009
 8526SOL    HW237215   1.337   4.650   0.583  0.9194 -0.1780  1.6954
 8527SOL     OW37216   3.208   3.600   4.138 -0.1912 -0.7919  0.4301
 8527SOL    HW137217   3.220   3.694   4.126  1.6180 -1.0073  0.5413
 8527SOL    HW237218   3.204   3.569   4.048  3.2950 -0.4615  0.1456
 8528SOL     OW37219   0.838   4.436   3.954 -0.3468 -0.0126  0.3349
 8528SOL    HW137220   0.824   4.365   3.891 -1.5838  0.4204  0.1350
 8528SOL    HW237221   0.789   4.507   3.912  1.7816 -1.0123 -3.8437
 8529SOL     OW37222   0.959   0.372  16.945 -0.1166  0.3880  0.8466
 8529SOL    HW137223   0.959   0.382  16.850 -0.9992 -1.9288  0.6209
 8529SOL    HW237224   1.012   0.448  16.970  0.5411 -0.0091  0.6363
 8530SOL     OW37225   4.154   0.177   1.341 -0.1989 -0.1212  0.2428
 8530SOL    HW137226   4.101   0.170   1.261 -0.2832 -0.1181  0.2986
 8530SOL    HW237227   4.218   0.245   1.322 -0.1635  0.0382  0.9416
 8531SOL     OW37228   0.986   3.637   1.366  0.2991 -0.1484  0.2063
 8531SOL    HW137229   1.003   3.653   1.458  2.4462  0.1025 -0.2387
 8531SOL    HW237230   0.914   3.574   1.367  0.1664  0.0383  1.6040
 8532SOL     OW37231   4.509   3.535  13.101  0.3256  0.2039 -0.2184
 8532SOL    HW137232   4.489   3.442  13.097 -0.3226  0.2791  1.4902
 8532SOL    HW237233   4.491   3.558  13.192 -0.7727 -0.2860 -0.3139
 8533SOL     OW37234   1.686   0.461   8.512  0.0829 -0.0376 -0.1525
 8533SOL    HW137235   1.761   0.506   8.551  1.2070 -1.3777 -0.7730
 8533SOL    HW237236   1.621   0.449   8.581  1.4049 -1.4470  0.8525
 8534SOL     OW37237   3.852   1.356   0.122 -0.0801 -0.3270 -0.0354
 8534SOL    HW137238   3.799   1.353   0.042  0.2666  0.8508 -0.3128
 8534SOL    HW237239   3.897   1.440   0.116 -1.0945  0.4087  2.8267
 8535SOL     OW37240   0.373   1.860  16.619  0.1158  0.1680  0.4282
 8535SOL    HW137241   0.403   1.800  16.551 -1.2550 -1.2602  1.0544
 8535SOL    HW237242   0.304   1.904  16.570  0.3965 -0.9371 -0.9482
 8536SOL     OW37243   4.184   3.809   6.817 -0.2369  0.0074  0.0555
 8536SOL    HW137244   4.206   3.716   6.825  1.7394  0.7176  2.6660
 8536SOL    HW237245   4.178   3.821   6.723 -1.9933 -0.2384  0.1358
 8537SOL     OW37246   1.413   1.619   6.246 -0.0332 -0.2426  0.3508
 8537SOL    HW137247   1.428   1.561   6.171 -0.9103  0.9616 -0.7454
 8537SOL    HW237248   1.471   1.576   6.309  1.4490  0.1426 -0.7824
 8538SOL     OW37249   2.538   4.061  13.107  0.2639  0.1908 -0.1253
 8538SOL    HW137250   2.537   4.149  13.068 -0.1696 -1.1144 -3.0806
 8538SOL    HW237251   2.629   4.055  13.136 -0.3721 -0.1217  1.7534
 8539SOL     OW37252   4.595   4.164  17.007 -0.4014  0.2493  0.0984
 8539SOL    HW137253   4.589   4.223  16.932 -0.7188 -0.6925 -0.6180
 8539SOL    HW237254   4.578   4.077  16.971 -1.4672 -0.3964  2.1745
 8540SOL     OW37255   1.916   0.229   1.047 -0.2459  0.0345 -0.2121
 8540SOL    HW137256   1.930   0.134   1.043 -0.9870  0.0055 -2.0656
 8540SOL    HW237257   2.007   0.256   1.035 -0.6954  1.2353 -0.9076
 8541SOL     OW37258   1.164   2.727   4.170  0.4575 -0.2440 -0.2051
 8541SOL    HW137259   1.103   2.764   4.234 -1.3372 -3.1408 -0.2450
 8541SOL    HW237260   1.252   2.742   4.205  1.1575  0.3536 -2.2291
 8542SOL     OW37261   2.409   0.240   2.884 -0.3034  0.2329  0.5596
 8542SOL    HW137262   2.476   0.238   2.817 -0.1766 -2.4573  0.7561
 8542SOL    HW237263   2.339   0.180   2.856 -0.3414  1.2053 -1.3909
 8543SOL     OW37264   3.985   4.043   6.506 -0.4375  0.0907 -0.3131
 8543SOL    HW137265   4.061   3.986   6.516 -1.1589 -0.4713  1.9315
 8543SOL    HW237266   4.029   4.128   6.508  0.5591 -0.4122 -1.4114
 8544SOL     OW37267   1.350   2.681   6.848  0.2083 -0.1628 -0.7730
 8544SOL    HW137268   1.408   2.697   6.922 -0.8741  1.0887 -0.1961
 8544SOL    HW237269   1.333   2.587   6.841  1.7855 -0.4590 -0.6946
 8545SOL     OW37270   3.252   4.576   2.372  0.6539  0.5749  0.0358
 8545SOL    HW137271   3.328   4.574   2.314  1.3369  1.9046  0.8595
 8545SOL    HW237272   3.176   4.572   2.314  1.7563 -1.8847 -1.2098
 8546SOL     OW37273   1.002   0.442  17.317 -0.3738 -0.4635  0.5781
 8546SOL    HW137274   1.092   0.470  17.304 -0.4978 -0.1651  0.3456
 8546SOL    HW237275   0.999   0.365  17.260 -2.0369 -0.9457  1.3207
 8547SOL     OW37276   1.710   1.690   4.894  0.5909 -0.2210  0.1167
 8547SOL    HW137277   1.624   1.649   4.905  0.1081  1.6992  3.5559
 8547SOL    HW237278   1.701   1.701   4.799  2.0359 -0.2577 -0.0151
 8548SOL     OW37279   2.790   3.458   4.371 -0.5923  0.5136 -0.0102
 8548SOL    HW137280   2.880   3.432   4.352 -1.0355  0.2456 -1.7054
 8548SOL    HW237281   2.772   3.534   4.315  0.3179 -1.0795 -2.4585
 8549SOL     OW37282   4.300   1.595   6.958  0.1120 -0.1072 -0.2853
 8549SOL    HW137283   4.324   1.586   7.050  0.0836  1.9817 -0.0796
 8549SOL    HW237284   4.385   1.576   6.918 -1.2353 -0.1771 -3.1062
 8550SOL     OW37285   2.365   3.359   6.256  0.0619  0.0968  0.2894
 8550SOL    HW137286   2.416   3.411   6.193 -1.5047 -0.0193 -1.0805
 8550SOL    HW237287   2.310   3.307   6.197  0.1327  0.7507 -0.3517
 8551SOL     OW37288   2.170   3.967  14.834 -0.2023 -0.3018  0.1196
 8551SOL    HW137289   2.095   3.909  14.825 -1.2803  0.9253  1.2230
 8551SOL    HW237290   2.231   3.903  14.797 -0.9232 -1.3529  0.7344
 8552SOL     OW37291   2.478   3.199   5.944 -0.1275 -0.4840  0.2021
 8552SOL    HW137292   2.441   3.127   5.892  1.7066 -0.9663 -0.4286
 8552SOL    HW237293   2.397   3.248   5.958 -1.1420 -1.6299 -1.6853
 8553SOL     OW37294   2.560   2.457   1.674 -0.0139  0.2916  0.6076
 8553SOL    HW137295   2.529   2.468   1.584  1.7170 -0.7049 -0.1145
 8553SOL    HW237296   2.483   2.500   1.711  0.2783  2.7303 -1.5588
 8554SOL     OW37297   2.779   2.016   9.142  0.2291 -0.2169 -0.7378
 8554SOL    HW137298   2.823   1.935   9.114  3.2603  1.2078 -0.0301
 8554SOL    HW237299   2.727   1.984   9.215  1.5019 -2.1943 -0.6888
 8555SOL     OW37300   1.641   4.044   4.520 -0.1617 -0.2589 -0.5232
 8555SOL    HW137301   1.660   3.950   4.521  2.1042  0.1721 -1.8059
 8555SOL    HW237302   1.550   4.045   4.550 -0.0606  1.6988 -0.2914
 8556SOL     OW37303   4.152   4.192  13.914 -0.2146 -0.1908 -0.1521
 8556SOL    HW137304   4.245   4.196  13.889 -0.0930 -0.6724  0.2170
 8556SOL    HW237305   4.160   4.129  13.986 -1.6843  0.5853  0.6859
 8557SOL     OW37306   0.187   4.157   9.913  0.1391 -0.0563 -0.5861
 8557SOL    HW137307   0.280   4.168   9.934  0.6530 -2.0481 -1.8380
 8557SOL    HW237308   0.183   4.168   9.818  4.2568  1.6072 -0.5809
 8558SOL     OW37309   3.768   3.794   1.045  0.5951  0.5223  0.2194
 8558SOL    HW137310   3.740   3.844   1.122  0.6636 -1.4110  1.5107
 8558SOL    HW237311   3.829   3.856   1.005  0.5579  1.5708  1.7893
 8559SOL     OW37312   3.335   3.428   9.526 -0.0320 -0.6429 -0.8458
 8559SOL    HW137313   3.320   3.516   9.492  2.5286  0.1595  0.0746
 8559SOL    HW237314   3.429   3.409   9.516  0.6592  1.3458  1.7914
 8560SOL     OW37315   3.542   3.457   3.480  0.6126  0.3629 -0.1449
 8560SOL    HW137316   3.606   3.526   3.498  0.0118  0.8918 -0.0385
 8560SOL    HW237317   3.583   3.386   3.529  1.9597  1.1595 -0.1029
 8561SOL     OW37318   1.950   3.617   6.603  0.3344  0.2510 -0.6317
 8561SOL    HW137319   2.036   3.594   6.568  1.0334  1.2152  0.4425
 8561SOL    HW237320   1.948   3.712   6.591  0.2652  0.3780  0.3899
 8562SOL     OW37321   2.233   4.336   4.391  0.2668  0.0309  0.1866
 8562SOL    HW137322   2.221   4.265   4.454  1.3103 -1.0301 -0.8164
 8562SOL    HW237323   2.159   4.331   4.330 -1.1257  0.1435  1.8780
 8563SOL     OW37324   2.495   2.580   8.196  0.2827 -0.6454  0.3517
 8563SOL    HW137325   2.441   2.510   8.233 -1.0491 -0.7650 -1.8331
 8563SOL    HW237326   2.558   2.521   8.154 -0.1546  0.5859 -2.0182
 8564SOL     OW37327   1.645   1.969   2.340  0.3618  0.0924  0.2495
 8564SOL    HW137328   1.701   2.001   2.269  2.2196  0.5847  1.9005
 8564SOL    HW237329   1.689   2.010   2.415 -0.1815  0.3715  0.4139
 8565SOL     OW37330   3.165   4.597  13.411  0.3959  0.2451  1.0328
 8565SOL    HW137331   3.095   4.538  13.384  0.4252  1.3661 -1.5160
 8565SOL    HW237332   3.145   4.604  13.505 -1.0184  0.7353  0.7057
 8566SOL     OW37333   1.834   2.061   8.179  0.0478 -0.5908 -0.7016
 8566SOL    HW137334   1.745   2.072   8.146  0.2492  1.9607 -0.3715
 8566SOL    HW237335   1.818   1.976   8.219  0.4269 -0.5305 -0.4244
 8567SOL     OW37336   2.697   0.740   1.365  0.3704  0.2706 -0.2523
 8567SOL    HW137337   2.725   0.659   1.408  2.7207  2.3628  2.1841
 8567SOL    HW237338   2.736   0.744   1.278  1.6569 -0.6552  0.2772
 8568SOL     OW37339   2.325   1.611   2.497  0.1253  0.3668 -0.0710
 8568SOL    HW137340   2.353   1.660   2.575  0.6000  0.3644 -0.2411
 8568SOL    HW237341   2.383   1.535   2.508 -0.3319 -0.1259 -1.0957
 8569SOL     OW37342   3.444   2.965  17.078  0.9390  0.1979  0.1865
 8569SOL    HW137343   3.507   2.915  17.027 -0.8097 -0.1132 -1.6982
 8569SOL    HW237344   3.486   3.047  17.102 -2.4018  1.6762  1.0618
 8570SOL     OW37345   4.087   0.922  13.276 -0.0509 -0.2936 -0.2165
 8570SOL    HW137346   4.168   0.872  13.269 -0.8757 -1.3520 -1.9786
 8570SOL    HW237347   4.056   0.886  13.359 -0.3102  0.5212  0.0364
 8571SOL     OW37348   0.589   3.419   5.351  0.4617 -0.3050 -0.0054
 8571SOL    HW137349   0.510   3.371   5.326  0.9869 -0.9841 -0.3544
 8571SOL    HW237350   0.647   3.395   5.278  0.8055 -0.0249  0.1728
 8572SOL     OW37351   0.673   2.727   2.681  0.2156  0.7214  0.3009
 8572SOL    HW137352   0.587   2.701   2.714 -0.2026  1.1528 -0.4667
 8572SOL    HW237353   0.724   2.647   2.692 -0.3638  0.2043 -0.7973
 8573SOL     OW37354   0.278   0.585   2.623  0.1040 -0.4828 -0.4835
 8573SOL    HW137355   0.258   0.677   2.638  0.9167 -0.5764  1.1376
 8573SOL    HW237356   0.342   0.571   2.692  0.7147  1.0897 -0.7347
 8574SOL     OW37357   1.512   4.566  14.921 -0.5720  0.4978 -0.0958
 8574SOL    HW137358   1.514   4.494  14.985  0.9085 -0.2343 -0.9683
 8574SOL    HW237359   1.538   4.523  14.840 -0.7675  0.1082  0.0466
 8575SOL     OW37360   2.540   3.252  12.155 -0.2643 -0.1186 -0.0515
 8575SOL    HW137361   2.578   3.339  12.168  1.2477 -0.7910 -0.0245
 8575SOL    HW237362   2.621   3.206  12.132  1.1321  2.0367  0.5213
 8576SOL     OW37363   4.098   2.958   6.718 -0.1592 -0.1652  0.6194
 8576SOL    HW137364   4.192   2.952   6.702 -0.1876  0.3074  0.2743
 8576SOL    HW237365   4.093   2.994   6.806  0.8887  0.0295  0.5886
 8577SOL     OW37366   0.458   1.231   2.618 -0.4785 -0.4078 -0.5540
 8577SOL    HW137367   0.535   1.188   2.582 -0.1066  1.4255 -1.9588
 8577SOL    HW237368   0.392   1.170   2.583 -0.4355  0.9635 -3.0104
 8578SOL     OW37369   3.829   0.861   2.810  0.2881 -0.4856 -0.5113
 8578SOL    HW137370   3.844   0.905   2.726  3.0663  0.6758  0.5698
 8578SOL    HW237371   3.871   0.776   2.797  0.2044 -0.7708  1.0469
 8579SOL     OW37372   3.968   2.995  14.177 -0.1912 -0.3957 -0.8182
 8579SOL    HW137373   4.033   3.031  14.117  0.4952 -0.9836 -0.4386
 8579SOL    HW237374   3.992   2.903  14.164 -1.8965 -0.9854  0.0715
 8580SOL     OW37375   4.363   2.993   4.541  0.0778  0.1114 -0.6440
 8580SOL    HW137376   4.285   2.966   4.493 -0.4759  0.3373  0.1244
 8580SOL    HW237377   4.374   2.923   4.606 -0.7762  0.5093 -0.0724
 8581SOL     OW37378   2.266   2.944   2.616 -0.6798  0.0304 -0.3441
 8581SOL    HW137379   2.354   2.910   2.632  0.2691  2.3398 -0.7409
 8581SOL    HW237380   2.214   2.864   2.624 -0.5624  0.0550  0.5961
 8582SOL     OW37381   2.262   0.996  14.742 -0.6323 -0.3309  0.0030
 8582SOL    HW137382   2.262   0.990  14.837  0.1293  3.4627  0.2405
 8582SOL    HW237383   2.356   0.998  14.724 -0.3777 -2.5392  1.1121
 8583SOL     OW37384   3.299   1.369  16.899 -0.0392 -0.7114  0.3249
 8583SOL    HW137385   3.342   1.300  16.948 -2.1261 -0.4861  2.4651
 8583SOL    HW237386   3.357   1.446  16.898  1.1584 -1.6372 -1.7139
 8584SOL     OW37387   3.661   0.420   6.601 -0.1686 -0.3329 -0.8885
 8584SOL    HW137388   3.692   0.462   6.681 -2.6495 -0.8706  0.3758
 8584SOL    HW237389   3.737   0.433   6.545  0.6501 -0.6929  0.1448
 8585SOL     OW37390   2.714   0.712   7.919 -0.0410 -0.2669 -0.1216
 8585SOL    HW137391   2.706   0.801   7.953 -0.5333 -0.6858  0.8460
 8585SOL    HW237392   2.760   0.731   7.837  1.9042  1.3416  1.3586
 8586SOL     OW37393   0.876   0.248   0.010  0.2288 -0.3914 -0.4848
 8586SOL    HW137394   0.899   0.169  17.706 -2.1344 -0.6347 -1.1756
 8586SOL    HW237395   0.869   0.308  17.682  0.9678 -0.4628 -0.6185
 8587SOL     OW37396   2.157   2.370   8.842  0.1685 -0.3608 -0.3045
 8587SOL    HW137397   2.240   2.416   8.850  0.0423 -0.4218  1.4162
 8587SOL    HW237398   2.094   2.442   8.845  0.1017 -0.4124 -0.4461
 8588SOL     OW37399   3.999   3.120  16.685  0.6434 -0.1082 -0.5041
 8588SOL    HW137400   4.022   3.212  16.694 -1.3398  0.3562 -0.1835
 8588SOL    HW237401   4.031   3.106  16.597  0.8377 -0.8916 -0.3088
 8589SOL     OW37402   1.662   3.905   0.947  0.2118 -0.0862  0.3828
 8589SOL    HW137403   1.683   3.822   0.989 -1.3695  0.1574  1.6854
 8589SOL    HW237404   1.622   3.953   1.020  0.7863  0.9059  0.0474
 8590SOL     OW37405   1.364   2.132   6.979 -0.2797 -0.1800 -0.1305
 8590SOL    HW137406   1.280   2.179   6.977 -0.0404  0.2293 -0.4701
 8590SOL    HW237407   1.365   2.092   6.892 -0.8267  0.7543 -0.5745
 8591SOL     OW37408   0.394   4.344  15.704 -0.1562  0.0974 -0.4497
 8591SOL    HW137409   0.316   4.378  15.660  0.1858  0.3885 -0.8319
 8591SOL    HW237410   0.453   4.414  15.675  0.2052 -0.1721 -0.3608
 8592SOL     OW37411   3.234   0.906  10.567  0.0531 -0.5636  0.2183
 8592SOL    HW137412   3.302   0.926  10.502 -0.0711  0.1024  0.2868
 8592SOL    HW237413   3.283   0.853  10.629  1.0720  1.3089  1.0082
 8593SOL     OW37414   1.506   0.366   0.609  0.5074 -0.0014  0.0729
 8593SOL    HW137415   1.502   0.418   0.689 -2.0877 -0.2689  0.1166
 8593SOL    HW237416   1.430   0.307   0.612  1.1492 -0.9557 -2.2722
 8594SOL     OW37417   2.454   4.518  12.440  0.1278 -0.0140  0.1432
 8594SOL    HW137418   2.446   4.428  12.408  1.4120  0.5749 -1.8621
 8594SOL    HW237419   2.518   4.551  12.377 -0.4262  3.1834  1.2665
 8595SOL     OW37420   1.376   3.346  17.612  0.4861 -0.2216  0.4865
 8595SOL    HW137421   1.327   3.280  17.662 -0.5142  0.8191  0.8923
 8595SOL    HW237422   1.304   3.387  17.562  1.0720 -1.9384 -1.7884
 8596SOL     OW37423   2.386   0.703  14.601 -0.1010 -0.2995  0.3460
 8596SOL    HW137424   2.409   0.793  14.625  0.2871 -0.3202  0.0485
 8596SOL    HW237425   2.446   0.655  14.658 -0.2545 -0.5921  0.2628
 8597SOL     OW37426   2.705   4.613   9.237  0.1717 -0.3486 -0.3214
 8597SOL    HW137427   2.724   4.673   9.164 -1.7096  1.7475  0.8883
 8597SOL    HW237428   2.627   4.562   9.216  0.2327 -0.2136 -0.8702
 8598SOL     OW37429   4.625   1.235   9.161  0.0781  0.2947 -0.3558
 8598SOL    HW137430   4.666   1.148   9.152  1.6781  1.1031 -0.9488
 8598SOL    HW237431   4.538   1.210   9.192 -0.1155 -0.0532 -1.1567
 8599SOL     OW37432   1.868   0.094   5.133 -0.1562 -0.1965  0.4017
 8599SOL    HW137433   1.783   0.051   5.145 -0.5100  0.2404 -0.5589
 8599SOL    HW237434   1.840   0.185   5.145 -0.8305 -0.2983 -0.3664
 8600SOL     OW37435   2.280   3.631   2.221  0.5724  0.8121 -0.1419
 8600SOL    HW137436   2.238   3.667   2.143  0.1412 -0.2201 -0.3883
 8600SOL    HW237437   2.249   3.540   2.222  0.8441  0.7320  0.8787
 8601SOL     OW37438   2.348   1.481   2.908 -0.4012  0.2075 -0.1634
 8601SOL    HW137439   2.262   1.506   2.875 -0.2370  0.0769 -0.6926
 8601SOL    HW237440   2.343   1.385   2.901 -1.6224  0.2455  0.2427
 8602SOL     OW37441   2.916   4.624   3.628  0.0264 -0.2503 -0.5116
 8602SOL    HW137442   2.960   4.584   3.553 -0.2267 -1.1785 -0.1669
 8602SOL    HW237443   2.980   4.643   3.696  0.1881  0.0010 -0.7318
 8603SOL     OW37444   3.533   3.558   6.219 -0.0369  0.0224  0.3374
 8603SOL    HW137445   3.583   3.492   6.268 -1.4492 -0.0463  1.6921
 8603SOL    HW237446   3.559   3.635   6.269  0.4348  1.0776 -1.5442
 8604SOL     OW37447   1.960   1.483   6.526 -0.2876 -0.0590 -0.4069
 8604SOL    HW137448   1.966   1.510   6.434  1.5192 -1.4527 -0.6902
 8604SOL    HW237449   1.886   1.423   6.534  1.1843 -2.0074 -1.3542
 8605SOL     OW37450   1.207   2.018   9.002  0.1438 -0.0498  0.2539
 8605SOL    HW137451   1.274   1.951   8.987 -2.6136 -2.2428 -2.2139
 8605SOL    HW237452   1.247   2.104   9.011  3.0040 -1.4302  0.7593
 8606SOL     OW37453   0.782   2.567   4.426 -0.2458  0.0270 -0.3009
 8606SOL    HW137454   0.785   2.663   4.432 -1.3394 -0.0424  1.2464
 8606SOL    HW237455   0.687   2.553   4.421 -0.0860 -0.5668 -1.5502
 8607SOL     OW37456   0.128   1.108   4.891 -0.0730 -0.7222 -0.4905
 8607SOL    HW137457   0.120   1.021   4.852 -0.1227 -0.8176 -0.2642
 8607SOL    HW237458   0.221   1.107   4.911 -0.3142 -2.4614  0.5633
 8608SOL     OW37459   0.113   3.875   5.926 -0.1621 -0.3978  0.0520
 8608SOL    HW137460   0.198   3.835   5.906 -0.0820 -0.7978  1.2310
 8608SOL    HW237461   0.064   3.836   5.853  0.3181 -1.5670  0.3583
 8609SOL     OW37462   0.109   3.274   5.324 -0.2277 -0.0900  0.0823
 8609SOL    HW137463   0.047   3.337   5.360  0.3969  0.5833 -0.0278
 8609SOL    HW237464   0.154   3.325   5.256 -0.4994  0.0263 -0.0113
 8610SOL     OW37465   3.007   4.022   6.897 -0.1331  0.5235  0.5021
 8610SOL    HW137466   3.074   3.976   6.847  0.0214 -0.1813  1.3669
 8610SOL    HW237467   2.952   3.947   6.920  2.8969 -1.8446  0.0643
 8611SOL     OW37468   2.508   1.584   8.553  0.2216 -0.3778  0.2266
 8611SOL    HW137469   2.441   1.623   8.609 -0.9461  0.1281 -1.5123
 8611SOL    HW237470   2.549   1.526   8.617  0.8474  1.4496  1.4797
 8612SOL     OW37471   3.575   4.386   2.919  0.0735  0.8584  0.2018
 8612SOL    HW137472   3.641   4.449   2.947  1.1025 -0.7434  1.3443
 8612SOL    HW237473   3.533   4.417   2.838  0.4744  0.3501 -0.2027
 8613SOL     OW37474   3.266   2.758   7.339  0.0905 -0.0171  0.1755
 8613SOL    HW137475   3.342   2.707   7.368 -0.6944 -2.0564 -1.3709
 8613SOL    HW237476   3.212   2.731   7.413 -0.8122  0.3848 -0.3427
 8614SOL     OW37477   3.790   1.518   1.923 -0.1777 -0.2866  0.3288
 8614SOL    HW137478   3.719   1.534   1.861 -0.3019 -1.4599  0.1694
 8614SOL    HW237479   3.744   1.502   2.005 -0.1401 -1.4605  0.1261
 8615SOL     OW37480   0.178   3.889  11.079  0.0503 -0.5723 -0.6507
 8615SOL    HW137481   0.189   3.907  10.986 -0.2540 -0.6094 -0.6937
 8615SOL    HW237482   0.185   3.974  11.123  0.2736 -0.7796 -0.2850
 8616SOL     OW37483   1.296   1.083   5.050 -0.4071  0.0476 -0.4145
 8616SOL    HW137484   1.223   1.073   4.990 -2.5347  0.7131  2.0462
 8616SOL    HW237485   1.354   1.012   5.023 -1.7407 -0.9638 -0.5767
 8617SOL     OW37486   3.201   3.870   4.853  0.2385 -0.3557  0.3720
 8617SOL    HW137487   3.275   3.823   4.892  0.0605 -0.0408  1.0799
 8617SOL    HW237488   3.242   3.912   4.777 -0.1819 -1.9472 -0.7389
 8618SOL     OW37489   3.701   2.948  17.478 -0.1482 -0.5721  0.0016
 8618SOL    HW137490   3.740   3.035  17.469 -1.4699 -0.1166 -1.3312
 8618SOL    HW237491   3.609   2.976  17.486 -0.3334 -0.4884 -2.6546
 8619SOL     OW37492   0.786   2.332   1.858 -0.2358  0.5680  0.5150
 8619SOL    HW137493   0.861   2.388   1.838  0.6975 -0.7776  0.2182
 8619SOL    HW237494   0.772   2.362   1.948  0.6055 -1.3890  1.3083
 8620SOL     OW37495   0.596   4.481   9.427 -0.0681  0.8055  0.2088
 8620SOL    HW137496   0.512   4.441   9.403  0.4637  1.0035 -1.9682
 8620SOL    HW237497   0.570   4.509   9.515 -0.6955 -0.4264  0.4278
 8621SOL     OW37498   3.516   2.008  12.523 -0.2365 -0.0262 -0.5139
 8621SOL    HW137499   3.526   2.079  12.460  0.0602 -0.8779 -1.4456
 8621SOL    HW237500   3.476   2.052  12.598  2.4478 -1.5028  1.7818
 8622SOL     OW37501   3.005   0.891  12.346  0.0234 -0.3249  0.2050
 8622SOL    HW137502   3.006   0.906  12.440  1.8397 -3.0855  0.6511
 8622SOL    HW237503   3.039   0.801  12.339 -1.3355 -0.6684 -1.9050
 8623SOL     OW37504   3.088   3.425   1.433  0.4067  0.2954 -0.0622
 8623SOL    HW137505   3.144   3.500   1.453  0.7454 -0.0876  0.4422
 8623SOL    HW237506   3.010   3.466   1.395  0.1245 -0.9220 -0.8019
 8624SOL     OW37507   3.824   0.016   5.064 -0.0880  0.4879 -0.3725
 8624SOL    HW137508   3.753   0.060   5.110 -0.5166 -0.0965 -0.4849
 8624SOL    HW237509   3.882   0.091   5.050  1.5267 -0.7499 -0.3019
 8625SOL     OW37510   3.786   3.533   7.014 -0.0454  0.1737  0.0102
 8625SOL    HW137511   3.811   3.567   7.100 -0.2583 -0.5358  0.3528
 8625SOL    HW237512   3.789   3.612   6.960 -0.0930 -0.3952 -0.8249
 8626SOL     OW37513   1.927   4.447   1.288 -0.1777 -0.4937 -0.3478
 8626SOL    HW137514   1.930   4.369   1.344 -0.6391 -1.3700 -1.5400
 8626SOL    HW237515   1.989   4.425   1.218  1.5521  1.3110  0.5967
 8627SOL     OW37516   4.579   0.396   5.087 -0.4675  0.0974 -0.1873
 8627SOL    HW137517   4.548   0.370   5.173  0.9958 -0.2847  0.2241
 8627SOL    HW237518   4.592   0.307   5.054  0.5731  0.3156 -0.3539
 8628SOL     OW37519   3.224   0.879   0.224  0.2073 -0.5953 -0.4311
 8628SOL    HW137520   3.214   0.956   0.279 -1.2529 -1.4520  0.4932
 8628SOL    HW237521   3.297   0.839   0.271 -0.3982  0.8926  1.7555
 8629SOL     OW37522   3.016   3.141   3.171  0.1840 -0.6250 -0.0102
 8629SOL    HW137523   2.956   3.102   3.234  0.2472  0.3514  0.6523
 8629SOL    HW237524   2.998   3.234   3.179  0.5165 -0.7685  2.3273
 8630SOL     OW37525   3.939   1.343   4.874  0.1020 -0.2761  0.1544
 8630SOL    HW137526   3.919   1.250   4.862 -1.3136  0.0288  0.0656
 8630SOL    HW237527   3.990   1.333   4.954 -0.7882 -2.7939  0.3940
 8631SOL     OW37528   1.822   2.348   5.512 -0.0785  0.0312  0.3418
 8631SOL    HW137529   1.732   2.324   5.489 -0.0667  1.4468 -1.2212
 8631SOL    HW237530   1.835   2.291   5.587  0.9168  1.3621  1.1748
 8632SOL     OW37531   2.412   4.696   3.712  0.1700  0.4796 -0.2458
 8632SOL    HW137532   2.435   4.617   3.762 -0.8640  0.3065 -0.0574
 8632SOL    HW237533   2.468   4.674   3.637  0.7672  2.1906 -0.3014
 8633SOL     OW37534   3.222   2.267   5.040 -0.1340 -0.0914  0.1832
 8633SOL    HW137535   3.127   2.273   5.045 -0.1114  2.0587 -1.8702
 8633SOL    HW237536   3.240   2.191   5.095  0.5874 -1.5106 -1.9819
 8634SOL     OW37537   3.655   3.706   3.452  0.2775 -0.2353 -0.4526
 8634SOL    HW137538   3.703   3.788   3.468  0.3290 -0.3894  0.2022
 8634SOL    HW237539   3.652   3.711   3.357  0.8505 -2.3885 -0.5893
 8635SOL     OW37540   1.320   3.853  11.246  0.5161 -0.5584 -0.4712
 8635SOL    HW137541   1.340   3.803  11.324 -0.1883 -1.6125 -0.9617
 8635SOL    HW237542   1.400   3.906  11.235 -1.5436  2.8987  1.1808
 8636SOL     OW37543   4.462   1.652   8.297 -0.3724 -0.1758  0.2959
 8636SOL    HW137544   4.487   1.693   8.380  1.0480  0.9282 -0.6879
 8636SOL    HW237545   4.378   1.692   8.272 -0.3483  1.1148  2.2670
 8637SOL     OW37546   2.646   1.437  15.529  0.2311  0.3975  0.0983
 8637SOL    HW137547   2.635   1.357  15.580  0.7013  0.2042 -0.1028
 8637SOL    HW237548   2.729   1.466  15.567  1.1549 -0.1594 -1.4469
 8638SOL     OW37549   1.037   1.416   1.244  0.0458 -0.6072  0.0022
 8638SOL    HW137550   1.121   1.401   1.201  0.0268 -0.8221  0.0373
 8638SOL    HW237551   0.994   1.333   1.223 -1.8679  0.2016  0.7162
 8639SOL     OW37552   3.989   1.678   5.481  0.1768  0.5792  0.2465
 8639SOL    HW137553   3.897   1.653   5.492 -0.3952  1.6621 -2.0046
 8639SOL    HW237554   4.032   1.627   5.550 -0.5520 -0.2550  0.0876
 8640SOL     OW37555   1.869   1.870   6.520  0.3432 -0.1815 -0.0865
 8640SOL    HW137556   1.815   1.946   6.540  0.7111  0.0581 -0.0052
 8640SOL    HW237557   1.809   1.800   6.546  0.8175  0.0869  1.7230
 8641SOL     OW37558   0.943   0.119   4.766  0.3012 -0.1265 -0.1456
 8641SOL    HW137559   1.032   0.152   4.758 -0.0253  0.4556 -1.3410
 8641SOL    HW237560   0.946   0.031   4.802  1.8855  0.6648  1.6405
 8642SOL     OW37561   3.432   0.494   1.283  0.3638 -0.1955  0.5550
 8642SOL    HW137562   3.419   0.415   1.336 -2.6715 -0.2276 -0.2479
 8642SOL    HW237563   3.480   0.546   1.347  2.1761 -1.2276  0.0466
 8643SOL     OW37564   3.616   4.224  12.263 -0.4082  0.0930 -0.3394
 8643SOL    HW137565   3.680   4.276  12.311 -0.6424 -0.0004  0.0751
 8643SOL    HW237566   3.662   4.216  12.179  1.1878  0.4627  0.5092
 8644SOL     OW37567   4.558   3.863   9.706 -0.1881  0.3640  0.1871
 8644SOL    HW137568   4.653   3.855   9.699 -0.2867  0.1508 -0.8897
 8644SOL    HW237569   4.552   3.884   9.799  0.0516  0.3982  0.1956
 8645SOL     OW37570   3.003   1.042   1.609  0.3881 -0.4910 -0.0772
 8645SOL    HW137571   3.044   0.982   1.547  1.5262 -0.9337  1.1140
 8645SOL    HW237572   3.040   1.120   1.568  0.7058 -0.8979 -0.5658
 8646SOL     OW37573   0.821   3.928   9.342  0.0022  0.1405  0.1333
 8646SOL    HW137574   0.827   3.932   9.438 -2.4386  1.2703  0.2548
 8646SOL    HW237575   0.860   4.012   9.318 -0.7664  0.0849 -1.2936
 8647SOL     OW37576   2.223   0.858   9.219 -0.4077 -0.4703 -0.0500
 8647SOL    HW137577   2.288   0.915   9.260  0.4933 -1.0760 -0.6329
 8647SOL    HW237578   2.151   0.920   9.211  0.0512  0.2949  1.7128
 8648SOL     OW37579   2.671   1.609   3.907  0.4835 -0.3961 -0.0185
 8648SOL    HW137580   2.717   1.668   3.967  1.9528 -1.1399 -0.4314
 8648SOL    HW237581   2.629   1.542   3.961  0.4608 -0.3814 -0.0177
 8649SOL     OW37582   4.337   3.874  13.331  0.1867  0.1486 -0.1802
 8649SOL    HW137583   4.392   3.951  13.320  1.4459 -0.7026  0.1441
 8649SOL    HW237584   4.254   3.920  13.316  0.3693  0.8087  0.8486
 8650SOL     OW37585   3.566   0.825   5.835  0.1137  0.2922 -0.0865
 8650SOL    HW137586   3.512   0.892   5.877  1.4659  1.3192  0.0117
 8650SOL    HW237587   3.636   0.833   5.900 -0.2919  0.1996  0.3686
 8651SOL     OW37588   4.569   0.071  17.426  0.7662  0.2813  0.1324
 8651SOL    HW137589   4.596   4.733  17.372 -0.5129  1.4862 -2.1508
 8651SOL    HW237590   4.650   0.121  17.417  1.1398 -0.8358 -2.6027
 8652SOL     OW37591   1.218   4.436   5.938 -0.4371 -0.7781 -0.1086
 8652SOL    HW137592   1.202   4.524   5.971 -1.0084 -1.1584  0.6340
 8652SOL    HW237593   1.314   4.436   5.931 -0.4353 -0.5518 -0.0670
 8653SOL     OW37594   3.438   3.364   9.970 -0.0078 -0.1665 -0.5884
 8653SOL    HW137595   3.408   3.443  10.014 -0.1008 -0.6821  0.2640
 8653SOL    HW237596   3.523   3.360  10.014 -0.2881  1.7054  0.1350
 8654SOL     OW37597   2.236   0.065  10.885 -0.5233 -0.2841 -0.3551
 8654SOL    HW137598   2.251   0.034  10.974  0.4262  1.3125  0.0319
 8654SOL    HW237599   2.291   0.142  10.895  1.2608 -1.4941 -0.9685
 8655SOL     OW37600   3.756   1.959   0.695  0.2075 -0.3483 -0.1415
 8655SOL    HW137601   3.684   1.962   0.632  1.6657 -0.5623 -1.8435
 8655SOL    HW237602   3.786   2.049   0.683  1.0595 -0.3839  1.8716
 8656SOL     OW37603   3.663   0.930   2.457 -0.1920 -0.0450  0.6767
 8656SOL    HW137604   3.594   0.908   2.520  0.0818 -2.0406  0.2817
 8656SOL    HW237605   3.654   1.023   2.436  1.8400 -0.0003  0.0069
 8657SOL     OW37606   2.099   3.150   5.615 -0.0351 -0.0435  0.2524
 8657SOL    HW137607   2.117   3.089   5.543 -2.3801 -1.6128  1.0104
 8657SOL    HW237608   2.186   3.187   5.629  0.2219 -1.4671  2.5047
 8658SOL     OW37609   3.608   0.065   5.590  0.9425  0.4826  0.0944
 8658SOL    HW137610   3.628   0.159   5.592 -1.1509  0.9277  0.4784
 8658SOL    HW237611   3.578   0.067   5.681 -0.5621  0.5096 -0.4093
 8659SOL     OW37612   3.472   1.745  17.028 -0.6025  0.2023  0.4454
 8659SOL    HW137613   3.430   1.693  16.958  0.6194  0.1233 -0.2275
 8659SOL    HW237614   3.560   1.707  17.024 -0.5071  0.2543  2.2828
 8660SOL     OW37615   4.554   2.469   4.693  0.4769 -0.1369  0.2772
 8660SOL    HW137616   4.485   2.500   4.634  1.2586  0.9087 -0.0809
 8660SOL    HW237617   4.511   2.389   4.725  1.0186 -1.3237 -1.9391
 8661SOL     OW37618   4.117   2.302  16.896 -0.1377  0.8389  0.1667
 8661SOL    HW137619   4.026   2.304  16.866 -0.6774  0.2918  1.7253
 8661SOL    HW237620   4.153   2.259  16.819  1.2184  1.7697  0.2876
 8662SOL     OW37621   3.429   0.966  14.207  0.3731  0.2550  0.5092
 8662SOL    HW137622   3.373   0.960  14.130 -0.2446  0.1576  0.9664
 8662SOL    HW237623   3.497   0.900  14.197 -1.4530 -1.5615  0.1975
 8663SOL     OW37624   4.488   0.024   4.328  0.6185  0.0696 -0.0980
 8663SOL    HW137625   4.483   4.688   4.390 -0.2590  1.0062  0.9279
 8663SOL    HW237626   4.517   4.714   4.250  0.0637  0.5326 -0.5792
 8664SOL     OW37627   1.710   1.609   1.837  0.0192 -0.8359 -0.3166
 8664SOL    HW137628   1.719   1.705   1.836 -0.8533 -0.7510 -0.1916
 8664SOL    HW237629   1.635   1.601   1.896 -0.8396  0.8500 -1.1826
 8665SOL     OW37630   1.231   0.086   0.318  0.0234  0.2958  0.6825
 8665SOL    HW137631   1.181   0.149   0.266  0.9551  0.7097  0.2896
 8665SOL    HW237632   1.189   0.003   0.295 -1.3935  1.0379  0.5681
 8666SOL     OW37633   2.864   1.467   3.246  0.1953 -0.1066 -0.1865
 8666SOL    HW137634   2.878   1.384   3.292  1.4668 -0.3914 -1.0973
 8666SOL    HW237635   2.837   1.519   3.322 -1.4062 -2.5256  0.8973
 8667SOL     OW37636   3.814   2.902   0.934 -0.0695  0.4236  0.4125
 8667SOL    HW137637   3.859   2.948   1.005  0.7284  0.1735  0.0814
 8667SOL    HW237638   3.746   2.853   0.981 -1.3414 -1.0041 -2.9458
 8668SOL     OW37639   3.432   1.585   5.315 -0.0412 -0.0714 -0.6473
 8668SOL    HW137640   3.412   1.492   5.313  0.2344 -0.2082  4.1731
 8668SOL    HW237641   3.386   1.594   5.398 -1.6438  0.1199 -1.5464
 8669SOL     OW37642   0.665   0.491   5.280  0.8854  0.0320 -0.1108
 8669SOL    HW137643   0.740   0.439   5.309  1.2136  0.3614 -0.3564
 8669SOL    HW237644   0.638   0.442   5.202 -2.9447 -1.0255  1.8934
 8670SOL     OW37645   4.452   0.901   4.898 -0.3424 -0.2743 -0.3840
 8670SOL    HW137646   4.493   0.896   4.812 -0.4827  2.6389 -0.6362
 8670SOL    HW237647   4.488   0.824   4.942  3.7255  2.2987  0.8044
 8671SOL     OW37648   2.941   3.407   1.682 -0.2224  0.7122 -0.0061
 8671SOL    HW137649   3.032   3.436   1.684 -0.1056  0.2662  1.6799
 8671SOL    HW237650   2.937   3.380   1.591 -0.2748  0.7488 -0.0148
 8672SOL     OW37651   4.572   0.366   2.189  0.2896  0.4201 -0.1576
 8672SOL    HW137652   4.663   0.395   2.182  0.4588  0.1422  0.9719
 8672SOL    HW237653   4.584   0.271   2.190  2.3047  0.6803  0.4414
 8673SOL     OW37654   3.169   2.089   2.327  0.0851 -0.1585 -0.8849
 8673SOL    HW137655   3.108   2.095   2.254 -0.3460  0.7633 -0.4519
 8673SOL    HW237656   3.190   2.182   2.334  0.5800 -0.4329  1.2366
 8674SOL     OW37657   2.886   4.112   6.380  0.6384  0.1996 -0.8413
 8674SOL    HW137658   2.889   4.137   6.288 -0.8493  2.9683 -0.1330
 8674SOL    HW237659   2.794   4.131   6.399  1.6315  0.6586  3.4706
 8675SOL     OW37660   0.586   2.705   2.109 -0.7832  0.7020  0.1759
 8675SOL    HW137661   0.491   2.696   2.120 -0.9626  1.3446 -0.8326
 8675SOL    HW237662   0.614   2.681   2.197  1.2577 -0.3728 -0.7692
 8676SOL     OW37663   0.126   4.225  17.009 -0.4940  0.0997 -0.4468
 8676SOL    HW137664   0.035   4.198  17.025 -0.3406  0.5852  1.1770
 8676SOL    HW237665   0.171   4.195  17.088 -2.2641 -0.3489  0.4021
 8677SOL     OW37666   3.426   0.747   3.078  0.5641  0.7269 -0.6466
 8677SOL    HW137667   3.431   0.807   3.152  1.0866 -0.8532  0.5926
 8677SOL    HW237668   3.477   0.801   3.017 -0.8050  1.8970 -0.7475
 8678SOL     OW37669   1.939   0.006  14.100 -0.0850 -0.3746  0.5212
 8678SOL    HW137670   2.013   4.686  14.122 -0.8285 -0.5443  2.5482
 8678SOL    HW237671   1.975   0.094  14.110  0.7793 -0.5899 -0.6548
 8679SOL     OW37672   4.599   4.362  11.187 -0.4174  0.0169 -0.1660
 8679SOL    HW137673   4.605   4.283  11.133 -0.1197  1.2286 -1.9078
 8679SOL    HW237674   4.692   4.370  11.205 -0.4273 -0.8959  0.3027
 8680SOL     OW37675   2.535   0.866   6.008 -0.1722  0.1027 -0.0299
 8680SOL    HW137676   2.500   0.865   5.919 -0.4801  0.6341  0.0870
 8680SOL    HW237677   2.537   0.772   6.028 -1.1118 -0.3061 -1.8980
 8681SOL     OW37678   1.962   1.692   5.054  0.0459  0.2327 -0.0252
 8681SOL    HW137679   1.888   1.653   5.007  1.2082 -2.1629  0.1376
 8681SOL    HW237680   2.025   1.697   4.982  2.1443 -0.5429  1.7331
 8682SOL     OW37681   0.273   3.466   5.143  0.0823  0.1646 -0.0100
 8682SOL    HW137682   0.328   3.396   5.179 -0.5341 -0.4249 -0.2087
 8682SOL    HW237683   0.309   3.466   5.055 -2.5994  1.0341 -1.1259
 8683SOL     OW37684   3.519   3.155   3.050  0.2560 -0.1785  0.2216
 8683SOL    HW137685   3.580   3.174   3.122  0.0595 -0.8262  0.5518
 8683SOL    HW237686   3.443   3.123   3.098 -0.4311 -1.2298 -1.5939
 8684SOL     OW37687   4.676   1.872   1.320 -1.0543 -0.9134 -0.2923
 8684SOL    HW137688   4.581   1.867   1.326 -0.9032 -1.0041  1.9721
 8684SOL    HW237689   4.708   1.812   1.387 -0.6640  0.1194  0.4566
 8685SOL     OW37690   2.144   4.614  16.056 -0.3616 -0.6481 -0.0418
 8685SOL    HW137691   2.218   4.592  16.000  0.6753  1.4825  0.5221
 8685SOL    HW237692   2.160   4.708  16.061  0.6038 -0.8351  0.3407
 8686SOL     OW37693   1.579   1.960   5.787  0.4304 -0.0658 -0.2887
 8686SOL    HW137694   1.511   2.003   5.839  2.2118  1.5669  0.6827
 8686SOL    HW237695   1.540   1.872   5.788  0.8830 -0.2618 -0.2118
 8687SOL     OW37696   4.486   0.601   2.301 -0.6809 -0.4353  0.0653
 8687SOL    HW137697   4.497   0.523   2.246 -2.3711 -1.4348  1.1371
 8687SOL    HW237698   4.514   0.568   2.386  0.6589 -0.4596 -0.3944
 8688SOL     OW37699   1.918   1.634  16.495 -0.0543 -0.0916 -0.4333
 8688SOL    HW137700   1.828   1.637  16.525  0.1313 -1.4865  0.2290
 8688SOL    HW237701   1.944   1.720  16.528  1.2135 -1.1815  1.3794
 8689SOL     OW37702   4.452   3.487   2.349  0.1567 -0.5052 -0.3214
 8689SOL    HW137703   4.377   3.542   2.370 -0.4139 -0.7024 -1.8853
 8689SOL    HW237704   4.504   3.544   2.292 -2.5226  2.8869  0.6328
 8690SOL     OW37705   0.397   3.834   2.009 -0.0880 -0.6562 -0.8937
 8690SOL    HW137706   0.320   3.784   2.039  0.1984 -0.4974  0.0827
 8690SOL    HW237707   0.393   3.833   1.913  0.9602 -1.4774 -0.9240
 8691SOL     OW37708   0.848   1.717   4.721  0.0006 -0.0551 -0.0020
 8691SOL    HW137709   0.904   1.773   4.668  1.5887 -0.0105  1.7244
 8691SOL    HW237710   0.819   1.779   4.788 -1.0335 -0.8620  0.2956
 8692SOL     OW37711   1.997   2.641   5.956 -0.3595  0.3173 -0.0112
 8692SOL    HW137712   1.920   2.632   5.899  0.5372  0.2630 -1.2067
 8692SOL    HW237713   1.979   2.568   6.016  0.8631 -2.1825 -2.6809
 8693SOL     OW37714   1.313   2.560  11.565 -0.2415  0.0305 -0.1492
 8693SOL    HW137715   1.359   2.482  11.532 -1.6836 -1.5427  1.5297
 8693SOL    HW237716   1.223   2.556  11.533 -0.3843  1.4062  0.1012
 8694SOL     OW37717   4.464   1.620   0.320 -0.3067 -0.2453  0.3312
 8694SOL    HW137718   4.466   1.583   0.408  1.8915  1.1280  0.8601
 8694SOL    HW237719   4.531   1.685   0.340  0.0764 -0.8222  0.9078
 8695SOL     OW37720   1.412   3.438   8.137  0.2021  0.2046  0.4342
 8695SOL    HW137721   1.504   3.465   8.143  1.2068 -3.0780 -0.4440
 8695SOL    HW237722   1.403   3.385   8.216 -0.9093  1.0570  0.8909
 8696SOL     OW37723   4.345   0.971   2.661  0.1329 -0.1494 -0.2463
 8696SOL    HW137724   4.331   0.989   2.568  0.9040  0.9473 -0.1370
 8696SOL    HW237725   4.393   0.888   2.653  0.8927  0.3637 -0.9884
 8697SOL     OW37726   0.696   1.841   8.986  0.2001  0.1060  0.3487
 8697SOL    HW137727   0.781   1.838   9.030 -0.2778 -0.8614  1.1904
 8697SOL    HW237728   0.726   1.854   8.896 -0.5179  0.1329  0.1076
 8698SOL     OW37729   4.158   0.985  11.255  0.7707  0.0127 -0.4948
 8698SOL    HW137730   4.217   0.972  11.330  0.5810  0.9594 -0.1771
 8698SOL    HW237731   4.213   0.972  11.178  0.1570  1.9774 -1.2691
 8699SOL     OW37732   1.070   2.621  11.256  0.0490  0.1826  0.1325
 8699SOL    HW137733   1.007   2.673  11.305 -0.1161 -0.2053  0.3356
 8699SOL    HW237734   1.118   2.577  11.326 -0.8299 -2.0199 -0.6156
 8700SOL     OW37735   3.122   2.257   6.585 -0.0381  0.0675  0.1373
 8700SOL    HW137736   3.194   2.205   6.551 -1.2535 -1.5104 -0.0650
 8700SOL    HW237737   3.049   2.211   6.542 -0.8898  0.5165  1.0883
 8701SOL     OW37738   1.467   0.258   3.615  0.3661  0.7220  0.0253
 8701SOL    HW137739   1.435   0.209   3.691 -0.6778  3.5815  1.4441
 8701SOL    HW237740   1.542   0.204   3.589 -0.1059  0.0602  0.0358
 8702SOL     OW37741   0.425   3.222   5.216  0.5819 -0.1611 -0.0205
 8702SOL    HW137742   0.350   3.163   5.210  1.0699 -0.9777  1.8491
 8702SOL    HW237743   0.489   3.179   5.159  0.6282  0.5358 -0.4929
 8703SOL     OW37744   0.912   1.486  15.338 -0.3914 -1.0557 -0.2492
 8703SOL    HW137745   0.849   1.549  15.372  0.7996 -0.1021  0.1665
 8703SOL    HW237746   0.858   1.431  15.281 -1.0861 -1.5211  0.8642
 8704SOL     OW37747   4.726   2.411   2.539  0.3327  0.6278 -0.2497
 8704SOL    HW137748   4.640   2.372   2.554 -1.2115  2.6811 -3.9792
 8704SOL    HW237749   0.001   2.381   2.449 -0.8508  1.5948 -0.7231
 8705SOL     OW37750   4.560   2.259   1.755  0.0096 -0.8952  0.5632
 8705SOL    HW137751   4.529   2.168   1.746  0.7846 -0.9609 -1.3068
 8705SOL    HW237752   4.477   2.304   1.770  1.9030  2.5363  0.7251
 8706SOL     OW37753   4.258   1.949   2.902  0.2050 -0.7022 -0.5949
 8706SOL    HW137754   4.174   1.931   2.860 -0.2370  0.0520 -0.0296
 8706SOL    HW237755   4.296   1.978   2.819  1.9485  0.4171  0.5963
 8707SOL     OW37756   1.484   1.153  16.586  0.1380 -0.1864  0.0527
 8707SOL    HW137757   1.536   1.184  16.659 -0.0329 -0.8162  0.4422
 8707SOL    HW237758   1.420   1.224  16.580 -0.2134 -0.5399 -0.4450
 8708SOL     OW37759   1.269   0.085   3.391 -0.3126  1.0539  0.0883
 8708SOL    HW137760   1.334   0.129   3.445  0.2848  1.5501 -1.0266
 8708SOL    HW237761   1.289   0.128   3.307  1.7851  0.4251  0.2517
 8709SOL     OW37762   1.852   0.224   7.213  0.2878 -0.0359  0.2598
 8709SOL    HW137763   1.850   0.135   7.250  1.7985 -0.7529 -1.3588
 8709SOL    HW237764   1.769   0.259   7.244  0.1227  3.6599 -4.4903
 8710SOL     OW37765   2.979   2.069   3.250 -0.4954 -0.2656 -0.1002
 8710SOL    HW137766   2.961   2.155   3.214  1.9383  1.1428  2.0676
 8710SOL    HW237767   3.063   2.048   3.209 -0.2442 -1.3881  0.9891
 8711SOL     OW37768   2.267   1.808   1.832 -0.8756 -0.0378 -0.5737
 8711SOL    HW137769   2.281   1.714   1.833  2.0521  0.3962  0.4183
 8711SOL    HW237770   2.292   1.833   1.742  2.1591  2.7327  1.0396
 8712SOL     OW37771   1.447   3.268   4.477 -0.2124 -0.2563  0.2084
 8712SOL    HW137772   1.514   3.333   4.455 -0.6724  0.1270 -0.0621
 8712SOL    HW237773   1.492   3.204   4.532 -0.5521  0.2720  1.1086
 8713SOL     OW37774   0.397   1.665   8.056  0.3174 -0.1652  0.3376
 8713SOL    HW137775   0.311   1.684   8.094  1.5145 -0.7946  3.3843
 8713SOL    HW237776   0.397   1.733   7.989  1.0146  0.0915  0.6076
 8714SOL     OW37777   4.154   3.926   8.419  0.5508 -0.2014 -0.4712
 8714SOL    HW137778   4.152   4.000   8.359 -0.9297  1.2427  1.3560
 8714SOL    HW237779   4.226   3.947   8.479 -0.9403  1.4359  0.7502
 8715SOL     OW37780   4.385   1.590  15.558 -0.1327 -0.1285  0.4423
 8715SOL    HW137781   4.380   1.495  15.545 -1.5044  0.0412 -0.2084
 8715SOL    HW237782   4.303   1.621  15.595 -1.0506 -0.0605 -1.6903
 8716SOL     OW37783   4.453   3.312  11.230 -0.5895  0.3563 -0.0265
 8716SOL    HW137784   4.398   3.234  11.230 -1.0448  0.6828  1.2914
 8716SOL    HW237785   4.538   3.278  11.202 -0.1975  0.7061  0.7147
 8717SOL     OW37786   1.467   1.733   6.988  0.0666  0.1704 -0.0928
 8717SOL    HW137787   1.510   1.716   7.072 -0.2996  3.6975  0.8286
 8717SOL    HW237788   1.526   1.792   6.941  1.4349 -0.9293  0.2215
 8718SOL     OW37789   1.537   2.737   3.979  0.9404  0.4955 -0.1844
 8718SOL    HW137790   1.513   2.701   3.894 -1.4283 -2.2922  1.6463
 8718SOL    HW237791   1.601   2.800   3.949  2.5691 -0.8536  0.4374
 8719SOL     OW37792   1.775   2.372   6.175  0.2864  1.1757  0.3312
 8719SOL    HW137793   1.853   2.368   6.119  0.3058 -0.1579  0.4535
 8719SOL    HW237794   1.750   2.280   6.168 -0.2547  1.3531 -0.0760
 8720SOL     OW37795   3.848   3.272   2.904 -0.5525 -0.5476 -0.0965
 8720SOL    HW137796   3.775   3.313   2.856 -1.3581  1.2864  2.6419
 8720SOL    HW237797   3.819   3.288   2.994 -2.5495 -0.4783 -0.7503
 8721SOL     OW37798   4.208   0.849   6.838  0.2649  0.0412  0.2375
 8721SOL    HW137799   4.177   0.917   6.778  2.5769  0.4168 -0.5533
 8721SOL    HW237800   4.139   0.853   6.904 -2.8203 -1.1913 -2.9578
 8722SOL     OW37801   3.684   0.214   3.084 -0.6093 -0.4242  0.6389
 8722SOL    HW137802   3.749   0.146   3.068  0.2233  0.9429 -1.8085
 8722SOL    HW237803   3.640   0.224   2.999 -1.7827 -0.1964  1.2683
 8723SOL     OW37804   0.859   0.017  15.051 -0.0565 -0.1853  0.3570
 8723SOL    HW137805   0.900   4.687  15.107  0.0862 -0.8432 -0.5314
 8723SOL    HW237806   0.781   0.019  15.107  0.3068  3.4063  0.7515
 8724SOL     OW37807   3.590   1.122  17.377  0.4413  0.4112  0.8276
 8724SOL    HW137808   3.667   1.177  17.365  2.1087 -2.4214 -1.2846
 8724SOL    HW237809   3.526   1.187  17.348 -2.2680 -2.3869  0.4864
 8725SOL     OW37810   0.615   3.439   8.139  0.0946 -0.1629 -0.2019
 8725SOL    HW137811   0.659   3.394   8.066  0.1332 -1.6851  0.7455
 8725SOL    HW237812   0.586   3.520   8.098  0.1489  1.1845  2.4072
 8726SOL     OW37813   3.087   3.225  13.033 -0.2740  0.8161 -0.2106
 8726SOL    HW137814   3.100   3.318  13.050 -3.2288  1.1745  0.0974
 8726SOL    HW237815   2.999   3.218  13.071  0.3208 -1.1159  0.8095
 8727SOL     OW37816   3.865   2.880   5.228 -0.4476  0.1633 -0.1881
 8727SOL    HW137817   3.774   2.850   5.230 -0.2500 -0.5313 -1.4746
 8727SOL    HW237818   3.859   2.937   5.152 -2.5451  2.6043  1.8235
 8728SOL     OW37819   4.654   4.442   5.866 -0.2191 -0.2688 -0.7007
 8728SOL    HW137820   0.010   4.462   5.862 -0.0406 -1.1669 -1.0544
 8728SOL    HW237821   4.651   4.370   5.929 -0.7191 -0.3312 -0.7909
 8729SOL     OW37822   1.853   2.675   3.012 -0.7660  0.1345  0.4588
 8729SOL    HW137823   1.776   2.721   2.981 -1.6112 -1.1434  0.6723
 8729SOL    HW237824   1.913   2.718   2.950  0.2741 -0.9106  0.7241
 8730SOL     OW37825   0.289   1.210   9.059 -0.0886  0.0165 -0.7118
 8730SOL    HW137826   0.292   1.303   9.036  1.4702 -0.5663 -2.8188
 8730SOL    HW237827   0.364   1.192   9.116  0.8616  2.7276 -1.0943
 8731SOL     OW37828   1.069   2.731   3.191 -0.0556 -0.0336  0.0334
 8731SOL    HW137829   0.993   2.727   3.133  0.1853  0.9668 -0.3468
 8731SOL    HW237830   1.127   2.673   3.141 -0.7154  0.3529 -1.1764
 8732SOL     OW37831   2.179   0.107   2.857 -0.0505 -0.2033  0.3934
 8732SOL    HW137832   2.158   0.015   2.845  0.1266 -0.1764 -0.1227
 8732SOL    HW237833   2.147   0.116   2.946 -0.4210 -1.5236  0.3906
 8733SOL     OW37834   3.425   0.418   5.226 -0.2253  0.1484 -0.4255
 8733SOL    HW137835   3.515   0.439   5.250 -0.5048 -0.2210  0.9749
 8733SOL    HW237836   3.391   0.505   5.207 -0.6861 -0.0319 -0.4197
 8734SOL     OW37837   4.554   0.726   2.871 -0.3683 -0.0458 -0.3155
 8734SOL    HW137838   4.545   0.728   2.776 -0.8052  1.0553 -0.2516
 8734SOL    HW237839   4.649   0.733   2.872 -0.3465 -0.5139  1.2270
 8735SOL     OW37840   2.635   2.241   4.497 -0.4943  0.4572 -0.2077
 8735SOL    HW137841   2.692   2.164   4.491 -0.2713  0.5779  0.3299
 8735SOL    HW237842   2.561   2.224   4.439 -1.4557  3.4058  0.1542
 8736SOL     OW37843   4.321   3.014   5.885  0.3326 -0.1071 -0.6146
 8736SOL    HW137844   4.268   3.032   5.807  1.0119  0.9473 -0.8274
 8736SOL    HW237845   4.271   2.943   5.924  2.6463 -1.0535  0.6613
 8737SOL     OW37846   3.551   1.102   8.596  1.0904 -0.4338  0.0302
 8737SOL    HW137847   3.595   1.150   8.526 -0.9949  1.7004  0.1685
 8737SOL    HW237848   3.628   1.090   8.652 -1.5706  0.1952  3.8728
 8738SOL     OW37849   2.138   0.664   8.725 -0.2040  0.4531  0.1071
 8738SOL    HW137850   2.089   0.666   8.807  0.5430  0.1878  0.5541
 8738SOL    HW237851   2.153   0.758   8.719  1.0266  0.2656  0.3608
 8739SOL     OW37852   3.160   3.146   9.855 -0.0799  1.0646  0.2413
 8739SOL    HW137853   3.131   3.164   9.766 -0.7582 -0.6449  0.1246
 8739SOL    HW237854   3.255   3.154   9.851 -0.2052  2.2111 -0.4369
 8740SOL     OW37855   2.478   0.358  16.718 -0.5721  0.4437  0.0818
 8740SOL    HW137856   2.486   0.397  16.805 -0.3847 -2.3830  1.3164
 8740SOL    HW237857   2.517   0.273  16.738  1.6386  1.3612 -0.3165
 8741SOL     OW37858   1.170   1.336  11.124 -0.2623  0.6716  0.2540
 8741SOL    HW137859   1.132   1.361  11.040  2.1811 -0.1279 -1.0668
 8741SOL    HW237860   1.259   1.327  11.090 -0.3989  0.0146  0.0636
 8742SOL     OW37861   0.576   4.450  14.240 -0.1880 -0.1193  0.0846
 8742SOL    HW137862   0.533   4.535  14.227 -1.6879 -1.2493 -2.3937
 8742SOL    HW237863   0.641   4.467  14.308  2.3597 -1.4780 -2.0015
 8743SOL     OW37864   1.690   3.730   5.345 -0.3038 -0.4760 -0.1768
 8743SOL    HW137865   1.612   3.683   5.376  0.0887 -0.3836  0.9843
 8743SOL    HW237866   1.663   3.755   5.257 -0.9227  2.2863  0.7982
 8744SOL     OW37867   1.355   4.617   4.039  0.7982 -0.0329 -0.2220
 8744SOL    HW137868   1.303   4.577   3.968  0.5374 -1.7014  0.8885
 8744SOL    HW237869   1.406   4.546   4.079  0.3481 -0.3079 -0.1282
 8745SOL     OW37870   1.589   4.395   5.009  0.1628  0.7788  0.3288
 8745SOL    HW137871   1.672   4.407   5.055  1.3704 -2.6342 -0.8946
 8745SOL    HW237872   1.611   4.334   4.938  2.0467  0.0348  1.5512
 8746SOL     OW37873   0.815   2.551   1.305 -0.7530  0.3947 -0.3941
 8746SOL    HW137874   0.822   2.464   1.344  0.1002  0.3750 -0.5873
 8746SOL    HW237875   0.840   2.602   1.382 -2.5725  3.3438 -1.7497
 8747SOL     OW37876   3.501   2.789   8.135 -0.7282  0.6022  0.2590
 8747SOL    HW137877   3.574   2.819   8.080 -0.5705  3.0722  1.8075
 8747SOL    HW237878   3.546   2.720   8.183 -0.4631 -0.4691 -1.5322
 8748SOL     OW37879   2.868   4.715   1.704 -0.6326  0.1718  0.1268
 8748SOL    HW137880   2.840   4.634   1.746 -2.5855  1.2301  0.8641
 8748SOL    HW237881   2.917   0.024   1.772 -0.0285 -0.4419  0.1013
 8749SOL     OW37882   1.343   1.729   7.496  0.2316  0.7868  0.3969
 8749SOL    HW137883   1.293   1.712   7.575 -0.5546  0.3867 -0.1809
 8749SOL    HW237884   1.281   1.706   7.426  0.5237 -2.0688  1.0775
 8750SOL     OW37885   3.205   3.521   3.872  0.1156 -0.8330 -0.2837
 8750SOL    HW137886   3.282   3.503   3.818  0.3768  0.8059 -0.4594
 8750SOL    HW237887   3.147   3.562   3.807  2.7140 -2.1536 -3.4314
 8751SOL     OW37888   3.441   2.223  16.960 -0.5903 -0.0025 -0.0095
 8751SOL    HW137889   3.364   2.280  16.953  1.2857  2.4062 -0.6754
 8751SOL    HW237890   3.410   2.136  16.932  2.0452 -0.2400 -2.1059
 8752SOL     OW37891   4.281   2.270  10.947 -0.1367  0.6804  0.1432
 8752SOL    HW137892   4.196   2.243  10.982 -1.6612  3.0951 -1.7337
 8752SOL    HW237893   4.283   2.208  10.874  0.7811  0.3584  0.4370
 8753SOL     OW37894   0.840   3.150   3.057  0.2370 -0.3260  0.4263
 8753SOL    HW137895   0.856   3.075   2.999 -0.2702  0.4919 -0.7808
 8753SOL    HW237896   0.914   3.202   3.027 -0.5846 -0.3062 -1.5864
 8754SOL     OW37897   2.008   0.591   6.264 -0.2713  0.1252 -0.2670
 8754SOL    HW137898   1.916   0.566   6.257 -0.1568 -0.3409 -0.1411
 8754SOL    HW237899   2.042   0.595   6.175 -0.4791  0.4049 -0.3332
 8755SOL     OW37900   1.371   2.296   9.104  1.2640 -0.1837  0.4340
 8755SOL    HW137901   1.373   2.344   9.021  2.2502  0.0393  0.5854
 8755SOL    HW237902   1.303   2.343   9.153  2.2139  0.9137  0.7077
 8756SOL     OW37903   4.245   4.177   1.721 -0.0951  0.2852  0.0110
 8756SOL    HW137904   4.278   4.220   1.642  0.7974  0.2645  0.3692
 8756SOL    HW237905   4.285   4.238   1.783  1.3111 -0.0235 -0.5917
 8757SOL     OW37906   1.297   4.466   8.312 -0.4932 -0.1328  0.5073
 8757SOL    HW137907   1.364   4.399   8.313 -0.2108  0.1833  3.6380
 8757SOL    HW237908   1.295   4.492   8.404 -1.6126  1.7953 -0.0536
 8758SOL     OW37909   4.510   0.753  12.154  0.1050  0.4427  0.4179
 8758SOL    HW137910   4.549   0.840  12.161 -1.3906  1.5197 -4.4047
 8758SOL    HW237911   4.418   0.779  12.160 -0.0669  0.2858 -1.4312
 8759SOL     OW37912   3.241   4.587  16.456 -0.2904 -0.3255  0.3854
 8759SOL    HW137913   3.301   4.661  16.448 -0.1119 -0.7451 -2.1255
 8759SOL    HW237914   3.260   4.562  16.547 -0.0529  0.4895  0.5666
 8760SOL     OW37915   3.531   3.039   8.286  0.6208 -0.0625  0.0592
 8760SOL    HW137916   3.478   2.977   8.236  0.5026  0.6323 -0.6818
 8760SOL    HW237917   3.541   3.096   8.210 -3.5496  1.6448  0.7732
 8761SOL     OW37918   2.915   3.504   4.054  0.0646  0.3880 -0.6861
 8761SOL    HW137919   2.892   3.592   4.024 -0.3357  0.5114 -0.0349
 8761SOL    HW237920   2.999   3.517   4.098  0.5579  0.6340 -1.6996
 8762SOL     OW37921   2.021   0.009  12.869  0.1719 -0.6359 -0.5459
 8762SOL    HW137922   2.072   0.077  12.914 -2.1297  0.0012  1.1183
 8762SOL    HW237923   1.943   0.063  12.856  0.6367  0.2404  0.2658
 8763SOL     OW37924   2.144   2.708   6.598 -0.4713  0.5862 -0.4456
 8763SOL    HW137925   2.132   2.614   6.616  1.7866 -0.4088 -4.1655
 8763SOL    HW237926   2.102   2.747   6.675 -0.9475 -1.7524  0.4988
 8764SOL     OW37927   2.248   4.701   8.859 -0.3614  0.5735  0.0302
 8764SOL    HW137928   2.318   0.023   8.887 -1.1675  0.8617  1.4254
 8764SOL    HW237929   2.284   4.613   8.865  0.5389  0.9729  0.4485
 8765SOL     OW37930   4.437   3.277   3.072  0.5401  0.1089  0.0821
 8765SOL    HW137931   4.474   3.345   3.016  1.2203  0.1236  0.5508
 8765SOL    HW237932   4.473   3.204   3.022 -0.4157 -1.6226  1.9024
 8766SOL     OW37933   3.196   0.869   9.002 -0.0882 -0.5417  0.3201
 8766SOL    HW137934   3.165   0.959   8.996 -1.1881 -0.8438  1.4136
 8766SOL    HW237935   3.231   0.865   9.091 -1.6671 -1.2450  0.9233
 8767SOL     OW37936   4.696   1.040   2.951 -0.4435  0.1410 -0.2023
 8767SOL    HW137937   0.041   1.073   2.988 -0.1594  1.5760 -2.0856
 8767SOL    HW237938   4.685   0.971   3.016  1.3556  0.1354  0.0950
 8768SOL     OW37939   2.909   1.009   9.264  0.5064  0.1046  0.3508
 8768SOL    HW137940   2.993   1.042   9.235  1.4126 -2.1587  0.3809
 8768SOL    HW237941   2.931   0.939   9.326  1.3476  1.6009  1.7502
 8769SOL     OW37942   2.462   2.992  12.357 -0.1268 -0.6066 -0.5622
 8769SOL    HW137943   2.443   3.048  12.282  1.5578 -1.6573 -1.7848
 8769SOL    HW237944   2.373   2.963  12.377 -0.0173 -0.3691  0.2719
 8770SOL     OW37945   3.061   0.769   3.676 -0.2046  0.4155 -0.4973
 8770SOL    HW137946   2.974   0.742   3.648  0.4312 -1.5036 -0.6335
 8770SOL    HW237947   3.054   0.858   3.709  0.3025  0.5024 -0.6122
 8771SOL     OW37948   1.157   0.094   6.742 -0.0547  0.0729 -0.1582
 8771SOL    HW137949   1.251   0.078   6.755  0.3298  2.3018 -0.3126
 8771SOL    HW237950   1.126   0.027   6.803 -1.5657 -0.7217 -1.8022
 8772SOL     OW37951   2.396   0.519   4.647 -0.6203 -0.1142 -0.6930
 8772SOL    HW137952   2.466   0.455   4.654 -0.0782  0.4783 -0.7384
 8772SOL    HW237953   2.424   0.591   4.703 -0.7079  0.1146 -0.9425
 8773SOL     OW37954   2.443   0.710   0.953 -0.6487  0.3926  0.1120
 8773SOL    HW137955   2.386   0.667   1.017  0.7496  0.8680  1.6760
 8773SOL    HW237956   2.384   0.729   0.880  0.8946 -1.5274 -1.6640
 8774SOL     OW37957   3.220   2.983   8.201 -0.0854  0.8899  0.4140
 8774SOL    HW137958   3.301   3.004   8.155  0.8925 -1.1056  1.2645
 8774SOL    HW237959   3.164   3.041   8.148 -0.4349  0.9560  0.8538
 8775SOL     OW37960   2.938   1.688  14.083 -0.1042 -0.0627  0.1053
 8775SOL    HW137961   2.961   1.597  14.066 -0.7659 -0.3466  0.7339
 8775SOL    HW237962   2.893   1.689  14.168 -0.9076 -0.1658 -0.3200
 8776SOL     OW37963   1.573   0.255   5.651  0.0844  0.2534 -0.6346
 8776SOL    HW137964   1.603   0.197   5.580  0.3521  0.9673 -1.1061
 8776SOL    HW237965   1.576   0.336   5.600  0.3389 -0.6007 -1.9871
 8777SOL     OW37966   0.328   2.720  13.157 -0.6967  0.0635 -0.2077
 8777SOL    HW137967   0.259   2.737  13.221  0.7120  1.2910  0.9741
 8777SOL    HW237968   0.404   2.753  13.205 -0.9650  2.5323 -1.4281
 8778SOL     OW37969   1.465   3.547   6.595 -0.3153 -0.3750 -0.2718
 8778SOL    HW137970   1.544   3.495   6.613  0.9326  1.3459 -0.7080
 8778SOL    HW237971   1.444   3.499   6.515  0.0542 -0.6632 -0.1985
 8779SOL     OW37972   2.153   4.153   3.970 -0.0745 -0.2218 -0.0200
 8779SOL    HW137973   2.148   4.248   3.983 -2.7995 -0.3153 -0.3493
 8779SOL    HW237974   2.139   4.112   4.055 -0.5609 -0.3519 -0.1626
 8780SOL     OW37975   2.972   3.021   3.569 -0.7799  0.3075  0.8170
 8780SOL    HW137976   3.016   3.106   3.578  1.0041 -0.3901 -1.1923
 8780SOL    HW237977   2.909   3.048   3.502  1.1545  0.2402 -1.0445
 8781SOL     OW37978   2.136   4.577   2.821  0.0449  0.6773  0.1245
 8781SOL    HW137979   2.153   4.585   2.727 -2.6184 -1.3158 -0.4991
 8781SOL    HW237980   2.055   4.526   2.826  1.0899 -1.0808 -0.8632
 8782SOL     OW37981   2.986   2.988   5.595  0.1159 -0.2546 -0.1545
 8782SOL    HW137982   3.073   3.019   5.620  1.4570 -3.2237 -1.0502
 8782SOL    HW237983   2.997   2.903   5.552  0.1559  0.2525 -1.1574
 8783SOL     OW37984   2.843   1.556  17.689 -0.3143  0.0406  0.4723
 8783SOL    HW137985   2.849   1.617  17.616  0.5831 -1.2415 -0.5366
 8783SOL    HW237986   2.816   1.616   0.014 -1.8583 -0.8098  0.6188
 8784SOL     OW37987   3.021   2.560   7.742  0.1624  0.0193  0.9311
 8784SOL    HW137988   3.010   2.634   7.801 -0.2999  0.7096 -0.0206
 8784SOL    HW237989   3.059   2.494   7.800  2.3071  0.2791 -0.1529
 8785SOL     OW37990   2.543   1.653  10.492 -0.2213  0.7261 -0.0670
 8785SOL    HW137991   2.622   1.674  10.542 -0.4751 -0.9301  1.0407
 8785SOL    HW237992   2.503   1.738  10.475  1.8316  1.3872 -1.4758
 8786SOL     OW37993   2.668   1.721   2.199  0.3379 -0.1565 -0.0451
 8786SOL    HW137994   2.575   1.712   2.220  0.2278 -1.2446 -0.9714
 8786SOL    HW237995   2.681   1.626   2.199  1.8410  0.0461  0.9424
 8787SOL     OW37996   1.941   0.186   0.438 -0.1112  0.4104  0.2525
 8787SOL    HW137997   1.969   0.228   0.520 -2.0560  2.2128  0.0037
 8787SOL    HW237998   1.850   0.158   0.440 -0.0277  0.2312  1.5042
 8788SOL     OW37999   1.110   4.149   4.388  0.3716  0.0939 -0.0941
 8788SOL    HW138000   1.036   4.210   4.384  1.4173  1.3305 -0.8347
 8788SOL    HW238001   1.153   4.187   4.464  1.2544 -0.1170 -0.4921
 8789SOL     OW38002   1.489   4.471  15.604  0.1573  0.4840 -0.1867
 8789SOL    HW138003   1.422   4.539  15.592  2.6030  3.2076  1.6158
 8789SOL    HW238004   1.432   4.403  15.640  2.3403 -0.8372  0.7360
 8790SOL     OW38005   4.250   2.369  13.669 -0.2104 -0.4977 -0.1959
 8790SOL    HW138006   4.298   2.400  13.592  1.1772 -1.8434  0.1188
 8790SOL    HW238007   4.209   2.291  13.629  0.7244  0.0523 -2.2209
 8791SOL     OW38008   0.062   3.794   4.861 -0.4772 -0.3538  0.0489
 8791SOL    HW138009   0.078   3.702   4.842  1.0550  0.3531 -2.0281
 8791SOL    HW238010   0.127   3.836   4.805  1.3856 -2.6368  0.5020
 8792SOL     OW38011   0.485   4.168  10.015  0.4879 -0.4802 -0.1458
 8792SOL    HW138012   0.556   4.160   9.952  1.3712 -0.8267  0.8914
 8792SOL    HW238013   0.512   4.251  10.054  1.8722 -1.1653  0.3713
 8793SOL     OW38014   2.752   1.675   7.927  0.1021  0.0646  0.3290
 8793SOL    HW138015   2.734   1.690   8.019 -0.4562  3.5270 -0.3409
 8793SOL    HW238016   2.778   1.763   7.902  0.9082  0.2216  1.7899
 8794SOL     OW38017   1.985   0.144   2.365 -0.5027 -0.6559 -0.1014
 8794SOL    HW138018   2.044   0.082   2.323  1.2435  2.7169 -2.6606
 8794SOL    HW238019   1.957   0.197   2.290  1.5904  0.1533 -0.3400
 8795SOL     OW38020   3.866   1.966   6.708  0.5481 -0.2802  0.5824
 8795SOL    HW138021   3.869   2.057   6.737 -0.0764  0.2909 -1.1293
 8795SOL    HW238022   3.777   1.961   6.675  0.7979 -1.8328  0.1561
 8796SOL     OW38023   0.067   2.341   2.286 -0.2845 -0.4189  0.1683
 8796SOL    HW138024   0.064   2.390   2.204  0.3586 -1.2240 -0.3331
 8796SOL    HW238025   0.087   2.251   2.260  1.4289 -0.2453  0.9101
 8797SOL     OW38026   1.708   4.736   2.808 -0.0157 -0.0608  0.3623
 8797SOL    HW138027   1.775   4.692   2.755  1.3057  0.7897  1.3191
 8797SOL    HW238028   1.677   0.061   2.741  0.6617  1.4282  1.4295
 8798SOL     OW38029   1.071   4.201  15.722 -0.0797 -0.4368 -0.1326
 8798SOL    HW138030   1.100   4.140  15.791  0.0572 -1.3703 -1.0177
 8798SOL    HW238031   1.038   4.132  15.665  0.5793 -1.8683  1.1925
 8799SOL     OW38032   4.518   1.146  13.214  0.4176  0.3099  0.4219
 8799SOL    HW138033   4.512   1.051  13.228  1.8683 -0.2617 -2.7495
 8799SOL    HW238034   4.598   1.149  13.161 -0.6906  1.0588 -1.2330
 8800SOL     OW38035   2.391   0.356   4.109  0.2651 -0.4087  0.3143
 8800SOL    HW138036   2.328   0.347   4.037  1.3124 -0.3983 -0.5960
 8800SOL    HW238037   2.438   0.273   4.104  0.2355 -0.3372 -1.0054
 8801SOL     OW38038   0.095   4.082  13.133 -0.0888  0.6665 -0.0582
 8801SOL    HW138039   0.146   4.091  13.213  0.9314 -0.0507 -0.6184
 8801SOL    HW238040   0.052   4.166  13.124 -1.5032  0.0058  0.6003
 8802SOL     OW38041   0.856   2.495  17.100 -0.1138 -0.2687 -0.2346
 8802SOL    HW138042   0.877   2.455  17.184  2.4606 -0.2716 -0.8850
 8802SOL    HW238043   0.859   2.589  17.119 -2.5708 -0.5225  1.4653
 8803SOL     OW38044   4.324   3.527   5.804 -0.0115 -0.2232 -0.6865
 8803SOL    HW138045   4.266   3.597   5.772 -0.8044 -0.1675  0.8698
 8803SOL    HW238046   4.263   3.456   5.821 -0.3076  0.3285  0.5673
 8804SOL     OW38047   2.638   2.194  10.732 -0.2853 -0.2494 -0.7704
 8804SOL    HW138048   2.724   2.216  10.768 -2.1468  2.7844  1.8277
 8804SOL    HW238049   2.616   2.262  10.668  1.4068  0.6463 -0.3836
 8805SOL     OW38050   1.694   1.700   6.707  0.2110 -0.1888  0.2870
 8805SOL    HW138051   1.614   1.665   6.669  1.3343 -0.8483 -1.4881
 8805SOL    HW238052   1.673   1.782   6.752  0.0106 -0.4101  0.5959
 8806SOL     OW38053   2.987   2.964  15.634  0.5010  0.1058 -0.2747
 8806SOL    HW138054   2.990   2.875  15.600  0.7219  0.0851 -0.1949
 8806SOL    HW238055   3.034   3.007  15.563  0.3007 -0.2464 -0.6190
 8807SOL     OW38056   1.284   0.347   4.516  0.2002 -1.1523 -0.3339
 8807SOL    HW138057   1.330   0.286   4.458  0.3161 -0.0655 -1.3754
 8807SOL    HW238058   1.214   0.383   4.461  0.3705 -3.2710 -1.9472
 8808SOL     OW38059   1.481   1.635   3.048  0.3674 -0.7394  0.0488
 8808SOL    HW138060   1.513   1.565   3.105 -0.4015  0.5020  2.0060
 8808SOL    HW238061   1.482   1.712   3.106  0.8936 -0.2564 -0.5925
 8809SOL     OW38062   4.504   0.677   6.903  0.4857 -0.2517 -0.2813
 8809SOL    HW138063   4.461   0.606   6.856 -0.1893  0.0837 -0.1650
 8809SOL    HW238064   4.425   0.730   6.911  0.5526 -0.3177  0.8209
 8810SOL     OW38065   3.725   3.148  12.961  1.0191 -0.4138  0.1015
 8810SOL    HW138066   3.782   3.223  12.978  0.4513  0.1266 -0.3608
 8810SOL    HW238067   3.670   3.192  12.896  1.7938 -1.4523 -1.2519
 8811SOL     OW38068   3.064   4.222   6.575  0.0668 -0.4081  0.7901
 8811SOL    HW138069   3.022   4.188   6.496 -1.8453  0.9470  1.1918
 8811SOL    HW238070   3.150   4.182   6.570  0.7747  1.5425 -2.3218
 8812SOL     OW38071   4.654   4.715   5.725 -0.0824  0.4213  0.5354
 8812SOL    HW138072   4.610   4.636   5.756 -0.1109  0.3264  0.2467
 8812SOL    HW238073   4.705   4.680   5.652  0.0157  0.4368  0.5969
 8813SOL     OW38074   2.906   2.202   0.400  0.3121  0.3601 -0.6065
 8813SOL    HW138075   2.931   2.113   0.422 -1.2421  0.5036  1.7675
 8813SOL    HW238076   2.973   2.228   0.337  0.1125 -0.0839 -0.9951
 8814SOL     OW38077   4.065   1.852   3.683 -0.5453 -0.2711 -0.5719
 8814SOL    HW138078   4.103   1.939   3.686 -1.0334 -0.0368 -1.2245
 8814SOL    HW238079   4.144   1.799   3.677 -0.8482 -0.6121 -1.6666
 8815SOL     OW38080   0.229   0.684   4.782 -0.2237 -0.1858 -0.2849
 8815SOL    HW138081   0.179   0.673   4.701 -1.7632 -2.0712  0.9494
 8815SOL    HW238082   0.191   0.760   4.826  1.4046  1.0527 -0.9726
 8816SOL     OW38083   3.641   3.248   4.821 -0.1244 -0.0345  0.0636
 8816SOL    HW138084   3.703   3.182   4.851 -0.0452 -0.1986 -0.4600
 8816SOL    HW238085   3.600   3.274   4.903  0.6351  2.0590 -0.2035
 8817SOL     OW38086   3.380   4.459   8.881  0.8891  0.2683 -0.3118
 8817SOL    HW138087   3.437   4.390   8.915  1.1072 -0.5363 -2.3089
 8817SOL    HW238088   3.437   4.536   8.876  1.5254 -0.2566 -1.1623
 8818SOL     OW38089   0.566   0.186   7.128  0.0951 -0.6302  0.0976
 8818SOL    HW138090   0.545   0.253   7.063 -0.0613 -0.4306  0.3523
 8818SOL    HW238091   0.486   0.188   7.181  1.1125  0.7134  1.5855
 8819SOL     OW38092   1.772   3.800   7.602  0.3279  0.8137 -0.3494
 8819SOL    HW138093   1.792   3.848   7.521  2.7482 -1.1062 -0.9090
 8819SOL    HW238094   1.695   3.844   7.637  1.5312  1.5797  1.3643
 8820SOL     OW38095   2.560   3.692  14.707 -0.5468  0.1384 -0.1358
 8820SOL    HW138096   2.509   3.714  14.785  1.0519 -1.0051  1.2284
 8820SOL    HW238097   2.645   3.710  14.746 -2.2701  0.3746  3.5155
 8821SOL     OW38098   4.097   3.886   3.569  0.7661  0.7009  0.3148
 8821SOL    HW138099   4.106   3.965   3.515 -1.1300  1.9262  1.8049
 8821SOL    HW238100   4.188   3.857   3.562 -0.0258 -1.6356 -0.0122
 8822SOL     OW38101   2.410   4.601  15.922 -0.3856 -0.0847 -0.2304
 8822SOL    HW138102   2.481   4.537  15.918 -0.5277 -0.2921  0.8634
 8822SOL    HW238103   2.428   4.647  15.839 -0.8820 -1.0199 -0.8537
 8823SOL     OW38104   2.533   3.996   1.704  0.6897 -0.9055  0.0731
 8823SOL    HW138105   2.624   3.975   1.683  0.8220 -0.7942  0.5377
 8823SOL    HW238106   2.501   3.922   1.756  0.5117  0.2939  1.6942
 8824SOL     OW38107   1.704   1.393  12.604  0.0931 -0.4334  0.6085
 8824SOL    HW138108   1.721   1.299  12.597 -1.3469 -0.5975 -0.6528
 8824SOL    HW238109   1.777   1.408  12.665  2.1901  0.2641 -2.0682
 8825SOL     OW38110   3.621   1.805  13.922  0.0418  0.0566  0.0776
 8825SOL    HW138111   3.562   1.786  13.849  0.8076  0.5515 -0.6676
 8825SOL    HW238112   3.574   1.768  13.997  0.3210  3.6351  2.0234
 8826SOL     OW38113   0.107   0.304   7.075  0.4773  0.7706 -0.0438
 8826SOL    HW138114   0.047   0.372   7.047 -1.0461 -0.6183 -0.1901
 8826SOL    HW238115   0.062   0.260   7.148 -1.5195 -0.6757 -2.1555
 8827SOL     OW38116   1.820   1.856   6.249  0.7082  0.1591 -0.4071
 8827SOL    HW138117   1.726   1.857   6.229  0.6576 -2.2399 -0.3841
 8827SOL    HW238118   1.830   1.896   6.335 -1.6809  1.9913 -0.9983
 8828SOL     OW38119   0.294   4.510   7.503  0.2511  0.0068 -0.1763
 8828SOL    HW138120   0.385   4.501   7.533 -0.4321 -0.5229  1.7056
 8828SOL    HW238121   0.244   4.494   7.582 -1.0038  1.3967 -0.6904
 8829SOL     OW38122   0.928   2.779   3.438 -0.2680 -0.2433  0.0623
 8829SOL    HW138123   0.918   2.684   3.435 -2.2185 -0.0151 -0.8498
 8829SOL    HW238124   0.984   2.784   3.361 -0.3632 -0.0677  0.0043
 8830SOL     OW38125   1.210   4.690  10.122 -0.2712  0.0748 -0.4746
 8830SOL    HW138126   1.303   4.671  10.116 -0.6462 -1.9484  0.3661
 8830SOL    HW238127   1.181   4.657  10.207 -1.2503 -1.6392 -1.4614
 8831SOL     OW38128   1.271   4.563   2.391  0.1200 -0.2787  0.4309
 8831SOL    HW138129   1.239   4.513   2.317  0.3332 -0.4316  0.4405
 8831SOL    HW238130   1.366   4.552   2.381 -0.0518 -0.5740 -0.8302
 8832SOL     OW38131   3.300   3.681   5.932  0.2120  0.3107 -0.1130
 8832SOL    HW138132   3.377   3.738   5.932  0.1095  0.4604  1.4205
 8832SOL    HW238133   3.292   3.669   6.027 -2.1300  0.2931 -0.2953
 8833SOL     OW38134   2.739   3.540   3.734  0.2006  0.0611  0.3564
 8833SOL    HW138135   2.735   3.602   3.806 -1.2771 -0.7982  1.0175
 8833SOL    HW238136   2.734   3.592   3.653 -0.8117  1.9433  1.6317
 8834SOL     OW38137   1.520   0.705   6.482  0.2038  0.1060  0.1448
 8834SOL    HW138138   1.463   0.678   6.554 -0.2629  1.8171  0.4294
 8834SOL    HW238139   1.452   0.720   6.417 -1.0280 -0.1991  1.3754
 8835SOL     OW38140   4.340   2.005  14.996 -0.1132  0.1134  0.4393
 8835SOL    HW138141   4.388   1.989  15.077 -0.3034  0.1047  0.5511
 8835SOL    HW238142   4.405   2.035  14.931 -0.4703  1.0910  0.5315
 8836SOL     OW38143   3.795   3.513   5.137  0.5661 -0.2058  0.1576
 8836SOL    HW138144   3.828   3.426   5.158  0.4049 -0.2603  0.1812
 8836SOL    HW238145   3.702   3.503   5.158  0.2300  1.4029 -0.5386
 8837SOL     OW38146   4.161   4.439   2.364 -0.1657  0.2210  0.6912
 8837SOL    HW138147   4.188   4.523   2.400 -3.2820  1.8667 -0.7744
 8837SOL    HW238148   4.117   4.389   2.432  1.3460 -1.1749  0.6419
 8838SOL     OW38149   2.470   0.991   8.247 -0.6110  0.3751  0.0225
 8838SOL    HW138150   2.501   1.073   8.284 -0.2396  0.2810 -0.0766
 8838SOL    HW238151   2.536   0.928   8.277 -0.1898 -0.1562 -1.9914
 8839SOL     OW38152   3.705   0.663  16.539  0.2171 -0.0743  0.1178
 8839SOL    HW138153   3.799   0.682  16.541  0.3949 -0.9932  0.6209
 8839SOL    HW238154   3.702   0.569  16.556  2.2410 -0.3137 -0.7945
 8840SOL     OW38155   3.725   3.542   0.799  0.5813 -0.2401 -0.4247
 8840SOL    HW138156   3.689   3.457   0.774  3.2463 -1.5786  0.2623
 8840SOL    HW238157   3.657   3.583   0.852  0.7621 -2.0399  1.1738
 8841SOL     OW38158   3.871   4.669  16.232 -0.4259 -0.2893 -0.1263
 8841SOL    HW138159   3.787   4.706  16.205 -0.7367 -0.1018  1.1292
 8841SOL    HW238160   3.859   4.576  16.249 -2.2582 -0.5004 -2.5610
 8842SOL     OW38161   4.679   0.518   7.057 -0.3362 -0.2214 -0.5042
 8842SOL    HW138162   4.620   0.570   7.002 -0.0188 -0.5488 -1.1520
 8842SOL    HW238163   4.680   0.576   7.134  0.7831 -0.8926 -0.0131
 8843SOL     OW38164   0.346   1.011   2.521 -0.1554 -0.3445  0.2400
 8843SOL    HW138165   0.324   0.943   2.456 -0.3091  1.3796 -1.5150
 8843SOL    HW238166   0.388   0.951   2.582 -0.7954  2.0139  3.0165
 8844SOL     OW38167   3.032   1.447   6.530  0.1436  0.6620 -0.8864
 8844SOL    HW138168   3.075   1.375   6.484 -1.8139 -0.1473 -1.4642
 8844SOL    HW238169   3.102   1.512   6.535  0.0856  0.5222  1.4949
 8845SOL     OW38170   3.122   2.055   0.669 -0.1514  0.2917  0.1883
 8845SOL    HW138171   3.055   2.016   0.613  1.9035 -2.1733 -0.5183
 8845SOL    HW238172   3.093   2.023   0.755  1.6176  2.5424  1.6541
 8846SOL     OW38173   1.608   4.323   7.476  0.3760  0.7442  0.4510
 8846SOL    HW138174   1.562   4.336   7.393  2.3702 -0.8022 -0.9033
 8846SOL    HW238175   1.691   4.366   7.454  0.6681  0.2837  0.6268
 8847SOL     OW38176   3.731   0.531   7.668 -0.3344 -0.2535 -0.1204
 8847SOL    HW138177   3.661   0.592   7.689  0.0562 -0.0571  0.6421
 8847SOL    HW238178   3.683   0.448   7.675 -2.8525  1.1597 -0.7756
 8848SOL     OW38179   4.358   1.034   3.261  0.1092 -0.3321 -0.6567
 8848SOL    HW138180   4.352   0.964   3.197 -1.9557 -1.9632  1.3099
 8848SOL    HW238181   4.359   1.107   3.199  0.1291  1.0367  0.9594
 8849SOL     OW38182   3.727   4.627   4.852  0.0430  0.1690  0.3976
 8849SOL    HW138183   3.761   4.679   4.924 -0.0537  1.2864 -0.3621
 8849SOL    HW238184   3.703   4.697   4.791 -1.1831 -0.4513  0.1501
 8850SOL     OW38185   0.865   2.168  12.636 -0.1729  0.1645  0.3241
 8850SOL    HW138186   0.881   2.257  12.604  0.7481  0.2838  1.1117
 8850SOL    HW238187   0.925   2.170  12.711  1.0494 -2.4683 -0.5712
 8851SOL     OW38188   3.671   4.335  13.476  0.6792 -0.4396 -0.0640
 8851SOL    HW138189   3.651   4.309  13.566 -1.5054 -0.8900 -0.6688
 8851SOL    HW238190   3.679   4.430  13.484 -1.9046 -0.2406  0.3738
 8852SOL     OW38191   1.734   2.151   8.637  0.2530 -0.0863 -0.4079
 8852SOL    HW138192   1.806   2.090   8.650  0.5536  0.8623  2.3475
 8852SOL    HW238193   1.689   2.095   8.574 -0.7994  0.3145 -0.0102
 8853SOL     OW38194   2.116   2.493   1.487 -0.2045  0.2669 -0.3312
 8853SOL    HW138195   2.045   2.556   1.483 -0.6881 -0.3279 -1.3033
 8853SOL    HW238196   2.129   2.480   1.393  0.6022 -1.2002 -0.0234
 8854SOL     OW38197   2.009   4.261  12.986 -0.5193  0.4213 -0.4561
 8854SOL    HW138198   1.939   4.209  12.947 -0.4218  1.3157 -1.8296
 8854SOL    HW238199   1.992   4.255  13.080 -0.6879 -0.0945 -0.5187
 8855SOL     OW38200   4.245   4.596   3.016  0.1812 -0.2071  0.2325
 8855SOL    HW138201   4.232   4.568   3.106 -0.7967 -0.0787  0.1224
 8855SOL    HW238202   4.333   4.633   3.026  0.9120 -1.4607 -1.4800
 8856SOL     OW38203   4.240   0.603   6.017 -0.3085  0.5474 -0.3864
 8856SOL    HW138204   4.332   0.631   6.024 -0.5342  1.3463 -0.5765
 8856SOL    HW238205   4.255   0.513   6.046  0.9276  0.6359 -0.7473
 8857SOL     OW38206   4.480   0.241   6.325 -0.1566  0.2210 -0.1512
 8857SOL    HW138207   4.544   0.179   6.290 -1.1110 -0.5526 -0.5181
 8857SOL    HW238208   4.539   0.283   6.387  1.7524 -0.5768 -1.4173
 8858SOL     OW38209   4.216   0.338   5.198  0.1801  0.1850  0.4159
 8858SOL    HW138210   4.242   0.280   5.126  2.5282 -2.4244  3.3738
 8858SOL    HW238211   4.285   0.314   5.260  1.0828 -0.6418 -0.8885
 8859SOL     OW38212   3.919   2.007   3.197 -0.1042  0.5074  0.4525
 8859SOL    HW138213   3.844   1.981   3.144  0.3637  0.8080 -0.3610
 8859SOL    HW238214   3.880   2.077   3.250  0.4125  1.0272  0.1514
 8860SOL     OW38215   1.600   1.291   8.781 -0.4270  0.2814 -0.0886
 8860SOL    HW138216   1.577   1.356   8.848  1.7846  1.2422 -0.2731
 8860SOL    HW238217   1.677   1.250   8.820 -0.2571  0.2648 -0.4522
 8861SOL     OW38218   1.168   4.664   1.137  0.0155  0.2666  0.3388
 8861SOL    HW138219   1.221   4.675   1.058 -0.6123 -0.0428 -0.1281
 8861SOL    HW238220   1.092   4.704   1.095  0.9214  0.8535 -0.7570
 8862SOL     OW38221   3.649   1.545   3.425  0.4810 -0.7078  0.0143
 8862SOL    HW138222   3.740   1.544   3.454  0.6218  1.8700 -0.3356
 8862SOL    HW238223   3.640   1.458   3.386 -1.3643 -0.4805 -0.0777
 8863SOL     OW38224   0.056   0.244   4.354 -0.1645 -0.0120 -0.7942
 8863SOL    HW138225   0.047   0.194   4.272 -1.5160  0.3696 -0.8867
 8863SOL    HW238226   0.045   0.333   4.320  2.6147  0.7423  0.2967
 8864SOL     OW38227   0.070   0.602  12.593  0.0653 -0.3431  0.0800
 8864SOL    HW138228   0.098   0.693  12.602  0.8177 -0.6934  1.2624
 8864SOL    HW238229   0.041   0.596  12.502 -1.1749 -2.6146  0.6145
 8865SOL     OW38230   4.563   3.823   2.013  0.1610  0.4055 -0.0045
 8865SOL    HW138231   4.582   3.898   2.070 -0.5580  1.5313 -1.2646
 8865SOL    HW238232   4.524   3.869   1.939  0.9982  2.2838  0.6979
 8866SOL     OW38233   2.711   3.575  11.417  0.1705  0.5535 -0.1194
 8866SOL    HW138234   2.688   3.647  11.476 -0.8865  1.3052 -1.4353
 8866SOL    HW238235   2.643   3.508  11.424  0.4592  0.1060 -1.7730
 8867SOL     OW38236   0.302   4.646   9.182 -0.0029 -0.2449  0.1186
 8867SOL    HW138237   0.354   4.724   9.201 -0.9880  0.6093 -0.6911
 8867SOL    HW238238   0.263   4.624   9.266  0.3387 -1.0790  0.0581
 8868SOL     OW38239   2.216   0.187  13.019  0.2603 -0.3275  0.1921
 8868SOL    HW138240   2.303   0.164  12.985  1.3207  2.0796  1.3033
 8868SOL    HW238241   2.209   0.274  13.058 -0.6290 -0.5050  0.4195
 8869SOL     OW38242   3.294   0.311   1.806  0.1399 -0.1500 -0.1637
 8869SOL    HW138243   3.235   0.384   1.822  2.3361  1.3045  1.3640
 8869SOL    HW238244   3.383   0.346   1.811 -0.4554  1.3071  0.1753
 8870SOL     OW38245   4.054   3.205  11.733  0.3548 -0.1012 -0.1806
 8870SOL    HW138246   4.085   3.286  11.694  1.2923  0.3296  1.4720
 8870SOL    HW238247   4.100   3.205  11.817 -0.7114 -0.0172  0.4083
 8871SOL     OW38248   4.544   0.465   2.539  0.7815  0.5104 -0.3678
 8871SOL    HW138249   4.579   0.382   2.508 -0.4463 -0.0059 -0.3774
 8871SOL    HW238250   4.577   0.467   2.628 -1.0954  0.2522  0.3285
 8872SOL     OW38251   3.489   3.141   6.607  0.5318 -0.3041 -0.1585
 8872SOL    HW138252   3.444   3.201   6.667  0.7353  0.5050 -0.8102
 8872SOL    HW238253   3.491   3.058   6.654  0.9653  0.1973  0.7180
 8873SOL     OW38254   1.947   3.825   8.633 -0.3520 -0.0514  0.3102
 8873SOL    HW138255   1.898   3.850   8.711  0.4449  0.8662  0.5173
 8873SOL    HW238256   1.990   3.908   8.614 -2.2168  0.8145 -0.1843
 8874SOL     OW38257   2.223   3.790  12.723  0.3046  0.7515 -0.2087
 8874SOL    HW138258   2.234   3.885  12.718 -1.5623  0.9307 -0.8849
 8874SOL    HW238259   2.129   3.799  12.736  0.1348 -3.3238  1.4667
 8875SOL     OW38260   2.440   2.052  11.432  0.0023  0.2349 -0.6137
 8875SOL    HW138261   2.456   2.018  11.344  0.8985  1.1108 -0.8041
 8875SOL    HW238262   2.465   1.971  11.476  3.1572  0.7603 -1.4312
 8876SOL     OW38263   2.241   4.693   5.219  0.0026  0.5217 -0.2267
 8876SOL    HW138264   2.328   4.677   5.183  0.0961  0.6338 -0.0524
 8876SOL    HW238265   2.233   4.623   5.283  1.0053 -0.7712 -1.5340
 8877SOL     OW38266   3.507   4.090  17.014 -0.0185 -0.0907 -0.7674
 8877SOL    HW138267   3.439   4.030  16.985  1.1512 -2.6986  1.9176
 8877SOL    HW238268   3.455   4.169  17.030 -0.0270 -0.0597 -0.9463
 8878SOL     OW38269   0.496   2.404   6.669 -0.4694  0.7288 -0.2159
 8878SOL    HW138270   0.554   2.438   6.737 -1.2576 -0.5206  1.0785
 8878SOL    HW238271   0.533   2.449   6.593  0.1959 -0.8199 -0.7953
 8879SOL     OW38272   4.260   4.590   9.298  0.1158  0.2746 -0.4966
 8879SOL    HW138273   4.300   4.552   9.376  0.9361  1.1089 -0.5081
 8879SOL    HW238274   4.340   4.615   9.253  1.0644 -1.7204  0.0678
 8880SOL     OW38275   3.337   1.145   2.424  0.3424  0.0326 -0.8172
 8880SOL    HW138276   3.336   1.240   2.410  1.8789  0.3120  1.0207
 8880SOL    HW238277   3.254   1.130   2.470  1.5408  0.7250  1.5664
 8881SOL     OW38278   3.514   1.132  14.848  0.0453  0.6509  0.2348
 8881SOL    HW138279   3.565   1.196  14.898  1.6575  0.7623 -1.5739
 8881SOL    HW238280   3.483   1.088  14.928 -0.7602 -2.8026 -1.9766
 8882SOL     OW38281   0.889   1.194   2.252 -0.3538 -0.3745 -0.0423
 8882SOL    HW138282   0.972   1.185   2.298 -0.8061  0.6900  0.9977
 8882SOL    HW238283   0.895   1.115   2.199 -2.2114 -0.5547 -0.0132
 8883SOL     OW38284   3.803   4.019   6.727 -0.6629 -0.4956  0.0898
 8883SOL    HW138285   3.823   4.081   6.657  0.1465 -0.0146  0.7458
 8883SOL    HW238286   3.861   3.950   6.695 -0.2749  0.7089 -1.7833
 8884SOL     OW38287   0.188   1.853   3.657  0.2469 -0.5973  0.1829
 8884SOL    HW138288   0.165   1.764   3.629  0.1993  0.3776 -2.8474
 8884SOL    HW238289   0.189   1.834   3.751  1.4879 -1.8421 -0.0886
 8885SOL     OW38290   3.215   4.422   9.218  0.1197  0.2363 -0.4112
 8885SOL    HW138291   3.295   4.453   9.262 -0.9007  2.4303 -0.1228
 8885SOL    HW238292   3.150   4.479   9.258  0.7266 -0.8988  2.1759
 8886SOL     OW38293   3.288   4.526   7.216 -0.2745 -0.4547  0.4853
 8886SOL    HW138294   3.309   4.437   7.187 -2.6455 -0.3456 -1.5731
 8886SOL    HW238295   3.222   4.553   7.152 -2.4399 -0.3174  2.7938
 8887SOL     OW38296   0.158   3.473   2.215  0.7779  0.0580  0.4956
 8887SOL    HW138297   0.068   3.470   2.183  0.8868 -0.3094  0.2265
 8887SOL    HW238298   0.148   3.464   2.310 -0.7593 -2.3155  0.1287
 8888SOL     OW38299   3.613   2.951   8.527 -0.0407 -0.0967 -0.2906
 8888SOL    HW138300   3.578   2.973   8.440  0.5267  0.6757 -0.3229
 8888SOL    HW238301   3.703   2.935   8.497  0.0373  1.8747 -1.1400
 8889SOL     OW38302   1.762   2.211  11.612 -0.2001 -0.3047 -0.0273
 8889SOL    HW138303   1.799   2.297  11.632  0.7273 -0.8385  0.5793
 8889SOL    HW238304   1.807   2.183  11.533 -1.0180 -2.3580  0.2431
 8890SOL     OW38305   2.922   4.076  16.447  0.1322  0.1787  0.1249
 8890SOL    HW138306   2.843   4.130  16.454 -0.2849 -0.3927 -0.2050
 8890SOL    HW238307   2.901   4.004  16.387  0.9360  2.5009 -2.9694
 8891SOL     OW38308   3.492   1.686  14.121  0.4318  0.2394 -0.0270
 8891SOL    HW138309   3.505   1.642  14.205  1.0522  0.1207 -0.1897
 8891SOL    HW238310   3.402   1.663  14.098  0.6919 -2.0980  1.2734
 8892SOL     OW38311   4.402   2.036   3.769 -0.2010 -0.0778  0.1370
 8892SOL    HW138312   4.324   2.078   3.732 -0.2732  0.1900  0.5888
 8892SOL    HW238313   4.478   2.051   3.712  0.5019  0.1457  1.1355
 8893SOL     OW38314   4.154   2.890   5.660 -0.9626  0.2393 -0.3658
 8893SOL    HW138315   4.155   2.803   5.621  0.7917 -0.0448  0.2909
 8893SOL    HW238316   4.172   2.942   5.582  0.4283  1.4286  0.7337
 8894SOL     OW38317   0.645   2.978  17.160  0.7137  0.2321 -0.2148
 8894SOL    HW138318   0.659   2.960  17.067  2.3185  1.8959 -0.2909
 8894SOL    HW238319   0.702   2.918  17.209  0.1669 -1.5081 -1.6811
 8895SOL     OW38320   3.444   3.496   6.709 -0.5100  0.2619  0.3773
 8895SOL    HW138321   3.402   3.506   6.623  0.5132  0.9518 -0.0373
 8895SOL    HW238322   3.524   3.548   6.697 -1.4488  1.4364 -0.8261
 8896SOL     OW38323   0.578   3.857   2.651 -0.0917 -0.4271  0.6633
 8896SOL    HW138324   0.599   3.950   2.661 -1.5663 -0.3322  2.9678
 8896SOL    HW238325   0.528   3.853   2.732 -0.0762  0.4486  0.7166
 8897SOL     OW38326   1.642   1.748  16.460  0.2894 -0.1133  0.3069
 8897SOL    HW138327   1.617   1.696  16.536  1.2739 -0.3337  0.4774
 8897SOL    HW238328   1.586   1.823  16.479 -2.1814 -2.3019  1.5469
 8898SOL     OW38329   1.949   4.195  14.652  0.1269 -0.5812 -0.1505
 8898SOL    HW138330   2.023   4.174  14.708 -0.6691  0.6847  1.3739
 8898SOL    HW238331   1.876   4.191  14.714 -0.9921  1.9750 -1.2809
 8899SOL     OW38332   3.567   3.769   2.091 -0.1707  0.5229  0.2038
 8899SOL    HW138333   3.573   3.851   2.140  4.5717  0.6825 -0.6701
 8899SOL    HW238334   3.481   3.744   2.124 -0.3198 -0.7758 -1.1783
 8900SOL     OW38335   3.528   0.278  17.598 -0.4345 -0.3238  0.1759
 8900SOL    HW138336   3.457   0.336  17.629  0.1395  0.2912  0.3357
 8900SOL    HW238337   3.490   0.265  17.511 -0.3690 -0.5859  0.1863
 8901SOL     OW38338   3.040   4.679   9.055  0.2379 -1.0967  0.2270
 8901SOL    HW138339   3.038   4.644   9.144  1.1657 -3.7756 -0.8196
 8901SOL    HW238340   3.010   4.597   9.015  0.6377 -0.5463 -1.1934
 8902SOL     OW38341   3.595   1.509   4.932  0.2159 -0.5206  0.4246
 8902SOL    HW138342   3.603   1.500   4.837 -0.6860  1.1455  0.1955
 8902SOL    HW238343   3.563   1.596   4.956 -2.2525 -0.2318 -3.9535
 8903SOL     OW38344   4.011   1.509   6.162  0.1923 -0.2422  0.0830
 8903SOL    HW138345   4.019   1.517   6.257  1.7924 -0.1671 -0.0526
 8903SOL    HW238346   3.921   1.478   6.157 -0.7023  2.3494  0.2245
 8904SOL     OW38347   2.738   1.070  11.938  0.0079 -0.6091 -0.3162
 8904SOL    HW138348   2.649   1.102  11.923  0.4505  0.4296 -0.7145
 8904SOL    HW238349   2.730   1.064  12.033 -0.1910 -1.4684 -0.3920
 8905SOL     OW38350   1.810   3.143   4.332  0.4450 -0.1336  0.1480
 8905SOL    HW138351   1.864   3.219   4.354  0.4411 -0.3785  0.9942
 8905SOL    HW238352   1.882   3.082   4.321  0.2651 -0.3230  0.0253
 8906SOL     OW38353   0.829   0.096  16.279  0.3374 -0.0815  0.4601
 8906SOL    HW138354   0.756   0.148  16.314  1.6487  3.4723 -2.0970
 8906SOL    HW238355   0.826   0.125  16.188 -0.6784 -0.7870  0.2778
 8907SOL     OW38356   0.461   1.951   9.077 -0.0122 -0.7377  0.2432
 8907SOL    HW138357   0.533   1.923   9.022 -0.3569  0.9286 -1.0834
 8907SOL    HW238358   0.461   1.879   9.140  1.2528  1.1233  2.3534
 8908SOL     OW38359   0.426   0.801   4.550 -0.0493  0.5560 -0.3162
 8908SOL    HW138360   0.370   0.863   4.504 -1.9778 -2.4425 -1.9882
 8908SOL    HW238361   0.365   0.772   4.618 -2.9123 -1.3119 -3.6746
 8909SOL     OW38362   0.299   2.384  14.143 -0.7919  0.1990 -0.0220
 8909SOL    HW138363   0.234   2.436  14.096 -1.1156 -0.0594  0.1338
 8909SOL    HW238364   0.296   2.299  14.099 -0.6794 -0.4472  1.2200
 8910SOL     OW38365   0.116   4.222   4.793 -0.5636 -0.7767 -0.7583
 8910SOL    HW138366   0.059   4.298   4.775  1.2810  0.5266 -1.0693
 8910SOL    HW238367   0.049   4.154   4.791 -0.8503 -0.5140 -0.2484
 8911SOL     OW38368   3.170   0.762   6.008 -0.1970 -0.3235 -0.5319
 8911SOL    HW138369   3.090   0.782   6.056  1.5958  0.7203  1.9977
 8911SOL    HW238370   3.175   0.827   5.938  0.1739 -0.0507 -0.2474
 8912SOL     OW38371   3.107   2.238   5.978 -0.1694  0.3190  0.1713
 8912SOL    HW138372   3.066   2.286   6.050  1.7123 -0.4673  1.7841
 8912SOL    HW238373   3.038   2.234   5.912 -1.0835 -2.1470  1.2661
 8913SOL     OW38374   2.597   3.747  15.120  0.5937  0.4706 -0.1153
 8913SOL    HW138375   2.514   3.758  15.072  0.5243  1.1126  0.1432
 8913SOL    HW238376   2.605   3.654  15.099  2.1119  0.4553  0.5287
 8914SOL     OW38377   4.404   0.277  10.072 -0.3330 -0.2578 -0.0651
 8914SOL    HW138378   4.455   0.251  10.149 -1.3965  0.9686  1.0586
 8914SOL    HW238379   4.464   0.239  10.009 -0.0481 -1.9161  1.1928
 8915SOL     OW38380   1.099   2.938  15.949  0.2184 -0.4241  0.3595
 8915SOL    HW138381   1.011   2.964  15.922 -0.4825 -1.3742  1.7019
 8915SOL    HW238382   1.142   3.016  15.915 -0.6137  0.2275  0.7853
 8916SOL     OW38383   1.492   4.660   4.371  0.0302 -0.5363  0.2815
 8916SOL    HW138384   1.535   4.625   4.293 -0.0233  0.8997 -0.4012
 8916SOL    HW238385   1.448   4.583   4.408 -2.0769  1.3356  1.7111
 8917SOL     OW38386   3.520   2.536   5.389  0.3943  0.1267  0.3550
 8917SOL    HW138387   3.536   2.613   5.443 -1.1222  0.2503  0.6380
 8917SOL    HW238388   3.450   2.575   5.336  1.3141  0.9699 -0.2505
 8918SOL     OW38389   0.608   3.599  13.455 -0.5449 -0.0077 -0.2323
 8918SOL    HW138390   0.555   3.568  13.382  0.1063  0.3280 -0.8546
 8918SOL    HW238391   0.644   3.676  13.410 -0.4200  0.7480  1.1539
 8919SOL     OW38392   0.752   3.707   5.751  0.1467  0.2931  0.7890
 8919SOL    HW138393   0.841   3.742   5.758  0.4195 -0.4003  0.7933
 8919SOL    HW238394   0.748   3.664   5.665  0.2223 -0.2273  1.0421
 8920SOL     OW38395   3.708   0.775   6.881  0.5102  0.5614  0.2361
 8920SOL    HW138396   3.613   0.782   6.874  0.6417  1.0648 -0.9673
 8920SOL    HW238397   3.736   0.863   6.906 -4.6028  2.1680  0.2196
 8921SOL     OW38398   0.902   3.424   4.595  0.5926  0.9490  0.0758
 8921SOL    HW138399   0.988   3.411   4.556  1.0109 -0.5444  1.4979
 8921SOL    HW238400   0.930   3.439   4.685 -0.2750 -0.7581  0.6256
 8922SOL     OW38401   2.407   3.727   5.884 -0.2611 -1.0383  0.1668
 8922SOL    HW138402   2.402   3.805   5.829 -0.6055 -0.9814  0.2847
 8922SOL    HW238403   2.425   3.669   5.810 -0.4994  0.6231 -1.1911
 8923SOL     OW38404   0.641   1.717   7.066 -0.4136  0.5434 -0.0361
 8923SOL    HW138405   0.717   1.760   7.107  0.0797  1.5916 -2.0893
 8923SOL    HW238406   0.604   1.782   7.008  0.1262  0.1150 -0.8704
 8924SOL     OW38407   0.049   4.293   8.599 -0.2536  0.5157  0.0606
 8924SOL    HW138408   0.082   4.379   8.627 -1.6235  1.2642 -0.6242
 8924SOL    HW238409   0.016   4.251   8.679  0.8166  0.8242  0.6614
 8925SOL     OW38410   0.270   2.569   4.925  0.0789  0.2555  0.9559
 8925SOL    HW138411   0.336   2.558   4.993  1.0464  0.4054  0.0520
 8925SOL    HW238412   0.239   2.478   4.917 -0.9551  0.7979 -1.2514
 8926SOL     OW38413   0.399   0.353   7.972 -0.3527 -0.1472 -0.1152
 8926SOL    HW138414   0.382   0.447   7.983  1.6115 -0.0584  2.1479
 8926SOL    HW238415   0.491   0.354   7.998 -0.4011  1.3854  0.0425
 8927SOL     OW38416   3.731   1.064  12.989  0.4783  0.1039  0.2036
 8927SOL    HW138417   3.809   1.120  12.995 -0.6095  1.5253  1.0748
 8927SOL    HW238418   3.745   1.006  12.915  0.5552  0.5073 -0.1017
 8928SOL     OW38419   0.339   3.717   5.891 -0.8314 -0.2016 -0.1182
 8928SOL    HW138420   0.345   3.625   5.913 -1.4241 -0.5304 -1.3551
 8928SOL    HW238421   0.426   3.740   5.924 -0.2236  0.8154 -2.3791
 8929SOL     OW38422   4.065   4.730   1.741 -0.0173  0.6300 -0.5654
 8929SOL    HW138423   4.130   0.063   1.733  2.8345 -2.0829 -0.9962
 8929SOL    HW238424   4.072   4.688   1.656  3.1463  2.6726 -1.3130
 8930SOL     OW38425   1.498   3.741   0.758  0.4173 -0.2836  0.1345
 8930SOL    HW138426   1.475   3.657   0.797 -2.6705  1.3547  1.7445
 8930SOL    HW238427   1.559   3.776   0.823  0.0540 -1.5814  1.1827
 8931SOL     OW38428   1.654   4.471   6.051 -0.2329  0.1676 -0.1989
 8931SOL    HW138429   1.593   4.446   5.982 -0.6791  1.4997 -0.2957
 8931SOL    HW238430   1.737   4.429   6.030 -1.4918 -2.4485  0.0826
 8932SOL     OW38431   4.259   4.730   4.625  0.3539  0.1107  0.3008
 8932SOL    HW138432   4.172   4.695   4.642 -0.1698  1.0856 -0.3591
 8932SOL    HW238433   4.304   4.646   4.621  0.6592  0.4526 -3.5741
 8933SOL     OW38434   0.885   0.284  15.798  1.0403 -0.1993 -0.3235
 8933SOL    HW138435   0.875   0.189  15.789 -0.7685  0.1516 -2.0249
 8933SOL    HW238436   0.797   0.320  15.808  1.2083 -0.1578  1.0634
 8934SOL     OW38437   2.574   3.958  13.679 -0.3720  0.2515  0.1474
 8934SOL    HW138438   2.631   3.909  13.738 -0.7877 -0.3667  0.0360
 8934SOL    HW238439   2.561   3.895  13.608  0.5811  0.4057 -0.1518
 8935SOL     OW38440   0.283   1.473   9.023 -0.5539 -0.0018 -0.1442
 8935SOL    HW138441   0.272   1.466   8.928 -0.8929 -2.3950  0.0718
 8935SOL    HW238442   0.350   1.539   9.038 -0.2275 -0.1236 -1.0330
 8936SOL     OW38443   4.214   1.668   6.585  0.1403 -0.2437 -0.0490
 8936SOL    HW138444   4.270   1.740   6.559 -0.0225  0.6012  1.9569
 8936SOL    HW238445   4.156   1.706   6.650  0.0444 -1.2131  0.4337
 8937SOL     OW38446   3.844   1.738  13.777 -0.1132  0.9007 -0.2737
 8937SOL    HW138447   3.805   1.652  13.764 -0.7244  1.4381 -1.9358
 8937SOL    HW238448   3.784   1.780  13.839  2.1708  1.4438  1.5730
 8938SOL     OW38449   3.199   1.400   0.679  1.1255  0.5668  0.2759
 8938SOL    HW138450   3.267   1.467   0.689  0.1216  1.3852  1.5762
 8938SOL    HW238451   3.121   1.438   0.719  1.8152  2.0513  0.2015
 8939SOL     OW38452   3.483   3.310   0.314 -0.0188  0.9477 -0.1612
 8939SOL    HW138453   3.502   3.255   0.390  1.3529  0.5614 -0.7756
 8939SOL    HW238454   3.500   3.238   0.253  1.8140 -0.1562  1.6793
 8940SOL     OW38455   1.691   0.940  12.200  0.2026 -0.1018 -0.1702
 8940SOL    HW138456   1.651   0.897  12.275 -2.2647  0.5991 -1.0769
 8940SOL    HW238457   1.741   0.865  12.167 -0.9272 -0.6070 -0.7319
 8941SOL     OW38458   3.661   1.554   9.064 -0.0829 -0.0545 -0.4467
 8941SOL    HW138459   3.742   1.588   9.104 -1.8370  0.7782  2.3836
 8941SOL    HW238460   3.664   1.467   9.103 -0.3976  1.3174  2.6445
 8942SOL     OW38461   1.608   4.287   3.596 -0.1143  0.5263  0.4967
 8942SOL    HW138462   1.623   4.259   3.686 -3.4552  0.5462  1.0473
 8942SOL    HW238463   1.549   4.362   3.598  1.2678  1.6418 -0.3510
 8943SOL     OW38464   4.380   3.508   9.989 -0.2212 -0.4185 -0.0816
 8943SOL    HW138465   4.462   3.553   9.972 -1.1722  1.3838  0.0993
 8943SOL    HW238466   4.323   3.581  10.012  0.8669  0.9073 -1.6743
 8944SOL     OW38467   4.129   2.637   5.504 -0.3968  0.2153 -0.4208
 8944SOL    HW138468   4.130   2.673   5.415  0.5211 -1.1392 -0.9514
 8944SOL    HW238469   4.081   2.555   5.499  1.2049 -0.7581  0.1216
 8945SOL     OW38470   2.798   3.654  13.610 -0.3151 -1.0042  0.3754
 8945SOL    HW138471   2.725   3.681  13.554 -1.4041 -1.2291  1.6733
 8945SOL    HW238472   2.773   3.689  13.696 -0.8115 -0.6701  0.0940
 8946SOL     OW38473   0.141   0.125   5.401  0.4250 -0.1602 -0.1534
 8946SOL    HW138474   0.132   0.127   5.305  2.1350 -0.8518 -0.3214
 8946SOL    HW238475   0.235   0.111   5.404  0.1999 -1.1718  1.8961
 8947SOL     OW38476   1.670   1.511   8.638  0.2411  0.5511  0.0687
 8947SOL    HW138477   1.726   1.538   8.711  1.0421 -1.8317  0.3409
 8947SOL    HW238478   1.630   1.428   8.666  0.6050  0.3628  0.0380
 8948SOL     OW38479   2.824   0.414   2.383 -0.4384  0.2335  0.3461
 8948SOL    HW138480   2.783   0.492   2.421 -0.7704  1.0058 -1.6521
 8948SOL    HW238481   2.761   0.388   2.317  0.0520  1.1526 -0.4877
 8949SOL     OW38482   1.035   4.049  12.967 -1.0945  0.6402  0.4415
 8949SOL    HW138483   0.977   4.099  12.910 -1.9169  0.2065  0.8940
 8949SOL    HW238484   1.096   4.118  12.992  0.1790 -0.0487 -0.8233
 8950SOL     OW38485   4.325   2.656  11.515  0.3073 -0.2388 -0.1986
 8950SOL    HW138486   4.255   2.592  11.526 -0.5830  0.7959  0.2355
 8950SOL    HW238487   4.329   2.669  11.420  2.4707 -1.0190 -0.2028
 8951SOL     OW38488   3.315   3.064   6.402 -0.0302 -0.1146 -0.2973
 8951SOL    HW138489   3.257   3.140   6.414 -0.4686 -0.5217  0.1222
 8951SOL    HW238490   3.373   3.071   6.478 -0.7283  1.9648  0.0629
 8952SOL     OW38491   0.615   2.365   8.073 -0.1023 -0.5271 -0.4677
 8952SOL    HW138492   0.710   2.368   8.058  0.0026  2.1344  0.8263
 8952SOL    HW238493   0.615   2.436   8.137 -0.3737 -0.4243 -0.5817
 8953SOL     OW38494   2.827   2.391   4.365 -0.6520 -0.1686  0.3783
 8953SOL    HW138495   2.858   2.447   4.436  1.1853 -1.5494  0.6657
 8953SOL    HW238496   2.735   2.374   4.389 -1.2195  0.0159 -1.6812
 8954SOL     OW38497   2.138   3.878  12.287  0.2951 -0.6413  0.0533
 8954SOL    HW138498   2.137   3.783  12.296  0.3936 -0.7434 -1.0097
 8954SOL    HW238499   2.143   3.882  12.191 -1.2687 -1.5616 -0.0804
 8955SOL     OW38500   4.723   2.892   7.115  0.0962  0.3064  0.1098
 8955SOL    HW138501   0.065   2.942   7.136 -1.0188  1.7285  0.9417
 8955SOL    HW238502   4.662   2.965   7.104 -1.7484 -1.4066 -1.1347
 8956SOL     OW38503   3.529   3.199  12.735  0.0032 -0.4770  0.1696
 8956SOL    HW138504   3.502   3.277  12.687 -2.0049 -0.2941  1.5619
 8956SOL    HW238505   3.569   3.143  12.668 -3.0020 -2.3434 -0.0737
 8957SOL     OW38506   1.151   3.898   4.457  0.1008 -0.3047  0.1138
 8957SOL    HW138507   1.235   3.877   4.417  1.4854  0.0769  2.8309
 8957SOL    HW238508   1.134   3.990   4.437 -1.2139 -1.4228 -3.9428
 8958SOL     OW38509   4.654   2.130   5.520 -0.3263 -0.0581  0.7801
 8958SOL    HW138510   4.585   2.064   5.517 -0.9298  0.5157  1.6729
 8958SOL    HW238511   4.688   2.131   5.431 -0.2700 -0.0875  0.8016
 8959SOL     OW38512   3.675   2.258   3.910  0.1339  0.2902  0.0344
 8959SOL    HW138513   3.665   2.222   3.822  0.8852  2.5164 -0.9850
 8959SOL    HW238514   3.711   2.345   3.891  1.7305 -0.6199 -1.1005
 8960SOL     OW38515   0.778   1.130   8.331  0.0273 -0.1996 -0.3822
 8960SOL    HW138516   0.800   1.177   8.250  0.7862  0.0083 -0.0540
 8960SOL    HW238517   0.836   1.055   8.319 -0.3918 -0.3314 -1.5585
 8961SOL     OW38518   2.583   2.942   2.874  0.4794  0.0312  0.0722
 8961SOL    HW138519   2.640   3.014   2.902  0.5295 -0.5622  1.4950
 8961SOL    HW238520   2.614   2.876   2.936  0.1453 -0.8021 -0.6525
 8962SOL     OW38521   2.500   2.914   5.126 -0.0467 -0.3737 -0.2046
 8962SOL    HW138522   2.556   2.923   5.049 -0.1828 -0.6098 -0.3301
 8962SOL    HW238523   2.413   2.924   5.089 -0.5423 -1.0113  0.7964
 8963SOL     OW38524   2.845   3.018   5.355 -0.1198 -0.3079  0.2664
 8963SOL    HW138525   2.757   2.982   5.369  0.0634 -1.4858 -1.7476
 8963SOL    HW238526   2.885   3.014   5.442  1.2973  0.2193 -0.3634
 8964SOL     OW38527   3.882   1.629   6.779 -0.0410 -0.0722 -0.4526
 8964SOL    HW138528   3.950   1.695   6.793  0.5062 -0.6499 -0.3753
 8964SOL    HW238529   3.863   1.604   6.869  1.6712 -0.9966 -0.3493
 8965SOL     OW38530   3.583   1.429  12.828  0.0586 -0.4219  0.2927
 8965SOL    HW138531   3.644   1.380  12.773  1.9863  1.6320  0.6440
 8965SOL    HW238532   3.497   1.390  12.809  0.3589 -1.0574  0.2269
 8966SOL     OW38533   4.220   4.466  10.663 -0.1153 -0.7247  0.3813
 8966SOL    HW138534   4.293   4.410  10.637  1.1195  0.8726  0.4602
 8966SOL    HW238535   4.258   4.542  10.707 -0.9288 -0.7076  1.0522
 8967SOL     OW38536   4.526   4.579   6.517 -0.0846  0.2569  0.5141
 8967SOL    HW138537   4.616   4.596   6.491 -0.2788  1.4107  0.5793
 8967SOL    HW238538   4.481   4.542   6.442 -1.4897  0.5502  1.2170
 8968SOL     OW38539   4.725   1.425   4.153  0.1274 -0.1294 -0.0861
 8968SOL    HW138540   0.053   1.400   4.220 -0.3965  1.0765  0.8651
 8968SOL    HW238541   4.728   1.520   4.151  0.6311 -0.1322  0.4538
 8969SOL     OW38542   2.782   4.714  11.215 -0.9552 -0.1181 -0.0034
 8969SOL    HW138543   2.704   4.692  11.266 -0.3082  3.1734  2.3917
 8969SOL    HW238544   2.787   0.071  11.201 -1.6859  0.1107  1.1955
 8970SOL     OW38545   2.933   3.893  14.699 -0.5121  0.2605 -0.3902
 8970SOL    HW138546   3.026   3.887  14.675 -0.1105  1.9974  0.7130
 8970SOL    HW238547   2.918   3.803  14.728 -0.4093 -0.3688 -2.3342
 8971SOL     OW38548   1.189   2.549  11.002 -0.6780  0.2946 -0.3999
 8971SOL    HW138549   1.182   2.556  11.097  1.8917  2.1000 -0.3139
 8971SOL    HW238550   1.227   2.634  10.980  0.0996 -0.1150 -0.6604
 8972SOL     OW38551   0.079   4.065  10.503 -0.8187  0.0389  0.2210
 8972SOL    HW138552   0.105   3.974  10.513 -1.8938 -0.3003  0.0205
 8972SOL    HW238553   0.048   4.088  10.591  1.3761  2.4276  0.3569
 8973SOL     OW38554   1.512   2.694  11.176  0.2355  0.7348  0.2696
 8973SOL    HW138555   1.492   2.709  11.269  2.0492  2.2291  0.4065
 8973SOL    HW238556   1.492   2.600  11.176 -0.0409  0.7848  1.4091
 8974SOL     OW38557   2.620   1.884   4.298 -0.5425  0.1415  0.8155
 8974SOL    HW138558   2.532   1.888   4.336 -1.0245  0.1685 -0.2947
 8974SOL    HW238559   2.630   1.789   4.296 -0.8613  0.1255  0.0379
 8975SOL     OW38560   0.749   2.413   0.214  0.0346  0.3013 -0.3876
 8975SOL    HW138561   0.760   2.345   0.281 -0.3220  1.1989  0.5911
 8975SOL    HW238562   0.777   2.483   0.273  0.6952 -0.3600  0.0901
 8976SOL     OW38563   2.923   3.356   5.864  0.3873  0.1967  0.5452
 8976SOL    HW138564   2.970   3.439   5.864  0.1106  0.3349  3.0347
 8976SOL    HW238565   2.848   3.384   5.915  1.6634 -0.2564  2.6731
 8977SOL     OW38566   4.540   1.643   4.581 -0.3371 -0.1573  0.3352
 8977SOL    HW138567   4.471   1.577   4.567  0.4518 -0.8905 -0.0930
 8977SOL    HW238568   4.493   1.698   4.643 -1.8246 -1.3217  0.2527
 8978SOL     OW38569   4.470   1.341   6.886  0.0791  0.6684 -0.3875
 8978SOL    HW138570   4.425   1.267   6.926  1.7202  0.6100  1.3333
 8978SOL    HW238571   4.532   1.289   6.835 -0.0938  1.1133 -1.0526
 8979SOL     OW38572   1.908   1.401   8.464  0.2076 -0.0413 -0.3608
 8979SOL    HW138573   1.835   1.341   8.481 -1.4594  1.4496 -2.1493
 8979SOL    HW238574   1.883   1.440   8.380 -0.4031 -0.4494 -0.3689
 8980SOL     OW38575   4.265   1.729   8.866  0.3650  0.5986  0.1011
 8980SOL    HW138576   4.287   1.792   8.797 -3.5931 -1.1428 -2.7134
 8980SOL    HW238577   4.172   1.722   8.844  0.3984  1.7768 -0.3958
 8981SOL     OW38578   2.061   2.998   4.325  0.1433  0.4607  0.0976
 8981SOL    HW138579   2.093   2.955   4.245 -2.5387 -0.2968 -0.5784
 8981SOL    HW238580   2.132   3.058   4.346 -0.0307  0.4669  0.6525
 8982SOL     OW38581   3.391   1.682   1.614 -0.0969  0.3869  0.0832
 8982SOL    HW138582   3.423   1.772   1.608 -0.4598  0.4978 -0.1980
 8982SOL    HW238583   3.397   1.657   1.522 -0.3881 -0.6878  0.3551
 8983SOL     OW38584   3.710   1.698   6.128  0.6188  0.0122  0.0827
 8983SOL    HW138585   3.677   1.765   6.188  0.8097  1.3475 -1.3141
 8983SOL    HW238586   3.785   1.753   6.106 -0.6223  1.8922  0.5509
 8984SOL     OW38587   0.120   3.112   8.510  0.2348  0.5196  0.0604
 8984SOL    HW138588   0.026   3.096   8.518  0.0517  0.5528 -1.9669
 8984SOL    HW238589   0.164   3.035   8.545 -1.3692 -1.3110 -1.9506
 8985SOL     OW38590   2.920   0.374   2.676  0.2084 -0.0170  0.2675
 8985SOL    HW138591   2.877   0.363   2.591  0.8382  1.8623 -0.2921
 8985SOL    HW238592   2.877   0.453   2.710 -0.4975 -0.0588 -0.5452
 8986SOL     OW38593   2.509   2.620   5.186 -0.0262  0.3119 -0.0855
 8986SOL    HW138594   2.502   2.713   5.207  0.3614  0.1755  0.6507
 8986SOL    HW238595   2.524   2.628   5.092 -2.1282  2.4537 -0.2384
 8987SOL     OW38596   2.584   1.099   3.241  0.0943 -0.0223 -0.1586
 8987SOL    HW138597   2.670   1.139   3.253 -0.3811  0.9560 -0.0098
 8987SOL    HW238598   2.590   1.099   3.146  0.0481  1.5480 -0.1535
 8988SOL     OW38599   4.426   2.064   2.713 -0.2226  0.2877 -0.3671
 8988SOL    HW138600   4.455   2.149   2.744  1.3010 -0.6624  0.8114
 8988SOL    HW238601   4.499   2.047   2.653 -1.6947 -0.7178 -1.8905
 8989SOL     OW38602   2.463   0.884   7.473  0.8509  0.1992  0.5493
 8989SOL    HW138603   2.516   0.963   7.481 -0.8509  1.3248  0.7160
 8989SOL    HW238604   2.532   0.827   7.439 -0.2688 -0.7432 -0.1477
 8990SOL     OW38605   2.042   3.814   3.351  0.3881  0.5558  0.4591
 8990SOL    HW138606   1.951   3.786   3.352  0.2057  1.1578  0.7792
 8990SOL    HW238607   2.046   3.877   3.280  2.0504 -1.0952 -0.9096
 8991SOL     OW38608   0.536   0.033  10.005  0.4242 -0.0305  0.1955
 8991SOL    HW138609   0.620   0.049   9.961 -0.6353  0.8922 -1.4587
 8991SOL    HW238610   0.515   4.678   9.989  0.2826  0.3154 -1.4974
 8992SOL     OW38611   2.733   3.975   7.078 -0.6453 -0.5880  0.3776
 8992SOL    HW138612   2.662   3.913   7.062 -1.9569  0.8172  0.8103
 8992SOL    HW238613   2.800   3.906   7.068 -0.9779 -1.1321  1.9861
 8993SOL     OW38614   2.564   0.129   1.394 -0.1195  0.0501 -0.1755
 8993SOL    HW138615   2.535   0.136   1.303 -0.8871 -2.3675 -0.1085
 8993SOL    HW238616   2.599   0.040   1.389 -0.6833 -0.2582  1.3451
 8994SOL     OW38617   2.134   3.874   4.906 -0.2518 -0.1885  0.4694
 8994SOL    HW138618   2.149   3.843   4.817 -0.0149 -1.2382  0.8782
 8994SOL    HW238619   2.178   3.808   4.959  0.0169 -0.0691  0.3908
 8995SOL     OW38620   3.750   3.392   2.671 -0.0752 -0.4367  0.6386
 8995SOL    HW138621   3.716   3.481   2.674  1.3150  0.1455 -0.6784
 8995SOL    HW238622   3.844   3.411   2.680 -0.4386  0.6532  2.1060
 8996SOL     OW38623   0.402   0.878   7.034  0.5749 -0.5894  0.1045
 8996SOL    HW138624   0.490   0.852   7.060  0.7604 -0.9693 -0.8727
 8996SOL    HW238625   0.396   0.959   7.084 -3.6873  0.1811 -1.6465
 8997SOL     OW38626   3.313   2.376   4.173 -0.1350 -0.0620  0.3589
 8997SOL    HW138627   3.273   2.294   4.143  0.7990 -0.3647 -0.0486
 8997SOL    HW238628   3.370   2.348   4.244 -1.6404 -1.9186  0.8510
 8998SOL     OW38629   0.032   0.232   7.332 -0.0446 -0.1474 -0.8486
 8998SOL    HW138630   0.081   0.266   7.407 -1.4864  2.2382 -0.9661
 8998SOL    HW238631   4.682   0.268   7.353 -0.1341 -0.6695 -0.3275
 8999SOL     OW38632   0.023   2.501  16.457  0.0879 -0.1685 -0.2425
 8999SOL    HW138633   4.688   2.459  16.505  0.5850 -0.0508  0.6035
 8999SOL    HW238634   0.012   2.591  16.488  2.7673 -0.4545  1.4622
 9000SOL     OW38635   2.319   1.964  12.498  0.1045  0.1941  0.0965
 9000SOL    HW138636   2.261   1.903  12.452 -1.1168  0.9626  0.6590
 9000SOL    HW238637   2.273   1.965  12.581  0.2194  2.8900  0.1093
 9001SOL     OW38638   0.328   3.429   3.323 -0.5258 -0.0428  0.0433
 9001SOL    HW138639   0.334   3.471   3.409 -0.5943 -3.5822  1.7473
 9001SOL    HW238640   0.392   3.358   3.319  1.1791  1.2490  4.6644
 9002SOL     OW38641   3.302   1.988  17.297  0.4050  0.5992 -0.2015
 9002SOL    HW138642   3.256   1.976  17.214  2.0770 -0.8952 -0.9156
 9002SOL    HW238643   3.302   1.896  17.325  0.9644  0.5892 -0.2480
 9003SOL     OW38644   3.038   1.973   3.792 -0.2028  0.3765  0.5259
 9003SOL    HW138645   2.979   2.046   3.807 -1.1812  0.1277 -2.0130
 9003SOL    HW238646   3.042   1.975   3.696 -4.3368 -0.6498  0.3310
 9004SOL     OW38647   3.206   0.961   2.662 -0.0630  0.3983 -0.2783
 9004SOL    HW138648   3.160   1.037   2.626 -1.5478 -0.5532 -0.4146
 9004SOL    HW238649   3.142   0.925   2.724  0.5724  0.4619  0.4107
 9005SOL     OW38650   0.235   0.466   6.428 -0.2537  0.1678  0.8617
 9005SOL    HW138651   0.330   0.473   6.435 -0.1784 -0.3899  0.4018
 9005SOL    HW238652   0.219   0.391   6.486  0.1011  1.1209  2.2058
 9006SOL     OW38653   2.347   2.139   3.545  0.4338 -0.6210 -0.1644
 9006SOL    HW138654   2.411   2.099   3.485  1.3801  0.8413 -0.1219
 9006SOL    HW238655   2.361   2.081   3.619  0.8371  0.4755  0.6121
 9007SOL     OW38656   3.673   3.242   4.549 -0.8481 -0.1522  0.1339
 9007SOL    HW138657   3.688   3.147   4.544  0.1319  0.1734 -2.9848
 9007SOL    HW238658   3.668   3.251   4.644  1.3762 -1.2663  0.3539
 9008SOL     OW38659   1.957   4.216  10.151 -0.7454 -0.6650 -0.4478
 9008SOL    HW138660   1.968   4.219  10.247  2.7578 -1.0161 -0.8247
 9008SOL    HW238661   2.002   4.298  10.135 -1.4796 -0.0731  0.4917
 9009SOL     OW38662   4.402   2.473   2.988 -0.1331  0.0564  0.1047
 9009SOL    HW138663   4.337   2.468   2.919 -0.2268 -0.8334  0.2646
 9009SOL    HW238664   4.384   2.389   3.031 -1.0051  0.4266  0.4665
 9010SOL     OW38665   1.107   1.234   5.893  0.3260  0.0145  0.8524
 9010SOL    HW138666   1.028   1.282   5.868 -0.6207 -0.8611  2.1572
 9010SOL    HW238667   1.067   1.155   5.929 -1.3355 -0.4053 -1.8770
 9011SOL     OW38668   0.788   4.343   3.521  0.0555 -0.0312 -0.1998
 9011SOL    HW138669   0.713   4.398   3.542  1.5413  1.8963  0.0637
 9011SOL    HW238670   0.848   4.404   3.477 -0.8135 -0.9579 -2.6786
 9012SOL     OW38671   1.598   2.692   7.339  0.2969 -0.3766 -0.0347
 9012SOL    HW138672   1.585   2.621   7.277 -0.0391 -1.4069  1.1977
 9012SOL    HW238673   1.610   2.767   7.281  1.3323 -0.8292 -0.4171
 9013SOL     OW38674   0.367   1.464   3.302  0.1123  0.0981  0.0497
 9013SOL    HW138675   0.283   1.508   3.320  0.3350  0.1403  1.0071
 9013SOL    HW238676   0.370   1.478   3.208  1.5390 -1.0848 -0.0848
 9014SOL     OW38677   4.382   4.595   4.857 -0.0914  0.1374 -0.1409
 9014SOL    HW138678   4.355   4.505   4.878 -1.9311  0.5148 -0.8579
 9014SOL    HW238679   4.300   4.643   4.870 -0.6796 -1.0209  0.4308
 9015SOL     OW38680   0.509   3.028   9.349  0.4658  0.3845 -0.5772
 9015SOL    HW138681   0.430   2.993   9.309  0.3872  0.2046 -0.2582
 9015SOL    HW238682   0.560   2.954   9.381 -1.0694 -0.0542  0.8340
 9016SOL     OW38683   3.582   0.591   1.479 -0.5060 -0.2872  0.6803
 9016SOL    HW138684   3.653   0.550   1.529 -0.3507 -0.5266  0.2578
 9016SOL    HW238685   3.564   0.665   1.538  0.4835 -0.9689  1.8503
 9017SOL     OW38686   4.619   0.368   9.243  0.0538  0.7555  0.1419
 9017SOL    HW138687   4.636   0.409   9.327  0.2792 -0.6128  0.7702
 9017SOL    HW238688   4.565   0.435   9.201  1.8192  2.4840  0.6564
 9018SOL     OW38689   3.189   0.343  17.022  0.0607  0.1855 -0.0331
 9018SOL    HW138690   3.216   0.283  17.092 -1.2315 -0.3176  0.0137
 9018SOL    HW238691   3.266   0.400  17.011 -1.5849  2.5583  0.8138
 9019SOL     OW38692   3.984   3.097   3.503 -0.0724  0.3011  0.2594
 9019SOL    HW138693   3.949   3.048   3.428  0.7660  2.1371 -1.3265
 9019SOL    HW238694   4.078   3.106   3.487 -0.3449  0.0727 -1.4749
 9020SOL     OW38695   2.401   2.297   7.288  0.2249  0.3362 -0.3637
 9020SOL    HW138696   2.479   2.350   7.302  0.5923 -0.8426  2.0536
 9020SOL    HW238697   2.329   2.337   7.336  0.7982  1.0578 -0.1080
 9021SOL     OW38698   0.116   1.546   1.908  0.6447  0.0294  0.3687
 9021SOL    HW138699   0.039   1.601   1.921  1.1065  0.2703  2.1516
 9021SOL    HW238700   0.142   1.586   1.825 -0.6421  1.6241  0.7292
 9022SOL     OW38701   0.271   0.838  16.584 -0.3714 -0.1540 -0.0837
 9022SOL    HW138702   0.181   0.869  16.593 -1.2660 -2.1927 -1.8749
 9022SOL    HW238703   0.283   0.781  16.660 -0.1334  1.5041  1.1270
 9023SOL     OW38704   2.624   3.311   8.665 -0.0177  0.1721  0.5976
 9023SOL    HW138705   2.605   3.402   8.643 -0.5242  0.0009  0.3532
 9023SOL    HW238706   2.689   3.334   8.732  0.3961  2.1710 -0.4845
 9024SOL     OW38707   3.841   3.528  13.265  0.0772 -0.1164  0.6210
 9024SOL    HW138708   3.930   3.535  13.301 -0.1779  1.4132  0.9345
 9024SOL    HW238709   3.827   3.620  13.245  0.2085 -0.0419  0.8652
 9025SOL     OW38710   2.627   2.271   5.898  0.2455 -0.6581 -0.0560
 9025SOL    HW138711   2.536   2.297   5.912 -0.0035 -0.5888 -1.7474
 9025SOL    HW238712   2.658   2.259   5.988 -0.2668 -0.0001  0.2039
 9026SOL     OW38713   4.094   3.120  14.764 -0.2542 -0.7007 -0.0745
 9026SOL    HW138714   4.131   3.154  14.845  1.0289  0.7877 -1.2898
 9026SOL    HW238715   4.172   3.091  14.717 -0.2205 -0.7781  0.0276
 9027SOL     OW38716   3.431   0.822   3.932 -0.2457  0.0524  0.1276
 9027SOL    HW138717   3.428   0.847   3.840  1.3377  1.3316  0.4229
 9027SOL    HW238718   3.349   0.857   3.968 -0.7119 -1.4227  0.4937
 9028SOL     OW38719   0.978   3.650  11.851 -0.0751  0.2532  0.0898
 9028SOL    HW138720   0.935   3.732  11.829  0.5727  0.5634 -0.0086
 9028SOL    HW238721   1.067   3.670  11.822  0.7852  0.2533  2.7176
 9029SOL     OW38722   0.503   4.697  14.227  0.2447 -0.6260  0.4131
 9029SOL    HW138723   0.554   4.677  14.149 -0.1365  1.2016 -0.3148
 9029SOL    HW238724   0.549   0.041  14.251 -0.1577 -0.0961 -0.6015
 9030SOL     OW38725   2.900   3.004   2.193  0.2782  0.0191 -0.1823
 9030SOL    HW138726   2.896   3.055   2.274  0.4392 -0.5132  0.1610
 9030SOL    HW238727   2.819   2.953   2.201  0.4708  0.1345  2.4724
 9031SOL     OW38728   1.196   3.005   9.251  0.6891 -0.5622 -0.0155
 9031SOL    HW138729   1.251   3.025   9.326 -0.7728 -0.8272  1.1221
 9031SOL    HW238730   1.137   3.079   9.236  0.2942 -0.7619  0.5508
 9032SOL     OW38731   4.489   0.280  12.844  0.1249  0.5599  0.3958
 9032SOL    HW138732   4.580   0.268  12.870 -0.3307 -1.6838  0.8870
 9032SOL    HW238733   4.493   0.371  12.813  2.7781 -0.0194 -0.9208
 9033SOL     OW38734   0.097   3.033   7.853 -0.3930  0.3051  0.3727
 9033SOL    HW138735   0.087   3.015   7.760 -2.4614  0.6996  0.5125
 9033SOL    HW238736   0.133   2.947   7.875 -2.5089 -0.1593  2.0880
 9034SOL     OW38737   0.364   3.335   2.541 -0.2108  0.1353 -0.1955
 9034SOL    HW138738   0.280   3.356   2.500 -0.0419  0.8208 -0.1897
 9034SOL    HW238739   0.382   3.417   2.586  1.6713  0.9189 -2.3529
 9035SOL     OW38740   0.104   2.774   1.333  0.2264 -0.2599  0.1370
 9035SOL    HW138741   0.023   2.779   1.281  0.8332  3.2499 -0.4773
 9035SOL    HW238742   0.079   2.693   1.379  2.5440 -1.0239  0.0163
 9036SOL     OW38743   0.195   3.150   7.303 -0.0255  0.2339  0.1608
 9036SOL    HW138744   0.211   3.082   7.238  0.0496  0.7236 -0.3283
 9036SOL    HW238745   0.256   3.111   7.366  0.1534 -0.5320 -0.4952
 9037SOL     OW38746   3.861   0.972  16.044  0.2326  0.0214  0.4608
 9037SOL    HW138747   3.953   0.944  16.039 -0.6263 -2.7183  0.0603
 9037SOL    HW238748   3.814   0.899  16.004 -3.0396  1.4368  1.7195
 9038SOL     OW38749   1.802   3.223   1.684 -0.2051  0.2705 -0.6228
 9038SOL    HW138750   1.869   3.266   1.735  0.3256  1.0800 -1.9931
 9038SOL    HW238751   1.787   3.150   1.744 -1.1242  2.0708  1.2799
 9039SOL     OW38752   2.609   2.762   4.293 -0.6676 -0.1099 -0.3267
 9039SOL    HW138753   2.641   2.760   4.202 -1.3298 -0.4251 -0.5499
 9039SOL    HW238754   2.515   2.746   4.288 -0.2282 -2.2879 -1.5376
 9040SOL     OW38755   0.685   1.805   3.626 -0.3716  0.1780 -0.6279
 9040SOL    HW138756   0.642   1.727   3.591  1.2506 -0.6192 -0.8938
 9040SOL    HW238757   0.746   1.770   3.691  0.8428  2.3228 -0.6139
 9041SOL     OW38758   1.655   2.673   5.013  0.0608 -0.2057 -0.5109
 9041SOL    HW138759   1.617   2.760   5.026  0.4117 -0.2224  0.6256
 9041SOL    HW238760   1.734   2.693   4.961  0.7550  1.0151  1.0239
 9042SOL     OW38761   2.330   4.072   8.201  0.1088  0.1232  0.3607
 9042SOL    HW138762   2.265   4.138   8.180 -0.0847  0.7442  2.8930
 9042SOL    HW238763   2.397   4.128   8.242 -0.6933  1.3153  0.0410
 9043SOL     OW38764   2.548   1.411  10.360  0.6733 -0.1038 -0.0895
 9043SOL    HW138765   2.477   1.388  10.420  0.7232 -1.1085 -0.4189
 9043SOL    HW238766   2.559   1.502  10.388  0.4166 -1.0854  3.2464
 9044SOL     OW38767   1.964   2.345   6.412  0.4455 -0.2727 -0.2844
 9044SOL    HW138768   1.950   2.282   6.341 -1.3857 -2.0628  1.6488
 9044SOL    HW238769   2.003   2.282   6.472 -1.5778  0.1224  1.4462
 9045SOL     OW38770   0.860   0.810   7.088 -0.0127 -0.4457 -0.3062
 9045SOL    HW138771   0.827   0.899   7.093  0.9720  0.0223 -2.2589
 9045SOL    HW238772   0.836   0.781   7.000  1.9606  0.2251 -1.0634
 9046SOL     OW38773   2.037   2.508   8.303  0.1500  0.0588  0.3731
 9046SOL    HW138774   2.026   2.521   8.208  0.1507 -2.1607  0.0750
 9046SOL    HW238775   2.101   2.437   8.303  1.2266  1.0308 -0.6335
 9047SOL     OW38776   4.051   1.244  12.822  0.7257  0.5094  0.2750
 9047SOL    HW138777   4.054   1.157  12.781 -0.7371 -0.2867  1.8935
 9047SOL    HW238778   4.015   1.215  12.905  2.1833 -3.2861 -0.4175
 9048SOL     OW38779   0.422   3.735   5.129  0.2814  0.4177 -0.3680
 9048SOL    HW138780   0.381   3.700   5.208  1.7573 -1.4987 -0.4333
 9048SOL    HW238781   0.516   3.721   5.141 -0.2424 -2.1764  0.6516
 9049SOL     OW38782   2.872   0.209   1.540 -0.3096 -0.1402  0.1465
 9049SOL    HW138783   2.929   0.158   1.598  1.8588  0.8558 -1.0839
 9049SOL    HW238784   2.897   0.177   1.453 -0.5548 -0.0562  0.0468
 9050SOL     OW38785   0.351   4.713   7.043 -0.2050  0.1994 -0.5468
 9050SOL    HW138786   0.366   0.036   7.117  4.4559 -0.6796 -0.7767
 9050SOL    HW238787   0.435   4.667   7.041  1.2632  2.8870 -0.5878
 9051SOL     OW38788   4.715   0.406   6.069  0.6174 -0.0101  0.1530
 9051SOL    HW138789   4.673   0.433   5.988 -0.4239  0.7746  0.9643
 9051SOL    HW238790   0.018   0.321   6.047 -0.3234 -0.3620 -0.1532
 9052SOL     OW38791   4.055   1.350   9.241  0.2937  0.0630  0.1489
 9052SOL    HW138792   4.025   1.371   9.329 -1.4731 -0.2590 -0.3748
 9052SOL    HW238793   4.130   1.409   9.231 -0.9568  1.6352  0.1580
 9053SOL     OW38794   0.825   0.991   9.383  0.6383  0.1838  0.0003
 9053SOL    HW138795   0.818   1.084   9.363 -1.8044 -0.2347 -1.1184
 9053SOL    HW238796   0.761   0.948   9.326  1.0774  1.1038 -1.1999
 9054SOL     OW38797   2.543   1.441   4.079 -0.2179  0.0099  0.4249
 9054SOL    HW138798   2.588   1.442   4.163  0.6711 -0.0608 -0.0423
 9054SOL    HW238799   2.467   1.384   4.092 -0.7505  1.1251  2.1328
 9055SOL     OW38800   0.352   0.890  11.812 -0.1650  0.4228 -0.3558
 9055SOL    HW138801   0.367   0.851  11.898  1.2721  1.6063 -0.0646
 9055SOL    HW238802   0.270   0.847  11.786 -0.6205  0.9008  0.2957
 9056SOL     OW38803   1.191   2.407   7.924  0.0655 -0.1164  0.3091
 9056SOL    HW138804   1.283   2.399   7.948  0.4708  0.8755 -0.9657
 9056SOL    HW238805   1.170   2.475   7.988 -4.8623 -0.9289 -0.4007
 9057SOL     OW38806   1.049   4.301   7.976  0.1002  0.3588  0.0977
 9057SOL    HW138807   1.053   4.349   8.058  0.8803 -1.1358  0.9345
 9057SOL    HW238808   0.957   4.301   7.950  0.0958 -1.3870  0.1164
 9058SOL     OW38809   1.820   0.102   4.221 -0.2986 -0.0076 -0.1072
 9058SOL    HW138810   1.777   0.086   4.137  1.7809 -1.1532 -0.9777
 9058SOL    HW238811   1.904   0.136   4.187  0.3819 -0.6526  0.9355
 9059SOL     OW38812   3.146   1.638   2.289  0.1023  0.4615 -0.5240
 9059SOL    HW138813   3.076   1.703   2.287 -3.1848 -3.1242 -0.2940
 9059SOL    HW238814   3.139   1.592   2.205 -1.2784  0.2943 -0.3122
 9060SOL     OW38815   0.138   2.045  16.447  0.6573  0.3417  0.4633
 9060SOL    HW138816   0.111   1.953  16.445  0.8577  0.3279 -1.0827
 9060SOL    HW238817   0.099   2.062  16.533  0.8214  2.3837  0.1344
 9061SOL     OW38818   1.482   2.519   2.671  0.1297  0.3964 -0.0632
 9061SOL    HW138819   1.485   2.452   2.740  0.6593  0.9185  0.4120
 9061SOL    HW238820   1.566   2.501   2.628  0.9729  0.2543  1.6640
 9062SOL     OW38821   1.454   1.930  16.556  0.2533  0.2719  0.3583
 9062SOL    HW138822   1.481   1.959  16.643  1.3449 -0.7107  0.3592
 9062SOL    HW238823   1.455   2.012  16.507 -1.6971 -0.4785 -0.9197
 9063SOL     OW38824   3.496   3.589  15.239  0.0273  0.6798 -0.0488
 9063SOL    HW138825   3.520   3.681  15.246  3.8866 -0.3867  0.5242
 9063SOL    HW238826   3.477   3.576  15.146 -2.0241  0.8742  0.3321
 9064SOL     OW38827   2.501   4.382   7.376 -0.2498 -0.1198 -0.6795
 9064SOL    HW138828   2.537   4.340   7.454  0.4601  1.2280 -0.2783
 9064SOL    HW238829   2.439   4.310   7.366  1.9531 -2.2253  1.0381
 9065SOL     OW38830   2.269   4.086   6.520 -0.4450  0.2725  0.0675
 9065SOL    HW138831   2.193   4.094   6.462 -1.0639  2.9838  1.2583
 9065SOL    HW238832   2.288   3.996   6.496 -2.4309 -0.6822  2.0679
 9066SOL     OW38833   4.051   4.077   3.403  0.2120 -0.7835 -0.0189
 9066SOL    HW138834   4.109   4.045   3.334 -0.4157  3.9967 -2.8117
 9066SOL    HW238835   4.056   4.172   3.391  1.1766 -0.4906  2.7233
 9067SOL     OW38836   1.533   2.045   8.113  0.8534 -0.0924 -0.1364
 9067SOL    HW138837   1.455   2.068   8.063 -0.5966 -3.3512  0.6815
 9067SOL    HW238838   1.492   2.023   8.196 -2.8848  0.9998 -1.7198
 9068SOL     OW38839   4.579   2.614   6.431  0.4405 -0.0904 -0.3383
 9068SOL    HW138840   4.546   2.635   6.518 -2.3438  0.4000 -1.5036
 9068SOL    HW238841   4.670   2.635   6.454 -0.1990  1.8614  0.4300
 9069SOL     OW38842   2.918   4.466   4.867  0.1821  0.5343 -0.0535
 9069SOL    HW138843   2.994   4.514   4.901  0.1493  0.6990 -0.2127
 9069SOL    HW238844   2.953   4.377   4.859 -1.2367  0.0112 -0.4369
 9070SOL     OW38845   0.877   2.922   0.207 -0.4098 -0.0799  0.3392
 9070SOL    HW138846   0.851   2.999   0.158  2.8840  1.7932  1.5319
 9070SOL    HW238847   0.835   2.954   0.287 -0.7316 -1.1905  0.6150
 9071SOL     OW38848   0.937   0.990   2.092 -0.1325 -0.0712  0.2825
 9071SOL    HW138849   0.865   0.943   2.051 -1.3437  3.1307 -1.2543
 9071SOL    HW238850   0.994   0.913   2.100 -0.3924 -0.2649  0.2905
 9072SOL     OW38851   2.680   2.047   5.278 -0.5850  0.3238 -0.1115
 9072SOL    HW138852   2.722   2.131   5.299 -0.1933 -0.2442  1.3647
 9072SOL    HW238853   2.616   2.030   5.346  3.1038  0.4285  3.3818
 9073SOL     OW38854   2.322   0.512   2.424 -0.2813  0.4482  0.9158
 9073SOL    HW138855   2.362   0.588   2.467  0.3608  0.2655  0.6465
 9073SOL    HW238856   2.235   0.539   2.454 -0.4652  0.8081  0.0603
 9074SOL     OW38857   2.789   4.092   7.766  1.1198  0.8077 -0.2203
 9074SOL    HW138858   2.857   4.116   7.702  2.3350 -2.6233 -0.2428
 9074SOL    HW238859   2.774   4.171   7.818 -0.2310 -0.0417  0.6754
 9075SOL     OW38860   1.133   1.389   8.154 -0.5092 -0.1617 -0.4578
 9075SOL    HW138861   1.184   1.326   8.104  0.4749 -0.8171  1.3498
 9075SOL    HW238862   1.046   1.375   8.116 -0.7871 -1.0822  0.5214
 9076SOL     OW38863   2.825   0.635   7.025  0.1276 -0.2056  0.0883
 9076SOL    HW138864   2.882   0.591   7.088 -0.9385 -0.5296  0.8383
 9076SOL    HW238865   2.799   0.715   7.071  3.0135  0.4929  0.4538
 9077SOL     OW38866   2.489   2.191   7.580 -0.2795 -0.3630 -0.1860
 9077SOL    HW138867   2.473   2.230   7.494 -1.9555 -0.6127  0.0084
 9077SOL    HW238868   2.417   2.129   7.593 -1.0977  0.5803 -0.2598
 9078SOL     OW38869   0.398   4.005  13.402  0.2658 -0.0284 -0.4395
 9078SOL    HW138870   0.371   3.951  13.328  2.4662 -1.3669 -0.2562
 9078SOL    HW238871   0.336   4.076  13.387  0.0966  0.6322  3.4376
 9079SOL     OW38872   3.665   0.774   1.263 -0.5143  0.0790  0.2091
 9079SOL    HW138873   3.667   0.713   1.337  0.2167  0.0851  0.1878
 9079SOL    HW238874   3.726   0.737   1.200  2.8931 -1.0227  4.1376
 9080SOL     OW38875   0.921   4.184   1.620 -0.2435  0.3349  0.6092
 9080SOL    HW138876   1.016   4.194   1.627 -0.0390 -1.1011 -0.1510
 9080SOL    HW238877   0.916   4.267   1.572  0.6363 -0.3051 -0.6072
 9081SOL     OW38878   0.466   3.685   8.092  0.6940  0.0038 -0.4629
 9081SOL    HW138879   0.457   3.763   8.037  0.5749 -1.2717 -2.2341
 9081SOL    HW238880   0.416   3.625   8.037  0.7921  1.5505 -2.2777
 9082SOL     OW38881   1.788   2.847   5.355 -0.2812  0.1089  0.5738
 9082SOL    HW138882   1.881   2.866   5.349 -0.0144 -0.6206  2.4457
 9082SOL    HW238883   1.791   2.751   5.352  0.9214  0.1834 -0.6692
 9083SOL     OW38884   0.180   4.166   7.628 -0.1452  0.4262  0.6913
 9083SOL    HW138885   0.255   4.111   7.606 -1.4266 -0.7440 -0.7404
 9083SOL    HW238886   0.171   4.203   7.540 -1.5369  0.4990  0.8630
 9084SOL     OW38887   2.049   2.166   2.426 -0.0420  0.2127 -0.2405
 9084SOL    HW138888   2.069   2.073   2.433  0.8769  0.5180  1.2499
 9084SOL    HW238889   1.992   2.152   2.351 -0.6366 -1.6587  0.5485
 9085SOL     OW38890   3.045   2.732   5.774 -0.0701 -0.5334 -0.0413
 9085SOL    HW138891   3.077   2.649   5.738 -1.0964 -0.2645 -1.6032
 9085SOL    HW238892   2.989   2.762   5.703  0.1913  2.1228  0.8899
 9086SOL     OW38893   4.263   3.692   2.324 -0.3321  0.7712 -0.4814
 9086SOL    HW138894   4.187   3.672   2.379  0.9716 -0.5846  0.8377
 9086SOL    HW238895   4.309   3.754   2.380  1.0899  0.7631 -1.6525
 9087SOL     OW38896   1.724   4.157   5.142  0.6370  0.0637 -0.2011
 9087SOL    HW138897   1.765   4.082   5.097 -1.4193 -1.1656 -0.0195
 9087SOL    HW238898   1.771   4.230   5.102 -0.4959  0.1511 -1.3580
 9088SOL     OW38899   2.937   0.923   1.270 -0.0874  0.3687 -0.4036
 9088SOL    HW138900   2.969   0.877   1.192 -0.6309 -0.8455  0.0918
 9088SOL    HW238901   2.996   0.894   1.340 -0.2592 -0.0970 -0.4554
 9089SOL     OW38902   4.412   1.960  10.960  0.2806  0.1505  0.0326
 9089SOL    HW138903   4.335   1.966  11.016 -0.7899 -1.3294 -1.2768
 9089SOL    HW238904   4.385   2.016  10.887  0.9101  0.6957  0.2165
 9090SOL     OW38905   3.716   4.252   3.687 -0.1062 -0.2341  0.0240
 9090SOL    HW138906   3.621   4.244   3.681 -0.3295  3.2250 -1.0326
 9090SOL    HW238907   3.731   4.226   3.778 -2.0311 -0.5411  0.2604
 9091SOL     OW38908   2.836   0.649   6.743  0.6266  0.2027 -0.4235
 9091SOL    HW138909   2.839   0.626   6.836  3.9774 -0.9211 -0.8048
 9091SOL    HW238910   2.807   0.736   6.770 -2.1452 -0.9992  0.3859
 9092SOL     OW38911   2.127   4.419  10.137  0.7018 -0.1730 -0.2792
 9092SOL    HW138912   2.201   4.384  10.187 -0.5626 -3.5813 -0.8445
 9092SOL    HW238913   2.152   4.510  10.120  0.1475  0.1040  0.3705
 9093SOL     OW38914   4.596   4.731   2.025  0.3759  0.2704  0.1926
 9093SOL    HW138915   4.543   4.672   2.078  1.2804 -1.3604 -0.7296
 9093SOL    HW238916   4.546   4.726   1.943 -1.2636  1.1247  1.1438
 9094SOL     OW38917   4.050   0.987   8.055 -0.0331 -0.3106  0.2951
 9094SOL    HW138918   4.038   0.896   8.082 -1.0268 -0.3590 -0.3120
 9094SOL    HW238919   3.988   1.031   8.113  0.8791 -0.2144  1.1998
 9095SOL     OW38920   3.607   1.343   0.304  0.0686  0.1557 -0.5685
 9095SOL    HW138921   3.591   1.430   0.266 -1.2807  0.3026  0.3274
 9095SOL    HW238922   3.567   1.276   0.249 -0.4570  1.5765 -1.9028
 9096SOL     OW38923   3.906   1.929   5.936  0.3614 -0.2107 -0.6096
 9096SOL    HW138924   3.883   1.926   5.843 -2.6816 -0.3077  0.1482
 9096SOL    HW238925   3.941   2.018   5.937 -1.5544  0.5462 -0.8789
 9097SOL     OW38926   2.454   3.172   4.804 -0.0047 -0.1102  0.1648
 9097SOL    HW138927   2.413   3.228   4.738 -1.6851 -1.5634 -0.0476
 9097SOL    HW238928   2.525   3.227   4.836 -2.4131  2.3086  1.3358
 9098SOL     OW38929   0.456   3.018  14.974 -0.0075 -0.5289  0.2772
 9098SOL    HW138930   0.507   3.024  15.055  1.2284  0.3816 -0.5703
 9098SOL    HW238931   0.517   2.972  14.916 -2.1548 -2.1941 -0.6579
 9099SOL     OW38932   1.528   2.202   0.096 -0.0088  0.2056 -0.2098
 9099SOL    HW138933   1.488   2.289   0.088 -0.1356  0.2948  1.4433
 9099SOL    HW238934   1.465   2.145   0.052 -0.9730  0.8325  0.3644
 9100SOL     OW38935   1.869   3.257   5.079  0.7569 -0.6778  0.6645
 9100SOL    HW138936   1.793   3.275   5.135 -0.5042 -0.1377 -1.2042
 9100SOL    HW238937   1.828   3.228   4.998 -0.7883 -0.0357  1.1956
 9101SOL     OW38938   1.937   4.562   7.599  0.2810  0.3445  0.7935
 9101SOL    HW138939   1.933   4.580   7.693  1.6867  1.4839  0.6291
 9101SOL    HW238940   2.032   4.551   7.590 -0.1111 -2.7704  0.2420
 9102SOL     OW38941   2.494   4.569  11.959  0.5605  0.6157  0.0009
 9102SOL    HW138942   2.492   4.590  11.866  0.0521 -0.5295 -0.2436
 9102SOL    HW238943   2.403   4.584  11.984  0.4552  1.8489 -1.0948
 9103SOL     OW38944   2.629   2.812   6.216  0.5534 -0.2767 -0.2107
 9103SOL    HW138945   2.552   2.869   6.217  0.3162 -0.5315 -2.5024
 9103SOL    HW238946   2.656   2.824   6.307 -0.4261 -1.2423  0.2016
 9104SOL     OW38947   3.024   2.236  16.823 -0.0684  0.6416  0.0704
 9104SOL    HW138948   3.065   2.192  16.749  0.1501  0.4808  0.2900
 9104SOL    HW238949   2.955   2.175  16.849  1.0858 -0.9084 -0.5251
 9105SOL     OW38950   0.974   3.645   9.404  0.2990 -0.0001  0.1024
 9105SOL    HW138951   0.972   3.651   9.499  1.0086 -0.5879  0.1497
 9105SOL    HW238952   0.888   3.677   9.375  0.7947  2.5268  1.4152
 9106SOL     OW38953   3.972   0.298   7.052  0.3679  0.0903 -0.0712
 9106SOL    HW138954   3.925   0.215   7.051 -0.8687  0.7892  0.2698
 9106SOL    HW238955   4.007   0.309   6.964  1.5985 -0.6056  0.3207
 9107SOL     OW38956   2.857   4.716   3.348  0.3517  0.3654 -0.5600
 9107SOL    HW138957   2.849   0.038   3.423  0.2795  1.0769 -1.1220
 9107SOL    HW238958   2.949   4.691   3.339  0.4772  0.4523  0.4482
 9108SOL     OW38959   2.093   0.736  14.444  0.1063 -0.7132  0.1046
 9108SOL    HW138960   2.102   0.817  14.495 -3.7329 -0.2157  0.0219
 9108SOL    HW238961   2.057   0.664  14.496 -1.4300 -1.6944 -2.2857
 9109SOL     OW38962   2.719   1.445   2.282  0.7232  0.2128  0.2256
 9109SOL    HW138963   2.771   1.365   2.290  0.1758 -0.0766  0.9689
 9109SOL    HW238964   2.669   1.447   2.364  0.4687  0.0858  0.0726
 9110SOL     OW38965   2.786   3.644  14.336 -0.1908 -0.4285 -0.3140
 9110SOL    HW138966   2.707   3.652  14.389 -1.3620  2.6021 -2.4926
 9110SOL    HW238967   2.759   3.567  14.286 -1.9890  0.3091 -0.4745
 9111SOL     OW38968   1.981   3.208   8.040 -0.5211  0.0023  0.1840
 9111SOL    HW138969   1.993   3.137   7.977 -0.2014  0.0148  0.2267
 9111SOL    HW238970   1.998   3.277   7.976  2.0902 -0.2672  0.5501
 9112SOL     OW38971   0.152   1.834   1.005  0.2581 -0.6909  0.1365
 9112SOL    HW138972   0.219   1.874   0.949 -0.9937  0.0198 -0.8450
 9112SOL    HW238973   0.146   1.891   1.081 -3.0552 -0.0694 -0.6062
 9113SOL     OW38974   3.971   2.476   5.690  0.0964  0.3921  0.7793
 9113SOL    HW138975   3.880   2.496   5.711 -0.3345 -0.2242 -0.5157
 9113SOL    HW238976   3.959   2.429   5.608 -2.6235 -0.4832  1.6522
 9114SOL     OW38977   2.900   3.422  15.777 -0.2724  0.2576  0.1860
 9114SOL    HW138978   2.951   3.453  15.702  1.8975 -2.0832  0.6954
 9114SOL    HW238979   2.953   3.459  15.848 -0.1460  1.5927 -0.6043
 9115SOL     OW38980   0.020   2.999  12.094 -0.3461  0.2926  0.6787
 9115SOL    HW138981   4.729   2.912  12.065  1.9430  0.5793 -2.3519
 9115SOL    HW238982   4.716   3.002  12.181 -2.6930 -2.0998 -0.3250
 9116SOL     OW38983   2.107   1.556   7.767  1.0817 -0.4042 -0.1012
 9116SOL    HW138984   2.113   1.620   7.696 -1.0849  1.3428  1.3087
 9116SOL    HW238985   2.200   1.549   7.788  0.1110 -1.4492  3.8052
 9117SOL     OW38986   3.629   0.232   1.317  0.5976 -0.1178 -0.2325
 9117SOL    HW138987   3.572   0.257   1.390 -1.7502 -0.7517 -1.8278
 9117SOL    HW238988   3.652   0.143   1.342 -0.6810 -0.7247 -1.2024
 9118SOL     OW38989   3.009   2.934   4.962 -0.1243 -0.2275 -0.2872
 9118SOL    HW138990   3.005   2.870   4.891  0.2406 -0.3764 -0.1742
 9118SOL    HW238991   3.071   2.998   4.928 -1.4315  0.7666 -0.7673
 9119SOL     OW38992   4.460   4.396  10.841 -0.4472  0.2553  0.1562
 9119SOL    HW138993   4.546   4.412  10.804 -1.0604 -0.7862 -1.7186
 9119SOL    HW238994   4.429   4.316  10.799 -0.4431  0.6381 -0.5799
 9120SOL     OW38995   1.146   4.042   6.818 -0.6658  0.6150 -0.2919
 9120SOL    HW138996   1.211   4.112   6.809  0.0075 -0.1760 -1.6475
 9120SOL    HW238997   1.204   3.974   6.852 -2.5263 -1.4179 -1.2396
 9121SOL     OW38998   0.267   1.401  12.875 -0.0935  0.0498  0.0885
 9121SOL    HW138999   0.299   1.423  12.963 -0.9517 -0.5123  0.5374
 9121SOL    HW239000   0.318   1.454  12.813  1.7946 -0.4926  1.1642
 9122SOL     OW39001   1.623   1.701   8.421 -0.4617  0.0064 -0.0962
 9122SOL    HW139002   1.647   1.641   8.491  1.6937  1.6828  0.6102
 9122SOL    HW239003   1.549   1.648   8.391  0.2907 -2.3895  2.3229
 9123SOL     OW39004   1.018   1.864  15.622  0.0294  0.1972 -0.0887
 9123SOL    HW139005   1.052   1.878  15.710  1.7735 -1.8688 -0.4196
 9123SOL    HW239006   0.968   1.782  15.629 -0.1929  0.4074  0.8042
 9124SOL     OW39007   0.342   3.804   0.491 -0.7298 -0.1991 -0.5867
 9124SOL    HW139008   0.387   3.886   0.507  1.0576 -1.7352  2.2164
 9124SOL    HW239009   0.250   3.826   0.474 -0.9308 -1.0651 -0.6518
 9125SOL     OW39010   2.784   1.922   7.840  0.6474  0.2073 -0.2447
 9125SOL    HW139011   2.859   1.982   7.843  1.6828 -0.9951 -1.8745
 9125SOL    HW239012   2.714   1.986   7.853  0.7129  0.0706  0.7452
 9126SOL     OW39013   3.283   1.774   3.833 -0.3042 -0.6498 -0.3813
 9126SOL    HW139014   3.375   1.754   3.813 -0.0167 -1.3281  1.5529
 9126SOL    HW239015   3.260   1.838   3.766 -3.2922  1.7692  2.9987
 9127SOL     OW39016   1.584   1.492   3.693 -0.6034  0.3387  0.1675
 9127SOL    HW139017   1.528   1.535   3.628 -0.2618 -0.6658 -0.7950
 9127SOL    HW239018   1.603   1.569   3.746  0.4486  0.8879 -1.0081
 9128SOL     OW39019   2.137   0.896  13.408 -0.1384  0.4790 -0.1151
 9128SOL    HW139020   2.081   0.898  13.330  0.1548 -2.2267 -0.3908
 9128SOL    HW239021   2.117   0.982  13.446  1.7180  0.1729  1.5570
 9129SOL     OW39022   1.907   0.015   7.430  0.7127  0.3513 -0.2013
 9129SOL    HW139023   1.986   0.004   7.377  1.1471  1.2776  0.2442
 9129SOL    HW239024   1.915   4.680   7.493 -3.9505 -0.4345 -0.5401
 9130SOL     OW39025   1.925   2.990  16.381 -0.0529 -0.0785 -0.2749
 9130SOL    HW139026   1.867   2.993  16.305  0.8153 -0.5951 -0.9638
 9130SOL    HW239027   1.885   3.052  16.442  2.0246 -0.8842  1.8857
 9131SOL     OW39028   0.812   0.562   3.456 -0.6123  0.2988 -0.0957
 9131SOL    HW139029   0.731   0.583   3.410 -0.5052  0.3087 -0.2783
 9131SOL    HW239030   0.765   0.577   3.539  1.4554 -1.3092  1.3606
 9132SOL     OW39031   2.315   3.875  17.132 -0.4860 -0.3850 -0.0396
 9132SOL    HW139032   2.367   3.877  17.052  0.6146  0.9859  0.7015
 9132SOL    HW239033   2.280   3.964  17.134 -3.5884 -1.6045 -0.8276
 9133SOL     OW39034   3.545   2.963   7.155  0.0685  0.1896 -0.5616
 9133SOL    HW139035   3.525   2.978   7.247 -0.2758  0.0551 -0.6120
 9133SOL    HW239036   3.558   2.869   7.147 -0.9319 -0.1253  1.5774
 9134SOL     OW39037   0.793   0.702  11.045  0.1982 -0.1898  0.7226
 9134SOL    HW139038   0.824   0.752  11.120  0.4876 -1.9126  1.7549
 9134SOL    HW239039   0.724   0.649  11.085 -0.5408 -0.5523 -1.0249
 9135SOL     OW39040   4.441   2.418   2.602 -0.0151 -0.0986  0.3796
 9135SOL    HW139041   4.358   2.371   2.592 -0.7866  1.5687 -1.0203
 9135SOL    HW239042   4.467   2.376   2.684  2.3614 -1.1140 -0.9133
 9136SOL     OW39043   0.871   2.005  13.019 -0.3154 -0.1805 -0.6976
 9136SOL    HW139044   0.936   2.047  12.963  0.9038  0.5931  1.2983
 9136SOL    HW239045   0.793   2.040  12.976  0.1570  0.7832 -0.7773
 9137SOL     OW39046   1.568   2.957  11.143 -0.1902  0.0455  0.0225
 9137SOL    HW139047   1.552   2.862  11.147 -1.0483  0.3233  2.9263
 9137SOL    HW239048   1.663   2.947  11.144 -0.1292  0.5129 -1.0199
 9138SOL     OW39049   0.593   3.800   5.947  0.2379 -0.3167  0.0175
 9138SOL    HW139050   0.640   3.883   5.950 -0.9932  0.3907  0.0810
 9138SOL    HW239051   0.637   3.747   5.881  0.1946  1.1442 -1.1769
 9139SOL     OW39052   4.327   0.191   4.981  0.4168  0.8494  0.0273
 9139SOL    HW139053   4.422   0.181   4.990  0.6213  2.4779 -0.3669
 9139SOL    HW239054   4.324   0.164   4.890  0.1492  0.4150  0.1652
 9140SOL     OW39055   2.063   2.605   8.704  0.3139  0.1069 -0.8428
 9140SOL    HW139056   2.043   2.657   8.626  0.9774  1.1857 -0.2861
 9140SOL    HW239057   2.151   2.577   8.680  1.0316 -0.2174  2.2275
 9141SOL     OW39058   1.851   1.436  15.090 -0.3247  0.2575 -0.0126
 9141SOL    HW139059   1.764   1.431  15.051 -1.1372  2.0183  1.5484
 9141SOL    HW239060   1.903   1.398  15.020 -0.0461 -0.0127  0.3402
 9142SOL     OW39061   0.665   1.369   8.442 -0.2678 -0.9853  0.4061
 9142SOL    HW139062   0.734   1.330   8.388  0.5098 -1.5481  1.8115
 9142SOL    HW239063   0.619   1.419   8.374 -0.2854 -1.1079  0.3272
 9143SOL     OW39064   4.081   2.941  11.586  0.0850 -0.5913  0.4002
 9143SOL    HW139065   4.080   3.011  11.652  0.0431 -0.7408  0.5588
 9143SOL    HW239066   3.989   2.943  11.560 -0.0413  0.5652  0.9398
 9144SOL     OW39067   1.143   0.632   0.745  0.2332 -0.6133  0.7176
 9144SOL    HW139068   1.049   0.625   0.759  0.2077 -1.8089 -0.0734
 9144SOL    HW239069   1.152   0.558   0.685  0.2564 -0.6395  0.7529
 9145SOL     OW39070   1.809   3.942   7.006  0.3811  0.1867 -0.2061
 9145SOL    HW139071   1.865   3.871   6.976 -0.9420 -1.4846  1.2681
 9145SOL    HW239072   1.725   3.896   7.010 -0.3489  1.8045  3.7820
 9146SOL     OW39073   1.585   3.063  13.677 -0.7121  0.2965 -0.4006
 9146SOL    HW139074   1.651   3.007  13.635  0.7863  1.7225  0.0510
 9146SOL    HW239075   1.507   3.007  13.676  1.6609 -3.0695  1.3894
 9147SOL     OW39076   1.434   2.830  16.155  0.4565 -0.1599 -0.4833
 9147SOL    HW139077   1.368   2.771  16.118  1.4466 -3.0977  2.4330
 9147SOL    HW239078   1.505   2.801  16.099 -0.6030 -2.5081 -0.5887
 9148SOL     OW39079   2.324   3.731   1.352  0.0875  0.0568 -0.1306
 9148SOL    HW139080   2.297   3.787   1.425  0.5870  2.5346 -1.8626
 9148SOL    HW239081   2.366   3.791   1.290  1.4439  0.0823  0.8054
 9149SOL     OW39082   2.425   3.844   8.075 -0.3034 -0.0277 -0.0014
 9149SOL    HW139083   2.362   3.883   8.015  0.0134  0.9126  0.2734
 9149SOL    HW239084   2.433   3.909   8.146  1.2074 -1.2995  0.9877
 9150SOL     OW39085   0.918   0.684   6.437 -0.6324  0.5111  0.3406
 9150SOL    HW139086   0.847   0.644   6.386 -2.5183  4.0661  0.1439
 9150SOL    HW239087   0.974   0.609   6.456 -0.1625  0.7942  0.0858
 9151SOL     OW39088   3.429   3.344   4.404  0.0867  0.5802  0.3391
 9151SOL    HW139089   3.387   3.406   4.464 -0.6044  0.2966  0.1404
 9151SOL    HW239090   3.495   3.293   4.451 -0.4268  1.9701  2.5764
 9152SOL     OW39091   3.028   4.348   7.642 -0.2050  0.4072 -0.4700
 9152SOL    HW139092   3.108   4.394   7.614 -0.1051  0.7929  0.4473
 9152SOL    HW239093   3.018   4.387   7.729  0.0042 -1.7202  0.5034
 9153SOL     OW39094   2.600   0.488   7.015  0.0736 -0.2830 -0.6840
 9153SOL    HW139095   2.681   0.540   7.013 -1.7193  2.5336 -0.3849
 9153SOL    HW239096   2.544   0.553   6.972  0.5260  0.8922  0.5108
 9154SOL     OW39097   2.977   0.500   3.285 -0.2746  0.3707  0.1839
 9154SOL    HW139098   2.977   0.585   3.328 -0.4708 -0.2298  1.3750
 9154SOL    HW239099   2.923   0.443   3.340  0.0533 -0.6735 -0.5719
 9155SOL     OW39100   4.474   1.582   1.409  0.5488 -0.2261  0.1206
 9155SOL    HW139101   4.426   1.564   1.490  2.2173 -1.5338  0.8409
 9155SOL    HW239102   4.450   1.671   1.386  1.5018  0.1572  0.6133
 9156SOL     OW39103   1.638   3.088   5.809 -0.2164  0.3132  1.1691
 9156SOL    HW139104   1.706   3.137   5.763 -0.9741  0.5806  0.3302
 9156SOL    HW239105   1.682   3.067   5.891  2.5474 -2.1734 -0.9604
 9157SOL     OW39106   1.014   3.048   4.832  0.3097 -0.2620 -0.7793
 9157SOL    HW139107   1.108   3.054   4.821  0.2888  0.5805 -0.4902
 9157SOL    HW239108   1.002   3.101   4.910 -0.0228  2.0880 -2.4331
 9158SOL     OW39109   3.899   0.729   7.323  0.4996  1.2484 -0.4098
 9158SOL    HW139110   3.816   0.763   7.357 -1.4273 -3.5179 -0.3075
 9158SOL    HW239111   3.940   0.796   7.269  0.5159  0.7864 -0.9725
 9159SOL     OW39112   3.275   0.994   9.565  0.1949 -0.2425 -0.2400
 9159SOL    HW139113   3.308   0.908   9.588 -0.1494 -0.0377  1.0451
 9159SOL    HW239114   3.359   1.040   9.559 -0.3079  0.6763 -0.2826
 9160SOL     OW39115   1.631   2.682   5.983 -0.4196 -0.4837  0.4394
 9160SOL    HW139116   1.568   2.751   6.003  0.7042  0.6238  0.1400
 9160SOL    HW239117   1.628   2.632   6.065  0.1784  0.2165  0.8873
 9161SOL     OW39118   1.708   0.321   8.876 -0.0766  0.3603 -0.1667
 9161SOL    HW139119   1.725   0.263   8.802 -2.1699 -2.0306  1.2403
 9161SOL    HW239120   1.691   0.249   8.936  0.3254 -0.8826 -1.5333
 9162SOL     OW39121   4.493   4.495  17.258 -0.1626 -0.9059 -0.1043
 9162SOL    HW139122   4.572   4.536  17.221  0.6972 -2.6173 -0.1721
 9162SOL    HW239123   4.429   4.548  17.211  0.9991  2.0752  1.6906
 9163SOL     OW39124   1.407   3.896   4.346  0.1028  0.1973 -0.2193
 9163SOL    HW139125   1.438   3.818   4.299 -0.7006  0.8809 -1.9072
 9163SOL    HW239126   1.434   3.866   4.433 -2.4910 -0.8310  0.2502
 9164SOL     OW39127   3.250   0.158   8.447  0.0189 -0.2371  0.4670
 9164SOL    HW139128   3.190   0.219   8.490 -1.3089 -1.2599  0.0698
 9164SOL    HW239129   3.196   0.133   8.372 -0.0566  1.6277 -0.1043
 9165SOL     OW39130   3.866   2.100  17.688  0.1860  0.4796  0.7462
 9165SOL    HW139131   3.829   2.108   0.031  0.1265  0.8496  0.6858
 9165SOL    HW239132   3.791   2.133  17.639  0.0061 -0.0568  0.6574
 9166SOL     OW39133   4.001   4.156  12.869 -0.2837  0.8553  0.3669
 9166SOL    HW139134   3.954   4.154  12.786  0.0563 -0.2495  0.1958
 9166SOL    HW239135   3.946   4.227  12.903  0.6653  1.9433 -0.3691
 9167SOL     OW39136   1.092   1.008   7.910 -0.2572 -0.4654 -0.0934
 9167SOL    HW139137   1.176   1.052   7.918 -0.9495  0.5292  1.6819
 9167SOL    HW239138   1.118   0.949   7.839  0.3155 -0.7811  0.3831
 9168SOL     OW39139   0.447   4.084   4.642 -0.2159  0.2724 -0.5163
 9168SOL    HW139140   0.498   4.056   4.717 -0.4733 -1.4245 -0.9885
 9168SOL    HW239141   0.422   4.176   4.657  0.7752  0.4239  0.2303
 9169SOL     OW39142   2.453   0.226   8.031  0.0594 -0.0387  1.0367
 9169SOL    HW139143   2.407   0.149   7.998  0.3665 -0.1253  0.8070
 9169SOL    HW239144   2.433   0.295   7.967 -1.4332 -3.0903 -1.8230
 9170SOL     OW39145   3.906   4.361   3.336  0.4447  0.2119 -0.4463
 9170SOL    HW139146   3.890   4.344   3.243  0.5815 -1.5273 -0.1544
 9170SOL    HW239147   3.940   4.450   3.346 -0.5311  0.4077  1.0633
 9171SOL     OW39148   3.523   0.394   5.789  0.2459 -0.2673 -0.4132
 9171SOL    HW139149   3.523   0.298   5.797  0.0176 -0.2433 -0.1047
 9171SOL    HW239150   3.617   0.404   5.774 -0.2469  2.2329 -1.9282
 9172SOL     OW39151   2.965   1.866  15.865  0.6931 -0.0945 -0.3996
 9172SOL    HW139152   2.954   1.946  15.813 -2.4529  0.6712  1.4807
 9172SOL    HW239153   3.045   1.842  15.818 -0.4749  0.3055 -2.6051
 9173SOL     OW39154   2.686   4.207  13.625  0.8382  0.8893  0.7134
 9173SOL    HW139155   2.655   4.182  13.712  0.6306 -0.9789  0.1078
 9173SOL    HW239156   2.681   4.123  13.580  1.3415  0.4419  1.4951
 9174SOL     OW39157   0.971   3.069  14.002 -0.4255  0.0076  0.1894
 9174SOL    HW139158   0.994   3.142  14.059 -0.0103 -0.8910  1.1793
 9174SOL    HW239159   1.001   3.092  13.914  0.3247  0.3185  0.5296
 9175SOL     OW39160   1.614   3.139   2.419 -0.1723 -0.5010 -0.1418
 9175SOL    HW139161   1.656   3.154   2.504 -2.4263  0.2178  0.8403
 9175SOL    HW239162   1.660   3.202   2.363  0.8754 -0.4717  0.7527
 9176SOL     OW39163   2.049   2.200  14.059 -0.0264  0.0939 -0.1418
 9176SOL    HW139164   2.098   2.195  14.141  0.2818  1.3175 -0.2521
 9176SOL    HW239165   1.968   2.160  14.091 -0.0845 -0.2301 -0.6788
 9177SOL     OW39166   0.724   3.700   1.458  0.3046  0.6906 -0.3431
 9177SOL    HW139167   0.765   3.655   1.531 -1.0825  0.7101  0.4544
 9177SOL    HW239168   0.725   3.789   1.494  0.8165  0.3140  0.5758
 9178SOL     OW39169   3.595   0.543   8.319  0.0123  0.0912  0.8069
 9178SOL    HW139170   3.640   0.578   8.396  2.2673 -1.1285  0.0381
 9178SOL    HW239171   3.552   0.464   8.352 -0.2100  0.8735  2.3757
 9179SOL     OW39172   0.656   0.175   7.743  0.0276  0.5077 -0.0143
 9179SOL    HW139173   0.563   0.178   7.762 -0.2722 -1.1598 -1.1344
 9179SOL    HW239174   0.694   0.171   7.830  0.7905  1.3956 -0.3047
 9180SOL     OW39175   3.827   1.542   7.035  0.2420 -0.4194  0.4038
 9180SOL    HW139176   3.803   1.623   7.079 -0.8277  0.3297 -1.5684
 9180SOL    HW239177   3.739   1.505   7.044  1.0154 -2.2383  0.5071
 9181SOL     OW39178   4.513   3.267  15.517 -0.0427 -0.1824  0.3175
 9181SOL    HW139179   4.520   3.315  15.600 -1.0471 -1.0312  0.8933
 9181SOL    HW239180   4.426   3.302  15.496 -0.0267  0.5597  1.4385
 9182SOL     OW39181   3.263   0.179   3.364 -0.6462  0.0276 -0.0000
 9182SOL    HW139182   3.176   0.146   3.343 -0.1634 -0.2189 -1.5828
 9182SOL    HW239183   3.259   0.215   3.453 -0.8576  2.0434 -0.8357
 9183SOL     OW39184   3.803   0.084   7.001  0.2782 -0.8958  0.1088
 9183SOL    HW139185   3.786   0.065   6.909 -1.1396 -1.9235  0.5897
 9183SOL    HW239186   3.711   0.089   7.024 -0.9070 -0.9870 -4.6010
 9184SOL     OW39187   0.855   2.004   8.729 -0.4916  0.1275  0.0148
 9184SOL    HW139188   0.900   2.021   8.646  1.9908 -0.9017  1.1584
 9184SOL    HW239189   0.779   1.947   8.717 -0.5557 -0.1672  1.9163
 9185SOL     OW39190   1.119   0.100   1.571 -0.0886 -0.2368  0.1601
 9185SOL    HW139191   1.101   0.037   1.501  0.8105  0.8852 -1.0872
 9185SOL    HW239192   1.184   0.049   1.619 -0.7062 -1.4098 -0.2407
 9186SOL     OW39193   3.796   2.166   2.603  0.3743 -0.4499 -0.3839
 9186SOL    HW139194   3.856   2.098   2.632 -0.8141 -1.5947 -0.5899
 9186SOL    HW239195   3.787   2.200   2.692  2.0699  1.0070 -0.7672
 9187SOL     OW39196   0.341   1.831   5.556 -0.1385  0.4170 -0.8855
 9187SOL    HW139197   0.246   1.818   5.550  0.0259 -0.7006 -0.9601
 9187SOL    HW239198   0.348   1.923   5.584 -1.0741 -0.5426  2.5707
 9188SOL     OW39199   0.615   2.309  15.412 -0.3032 -0.0616 -0.3315
 9188SOL    HW139200   0.707   2.296  15.436 -1.1053 -3.7532  0.8160
 9188SOL    HW239201   0.627   2.317  15.318  2.1325  0.1397  0.0100
 9189SOL     OW39202   1.714   2.103   6.566  0.2697  0.0022  0.2791
 9189SOL    HW139203   1.720   2.149   6.649  0.9062  0.1609  0.1475
 9189SOL    HW239204   1.626   2.131   6.542  0.5088  2.4145  2.3355
 9190SOL     OW39205   1.234   0.292   5.485 -0.2592  0.7723 -0.2044
 9190SOL    HW139206   1.242   0.197   5.478 -1.9650  0.5989  0.0302
 9190SOL    HW239207   1.310   0.316   5.433  1.3311 -1.5462  1.0991
 9191SOL     OW39208   1.108   0.357   7.330 -0.1659  0.6133 -0.1410
 9191SOL    HW139209   1.186   0.387   7.283  0.3570  0.3417  0.5614
 9191SOL    HW239210   1.118   0.397   7.416  0.4650 -0.3045  0.2101
 9192SOL     OW39211   0.673   2.978   6.175 -0.2910  0.0431  0.3600
 9192SOL    HW139212   0.675   2.937   6.089  0.4365  0.5065  0.1589
 9192SOL    HW239213   0.761   3.015   6.180  0.1073 -1.1112  1.6330
 9193SOL     OW39214   3.761   2.787  14.652  0.4947 -0.6660  0.1430
 9193SOL    HW139215   3.684   2.774  14.706 -0.1621 -2.2500 -1.1895
 9193SOL    HW239216   3.812   2.858  14.691 -1.2776  0.5519  0.2507
 9194SOL     OW39217   1.669   0.558   0.903  0.1593 -0.1541  0.0020
 9194SOL    HW139218   1.591   0.505   0.885  0.7420 -0.3481 -1.9104
 9194SOL    HW239219   1.632   0.633   0.951 -0.3604 -0.1679 -0.3771
 9195SOL     OW39220   0.375   0.192   2.295 -0.0328  0.9968  0.0908
 9195SOL    HW139221   0.297   0.230   2.336 -0.4065  2.9535 -2.4688
 9195SOL    HW239222   0.336   0.158   2.215  2.9455 -1.0100 -0.4975
 9196SOL     OW39223   0.903   4.479   6.630 -0.2195 -0.1442 -0.5798
 9196SOL    HW139224   0.929   4.416   6.697  0.0402 -0.6196 -1.1241
 9196SOL    HW239225   0.880   4.548   6.691  0.0321 -1.8288  1.4297
 9197SOL     OW39226   1.617   4.547  17.626  0.1199  0.5168  0.3567
 9197SOL    HW139227   1.573   4.619  17.670 -1.0668 -0.4794  0.7893
 9197SOL    HW239228   1.550   4.509  17.569  2.6482 -1.4143 -1.3369
 9198SOL     OW39229   2.220   0.401  17.169  0.3939  0.3195 -0.0028
 9198SOL    HW139230   2.235   0.488  17.206 -1.0242  0.8269 -0.6191
 9198SOL    HW239231   2.150   0.375  17.229  2.4230 -0.3817  2.0674
 9199SOL     OW39232   0.230   1.537  17.571 -0.3990 -0.0207 -0.4747
 9199SOL    HW139233   0.142   1.531  17.533 -1.2382  0.8665  1.3325
 9199SOL    HW239234   0.216   1.591  17.648 -0.0688 -1.4651  0.5892
 9200SOL     OW39235   0.100   1.928   3.155  0.0290  0.0219  0.4194
 9200SOL    HW139236   0.025   1.979   3.186 -0.4375 -0.0773 -0.5159
 9200SOL    HW239237   0.165   1.995   3.136 -2.1226  1.5444 -1.6767
 9201SOL     OW39238   0.064   2.390   7.672 -0.4723 -0.4511  0.0114
 9201SOL    HW139239   0.105   2.391   7.586  1.2963 -1.5017  0.8502
 9201SOL    HW239240   4.714   2.418   7.642 -0.2758  2.3362  1.9955
 9202SOL     OW39241   4.638   2.465   0.368 -0.2103 -0.0198  0.1915
 9202SOL    HW139242   4.673   2.384   0.333  1.8765  0.9243  0.0891
 9202SOL    HW239243   4.600   2.431   0.449 -1.0171  1.9580  0.6596
 9203SOL     OW39244   1.413   3.970  10.527 -0.3107  0.3825 -0.2619
 9203SOL    HW139245   1.416   4.062  10.553  3.3641  1.1858 -3.7111
 9203SOL    HW239246   1.453   3.922  10.600  0.9611 -1.9723 -2.5411
 9204SOL     OW39247   0.152   4.554   3.600 -0.6219 -0.0165  0.0868
 9204SOL    HW139248   0.121   4.633   3.555  0.9496  0.6322  0.1413
 9204SOL    HW239249   0.189   4.503   3.529  0.2891  1.1883 -0.3154
 9205SOL     OW39250   0.181   1.194   5.368  0.0944 -0.3423  0.3489
 9205SOL    HW139251   0.145   1.107   5.383 -1.7346  0.6027  1.4035
 9205SOL    HW239252   0.152   1.198   5.277  1.1042 -1.3806 -0.0269
 9206SOL     OW39253   2.506   3.249   7.032  0.0009  0.0496 -0.1272
 9206SOL    HW139254   2.568   3.286   7.095  2.8315 -2.0039 -1.7465
 9206SOL    HW239255   2.430   3.223   7.083 -1.5464  0.0881 -2.4112
 9207SOL     OW39256   0.832   4.507  10.277 -0.5349 -0.1516 -0.3324
 9207SOL    HW139257   0.904   4.515  10.341  1.0980  1.9839 -2.4459
 9207SOL    HW239258   0.767   4.554  10.328 -0.1940  0.3311 -0.3428
 9208SOL     OW39259   2.954   4.187   4.839  0.1605  0.0764 -0.0898
 9208SOL    HW139260   2.939   4.108   4.892 -1.4580 -0.2407 -1.0250
 9208SOL    HW239261   2.941   4.151   4.751 -0.9656 -0.9818  0.5044
 9209SOL     OW39262   4.326   0.366   2.084  0.2833  0.0775 -0.0632
 9209SOL    HW139263   4.320   0.461   2.100 -1.4325 -0.0573  0.1091
 9209SOL    HW239264   4.417   0.344   2.105 -0.4677 -3.0587 -0.0681
 9210SOL     OW39265   0.042   4.493  17.104 -0.1217 -0.3705 -0.2716
 9210SOL    HW139266   0.129   4.453  17.097  0.0704 -0.1665  0.9130
 9210SOL    HW239267   0.045   4.536  17.190 -2.1060  0.6285 -0.7124
 9211SOL     OW39268   2.803   4.367   6.546  0.3340  0.0225 -0.3107
 9211SOL    HW139269   2.749   4.335   6.619 -1.6708 -0.4793 -2.0039
 9211SOL    HW239270   2.868   4.296   6.544 -0.9645 -1.2179  0.9707
 9212SOL     OW39271   1.179   3.786   4.015  0.6021 -0.1790 -0.1307
 9212SOL    HW139272   1.149   3.870   4.049  1.2411  0.1079 -0.2802
 9212SOL    HW239273   1.100   3.737   4.038  0.0738 -0.1335 -1.8402
 9213SOL     OW39274   3.169   2.958   2.747  0.1797  0.5591  0.4654
 9213SOL    HW139275   3.137   2.947   2.836 -1.0290  0.3193  0.0136
 9213SOL    HW239276   3.167   3.054   2.739 -2.5160  0.4156 -0.8088
 9214SOL     OW39277   1.781   0.576   3.423 -0.1071 -0.1767 -0.7740
 9214SOL    HW139278   1.770   0.664   3.458  2.0962 -1.3437  2.8101
 9214SOL    HW239279   1.730   0.525   3.485 -0.5461  0.0400 -0.9551
 9215SOL     OW39280   0.884   3.210   3.384  0.4569 -0.4815 -0.7397
 9215SOL    HW139281   0.830   3.131   3.386  0.9453 -0.8400 -1.3246
 9215SOL    HW239282   0.817   3.271   3.355  0.2117 -0.4005  0.0034
 9216SOL     OW39283   3.169   3.500   7.583  0.7186  0.3728 -0.8593
 9216SOL    HW139284   3.113   3.578   7.584  2.0073  1.2632  3.1824
 9216SOL    HW239285   3.232   3.520   7.514  0.5558  2.6975 -0.3282
 9217SOL     OW39286   0.432   2.497   1.968 -0.2581 -0.3814 -0.1267
 9217SOL    HW139287   0.499   2.470   2.031 -1.0723  1.4268  1.5123
 9217SOL    HW239288   0.488   2.529   1.897 -0.5258 -0.6088 -0.4454
 9218SOL     OW39289   0.178   0.349   2.516  0.2346  0.0616  0.0005
 9218SOL    HW139290   0.148   0.327   2.604 -1.7998  0.5420 -0.5735
 9218SOL    HW239291   0.199   0.441   2.532 -0.5143  0.2217  0.0641
 9219SOL     OW39292   1.346   4.048   8.829 -0.2606 -0.9281 -0.0687
 9219SOL    HW139293   1.259   4.071   8.864  0.6096  1.7614  0.3166
 9219SOL    HW239294   1.322   4.058   8.737 -0.1443  1.0562  0.1126
 9220SOL     OW39295   1.589   3.551  10.945 -0.5004  0.3479 -0.3121
 9220SOL    HW139296   1.564   3.462  10.970 -2.4611  0.1954 -2.8044
 9220SOL    HW239297   1.624   3.546  10.856 -2.1386  0.9000 -0.9712
 9221SOL     OW39298   2.690   1.717   6.868  0.1518 -0.0655  0.5785
 9221SOL    HW139299   2.735   1.747   6.947 -0.5028  0.9055  0.5792
 9221SOL    HW239300   2.634   1.791   6.845  0.4307 -0.2434 -0.6312
 9222SOL     OW39301   0.235   4.169   1.722  0.0753  0.3284  0.1499
 9222SOL    HW139302   0.272   4.241   1.671 -0.3375  1.1946  1.0736
 9222SOL    HW239303   0.270   4.092   1.679  0.2723  0.7644 -0.4603
 9223SOL     OW39304   0.525   1.661  15.887 -0.1754 -0.2426 -0.3341
 9223SOL    HW139305   0.571   1.720  15.828 -0.4185 -0.3731 -0.6527
 9223SOL    HW239306   0.450   1.639  15.832 -0.2662 -1.0771  0.1194
 9224SOL     OW39307   3.143   4.049  17.184 -0.4502 -0.1969 -0.3719
 9224SOL    HW139308   3.189   4.049  17.100 -0.5118 -0.5118 -0.4071
 9224SOL    HW239309   3.225   4.054  17.232 -0.1624  0.2856 -0.9075
 9225SOL     OW39310   1.224   0.475   4.916 -0.4129 -0.9451 -0.1154
 9225SOL    HW139311   1.234   0.405   4.980 -0.6897 -0.9956 -0.1251
 9225SOL    HW239312   1.211   0.557   4.964  0.6606  0.0022 -1.4471
 9226SOL     OW39313   0.744   0.126  14.547  0.6628 -0.0126 -0.2818
 9226SOL    HW139314   0.808   0.158  14.610  1.8507 -0.7273 -1.1181
 9226SOL    HW239315   0.662   0.140  14.593 -0.4130 -1.8309 -1.6298
 9227SOL     OW39316   3.357   0.565   9.501 -0.2291  0.1154  0.5170
 9227SOL    HW139317   3.305   0.600   9.429  0.4958  1.6522  0.7328
 9227SOL    HW239318   3.299   0.492   9.523  0.0961 -1.1093 -2.6830
 9228SOL     OW39319   0.369   2.453   4.044 -0.6213 -0.6449 -0.4705
 9228SOL    HW139320   0.454   2.408   4.047  0.4101  1.2787 -0.8962
 9228SOL    HW239321   0.334   2.431   3.958 -1.1672 -0.2666 -0.3423
 9229SOL     OW39322   2.494   2.404   4.207 -0.1123 -0.0218 -0.0025
 9229SOL    HW139323   2.452   2.429   4.289 -0.8730  1.9277 -0.9814
 9229SOL    HW239324   2.472   2.311   4.214 -2.1602  0.2411 -2.6122
 9230SOL     OW39325   0.262   2.846  11.709 -0.5342 -0.0447 -0.1504
 9230SOL    HW139326   0.281   2.933  11.674 -1.3901 -0.2674 -1.1891
 9230SOL    HW239327   0.200   2.817  11.641  2.4544  1.1624 -3.3786
 9231SOL     OW39328   4.252   3.964  12.991  0.6094  0.3584 -0.0563
 9231SOL    HW139329   4.196   3.912  13.048  0.8257  1.9044  1.5637
 9231SOL    HW239330   4.228   4.054  13.013 -0.9541  0.0070 -0.3196
 9232SOL     OW39331   0.793   2.904  15.341  0.5565 -0.0495  0.0634
 9232SOL    HW139332   0.777   2.811  15.325  0.8320 -0.1046  0.1058
 9232SOL    HW239333   0.735   2.931  15.269 -0.7236  1.0090  1.4942
 9233SOL     OW39334   3.612   1.478   2.469 -0.0673  0.0260  0.2027
 9233SOL    HW139335   3.571   1.564   2.466 -0.2931 -0.1366 -1.2875
 9233SOL    HW239336   3.684   1.505   2.527  0.0616  1.1913 -0.5044
 9234SOL     OW39337   1.952   0.987   3.540  0.3757  0.1577 -0.5335
 9234SOL    HW139338   1.899   1.022   3.468  1.0634  3.2042  0.4474
 9234SOL    HW239339   2.010   1.057   3.569  0.1690  0.6019 -1.1963
 9235SOL     OW39340   1.500   2.206   0.983 -0.0170 -0.1336 -0.2996
 9235SOL    HW139341   1.473   2.143   0.916  0.7305  0.2411 -0.9528
 9235SOL    HW239342   1.578   2.164   1.020  0.3551  1.1292  0.3390
 9236SOL     OW39343   2.623   3.465  14.154  0.4604 -0.0311 -0.1907
 9236SOL    HW139344   2.557   3.468  14.086  0.9344  1.4354 -0.5937
 9236SOL    HW239345   2.704   3.504  14.119 -0.3827  1.1129 -0.8493
 9237SOL     OW39346   2.219   1.652   8.226 -0.8917  0.2632 -0.0016
 9237SOL    HW139347   2.145   1.614   8.178  0.0124 -1.6129  0.0938
 9237SOL    HW239348   2.279   1.690   8.162  1.7352 -0.8588  1.7883
 9238SOL     OW39349   1.033   4.681   3.927  0.1430  0.7355  0.4559
 9238SOL    HW139350   1.036   4.685   4.022 -0.9346 -2.6351  0.6278
 9238SOL    HW239351   1.123   4.655   3.904  0.8369  0.9088  2.9525
 9239SOL     OW39352   4.091   2.313  14.145  0.9006  0.2488  0.1197
 9239SOL    HW139353   4.094   2.330  14.050  1.0313  1.1054  0.2753
 9239SOL    HW239354   4.035   2.381  14.183  1.1887  0.3499  0.3607
 9240SOL     OW39355   3.191   0.661   1.920 -0.2615 -0.0792 -0.1520
 9240SOL    HW139356   3.204   0.713   1.999 -0.6737 -0.4839  0.1853
 9240SOL    HW239357   3.101   0.633   1.939 -0.9852  0.9181 -2.1650
 9241SOL     OW39358   2.060   0.593   2.500 -0.5754 -0.0749  0.0983
 9241SOL    HW139359   2.049   0.594   2.595 -1.1003  2.6239  0.0057
 9241SOL    HW239360   1.980   0.554   2.463  0.0805  0.9259 -2.3963
 9242SOL     OW39361   2.823   2.607   4.873 -0.0758  0.3585  0.3439
 9242SOL    HW139362   2.901   2.649   4.839  0.7149 -1.1007  0.3591
 9242SOL    HW239363   2.762   2.681   4.871  3.8367  3.5645 -0.6769
 9243SOL     OW39364   4.302   2.625   9.100 -0.2940  0.1913 -0.0601
 9243SOL    HW139365   4.250   2.668   9.032  0.0974  1.1248  0.2337
 9243SOL    HW239366   4.392   2.630   9.068 -0.2469  1.4184  0.2780
 9244SOL     OW39367   2.382   0.726   2.115 -0.9849 -0.1370  0.0881
 9244SOL    HW139368   2.294   0.763   2.124 -0.5108  1.0744 -0.1993
 9244SOL    HW239369   2.354   0.638   2.090 -1.4897  0.4990 -1.6408
 9245SOL     OW39370   1.419   2.705   3.356 -0.1573 -0.2858 -0.2284
 9245SOL    HW139371   1.353   2.637   3.358 -0.1483 -0.3561 -2.5071
 9245SOL    HW239372   1.496   2.649   3.367  0.4961  0.4647 -0.9234
 9246SOL     OW39373   3.129   3.726  10.852 -0.5976  0.2893  0.0338
 9246SOL    HW139374   3.183   3.734  10.931  0.6849  2.7878 -1.0815
 9246SOL    HW239375   3.042   3.729  10.893 -0.3518  2.8937  0.3782
 9247SOL     OW39376   3.321   1.401   5.902  0.7554  0.1858  0.5165
 9247SOL    HW139377   3.373   1.461   5.955 -0.4697  0.6786  1.1699
 9247SOL    HW239378   3.382   1.331   5.880 -1.3398 -1.5785  0.3914
 9248SOL     OW39379   1.838   1.316   5.413  0.4107 -0.3282 -0.0417
 9248SOL    HW139380   1.766   1.272   5.368 -1.8871  1.4016  1.9082
 9248SOL    HW239381   1.870   1.382   5.351  1.2551 -2.5080 -1.9184
 9249SOL     OW39382   4.060   4.529   7.238  0.8643 -0.7643 -0.2547
 9249SOL    HW139383   4.051   4.561   7.328  1.5782 -0.9878 -0.1024
 9249SOL    HW239384   4.154   4.515   7.224  1.0467  0.7223 -0.5369
 9250SOL     OW39385   2.211   1.841   3.186  0.3545  0.3636 -0.2760
 9250SOL    HW139386   2.224   1.795   3.269  0.8703  1.1769  0.0858
 9250SOL    HW239387   2.160   1.768   3.149  0.5455 -0.5902  1.3271
 9251SOL     OW39388   3.718   0.732  16.818 -0.2997 -0.1241  0.0144
 9251SOL    HW139389   3.703   0.725  16.724 -1.5510 -0.4386  0.2325
 9251SOL    HW239390   3.744   0.643  16.844 -0.6460 -0.2825 -0.1855
 9252SOL     OW39391   3.663   0.302   4.274  0.2065  0.0434 -0.2575
 9252SOL    HW139392   3.676   0.375   4.213 -0.0151  0.8468  0.6469
 9252SOL    HW239393   3.633   0.224   4.227 -1.2502  0.0843  0.5780
 9253SOL     OW39394   2.211   3.067  13.132 -0.1758  0.8240 -0.2963
 9253SOL    HW139395   2.196   3.161  13.131  0.4761  0.9285 -0.5063
 9253SOL    HW239396   2.136   3.030  13.087 -0.0285 -1.0762  0.9871
 9254SOL     OW39397   2.537   2.102  10.250  0.3007 -0.2807 -0.1764
 9254SOL    HW139398   2.488   2.090  10.168  0.6631  1.9323 -0.6962
 9254SOL    HW239399   2.471   2.150  10.300 -0.3664 -1.8117  0.4143
 9255SOL     OW39400   2.014   3.542   0.592  0.8098 -0.1276  0.1519
 9255SOL    HW139401   2.069   3.619   0.609 -1.0552  1.4689 -1.1789
 9255SOL    HW239402   2.061   3.491   0.526  0.5062  0.2609 -0.3618
 9256SOL     OW39403   1.504   2.061  11.009  0.5438 -0.0853 -0.2920
 9256SOL    HW139404   1.415   2.056  10.974  0.3654  0.1954  0.1265
 9256SOL    HW239405   1.491   2.069  11.103  1.3005  1.5143 -0.3261
 9257SOL     OW39406   0.683   4.457   5.056  0.4129 -0.0713 -0.1682
 9257SOL    HW139407   0.736   4.402   5.114  1.3542  0.0261 -0.9252
 9257SOL    HW239408   0.677   4.393   4.985  0.8539 -0.0464 -0.2318
 9258SOL     OW39409   0.313   2.751   9.868 -0.0437 -0.5216 -0.5210
 9258SOL    HW139410   0.328   2.674   9.923 -2.5207 -1.2932 -0.9101
 9258SOL    HW239411   0.362   2.729   9.789  1.1433 -2.9354  0.9030
 9259SOL     OW39412   2.907   4.157   5.658 -0.2781 -0.1297 -0.9655
 9259SOL    HW139413   2.819   4.145   5.621 -1.2753  0.7247  1.0941
 9259SOL    HW239414   2.971   4.111   5.605 -1.1550 -0.8904 -1.3657
 9260SOL     OW39415   1.766   3.849   0.675 -0.2031 -0.1041 -0.2059
 9260SOL    HW139416   1.767   3.754   0.670  3.1281 -0.0220 -1.2822
 9260SOL    HW239417   1.735   3.871   0.763 -0.8571  0.2376 -0.5236
 9261SOL     OW39418   1.585   1.117  14.235 -0.8209 -0.0055 -0.0566
 9261SOL    HW139419   1.634   1.099  14.315 -1.3216  0.2574  0.3051
 9261SOL    HW239420   1.537   1.195  14.261 -1.6035 -0.8699  1.0833
 9262SOL     OW39421   2.126   4.207   7.531  0.0579 -0.1931 -0.1564
 9262SOL    HW139422   2.046   4.160   7.506 -0.4609  0.9470 -0.6628
 9262SOL    HW239423   2.193   4.178   7.470 -1.5986 -2.3557 -0.9495
 9263SOL     OW39424   0.404   4.061   4.368  0.2849 -0.3065  0.5494
 9263SOL    HW139425   0.433   4.082   4.457  1.7974  0.6622 -0.1726
 9263SOL    HW239426   0.484   4.015   4.343 -0.4048 -0.0049 -2.1844
 9264SOL     OW39427   2.709   3.436   6.015 -0.2565 -0.2716  0.5296
 9264SOL    HW139428   2.701   3.390   6.099 -0.1179 -1.0883  0.0857
 9264SOL    HW239429   2.636   3.498   6.021 -0.9199 -1.0903  1.0153
 9265SOL     OW39430   3.290   0.770   6.980 -0.4448 -0.3430 -0.7986
 9265SOL    HW139431   3.225   0.780   6.910 -1.7457  0.9597  0.5854
 9265SOL    HW239432   3.351   0.717   6.930 -1.6447 -1.4568 -1.0883
 9266SOL     OW39433   0.578   1.897   6.556 -0.4614  0.3068 -0.7080
 9266SOL    HW139434   0.517   1.826   6.536 -0.9844  0.6448 -0.2993
 9266SOL    HW239435   0.516   1.956   6.598 -0.6584  0.5012 -1.2668
 9267SOL     OW39436   1.818   1.337   3.585 -0.0159 -0.0662 -0.2838
 9267SOL    HW139437   1.786   1.248   3.569 -1.4630  0.0808  1.7353
 9267SOL    HW239438   1.745   1.389   3.618  0.2307  0.3695 -0.4306
 9268SOL     OW39439   1.792   3.767   5.597  0.3363  0.0801 -0.5923
 9268SOL    HW139440   1.735   3.736   5.526  0.6039 -1.5860 -0.0765
 9268SOL    HW239441   1.747   3.844   5.629 -0.5201 -1.3153  1.5512
 9269SOL     OW39442   2.834   3.320   6.878  0.3285 -0.2134  0.1046
 9269SOL    HW139443   2.787   3.376   6.940  0.2973  1.2037 -1.1999
 9269SOL    HW239444   2.849   3.241   6.930 -1.6140 -0.3245  0.4947
 9270SOL     OW39445   3.293   1.390   1.871  0.0821 -0.1492 -0.0215
 9270SOL    HW139446   3.306   1.295   1.860 -1.8244 -0.2379 -1.5871
 9270SOL    HW239447   3.246   1.417   1.791 -0.6786  0.4516  0.6282
 9271SOL     OW39448   4.450   2.455   3.886 -0.4794 -0.1410  1.0074
 9271SOL    HW139449   4.517   2.522   3.871 -1.1600  0.4076  0.4309
 9271SOL    HW239450   4.369   2.506   3.882 -1.0389 -1.2946 -1.8164
 9272SOL     OW39451   2.474   3.039  11.013  0.3327  0.5905  0.4597
 9272SOL    HW139452   2.446   3.010  10.926 -0.3705 -0.9267  1.1832
 9272SOL    HW239453   2.557   3.085  11.000  0.3201 -0.1708 -2.4888
 9273SOL     OW39454   3.149   0.433  12.472 -0.0991  0.1792 -0.2594
 9273SOL    HW139455   3.243   0.435  12.486 -0.4023  1.6072  1.4255
 9273SOL    HW239456   3.144   0.338  12.455 -0.7223  0.5021 -1.8669
 9274SOL     OW39457   4.411   3.284   5.683  0.0356  0.3131 -0.3125
 9274SOL    HW139458   4.494   3.238   5.681 -0.8092 -1.1815 -0.6074
 9274SOL    HW239459   4.421   3.332   5.766 -1.9130  0.5699 -0.2148
 9275SOL     OW39460   0.784   0.805   5.481  0.7936  0.1359  0.4178
 9275SOL    HW139461   0.734   0.726   5.504  1.0789 -0.5892 -1.4215
 9275SOL    HW239462   0.747   0.840   5.400  0.1650 -1.1656  0.1419
 9276SOL     OW39463   0.456   0.434   4.513  0.6350 -0.0937 -0.3954
 9276SOL    HW139464   0.466   0.435   4.608  0.0235 -0.3818 -0.3270
 9276SOL    HW239465   0.361   0.424   4.519  0.8391 -1.2901  0.7150
 9277SOL     OW39466   1.426   0.623   1.600  0.1468  0.3650 -0.0200
 9277SOL    HW139467   1.449   0.534   1.627 -0.2444  0.2316 -0.1215
 9277SOL    HW239468   1.507   0.667   1.625  0.3058 -0.1433  0.3567
 9278SOL     OW39469   2.109   2.310  10.332 -0.3173  0.1065  0.6624
 9278SOL    HW139470   2.124   2.234  10.276  1.9617 -0.5442  2.1146
 9278SOL    HW239471   2.094   2.263  10.414 -2.0236  0.8229  0.7601
 9279SOL     OW39472   3.138   4.621  13.675  0.1689  0.3182  0.2093
 9279SOL    HW139473   3.213   4.578  13.716 -1.2206 -1.1818  1.1919
 9279SOL    HW239474   3.073   4.618  13.745 -1.8827 -0.2411 -1.7240
 9280SOL     OW39475   3.373   2.683   4.469  0.6966  0.1857  0.1022
 9280SOL    HW139476   3.448   2.678   4.528 -1.1674 -0.9029  2.3511
 9280SOL    HW239477   3.315   2.622   4.514 -0.0273  0.7129 -0.1302
 9281SOL     OW39478   3.506   2.571   0.141  0.8870 -0.3526  0.0661
 9281SOL    HW139479   3.528   2.581   0.048 -2.6311 -1.9899 -0.9280
 9281SOL    HW239480   3.413   2.550   0.147  0.5142  1.8852  2.2448
 9282SOL     OW39481   4.734   0.981  17.346  0.2456 -0.1623  0.6591
 9282SOL    HW139482   4.680   0.977  17.425 -0.7451  2.0497  0.0824
 9282SOL    HW239483   0.036   1.067  17.357 -0.3700  0.0503  1.1532
 9283SOL     OW39484   2.420   4.472   4.025 -0.0541 -0.6475  0.1545
 9283SOL    HW139485   2.368   4.431   3.957  0.2442 -0.4722 -0.1758
 9283SOL    HW239486   2.494   4.484   3.965 -0.7462  0.7484 -0.4112
 9284SOL     OW39487   0.926   0.069   0.328 -0.5334  0.5058  0.1433
 9284SOL    HW139488   0.838   0.041   0.301 -0.2798 -1.3064  1.1809
 9284SOL    HW239489   0.959   4.720   0.355 -1.6168 -0.4727 -1.6416
 9285SOL     OW39490   0.093   3.963  11.487 -0.0648 -0.2365  0.3652
 9285SOL    HW139491   0.094   3.899  11.558 -0.5927  0.0431  0.6275
 9285SOL    HW239492   0.083   4.045  11.537 -0.1655 -1.2509  2.0138
 9286SOL     OW39493   4.699   0.051   2.971 -0.6144  0.3811 -0.2458
 9286SOL    HW139494   4.711   0.027   2.879 -1.2516 -0.9312  0.0062
 9286SOL    HW239495   0.044   0.096   2.991  0.5777 -0.7436 -2.5407
 9287SOL     OW39496   0.744   0.701   9.166 -0.5023  0.1111 -0.0434
 9287SOL    HW139497   0.663   0.677   9.122 -0.1097  0.5351 -1.0013
 9287SOL    HW239498   0.799   0.722   9.091 -0.8309 -2.8191 -1.0913
 9288SOL     OW39499   0.802   2.333   1.455  0.2182  0.2726 -0.1041
 9288SOL    HW139500   0.835   2.245   1.439 -1.3775 -0.0135 -1.6950
 9288SOL    HW239501   0.804   2.348   1.550  0.5759 -1.0676  0.0984
 9289SOL     OW39502   3.637   4.099   2.123  0.4841  0.2703  0.0848
 9289SOL    HW139503   3.565   4.102   2.060 -0.1903 -0.7988  0.8234
 9289SOL    HW239504   3.657   4.191   2.140  0.2429 -0.2765  3.2843
 9290SOL     OW39505   0.360   0.985   7.898  0.4997  0.0573  0.1285
 9290SOL    HW139506   0.362   1.054   7.964 -2.6018 -0.1179  0.4035
 9290SOL    HW239507   0.293   0.928   7.936  2.3947 -1.1100  1.7297
 9291SOL     OW39508   2.818   0.048   5.902  0.1549 -0.1279  0.8026
 9291SOL    HW139509   2.886   0.010   5.847 -1.4723 -0.7349 -0.8176
 9291SOL    HW239510   2.840   0.138   5.880  0.7609 -0.2268  1.0066
 9292SOL     OW39511   2.314   0.059  11.297  0.2369 -0.1464 -0.5603
 9292SOL    HW139512   2.290   0.151  11.280 -3.2419 -1.1958 -1.3455
 9292SOL    HW239513   2.245   0.014  11.248  0.0660 -0.3779 -0.1024
 9293SOL     OW39514   3.968   1.155   5.430 -0.0662 -0.2228 -0.0553
 9293SOL    HW139515   3.923   1.156   5.346 -0.5353  2.0608  0.2037
 9293SOL    HW239516   3.966   1.062   5.451 -0.7881 -0.3801 -0.8442
 9294SOL     OW39517   1.855   0.890  13.201 -0.0004  0.1174 -0.3630
 9294SOL    HW139518   1.790   0.926  13.140 -1.3043  1.7794  2.0076
 9294SOL    HW239519   1.824   0.929  13.283  1.1113 -1.7397  0.9411
 9295SOL     OW39520   4.667   2.842   5.073  0.4234 -0.7885 -0.3238
 9295SOL    HW139521   4.651   2.785   4.997 -1.4543  0.5062 -0.9061
 9295SOL    HW239522   4.586   2.891   5.065  2.1259  1.7038 -2.0831
 9296SOL     OW39523   1.545   4.503   2.278  0.4055 -0.6625  0.3368
 9296SOL    HW139524   1.495   4.507   2.196 -0.9420  2.6439  1.3583
 9296SOL    HW239525   1.613   4.443   2.246 -0.6854 -1.1032 -1.1593
 9297SOL     OW39526   4.142   1.222  16.609  0.1788  0.2687  0.5877
 9297SOL    HW139527   4.213   1.161  16.629 -0.2015 -0.0578  0.9559
 9297SOL    HW239528   4.061   1.187  16.646  0.1056 -1.1375 -0.8923
 9298SOL     OW39529   2.105   3.274  11.488 -0.6207  0.5744  0.2723
 9298SOL    HW139530   2.165   3.304  11.557  0.6776 -0.0006 -0.6010
 9298SOL    HW239531   2.136   3.184  11.479 -0.7805  0.3656  1.6900
 9299SOL     OW39532   4.048   3.868  15.278 -0.0794  0.0172 -0.0530
 9299SOL    HW139533   4.036   3.951  15.231 -0.7689  0.9770  1.8233
 9299SOL    HW239534   3.955   3.844  15.286 -0.1178 -0.0392 -0.6395
 9300SOL     OW39535   0.143   3.365   3.675  0.2880 -0.0244 -0.8127
 9300SOL    HW139536   0.149   3.441   3.617  2.5348 -0.4987 -1.2432
 9300SOL    HW239537   0.065   3.322   3.641 -0.6335  1.3823 -0.4580
 9301SOL     OW39538   1.575   0.536   2.882 -0.2204  0.4789  0.1388
 9301SOL    HW139539   1.632   0.489   2.821 -0.6088  1.1848 -0.7572
 9301SOL    HW239540   1.629   0.535   2.961  2.4037 -2.0928 -1.7017
 9302SOL     OW39541   1.405   4.407  16.462  0.3729  0.6379 -0.6178
 9302SOL    HW139542   1.436   4.494  16.436  1.5035  0.9793  1.8762
 9302SOL    HW239543   1.486   4.383  16.508 -0.8622  1.5531  2.0345
 9303SOL     OW39544   0.164   2.399  13.625  0.2699 -0.1291 -0.0538
 9303SOL    HW139545   0.140   2.489  13.602 -0.5862 -0.3735 -0.0987
 9303SOL    HW239546   0.259   2.406  13.630 -0.0777  2.2583  3.3007
 9304SOL     OW39547   1.155   2.852   6.766  0.3254  0.0532 -0.2436
 9304SOL    HW139548   1.226   2.797   6.798  0.2017  1.0019  1.6188
 9304SOL    HW239549   1.155   2.811   6.679  2.0238 -1.7234  0.6002
 9305SOL     OW39550   3.862   0.108   4.599  0.0613 -0.5093 -0.1068
 9305SOL    HW139551   3.908   0.076   4.676 -2.0438  0.6095  1.6225
 9305SOL    HW239552   3.873   0.034   4.539  1.3444  1.3528 -2.1743
 9306SOL     OW39553   0.444   1.674   9.020 -0.1896  0.0564 -0.3902
 9306SOL    HW139554   0.536   1.699   9.031  0.0941 -1.3392  0.3555
 9306SOL    HW239555   0.428   1.720   8.938 -1.6530  1.5686  0.7439
 9307SOL     OW39556   4.503   3.105   2.850 -0.6454 -0.3157  0.2031
 9307SOL    HW139557   4.474   3.015   2.835  0.3714 -0.7514  0.8948
 9307SOL    HW239558   4.575   3.107   2.788 -0.5165 -0.8286  0.3390
 9308SOL     OW39559   1.207   2.378  10.517  0.2213 -0.0201 -0.6894
 9308SOL    HW139560   1.119   2.359  10.483  0.1899 -0.0541 -0.5909
 9308SOL    HW239561   1.190   2.380  10.611 -0.7612  0.6063 -0.8803
 9309SOL     OW39562   2.812   3.834   8.792  0.0586 -0.1260  0.4167
 9309SOL    HW139563   2.876   3.854   8.860  0.3894 -1.1537  0.4124
 9309SOL    HW239564   2.813   3.921   8.753  0.5330  0.3268  1.4395
 9310SOL     OW39565   1.835   3.796   4.044 -0.1014  0.2564 -0.4378
 9310SOL    HW139566   1.804   3.884   4.065  0.6967  0.3276  0.4397
 9310SOL    HW239567   1.759   3.744   4.019  1.0448 -1.2921 -0.7392
 9311SOL     OW39568   2.354   2.363  10.752 -0.8029  0.2613 -0.0550
 9311SOL    HW139569   2.441   2.358  10.712 -0.5860 -0.4941  0.4961
 9311SOL    HW239570   2.315   2.405  10.676  0.3019  3.3052  1.0590
 9312SOL     OW39571   3.980   3.875  17.082  0.4787  0.6229  0.2644
 9312SOL    HW139572   3.996   3.801  17.023  0.7527  0.4146  0.6062
 9312SOL    HW239573   4.052   3.844  17.137  0.3999  0.4894  0.2933
 9313SOL     OW39574   2.049   2.127   6.895  0.5567 -0.1516 -0.1005
 9313SOL    HW139575   2.052   2.222   6.879  1.3408  0.0506  1.2986
 9313SOL    HW239576   2.049   2.082   6.810 -2.6765  1.5121 -1.0150
 9314SOL     OW39577   4.458   0.956  15.790 -0.1787  0.3107  0.2626
 9314SOL    HW139578   4.446   0.903  15.711 -0.6685  1.3701 -0.3621
 9314SOL    HW239579   4.370   0.992  15.804 -0.6024  0.1659 -2.0936
 9315SOL     OW39580   2.097   1.479   5.710 -0.6970  0.3757  0.6438
 9315SOL    HW139581   2.014   1.522   5.691 -1.1605 -0.6546  0.3337
 9315SOL    HW239582   2.103   1.478   5.806  0.7017 -2.0771  0.5307
 9316SOL     OW39583   1.680   0.770   9.427 -0.1348  0.0524  0.1535
 9316SOL    HW139584   1.618   0.776   9.500 -1.4551  1.1691 -1.0771
 9316SOL    HW239585   1.755   0.772   9.488 -0.4604 -1.2211  0.6158
 9317SOL     OW39586   2.980   1.582   7.152 -0.5718 -0.1398 -0.5174
 9317SOL    HW139587   2.949   1.670   7.134  0.5506  0.6286  1.2131
 9317SOL    HW239588   3.029   1.588   7.234  0.4723  4.2778 -1.4781
 9318SOL     OW39589   1.360   3.639   4.852 -0.1149  0.0704 -0.4698
 9318SOL    HW139590   1.281   3.610   4.897 -0.6284  2.9240  0.4807
 9318SOL    HW239591   1.366   3.576   4.780 -2.3411 -0.3511 -0.3030
 9319SOL     OW39592   3.328   3.643  15.449 -0.4257 -0.2425 -0.0294
 9319SOL    HW139593   3.395   3.625  15.383 -1.1157 -1.0839 -0.4969
 9319SOL    HW239594   3.256   3.603  15.401 -1.0854  2.1538 -1.0190
 9320SOL     OW39595   1.720   3.308   2.235  0.4494  0.1367  0.0447
 9320SOL    HW139596   1.725   3.403   2.227 -0.8736  0.1820 -0.3405
 9320SOL    HW239597   1.806   3.278   2.208  0.8741  1.3275  0.0692
 9321SOL     OW39598   2.072   3.671  13.186 -0.4156  0.3175 -0.6500
 9321SOL    HW139599   2.089   3.689  13.279  1.6731 -2.1652 -0.5458
 9321SOL    HW239600   2.016   3.744  13.157  0.5521  0.7737 -1.3749
 9322SOL     OW39601   2.706   3.077   2.545  0.1525  0.2161 -0.1011
 9322SOL    HW139602   2.766   3.118   2.608 -1.4209 -0.5275  1.8773
 9322SOL    HW239603   2.719   3.137   2.472  1.2488 -1.1610 -1.0439
 9323SOL     OW39604   3.605   3.394   9.595 -0.5479 -0.2864  0.5688
 9323SOL    HW139605   3.642   3.467   9.645 -0.5562  0.2748 -0.2348
 9323SOL    HW239606   3.687   3.365   9.556 -0.3379  1.1321 -0.0633
 9324SOL     OW39607   3.237   3.523  16.224 -0.1258  0.2814 -0.6061
 9324SOL    HW139608   3.189   3.478  16.293  0.4286  0.8992  0.1918
 9324SOL    HW239609   3.208   3.472  16.149 -1.5072  1.4598 -0.8818
 9325SOL     OW39610   2.694   3.902  14.323  0.5351  0.2237  0.1737
 9325SOL    HW139611   2.657   3.817  14.348 -0.2157  0.0416 -1.5772
 9325SOL    HW239612   2.718   3.935  14.410  2.2535  0.9286 -0.5824
 9326SOL     OW39613   3.737   4.258   5.207 -0.3389 -0.1999 -0.1117
 9326SOL    HW139614   3.749   4.262   5.112 -0.6669  1.0865 -0.0930
 9326SOL    HW239615   3.642   4.265   5.214 -0.2499  1.1923 -0.3613
 9327SOL     OW39616   1.707   0.219  10.698 -0.1209  0.4662  0.5470
 9327SOL    HW139617   1.792   0.212  10.743 -0.2602  0.3913  0.7949
 9327SOL    HW239618   1.688   0.312  10.691 -0.8088  0.2513 -0.4040
 9328SOL     OW39619   0.263   0.633   9.485 -0.3891 -0.0679  0.2996
 9328SOL    HW139620   0.271   0.555   9.430 -0.0686  0.0584  0.1650
 9328SOL    HW239621   0.354   0.652   9.509 -0.0652 -0.2330 -0.8016
 9329SOL     OW39622   3.097   1.398   6.062 -0.3099 -0.2534  0.0616
 9329SOL    HW139623   3.033   1.419   5.994 -0.9690 -1.4033  0.3193
 9329SOL    HW239624   3.176   1.391   6.008  0.1798  0.9755  0.6511
 9330SOL     OW39625   2.459   3.431  13.955  0.0329  0.3491  0.4485
 9330SOL    HW139626   2.419   3.358  13.908 -1.0029  1.0825  0.2077
 9330SOL    HW239627   2.414   3.498  13.904  0.9316 -0.3592 -1.2850
 9331SOL     OW39628   0.319   1.375   6.845 -0.2823  0.0792  0.8748
 9331SOL    HW139629   0.368   1.356   6.765  0.8973  0.8498  1.4034
 9331SOL    HW239630   0.384   1.427   6.892  0.5092 -1.6905  1.7468
 9332SOL     OW39631   2.826   3.351   5.552 -0.3389  0.0186  0.0621
 9332SOL    HW139632   2.815   3.433   5.601 -3.1717  0.2804 -0.9772
 9332SOL    HW239633   2.744   3.311   5.581  0.8402 -0.8136  2.1955
 9333SOL     OW39634   3.674   0.491   8.603 -0.0026 -0.6582 -0.1184
 9333SOL    HW139635   3.736   0.544   8.653 -0.1887 -1.6185  1.1297
 9333SOL    HW239636   3.720   0.407   8.597  2.6920  0.6562  2.2643
 9334SOL     OW39637   1.837   3.821  12.254  0.2732 -0.1715  0.5655
 9334SOL    HW139638   1.836   3.767  12.333  2.8641 -0.7099  0.2213
 9334SOL    HW239639   1.919   3.869  12.263  1.0725 -1.6530  1.1713
 9335SOL     OW39640   0.507   4.375   1.829  0.1501  0.0232  0.6912
 9335SOL    HW139641   0.554   4.318   1.767 -0.5610 -0.8661  0.9855
 9335SOL    HW239642   0.438   4.318   1.862 -0.3012  0.0073 -0.2865
 9336SOL     OW39643   1.892   3.123  12.563 -0.6495  0.0700 -0.3259
 9336SOL    HW139644   1.907   3.045  12.510 -1.8259 -1.9193  2.2720
 9336SOL    HW239645   1.801   3.114  12.591  0.3294  1.1446  3.2258
 9337SOL     OW39646   2.019   0.315   6.396 -0.2416 -0.7319 -0.4715
 9337SOL    HW139647   2.038   0.408   6.386 -2.8543 -0.4385 -2.6921
 9337SOL    HW239648   1.992   0.288   6.308  1.3241 -1.4564 -0.7282
 9338SOL     OW39649   0.241   0.551  14.425 -0.9641 -0.3242 -0.0005
 9338SOL    HW139650   0.295   0.577  14.351 -1.6874 -1.4167 -0.9095
 9338SOL    HW239651   0.204   0.467  14.397  0.0502  0.0234 -2.3945
 9339SOL     OW39652   0.170   2.859  17.338  0.3255  0.3585 -0.4888
 9339SOL    HW139653   0.218   2.934  17.373 -0.4459  0.8238 -0.4110
 9339SOL    HW239654   0.189   2.793  17.405  1.7642 -0.4083 -1.6796
 9340SOL     OW39655   0.954   1.061   4.989  0.1759  0.5004  0.2525
 9340SOL    HW139656   0.929   1.063   5.081 -2.6461 -2.7085 -0.4696
 9340SOL    HW239657   0.866   1.064   4.951 -0.6189  0.4885  2.1154
 9341SOL     OW39658   2.336   4.152   1.781 -0.8495 -0.1033 -0.1095
 9341SOL    HW139659   2.421   4.119   1.752  0.1507 -0.4866  3.2849
 9341SOL    HW239660   2.355   4.246   1.779 -0.1835 -0.2473 -0.2303
 9342SOL     OW39661   2.581   2.937   5.381 -0.1826  0.1275 -0.2347
 9342SOL    HW139662   2.530   2.951   5.301  0.1604  1.3331 -0.2478
 9342SOL    HW239663   2.547   2.857   5.421  2.1581 -1.6397 -1.7683
 9343SOL     OW39664   2.369   2.952   7.709  0.3765 -0.0958 -0.9502
 9343SOL    HW139665   2.331   3.038   7.690 -0.3848 -0.2782 -0.2761
 9343SOL    HW239666   2.338   2.904   7.633  1.9172 -3.0604  0.2686
 9344SOL     OW39667   0.058   2.645   5.871  0.2592 -0.4932 -0.0384
 9344SOL    HW139668   0.119   2.710   5.906  0.8125 -1.1798  0.2680
 9344SOL    HW239669   4.715   2.696   5.857 -0.0411 -0.9899 -0.1530
 9345SOL     OW39670   1.278   1.618  16.609 -0.2867  0.2585  0.0015
 9345SOL    HW139671   1.319   1.700  16.636 -0.0361 -0.4352  1.7977
 9345SOL    HW239672   1.190   1.651  16.591 -0.5821  0.1571  1.1994
 9346SOL     OW39673   0.832   1.280   6.479 -0.4629 -0.2393 -0.1021
 9346SOL    HW139674   0.827   1.371   6.448 -0.7533 -0.4255 -0.6044
 9346SOL    HW239675   0.914   1.245   6.444  0.7046  1.2001  1.1678
 9347SOL     OW39676   1.839   2.076   5.625  0.0318  0.0484  0.0042
 9347SOL    HW139677   1.927   2.113   5.617  0.6592 -1.4276 -0.0311
 9347SOL    HW239678   1.847   2.032   5.710  1.0833 -0.1708 -0.2102
 9348SOL     OW39679   1.465   1.960   8.875 -0.0440 -0.6303 -0.6391
 9348SOL    HW139680   1.457   1.870   8.844 -0.0022  0.0486 -2.5855
 9348SOL    HW239681   1.560   1.957   8.887 -0.1705  0.5607  0.7215
 9349SOL     OW39682   1.563   1.126   4.800  0.2173  0.0974 -0.3282
 9349SOL    HW139683   1.555   1.091   4.888 -0.6215 -2.2822 -1.3366
 9349SOL    HW239684   1.650   1.161   4.820  0.5565 -1.0010  0.1035
 9350SOL     OW39685   4.238   1.590   7.642 -0.3871  0.0410 -0.2658
 9350SOL    HW139686   4.309   1.594   7.707 -0.9661  0.2972  0.3454
 9350SOL    HW239687   4.241   1.496   7.621 -0.9418  0.2397 -1.2704
 9351SOL     OW39688   1.628   3.633   3.993 -0.2707 -0.7850  0.2933
 9351SOL    HW139689   1.569   3.641   4.068  0.6524 -2.8141  1.2171
 9351SOL    HW239690   1.577   3.581   3.931 -0.0791  0.4972 -0.9268
 9352SOL     OW39691   1.963   3.928   2.810  0.0765  0.4335  0.3925
 9352SOL    HW139692   1.935   3.862   2.874 -1.7754  0.0696 -0.7652
 9352SOL    HW239693   1.898   3.992   2.839 -0.3338  0.6811 -1.0639
 9353SOL     OW39694   2.171   3.408   3.192  0.2542 -0.2511  0.6758
 9353SOL    HW139695   2.108   3.427   3.262 -1.5151  1.4573 -1.4355
 9353SOL    HW239696   2.147   3.472   3.125 -3.2862 -0.1493  2.0386
 9354SOL     OW39697   2.042   3.760   6.003 -0.7916 -0.1894 -0.0347
 9354SOL    HW139698   2.104   3.740   6.073 -0.2711 -0.2884 -0.5220
 9354SOL    HW239699   1.972   3.700   6.032  0.3344 -1.1380  0.7013
 9355SOL     OW39700   4.143   0.261   9.788  0.2417 -0.2508  0.4600
 9355SOL    HW139701   4.065   0.212   9.810  1.2236 -0.5350  3.3225
 9355SOL    HW239702   4.207   0.234   9.854  0.1827 -1.0767  0.1828
 9356SOL     OW39703   3.937   3.256   7.834  0.1962 -0.0775  0.3341
 9356SOL    HW139704   3.866   3.219   7.886 -0.0706  1.7999  1.2981
 9356SOL    HW239705   4.011   3.246   7.895 -0.7223  0.3854  1.5254
 9357SOL     OW39706   2.974   2.190  16.393 -0.1809  0.3659 -0.2135
 9357SOL    HW139707   2.970   2.285  16.398 -0.6488  0.2826  1.0969
 9357SOL    HW239708   2.899   2.163  16.339 -0.7966 -0.2348  0.9500
 9358SOL     OW39709   2.535   2.401   9.659  0.1269  0.1343 -0.5107
 9358SOL    HW139710   2.482   2.481   9.661 -0.7833 -0.5112  1.2825
 9358SOL    HW239711   2.626   2.428   9.650  0.8687 -2.5540 -0.9556
 9359SOL     OW39712   0.135   0.733   8.295 -0.0901  0.0003  0.5165
 9359SOL    HW139713   0.204   0.673   8.325  1.5643  1.0025 -1.2896
 9359SOL    HW239714   0.063   0.670   8.296  1.2345 -1.5188  1.7562
 9360SOL     OW39715   3.821   0.017   1.882 -0.2149  0.0158  0.2498
 9360SOL    HW139716   3.898   4.732   1.829  0.6028  2.7217  0.3337
 9360SOL    HW239717   3.861   0.010   1.969 -0.1286 -0.4032  0.1772
 9361SOL     OW39718   1.341   1.081   7.602 -0.6879  0.1050  0.2234
 9361SOL    HW139719   1.425   1.072   7.558 -0.0332 -1.3978  1.7833
 9361SOL    HW239720   1.321   1.175   7.605 -0.8298  0.1343 -1.9331
 9362SOL     OW39721   2.533   3.499   7.326 -0.1079  0.4901  0.0464
 9362SOL    HW139722   2.573   3.581   7.357  1.4174 -0.0180 -0.5780
 9362SOL    HW239723   2.450   3.501   7.373  0.3061  0.5625  0.7769
 9363SOL     OW39724   0.098   0.210   9.072 -0.1919 -0.8348 -0.0532
 9363SOL    HW139725   0.083   0.304   9.080  0.5324 -0.6569 -0.8043
 9363SOL    HW239726   0.108   0.178   9.161  0.2763  0.8483  0.5007
 9364SOL     OW39727   1.428   2.699   0.818 -0.3505  0.2781 -0.0519
 9364SOL    HW139728   1.485   2.663   0.750  1.5629  1.3526  0.9900
 9364SOL    HW239729   1.405   2.616   0.860 -0.0963 -0.1866 -0.8235
 9365SOL     OW39730   3.479   0.410   4.784  0.3687 -0.2746 -0.7606
 9365SOL    HW139731   3.433   0.360   4.852  0.1815 -0.1299 -0.7822
 9365SOL    HW239732   3.429   0.406   4.703 -2.5548 -1.8050  1.1141
 9366SOL     OW39733   2.713   3.330   7.802  0.3154 -0.6211  0.4836
 9366SOL    HW139734   2.684   3.300   7.716 -0.5063  0.8952  0.2276
 9366SOL    HW239735   2.741   3.246   7.839  2.1399 -0.9328 -1.5693
 9367SOL     OW39736   4.460   1.070   1.945  0.4570  0.0984 -0.7233
 9367SOL    HW139737   4.498   1.125   1.877  1.0676 -0.0870 -0.5354
 9367SOL    HW239738   4.532   1.037   1.999 -1.8326 -0.4366  1.9922
 9368SOL     OW39739   3.154   4.076   4.153  0.3784 -0.3389  0.0290
 9368SOL    HW139740   3.143   4.170   4.134 -2.3042 -0.4926  0.8132
 9368SOL    HW239741   3.069   4.049   4.116  1.6288  1.7279 -4.3331
 9369SOL     OW39742   2.945   0.607   1.603 -0.0139  0.4571  0.3989
 9369SOL    HW139743   2.892   0.649   1.671 -1.2679  1.8523 -1.4319
 9369SOL    HW239744   3.011   0.675   1.587  1.2274 -0.8449  0.0274
 9370SOL     OW39745   4.110   1.874  11.743  0.3105 -0.5280 -0.2875
 9370SOL    HW139746   4.079   1.932  11.674  1.0963  0.4347  0.1605
 9370SOL    HW239747   4.181   1.827  11.699  0.1599 -1.1426  0.1277
 9371SOL     OW39748   0.803   2.756   6.570  0.4947  0.1006  0.6388
 9371SOL    HW139749   0.855   2.697   6.515 -1.1569 -0.0913 -0.7318
 9371SOL    HW239750   0.859   2.833   6.567 -0.4259  0.7296 -0.4180
 9372SOL     OW39751   4.511   4.264  12.912  0.4930 -0.3296  0.6525
 9372SOL    HW139752   4.471   4.337  12.865 -0.2967 -1.4014 -0.3589
 9372SOL    HW239753   4.434   4.223  12.952 -0.9818  1.1667 -0.6597
 9373SOL     OW39754   2.463   2.462   3.938 -0.2753  0.2765 -0.1980
 9373SOL    HW139755   2.457   2.462   4.034 -0.2501  0.4636 -0.1965
 9373SOL    HW239756   2.535   2.525   3.936 -0.2798  0.2582 -0.9464
 9374SOL     OW39757   1.426   3.486   4.644  0.4125  0.5115  0.2282
 9374SOL    HW139758   1.409   3.432   4.567  0.7791 -0.1454  0.6032
 9374SOL    HW239759   1.460   3.416   4.700  0.5442 -0.5374 -1.1783
 9375SOL     OW39760   3.893   0.964   2.572  0.1700  0.0623  0.0894
 9375SOL    HW139761   3.929   0.914   2.499 -0.4221  2.0664 -1.5627
 9375SOL    HW239762   3.806   0.967   2.534  0.8096 -1.2005 -1.4772
 9376SOL     OW39763   1.812   2.432   3.464  0.3165  0.2670 -0.3614
 9376SOL    HW139764   1.738   2.438   3.404 -1.4780 -1.6733  1.6756
 9376SOL    HW239765   1.887   2.453   3.408  1.7815  0.9412  1.8611
 9377SOL     OW39766   0.266   1.368   8.197  0.2030  0.0611  0.4051
 9377SOL    HW139767   0.204   1.330   8.135  0.2795  0.8999 -0.1861
 9377SOL    HW239768   0.208   1.365   8.274  1.4620 -2.3862  1.2601
 9378SOL     OW39769   2.457   3.511   3.123 -0.3948 -0.2263 -0.4135
 9378SOL    HW139770   2.387   3.474   3.176  0.6763 -2.4169 -0.5141
 9378SOL    HW239771   2.440   3.457   3.045  3.2907 -1.2328 -0.5293
 9379SOL     OW39772   2.653   1.452   6.847 -0.0319 -0.2880  0.2951
 9379SOL    HW139773   2.658   1.548   6.844  0.7762 -0.3341  0.0138
 9379SOL    HW239774   2.703   1.425   6.770  0.6197 -2.4384  1.4742
 9380SOL     OW39775   0.299   1.325  15.748 -0.7899 -0.0326 -0.0387
 9380SOL    HW139776   0.218   1.353  15.704 -0.9367 -0.2950  0.0623
 9380SOL    HW239777   0.335   1.413  15.743  1.5982 -1.0351 -0.1065
 9381SOL     OW39778   4.331   0.381   3.795 -0.0311 -0.1343 -0.0690
 9381SOL    HW139779   4.375   0.342   3.720 -1.7685 -0.5307 -0.8689
 9381SOL    HW239780   4.326   0.471   3.762 -1.7018 -0.0039  0.5676
 9382SOL     OW39781   2.208   3.681   0.240 -0.3795  0.4245  0.5231
 9382SOL    HW139782   2.143   3.718   0.182 -1.9761 -2.2103  0.6410
 9382SOL    HW239783   2.286   3.693   0.185 -0.1613  0.0453  0.7486
 9383SOL     OW39784   3.925   0.303   3.265 -0.3076 -0.4071  0.4508
 9383SOL    HW139785   3.924   0.249   3.186  1.8194 -0.4339  0.4291
 9383SOL    HW239786   3.839   0.343   3.253  0.1333  0.5854  0.6132
 9384SOL     OW39787   0.010   0.472   4.892 -0.1898  0.0121  0.8174
 9384SOL    HW139788   4.693   0.439   4.965 -2.3421  0.3780 -0.6147
 9384SOL    HW239789   0.027   0.560   4.926  2.3205 -0.4978  0.8612
 9385SOL     OW39790   4.613   3.113   8.319 -0.3171  0.3110  0.3313
 9385SOL    HW139791   4.573   3.179   8.376 -1.5289 -0.6557  0.6210
 9385SOL    HW239792   4.575   3.134   8.234 -1.3929 -3.1036 -0.0213
 9386SOL     OW39793   2.337   0.738   4.405 -0.1946  0.5186  0.5065
 9386SOL    HW139794   2.429   0.717   4.387 -0.0786  1.0621  0.4429
 9386SOL    HW239795   2.305   0.655   4.438 -0.0655 -0.0851 -0.8998
 9387SOL     OW39796   0.827   2.883  16.276  0.3165  0.4360 -0.3498
 9387SOL    HW139797   0.922   2.890  16.263  0.3139 -0.3151 -0.7266
 9387SOL    HW239798   0.795   2.910  16.190  1.9167 -0.1344 -1.1248
 9388SOL     OW39799   2.899   4.192  11.596 -0.7374 -0.8158  0.1134
 9388SOL    HW139800   2.842   4.196  11.519 -0.1745  1.0655 -0.2023
 9388SOL    HW239801   2.968   4.248  11.561 -1.7155 -0.0729 -0.6617
 9389SOL     OW39802   0.809   0.406   6.473 -0.0547  0.6093 -0.2177
 9389SOL    HW139803   0.777   0.387   6.561  2.6916 -1.2676  0.3870
 9389SOL    HW239804   0.864   0.332   6.447 -0.1882  0.3732  0.1613
 9390SOL     OW39805   2.545   4.617   2.277 -0.0668 -0.0321  0.0111
 9390SOL    HW139806   2.605   4.671   2.327 -0.3113 -0.3226  0.6109
 9390SOL    HW239807   2.513   4.686   2.219 -1.8420 -0.7855  0.0809
 9391SOL     OW39808   4.244   3.522   6.880  0.3375  0.9236 -0.3334
 9391SOL    HW139809   4.167   3.466   6.873  1.9711 -1.0845 -2.3865
 9391SOL    HW239810   4.253   3.546   6.787  0.0088 -1.2542 -0.9382
 9392SOL     OW39811   1.466   4.178   9.131  0.1905 -0.0194  0.4578
 9392SOL    HW139812   1.428   4.171   9.044  1.9217 -2.1819 -0.1192
 9392SOL    HW239813   1.446   4.093   9.171 -3.4796  1.0628  0.8926
 9393SOL     OW39814   0.695   3.261   8.754  0.3238  0.4247 -0.1313
 9393SOL    HW139815   0.726   3.243   8.843 -1.5406 -1.2614  0.1790
 9393SOL    HW239816   0.655   3.181   8.721  1.7594  0.1257 -1.1271
 9394SOL     OW39817   4.586   3.438   0.535 -0.0073 -0.3345  0.5466
 9394SOL    HW139818   4.587   3.490   0.616 -1.0287 -0.9327  0.9333
 9394SOL    HW239819   4.493   3.417   0.532  0.3312 -1.3151 -2.5080
 9395SOL     OW39820   3.687   0.084  16.094  0.1014  0.0552  0.0666
 9395SOL    HW139821   3.604   0.133  16.091 -0.9318 -1.7247 -0.3168
 9395SOL    HW239822   3.736   0.116  16.018  0.1847  2.5038  1.1318
 9396SOL     OW39823   0.949   3.498   7.314 -0.3802 -0.0440  0.0615
 9396SOL    HW139824   1.014   3.461   7.255 -0.4617 -0.4484  0.2206
 9396SOL    HW239825   0.990   3.531   7.394 -1.5332 -0.4865  0.8362
 9397SOL     OW39826   3.238   4.294   8.424  0.7239 -0.8744  0.5864
 9397SOL    HW139827   3.150   4.321   8.397  1.1570 -0.5718 -0.5279
 9397SOL    HW239828   3.258   4.355   8.495  4.3520 -2.3949  0.8585
 9398SOL     OW39829   1.008   4.585  17.526  0.3212  0.5674  0.0419
 9398SOL    HW139830   0.946   4.515  17.504 -1.3511  1.8817  0.5087
 9398SOL    HW239831   0.974   4.603  17.614 -1.0049 -1.2170 -0.1027
 9399SOL     OW39832   2.377   3.716  14.972 -0.7431  0.1649  0.3005
 9399SOL    HW139833   2.299   3.757  15.009 -0.6540  0.0789  0.5863
 9399SOL    HW239834   2.344   3.658  14.903 -1.1427 -0.5655  1.1050
 9400SOL     OW39835   4.562   0.592   7.770 -0.1776  0.7121 -0.3057
 9400SOL    HW139836   4.604   0.550   7.846 -0.8295  1.1049  0.2718
 9400SOL    HW239837   4.471   0.567   7.786 -1.5274  4.1634 -2.5084
 9401SOL     OW39838   0.071   0.911   4.738 -0.3623 -0.0799 -0.0762
 9401SOL    HW139839   0.097   0.890   4.648  1.6628  2.0264  0.0209
 9401SOL    HW239840   4.714   0.893   4.740 -0.2046 -0.8013  1.0794
 9402SOL     OW39841   2.814   3.297  10.424  0.3283 -0.1520  0.3807
 9402SOL    HW139842   2.724   3.280  10.452  0.6306 -0.7263  1.0041
 9402SOL    HW239843   2.868   3.221  10.444  0.4048 -0.1742  0.0821
 9403SOL     OW39844   4.646   1.682   2.609  0.2137 -0.3481  0.0157
 9403SOL    HW139845   4.638   1.600   2.656  1.1923 -0.6967 -0.4341
 9403SOL    HW239846   4.710   1.668   2.539 -2.2549 -0.4155 -2.2396
 9404SOL     OW39847   4.442   0.529   6.375  0.2674  0.4131 -0.3039
 9404SOL    HW139848   4.528   0.499   6.346  0.9082  2.6874 -0.7485
 9404SOL    HW239849   4.399   0.445   6.392  0.7816  0.4853  1.4273
 9405SOL     OW39850   1.927   3.017   8.719  0.5804  0.4193  0.3035
 9405SOL    HW139851   1.939   3.077   8.646  1.6184  0.7333  0.7364
 9405SOL    HW239852   2.014   2.978   8.718  0.8159  1.0677 -3.9678
 9406SOL     OW39853   4.441   0.151   5.949 -0.1649  0.3965  0.0824
 9406SOL    HW139854   4.535   0.161   5.934 -0.0418 -0.8790 -0.0726
 9406SOL    HW239855   4.442   0.057   5.966 -0.1868  0.5934  1.1379
 9407SOL     OW39856   4.035   3.785   7.361 -0.6009  0.0268 -0.2693
 9407SOL    HW139857   4.069   3.840   7.291 -1.8644  0.1158 -0.8182
 9407SOL    HW239858   4.116   3.750   7.397 -0.1643  1.4279  0.1324
 9408SOL     OW39859   2.234   0.814   6.849  0.2942 -0.1968  0.4378
 9408SOL    HW139860   2.177   0.754   6.801  0.0454  0.0892  0.3731
 9408SOL    HW239861   2.166   0.867   6.889  0.1740 -0.1256  0.1405
 9409SOL     OW39862   0.215   3.574   5.591 -0.4150  0.2719 -0.0426
 9409SOL    HW139863   0.172   3.588   5.675 -2.0177 -2.2519 -0.4150
 9409SOL    HW239864   0.145   3.597   5.529  0.3089  0.4913 -0.7855
 9410SOL     OW39865   1.580   1.503   3.267 -0.4125  0.6017 -0.2406
 9410SOL    HW139866   1.618   1.589   3.285  0.1624  0.3257 -0.1504
 9410SOL    HW239867   1.656   1.458   3.230 -1.0352 -0.0501 -0.7479
 9411SOL     OW39868   1.197   0.257   4.763  0.5333 -0.3969  0.0859
 9411SOL    HW139869   1.219   0.336   4.813  1.0092  0.0404 -0.8019
 9411SOL    HW239870   1.240   0.270   4.678 -1.3900 -1.4131 -1.0490
 9412SOL     OW39871   4.113   3.235   3.089 -0.6682 -0.2855  0.1476
 9412SOL    HW139872   4.045   3.275   3.035 -0.6025 -0.3712 -0.0003
 9412SOL    HW239873   4.101   3.144   3.062 -1.1155 -0.9342  2.5131
 9413SOL     OW39874   0.870   1.257   4.730 -0.7191 -0.4160 -0.3575
 9413SOL    HW139875   0.826   1.176   4.758 -1.2242  1.2078  3.4832
 9413SOL    HW239876   0.828   1.327   4.779 -0.7279 -1.1868  0.7370
 9414SOL     OW39877   0.507   1.602  11.252 -0.5284  0.2490  0.3059
 9414SOL    HW139878   0.518   1.665  11.181  0.4436 -2.3943 -1.8686
 9414SOL    HW239879   0.597   1.571  11.254  0.0450  1.9064  0.9649
 9415SOL     OW39880   3.972   2.956   5.851  0.0851 -0.2236  0.2864
 9415SOL    HW139881   3.970   3.052   5.848 -2.5619 -0.2801  0.7310
 9415SOL    HW239882   4.020   2.934   5.771 -1.2833 -1.0083 -0.3102
 9416SOL     OW39883   3.735   3.342  17.313 -0.1911  0.1543 -0.1367
 9416SOL    HW139884   3.830   3.357  17.322 -0.3090  1.1616 -0.5657
 9416SOL    HW239885   3.708   3.434  17.316  1.0086  0.4307  2.5813
 9417SOL     OW39886   4.673   2.922   4.348  0.0685  0.4207  0.0049
 9417SOL    HW139887   4.606   2.859   4.321 -0.6250  0.5304  1.4513
 9417SOL    HW239888   4.716   2.916   4.263  0.2059  2.0697 -0.0307
 9418SOL     OW39889   2.620   3.546  11.779  0.2912 -0.6725 -0.4562
 9418SOL    HW139890   2.712   3.543  11.804 -0.5072  4.0150  2.9972
 9418SOL    HW239891   2.619   3.595  11.697  2.6891  3.9571  2.2769
 9419SOL     OW39892   4.605   1.300  16.369  0.4562 -0.1033 -0.2161
 9419SOL    HW139893   4.611   1.247  16.290 -0.5065  0.6957 -0.8122
 9419SOL    HW239894   4.510   1.307  16.377  0.5127 -1.1172  1.5375
 9420SOL     OW39895   2.654   2.126   4.131  0.4376 -0.3783 -0.1164
 9420SOL    HW139896   2.744   2.154   4.148 -0.3328  1.1651  1.4584
 9420SOL    HW239897   2.647   2.061   4.200  0.8915  1.3316  1.5293
 9421SOL     OW39898   1.396   2.711  10.916 -0.4523 -0.1999 -0.9275
 9421SOL    HW139899   1.472   2.766  10.897 -0.8806  0.5675 -0.3863
 9421SOL    HW239900   1.425   2.682  11.003 -1.0227  0.8931 -0.3713
 9422SOL     OW39901   0.667   0.368   2.811  0.2608 -0.7249  0.2274
 9422SOL    HW139902   0.761   0.375   2.827  0.1007  1.0626  0.3324
 9422SOL    HW239903   0.667   0.315   2.731  4.7772 -0.3679 -0.0229
 9423SOL     OW39904   4.337   3.648   3.677  0.2784  0.0248 -0.0138
 9423SOL    HW139905   4.269   3.601   3.726  0.9623  0.9304  1.8238
 9423SOL    HW239906   4.314   3.628   3.587  1.8578  1.9294 -0.8252
 9424SOL     OW39907   3.989   1.797   2.893 -0.5395  0.6409  0.3866
 9424SOL    HW139908   3.941   1.785   2.974 -2.2100 -3.3032 -1.2259
 9424SOL    HW239909   4.056   1.730   2.907  0.3100  1.8253  2.1079
 9425SOL     OW39910   3.305   0.296   3.801  0.1015  0.5027  0.5455
 9425SOL    HW139911   3.397   0.301   3.828  0.2685 -3.6218  0.7325
 9425SOL    HW239912   3.288   0.390   3.804 -0.0416  0.4739  0.6342
 9426SOL     OW39913   1.660   4.709   6.915 -0.0311  0.0481 -0.7609
 9426SOL    HW139914   1.673   4.639   6.851 -0.1377  0.7290 -1.5229
 9426SOL    HW239915   1.658   4.665   7.000 -0.0328  2.2242  0.3724
 9427SOL     OW39916   1.047   1.834   6.562  0.1419 -0.1466 -0.1986
 9427SOL    HW139917   1.126   1.861   6.515  0.1690 -0.1602 -0.1608
 9427SOL    HW239918   1.012   1.923   6.565  0.6202  0.0365 -0.0928
 9428SOL     OW39919   0.866   0.012   9.050 -0.0789  0.2924  0.1176
 9428SOL    HW139920   0.893   0.081   9.110  1.1264 -0.2055  0.1504
 9428SOL    HW239921   0.904   4.671   9.089 -0.2091 -0.2402 -0.8151
 9429SOL     OW39922   3.010   2.340   3.411 -0.2808  0.5599  0.2076
 9429SOL    HW139923   2.942   2.281   3.441  1.4001 -2.5087 -1.9999
 9429SOL    HW239924   3.051   2.361   3.495 -0.1374 -2.9129  1.0006
 9430SOL     OW39925   1.028   4.249   6.032  0.3348 -0.1023 -0.2893
 9430SOL    HW139926   1.043   4.232   6.125  0.2458  0.3875 -0.1849
 9430SOL    HW239927   1.110   4.293   6.008 -0.3328  0.9130 -0.7044
 9431SOL     OW39928   0.584   2.809   1.719 -0.1651 -0.0904  0.4451
 9431SOL    HW139929   0.531   2.849   1.788 -1.7225  0.4578 -1.0418
 9431SOL    HW239930   0.594   2.718   1.745  0.9411  0.4537  1.9278
 9432SOL     OW39931   2.969   2.066   1.859  0.1784  0.9244  0.0224
 9432SOL    HW139932   3.006   2.047   1.772  0.2709  3.8894 -0.5925
 9432SOL    HW239933   2.879   2.087   1.835 -0.7225 -3.7647 -0.7317
 9433SOL     OW39934   2.257   1.878   4.922 -0.4513 -0.0517  0.3276
 9433SOL    HW139935   2.202   1.806   4.893 -0.6833 -0.9962  3.0764
 9433SOL    HW239936   2.343   1.837   4.936  0.1223  0.6628 -1.0608
 9434SOL     OW39937   0.381   2.045  12.901  0.3312 -0.8871  0.5006
 9434SOL    HW139938   0.323   2.025  12.828  0.6739 -0.7643  0.1935
 9434SOL    HW239939   0.378   2.140  12.914 -0.5384 -0.8233 -0.1463
 9435SOL     OW39940   4.377   3.987   1.873 -0.7035 -0.4135 -0.5221
 9435SOL    HW139941   4.336   3.901   1.870  0.0506 -0.7359 -1.4313
 9435SOL    HW239942   4.305   4.040   1.840 -1.3016  0.8639  2.7917
 9436SOL     OW39943   0.308   3.084   6.027  0.1655  0.2820 -0.0305
 9436SOL    HW139944   0.301   3.173   5.992  0.3615  0.8357  1.3710
 9436SOL    HW239945   0.355   3.050   5.950 -0.0410  0.9219 -0.4406
 9437SOL     OW39946   3.440   2.228   2.040  0.0559  0.0074  0.0762
 9437SOL    HW139947   3.515   2.285   2.058 -0.1321  0.1846  0.2976
 9437SOL    HW239948   3.425   2.178   2.120  3.1667  0.2046  0.8017
 9438SOL     OW39949   0.771   3.198  11.722  0.3843 -0.1966  0.4385
 9438SOL    HW139950   0.852   3.197  11.773  1.5044 -1.3448 -1.3637
 9438SOL    HW239951   0.724   3.128  11.767  0.7697 -1.1699 -0.6866
 9439SOL     OW39952   1.362   3.598  13.242  0.0416  0.0682  0.0767
 9439SOL    HW139953   1.409   3.550  13.174  0.8145 -2.4541  2.3821
 9439SOL    HW239954   1.312   3.661  13.190  1.3047  0.5044 -0.6329
 9440SOL     OW39955   1.879   2.217   9.053  0.3680  0.2707  0.0823
 9440SOL    HW139956   1.907   2.306   9.076  0.4157 -0.0697  1.3560
 9440SOL    HW239957   1.812   2.244   8.990 -0.1792 -0.5819  0.2990
 9441SOL     OW39958   2.643   2.807   3.298  0.2318  0.6228  0.1310
 9441SOL    HW139959   2.568   2.796   3.241  2.5114 -0.6747 -2.6441
 9441SOL    HW239960   2.622   2.757   3.376  0.2599  1.2969  0.5691
 9442SOL     OW39961   4.502   4.123   7.878 -0.0086  0.5089  0.0050
 9442SOL    HW139962   4.568   4.117   7.948 -0.6970 -1.1770  0.4973
 9442SOL    HW239963   4.482   4.217   7.882  1.1222  0.8005 -0.8932
 9443SOL     OW39964   2.870   3.346  14.317  0.0389 -0.2618  0.4809
 9443SOL    HW139965   2.944   3.322  14.261 -1.6019 -1.2054 -1.2850
 9443SOL    HW239966   2.798   3.337  14.254  0.2850 -0.6939  0.2551
 9444SOL     OW39967   1.356   2.903   8.305 -0.6558 -0.4964 -0.3345
 9444SOL    HW139968   1.438   2.952   8.308 -1.1992  0.6326 -3.5714
 9444SOL    HW239969   1.397   2.820   8.329  1.1874  0.0803 -1.4991
 9445SOL     OW39970   2.380   3.552   4.492 -0.3054 -0.2690 -0.0453
 9445SOL    HW139971   2.445   3.614   4.525 -1.6747  0.9833  0.3003
 9445SOL    HW239972   2.408   3.546   4.401  0.6827  2.7804  0.0372
 9446SOL     OW39973   1.335   4.050   7.060  0.7112 -0.3548 -0.1213
 9446SOL    HW139974   1.265   4.043   7.125  0.3741  1.5517 -0.2605
 9446SOL    HW239975   1.312   4.136   7.024  0.0937 -0.6177 -0.3634
 9447SOL     OW39976   0.963   3.048   3.669  0.4421 -0.5550 -1.2451
 9447SOL    HW139977   0.970   3.130   3.619 -1.0216 -0.7590 -1.7834
 9447SOL    HW239978   0.877   3.021   3.636  0.0263  0.8047 -1.2747
 9448SOL     OW39979   2.160   4.550   8.328 -0.0525  0.5853  0.2273
 9448SOL    HW139980   2.068   4.561   8.353  0.0023 -1.6963  1.4522
 9448SOL    HW239981   2.204   4.553   8.413  0.7167 -0.9401 -0.1085
 9449SOL     OW39982   0.235   3.614  10.379 -0.4840 -0.0409 -0.1905
 9449SOL    HW139983   0.311   3.577  10.424 -0.2805  0.1795 -0.3562
 9449SOL    HW239984   0.280   3.636  10.298  2.5793 -0.9391  1.2747
 9450SOL     OW39985   1.574   0.490   7.873 -0.3943  0.8129 -0.1156
 9450SOL    HW139986   1.554   0.396   7.877  0.6486  0.6670  1.5997
 9450SOL    HW239987   1.645   0.499   7.937 -0.2879  2.4849 -0.4588
 9451SOL     OW39988   3.976   0.644   2.798 -0.6569 -0.3203 -0.2441
 9451SOL    HW139989   3.962   0.577   2.731  0.9066 -0.8265 -0.0795
 9451SOL    HW239990   4.069   0.625   2.814 -0.0844  1.4042 -1.4918
 9452SOL     OW39991   3.547   0.792   5.252 -0.1202 -0.4105 -0.0878
 9452SOL    HW139992   3.482   0.741   5.204 -1.6300  0.1355  1.3963
 9452SOL    HW239993   3.511   0.796   5.340  2.7380  0.5547  1.0303
 9453SOL     OW39994   0.168   3.018  10.646  0.0426 -0.4451  0.5143
 9453SOL    HW139995   0.220   2.937  10.643  0.2568 -0.2913  0.1163
 9453SOL    HW239996   0.118   3.013  10.564  1.1528  1.2688 -0.2719
 9454SOL     OW39997   0.695   1.380   3.325  0.0932  0.0705  0.6848
 9454SOL    HW139998   0.721   1.351   3.412  0.1823 -1.2863  0.2142
 9454SOL    HW239999   0.619   1.324   3.313 -0.2097  0.9787 -1.6262
 9455SOL     OW40000   0.957   2.675   7.598 -0.0271  0.2292 -0.4428
 9455SOL    HW140001   0.953   2.749   7.658 -1.1083 -1.2620  1.3078
 9455SOL    HW240002   0.895   2.617   7.642  1.4305 -3.3929 -3.1411
 9456SOL     OW40003   4.338   3.968   7.006  0.6453  0.1481 -0.8950
 9456SOL    HW140004   4.374   3.897   7.059  1.1087  0.4101 -0.8579
 9456SOL    HW240005   4.298   3.920   6.933 -0.3031 -0.7795  0.2285
 9457SOL     OW40006   4.180   2.857  13.797  0.2272 -0.0549  0.0810
 9457SOL    HW140007   4.197   2.763  13.802  0.7227  0.0093 -0.4101
 9457SOL    HW240008   4.269   2.887  13.779 -0.1149 -0.1166 -1.6794
 9458SOL     OW40009   0.525   4.243  12.110  0.1624 -0.7511 -0.4773
 9458SOL    HW140010   0.506   4.191  12.189 -2.7439 -1.0375 -1.3704
 9458SOL    HW240011   0.596   4.288  12.154 -1.4560  0.6450  0.7107
 9459SOL     OW40012   4.632   0.868   3.176  0.0361  0.0566  0.7160
 9459SOL    HW140013   4.541   0.839   3.180  0.4564 -1.0729  1.8880
 9459SOL    HW240014   4.688   0.821   3.238  2.5680  1.7104 -0.2943
 9460SOL     OW40015   3.850   2.179   5.283  0.7202 -0.2022  0.6906
 9460SOL    HW140016   3.815   2.246   5.223  0.9106 -0.9379 -0.2367
 9460SOL    HW240017   3.790   2.107   5.267  1.3511 -0.3027 -1.1814
 9461SOL     OW40018   3.525   4.172   5.631  0.3258  0.1640  0.5270
 9461SOL    HW140019   3.501   4.263   5.614 -1.8324 -0.2808  1.2863
 9461SOL    HW240020   3.545   4.138   5.544 -0.5554 -1.2252  0.8730
 9462SOL     OW40021   0.950   4.008   2.808  0.3153  0.2119 -0.5112
 9462SOL    HW140022   0.923   4.050   2.727  0.8589  1.2139 -0.1651
 9462SOL    HW240023   1.041   3.981   2.791  0.1297 -0.9588  0.3918
 9463SOL     OW40024   1.958   2.474   9.116  0.2936  0.4540  0.1808
 9463SOL    HW140025   1.981   2.500   9.206  2.2466 -0.2582 -0.1186
 9463SOL    HW240026   2.009   2.537   9.066 -1.3776  0.4924 -1.4623
 9464SOL     OW40027   1.612   2.447   7.144  0.0258  0.4205 -0.6109
 9464SOL    HW140028   1.707   2.432   7.148 -0.0199 -0.2044 -1.7528
 9464SOL    HW240029   1.585   2.356   7.156  2.2421  0.2483  3.2302
 9465SOL     OW40030   2.263   4.417   8.903 -0.9537  0.1043 -0.5479
 9465SOL    HW140031   2.325   4.382   8.839  1.7902  2.2371  0.9479
 9465SOL    HW240032   2.187   4.363   8.879 -0.8284 -1.7461  3.2129
 9466SOL     OW40033   2.335   4.152   7.293 -0.1149 -0.0854  0.4953
 9466SOL    HW140034   2.292   4.066   7.291  2.2926 -1.3474  2.9593
 9466SOL    HW240035   2.326   4.185   7.204 -1.6929 -0.2766  0.5684
 9467SOL     OW40036   4.553   1.876  14.635 -0.2477  0.6184  0.2187
 9467SOL    HW140037   4.541   1.790  14.676  2.5171 -1.1667 -2.7699
 9467SOL    HW240038   4.488   1.863  14.567 -0.7931  0.5990  0.7404
 9468SOL     OW40039   1.180   1.365  10.296 -0.3014  0.2087  0.4895
 9468SOL    HW140040   1.090   1.333  10.305  0.4625 -2.2725 -0.7002
 9468SOL    HW240041   1.163   1.446  10.248  0.1141  0.0551  0.0832
 9469SOL     OW40042   0.003   3.668  13.003 -0.6812  0.5818 -0.2455
 9469SOL    HW140043   4.736   3.747  13.056 -0.6085 -0.6821  1.6709
 9469SOL    HW240044   4.666   3.615  13.034  1.0288 -1.5539  0.2049
 9470SOL     OW40045   0.852   4.093  10.811  0.1180  0.3604  0.2774
 9470SOL    HW140046   0.848   4.180  10.851 -0.5034  0.2931  0.3622
 9470SOL    HW240047   0.897   4.046  10.881 -0.4389 -0.0589  0.3459
 9471SOL     OW40048   2.105   0.721   3.516 -0.4429 -0.1735 -0.9040
 9471SOL    HW140049   2.035   0.695   3.575  0.3951  0.3317  0.3245
 9471SOL    HW240050   2.096   0.816   3.503  1.5552  0.4447  2.1593
 9472SOL     OW40051   2.395   3.467  11.891 -0.1566  0.2374 -0.7783
 9472SOL    HW140052   2.471   3.515  11.859  0.8429 -1.6447 -1.2522
 9472SOL    HW240053   2.380   3.487  11.983 -2.5427 -0.2368 -1.0495
 9473SOL     OW40054   0.139   1.148   9.397 -0.2730 -0.1609  0.1559
 9473SOL    HW140055   0.076   1.172   9.465 -0.3918  0.0516 -0.0317
 9473SOL    HW240056   0.100   1.152   9.310  1.9757  1.1877 -0.7817
 9474SOL     OW40057   2.804   4.292   9.152 -0.3663 -0.5915 -0.2150
 9474SOL    HW140058   2.783   4.302   9.245  0.6104  0.2790 -0.0835
 9474SOL    HW240059   2.750   4.217   9.128 -0.4890 -0.4221 -0.4620
 9475SOL     OW40060   4.322   0.720   7.945 -0.1570 -0.5866  0.4649
 9475SOL    HW140061   4.390   0.773   7.903  1.4285 -2.2916  0.8172
 9475SOL    HW240062   4.374   0.670   8.008  1.0201 -0.2505 -0.2184
 9476SOL     OW40063   1.896   4.158   6.738  0.0631 -0.1463  0.1291
 9476SOL    HW140064   1.904   4.251   6.760  2.8078 -0.1380 -0.8984
 9476SOL    HW240065   1.805   4.141   6.762  0.2172 -1.0719  0.0925
 9477SOL     OW40066   1.425   1.640  14.529 -0.7967  0.1114  0.5619
 9477SOL    HW140067   1.391   1.725  14.501 -1.1806 -1.2465 -3.0167
 9477SOL    HW240068   1.442   1.658  14.622 -2.0240 -0.1967  0.8426
 9478SOL     OW40069   1.758   2.488   8.714  0.0502  0.1488  0.3041
 9478SOL    HW140070   1.838   2.527   8.750  0.5495 -0.2914 -0.3355
 9478SOL    HW240071   1.776   2.515   8.624 -1.0348 -2.5079 -0.7179
 9479SOL     OW40072   2.720   1.267   8.664  0.7090 -0.2561 -0.1182
 9479SOL    HW140073   2.775   1.328   8.714 -0.5304  0.4037  0.4286
 9479SOL    HW240074   2.736   1.187   8.713 -1.0229 -1.3724 -1.3754
 9480SOL     OW40075   1.652   2.672   4.716 -0.3153 -0.7466  0.0047
 9480SOL    HW140076   1.647   2.606   4.785 -0.1993  1.3807  2.0791
 9480SOL    HW240077   1.657   2.612   4.642  0.5278  0.6610 -1.0992
 9481SOL     OW40078   0.334   3.424   8.957  0.2526  0.1618  1.0335
 9481SOL    HW140079   0.355   3.405   9.049 -0.2503 -1.0479  0.9035
 9481SOL    HW240080   0.403   3.488   8.938 -0.6965  1.1918  1.0586
 9482SOL     OW40081   2.035   3.618   4.114 -0.2770  0.1823 -0.1437
 9482SOL    HW140082   1.962   3.676   4.094  0.6277  1.3544 -0.0529
 9482SOL    HW240083   2.043   3.570   4.031  0.1422  1.5967 -0.9225
 9483SOL     OW40084   0.186   2.396   2.036  0.6121  0.1464  0.0029
 9483SOL    HW140085   0.132   2.445   1.975 -0.7082  0.0772  1.1096
 9483SOL    HW240086   0.255   2.462   2.040  0.9681 -0.0791 -2.4710
 9484SOL     OW40087   1.970   0.858   0.119  0.4022  0.0800  0.1745
 9484SOL    HW140088   1.922   0.857   0.202 -0.8529 -1.5148 -0.5988
 9484SOL    HW240089   2.010   0.772   0.133 -1.7938 -1.1773 -1.3917
 9485SOL     OW40090   0.821   0.872   2.373 -0.3692 -0.0207  0.1007
 9485SOL    HW140091   0.876   0.801   2.338 -0.4688  0.1306 -0.3544
 9485SOL    HW240092   0.889   0.938   2.380 -3.7284  3.3673  0.5215
 9486SOL     OW40093   3.321   3.964   5.695 -0.1546 -0.1364  0.0473
 9486SOL    HW140094   3.292   3.968   5.786  1.2619 -1.4674  0.5631
 9486SOL    HW240095   3.396   4.024   5.693 -1.2854  1.2946  1.5117
 9487SOL     OW40096   4.269   0.502   4.850 -0.0268 -0.0243  0.3843
 9487SOL    HW140097   4.361   0.526   4.857 -0.6266  2.1758  1.0039
 9487SOL    HW240098   4.274   0.417   4.807 -0.5826 -0.5281  1.3016
 9488SOL     OW40099   0.478   0.167   4.820  0.3669  0.4683 -0.0332
 9488SOL    HW140100   0.509   0.151   4.909  1.3565 -1.1693 -0.6889
 9488SOL    HW240101   0.525   0.250   4.810  2.3275 -0.6404 -0.0359
 9489SOL     OW40102   3.437   4.000  17.262 -0.7520  0.8312  0.1384
 9489SOL    HW140103   3.498   3.942  17.217 -3.3495  0.4098 -2.8053
 9489SOL    HW240104   3.469   4.002  17.352 -0.1313 -1.1584 -0.0317
 9490SOL     OW40105   2.283   0.412   9.651 -0.2130 -0.3430 -0.1131
 9490SOL    HW140106   2.269   0.506   9.641 -1.5123 -0.7525 -2.2343
 9490SOL    HW240107   2.287   0.385   9.559 -1.9045  0.3753 -0.4053
 9491SOL     OW40108   1.239   2.290  16.528  0.1672 -0.3912  0.1903
 9491SOL    HW140109   1.180   2.261  16.459 -1.3892  1.8732  0.5893
 9491SOL    HW240110   1.259   2.381  16.506  1.7759 -1.3698 -2.2896
 9492SOL     OW40111   0.907   3.076   6.234  0.7385  0.4493  0.4490
 9492SOL    HW140112   0.897   3.077   6.329 -2.5083  3.3696  0.0819
 9492SOL    HW240113   0.955   3.157   6.216 -2.6726  2.3353 -0.1335
 9493SOL     OW40114   1.336   1.519   3.949 -0.4028 -0.3140 -0.0960
 9493SOL    HW140115   1.414   1.489   3.997 -1.1991 -1.0339  0.7328
 9493SOL    HW240116   1.326   1.608   3.983  0.3973  0.6533 -2.4110
 9494SOL     OW40117   2.671   2.888   2.312 -0.2430 -0.3186 -0.3270
 9494SOL    HW140118   2.604   2.891   2.381  1.8452  2.5853  1.6027
 9494SOL    HW240119   2.742   2.856   2.368 -0.1333  0.9024  0.2473
 9495SOL     OW40120   0.805   0.311  16.054  0.2489 -0.2488  0.6868
 9495SOL    HW140121   0.863   0.301  15.979  0.6358 -1.4932  1.1483
 9495SOL    HW240122   0.812   0.403  16.079  0.3530  0.2232 -1.1130
 9496SOL     OW40123   2.854   1.721   6.609 -0.4818 -0.0895 -0.0731
 9496SOL    HW140124   2.809   1.716   6.694  1.5065  0.4497  1.0139
 9496SOL    HW240125   2.857   1.627   6.591 -4.3328  0.1194 -1.7853
 9497SOL     OW40126   0.746   0.409   3.916  0.4741  0.2160 -0.0201
 9497SOL    HW140127   0.706   0.443   3.995 -0.8002  1.7801 -1.3257
 9497SOL    HW240128   0.791   0.328   3.941 -0.0928 -0.0377  0.1719
 9498SOL     OW40129   0.334   2.043   0.954 -0.1260 -0.0180  0.4506
 9498SOL    HW140130   0.278   2.111   0.992 -1.8833 -0.9077 -0.5575
 9498SOL    HW240131   0.423   2.078   0.960  0.0175 -0.2076 -0.6212
 9499SOL     OW40132   0.108   2.167   5.727 -0.3374  0.0375  0.2464
 9499SOL    HW140133   0.055   2.161   5.648 -0.9333  0.9405  0.5779
 9499SOL    HW240134   0.036   2.173   5.789 -1.1405  0.3846 -0.7341
 9500SOL     OW40135   1.360   3.401   3.992 -0.1789  0.9051 -0.4041
 9500SOL    HW140136   1.426   3.411   3.924  0.4866 -1.9983 -0.1803
 9500SOL    HW240137   1.388   3.316   4.024 -0.7278  0.2196 -1.7468
 9501SOL     OW40138   1.629   0.833   1.273 -0.4104  0.0154  0.5419
 9501SOL    HW140139   1.719   0.813   1.299 -0.4480  0.8354  1.3054
 9501SOL    HW240140   1.604   0.895   1.342 -0.6803 -0.1291  0.5757
 9502SOL     OW40141   1.726   2.940   9.481  0.0733  0.2083  0.1296
 9502SOL    HW140142   1.707   3.030   9.457 -1.3907  0.0205  0.5552
 9502SOL    HW240143   1.770   2.918   9.400  0.8205 -0.9979  0.8594
 9503SOL     OW40144   2.846   3.981   4.939  0.1005  0.2851 -0.1230
 9503SOL    HW140145   2.791   3.928   4.882  0.7435 -1.7220  1.0977
 9503SOL    HW240146   2.781   4.020   4.998 -2.9176 -2.2333 -1.7701
 9504SOL     OW40147   3.842   1.795   3.856 -0.2155 -0.0303  0.1176
 9504SOL    HW140148   3.887   1.713   3.876  0.7120  0.3668 -0.2820
 9504SOL    HW240149   3.923   1.841   3.832 -2.6451  3.0630 -2.1192
 9505SOL     OW40150   4.033   2.370  13.886 -0.3099  0.3544  0.0233
 9505SOL    HW140151   3.951   2.399  13.846  0.8251 -0.2526 -2.7002
 9505SOL    HW240152   4.095   2.407  13.823  0.0162 -2.1877 -1.1819
 9506SOL     OW40153   2.447   4.392  12.744 -0.0512 -0.2302 -0.4375
 9506SOL    HW140154   2.352   4.385  12.749 -0.0214 -1.2143 -1.2935
 9506SOL    HW240155   2.467   4.412  12.653  2.0332  1.9682  0.4875
 9507SOL     OW40156   3.953   2.341   7.263 -0.0296  0.7882  0.5542
 9507SOL    HW140157   4.009   2.372   7.334 -1.6975  2.3159  1.1666
 9507SOL    HW240158   3.990   2.253   7.249 -1.9968  0.0972 -0.1908
 9508SOL     OW40159   0.280   3.335   4.248  0.3472 -0.4628  0.8285
 9508SOL    HW140160   0.191   3.344   4.216  0.5631  0.6223  0.5539
 9508SOL    HW240161   0.323   3.401   4.193 -1.7755 -1.3436 -1.8729
 9509SOL     OW40162   2.122   2.475  14.712 -0.3461  0.3753 -0.0484
 9509SOL    HW140163   2.211   2.457  14.742 -0.6606  0.1694  0.7670
 9509SOL    HW240164   2.092   2.557  14.753 -1.8185 -1.0569  1.7801
 9510SOL     OW40165   3.983   4.034   1.729 -0.2117 -0.0586  0.3337
 9510SOL    HW140166   3.964   4.063   1.818 -0.0225  0.8320  0.0915
 9510SOL    HW240167   4.072   4.069   1.722  0.1269 -1.3146 -1.6088
 9511SOL     OW40168   1.980   0.091   8.856  0.6296  0.3700 -0.1472
 9511SOL    HW140169   2.074   0.074   8.853  0.4503 -0.5750 -0.5425
 9511SOL    HW240170   1.953   0.069   8.767  2.1003 -0.4278 -0.4023
 9512SOL     OW40171   3.255   2.627   1.739 -0.1739 -0.1008 -0.1400
 9512SOL    HW140172   3.165   2.614   1.769 -0.8943  1.3082 -1.6655
 9512SOL    HW240173   3.265   2.580   1.656  0.0435 -0.0246 -0.1582
 9513SOL     OW40174   2.635   3.684  12.917  0.4920  0.6163  0.7043
 9513SOL    HW140175   2.665   3.630  12.990 -1.4340 -2.4203 -0.7635
 9513SOL    HW240176   2.707   3.746  12.913  0.3979  0.6302 -1.0595
 9514SOL     OW40177   3.064   1.003   4.988  0.2849  0.0799 -0.5303
 9514SOL    HW140178   3.054   1.062   5.063  1.8524 -0.3179  0.0015
 9514SOL    HW240179   3.160   1.008   4.982  0.2590  0.9819 -0.1577
 9515SOL     OW40180   0.093   3.308   6.156 -0.0785 -0.1879 -0.2701
 9515SOL    HW140181   0.051   3.348   6.232  0.0507  1.6119 -1.1484
 9515SOL    HW240182   0.141   3.235   6.194 -0.1405  0.7792  1.6554
 9516SOL     OW40183   0.773   1.869   4.945  0.0576  0.6436  0.2099
 9516SOL    HW140184   0.825   1.864   5.025  0.7208  0.7142 -0.2201
 9516SOL    HW240185   0.688   1.836   4.974  0.6331 -0.7533  0.3054
 9517SOL     OW40186   0.308   0.763  13.808 -0.8425 -0.1722  0.1104
 9517SOL    HW140187   0.356   0.845  13.791 -0.6754 -0.5430 -1.2356
 9517SOL    HW240188   0.302   0.762  13.903 -0.9086 -0.9865  0.0936
 9518SOL     OW40189   3.891   4.031   5.416  0.1830 -0.4140  0.0857
 9518SOL    HW140190   3.959   4.068   5.472 -2.8176  0.8178  2.9698
 9518SOL    HW240191   3.898   3.939   5.441  0.0783 -0.5592 -0.4260
 9519SOL     OW40192   3.671   4.223   3.413  0.1105 -0.2295  0.0765
 9519SOL    HW140193   3.683   4.220   3.508 -1.2024 -1.9464  0.1999
 9519SOL    HW240194   3.752   4.258   3.378 -0.5640  1.5154  0.2246
 9520SOL     OW40195   2.760   3.800   2.658  0.3624  0.3131  0.2534
 9520SOL    HW140196   2.727   3.835   2.575 -3.3440 -0.4663  1.3911
 9520SOL    HW240197   2.689   3.832   2.714 -0.9801 -1.2048 -0.5825
 9521SOL     OW40198   0.676   0.912   8.028 -0.2374  0.1410  0.6309
 9521SOL    HW140199   0.592   0.949   8.057  0.6124 -0.1771  3.4219
 9521SOL    HW240200   0.746   0.973   8.051 -1.3094  1.5304  0.2541
 9522SOL     OW40201   3.416   2.323   4.830  0.2249  0.3159  0.3957
 9522SOL    HW140202   3.381   2.277   4.754  0.8588 -1.0276  0.9053
 9522SOL    HW240203   3.351   2.300   4.896 -0.8465  3.0324  0.2583
 9523SOL     OW40204   0.301   3.915   3.128  0.0040  0.0468 -0.1119
 9523SOL    HW140205   0.306   3.948   3.217 -1.1928  1.5932 -0.6045
 9523SOL    HW240206   0.315   3.821   3.136  1.4731  0.2291 -0.6520
 9524SOL     OW40207   2.072   1.506   2.422 -0.0303 -0.3977  0.1654
 9524SOL    HW140208   2.105   1.424   2.384  0.3132 -0.4426  0.5523
 9524SOL    HW240209   2.154   1.555   2.431 -0.4863  0.1956  1.0430
 9525SOL     OW40210   4.442   4.493  12.768 -0.0819  0.2555 -0.2658
 9525SOL    HW140211   4.453   4.587  12.783 -1.9474  0.6747 -1.5653
 9525SOL    HW240212   4.355   4.489  12.809  0.3315 -0.3761  0.5667
 9526SOL     OW40213   1.576   1.296   7.722 -0.0647  0.6063  0.2904
 9526SOL    HW140214   1.663   1.335   7.726  0.1851  0.0541  0.2966
 9526SOL    HW240215   1.566   1.230   7.654  1.2919 -2.3561  2.9699
 9527SOL     OW40216   3.706   2.902   4.958 -0.6774  0.3639 -0.1665
 9527SOL    HW140217   3.726   2.838   4.889 -0.1805 -0.5868  0.8716
 9527SOL    HW240218   3.761   2.973   4.926 -1.3381  0.8928 -0.1217
 9528SOL     OW40219   1.778   3.164  17.607  0.1322 -0.2955 -0.2582
 9528SOL    HW140220   1.720   3.187  17.680  0.5209  1.1359 -0.3898
 9528SOL    HW240221   1.822   3.247  17.590  1.0061 -0.1900  2.3734
 9529SOL     OW40222   4.041   3.525   4.328  0.6103 -0.4773 -0.3740
 9529SOL    HW140223   3.946   3.524   4.314  0.6835  0.7525 -0.9026
 9529SOL    HW240224   4.030   3.595   4.392 -1.6110 -1.1424 -0.0215
 9530SOL     OW40225   4.518   1.332   5.060 -0.0688  0.1029  0.6289
 9530SOL    HW140226   4.457   1.379   5.116 -1.1414 -0.7479  0.1856
 9530SOL    HW240227   4.565   1.401   5.013 -0.2228  0.1766  0.5839
 9531SOL     OW40228   1.829   3.402   4.150  0.2005  0.1837  0.2955
 9531SOL    HW140229   1.907   3.406   4.095 -1.0036 -2.7356 -1.6307
 9531SOL    HW240230   1.772   3.450   4.089  0.5327  1.4382  0.9767
 9532SOL     OW40231   3.132   3.898   3.196 -0.1381  0.0297  0.5120
 9532SOL    HW140232   3.215   3.856   3.215 -0.0328  0.5005  1.0954
 9532SOL    HW240233   3.090   3.928   3.277 -0.2324 -0.7337  0.7489
 9533SOL     OW40234   0.727   0.324   4.857 -0.1614  0.1195  0.4269
 9533SOL    HW140235   0.759   0.409   4.828 -0.6744  0.2785  0.3177
 9533SOL    HW240236   0.788   0.271   4.806  0.8079  0.6775  1.0199
 9534SOL     OW40237   3.179   2.069   9.799 -0.1773 -0.3721  0.2212
 9534SOL    HW140238   3.248   2.114   9.848  1.0357 -0.9106 -0.9937
 9534SOL    HW240239   3.105   2.128   9.810 -1.3168 -1.8600  0.4756
 9535SOL     OW40240   2.578   3.486   1.259  0.2753 -0.7086 -0.0040
 9535SOL    HW140241   2.517   3.550   1.223  1.2121 -1.0103 -2.1292
 9535SOL    HW240242   2.533   3.402   1.257 -0.6752 -0.2545  2.1727
 9536SOL     OW40243   4.033   0.927  15.729  0.1852  0.3572  0.1452
 9536SOL    HW140244   3.991   0.973  15.657 -0.8678  1.2011  1.2842
 9536SOL    HW240245   4.127   0.912  15.718  0.3643  0.1428  1.9800
 9537SOL     OW40246   2.569   4.259  13.340  0.5512 -0.2930  0.0728
 9537SOL    HW140247   2.624   4.325  13.298  0.4942  0.0757  0.5727
 9537SOL    HW240248   2.576   4.279  13.434 -1.7031  1.0051 -0.0370
 9538SOL     OW40249   0.472   1.810   3.226 -0.3644  0.2291  0.3529
 9538SOL    HW140250   0.423   1.892   3.219 -1.0153 -0.0127  2.0237
 9538SOL    HW240251   0.403   1.743   3.227 -1.0623  0.8789 -3.9104
 9539SOL     OW40252   2.086   2.163  14.574  0.4255  0.0298  0.0255
 9539SOL    HW140253   2.177   2.139  14.591  0.7894  0.9847 -0.5313
 9539SOL    HW240254   2.060   2.209  14.654 -0.9618  0.0951 -0.4706
 9540SOL     OW40255   2.897   1.043  11.181 -0.3089  0.0486  0.0140
 9540SOL    HW140256   2.992   1.036  11.175 -0.5338 -1.9190 -1.1890
 9540SOL    HW240257   2.890   1.138  11.178  2.3124  0.1916 -1.3319
 9541SOL     OW40258   0.129   3.495   2.490 -0.0558 -0.2850  0.1001
 9541SOL    HW140259   0.065   3.438   2.534  0.7515 -0.6867  0.7531
 9541SOL    HW240260   0.129   3.569   2.551  1.6214 -0.1533 -0.0748
 9542SOL     OW40261   4.131   1.286   5.827 -0.1092 -0.2776  0.2705
 9542SOL    HW140262   4.165   1.196   5.822  1.7348  0.3973  0.6375
 9542SOL    HW240263   4.157   1.311   5.916 -0.7072  0.4668  0.2366
 9543SOL     OW40264   3.868   2.947   8.385 -0.1227 -0.4705  0.4401
 9543SOL    HW140265   3.874   2.871   8.327  1.1569 -0.1917  0.1965
 9543SOL    HW240266   3.885   3.021   8.327 -0.9032 -0.2306  0.5192
 9544SOL     OW40267   2.507   0.019   3.156  0.1497  0.2510  0.6358
 9544SOL    HW140268   2.483   0.111   3.154 -2.0812 -0.3490 -0.7463
 9544SOL    HW240269   2.444   4.709   3.101 -0.8329  2.5085 -0.1140
 9545SOL     OW40270   4.497   2.204   7.703 -0.6111 -0.3953 -0.2806
 9545SOL    HW140271   4.588   2.178   7.692 -0.6730 -0.9334  0.5603
 9545SOL    HW240272   4.512   2.288   7.746 -0.4039 -0.4321 -0.2849
 9546SOL     OW40273   4.505   2.589   2.399 -0.0535 -0.5432  0.6598
 9546SOL    HW140274   4.457   2.560   2.322  0.3364  1.6035 -0.3844
 9546SOL    HW240275   4.465   2.526   2.460 -2.5183  0.5778  0.1871
 9547SOL     OW40276   1.916   2.627   4.883 -0.2107 -0.1026 -0.0668
 9547SOL    HW140277   1.949   2.540   4.903  1.9949  0.7319 -0.0911
 9547SOL    HW240278   1.889   2.622   4.791  0.8441 -0.0531 -0.3781
 9548SOL     OW40279   2.791   3.379   4.628 -0.2353 -0.7463 -0.0560
 9548SOL    HW140280   2.872   3.430   4.634  0.0999 -1.4914  1.5776
 9548SOL    HW240281   2.777   3.376   4.533  3.2416  0.3254 -0.6161
 9549SOL     OW40282   0.484   4.668  15.709 -0.6308 -0.6194  1.0548
 9549SOL    HW140283   0.412   4.731  15.710 -1.0800 -1.1255 -0.2143
 9549SOL    HW240284   0.497   4.661  15.804 -1.6912  3.5315  1.5272
 9550SOL     OW40285   4.271   1.896   6.926 -0.0947 -0.2061  0.2576
 9550SOL    HW140286   4.297   1.805   6.913  0.2632 -0.0657 -0.0198
 9550SOL    HW240287   4.351   1.939   6.955  0.2411  1.7783 -3.5414
 9551SOL     OW40288   0.169   1.545   7.434  0.6275  0.2544  0.3830
 9551SOL    HW140289   0.205   1.486   7.500 -0.9849 -1.4601 -0.2754
 9551SOL    HW240290   0.157   1.618   7.494  4.3498  1.3184 -0.1921
 9552SOL     OW40291   0.143   1.798   8.749 -0.1185 -0.1724 -0.4550
 9552SOL    HW140292   0.106   1.777   8.835  0.1573  0.3386 -0.2118
 9552SOL    HW240293   0.233   1.826   8.767 -0.2396 -0.1777  0.1606
 9553SOL     OW40294   4.674   4.043  12.912 -0.5446 -0.1411  0.9978
 9553SOL    HW140295   0.010   4.062  12.970  0.4123  0.6577 -0.4635
 9553SOL    HW240296   4.629   4.127  12.902  0.5970  0.4642  0.9985
 9554SOL     OW40297   0.771   2.483   2.576 -0.4388  0.0487 -0.1476
 9554SOL    HW140298   0.788   2.389   2.577  1.4052  0.4162  2.3226
 9554SOL    HW240299   0.712   2.485   2.500  0.4870 -0.3527 -0.8880
 9555SOL     OW40300   3.588   2.210   8.245 -0.4070 -0.8093  0.2691
 9555SOL    HW140301   3.642   2.271   8.295 -1.8663  1.7121 -1.2288
 9555SOL    HW240302   3.655   2.157   8.203  1.1936  0.8884  0.6938
 9556SOL     OW40303   0.576   0.427   8.350 -0.5944 -0.3736  0.5564
 9556SOL    HW140304   0.488   0.466   8.354 -1.1397 -1.6831  1.1976
 9556SOL    HW240305   0.574   0.345   8.399 -0.3197 -1.2068 -0.8383
 9557SOL     OW40306   0.498   2.108  15.854  0.3214  0.2833 -0.4222
 9557SOL    HW140307   0.497   2.194  15.811  0.7010 -0.1160 -1.2254
 9557SOL    HW240308   0.406   2.107  15.879  0.8632 -1.9315  1.5068
 9558SOL     OW40309   0.914   2.309   4.309 -0.0820  0.4048  0.8454
 9558SOL    HW140310   0.855   2.268   4.246 -0.8904  0.9757  1.2199
 9558SOL    HW240311   0.854   2.377   4.342 -0.0086  0.3665  1.0569
 9559SOL     OW40312   1.357   0.179   7.161  0.2433  0.1689  0.3726
 9559SOL    HW140313   1.332   0.103   7.108 -2.3791  2.4517 -1.6041
 9559SOL    HW240314   1.319   0.163   7.248  2.3366  1.8578  1.5780
 9560SOL     OW40315   4.218   0.866  12.603 -0.6477 -0.0872 -0.3169
 9560SOL    HW140316   4.148   0.813  12.565  2.6321 -1.6125 -4.2630
 9560SOL    HW240317   4.156   0.901  12.667  0.0942 -0.1324  0.4429
 9561SOL     OW40318   2.499   1.129  11.798  0.8742 -0.0085 -0.1628
 9561SOL    HW140319   2.484   1.045  11.756 -2.4304  0.9066 -0.8445
 9561SOL    HW240320   2.437   1.170  11.738 -1.1403 -0.6786  1.4298
 9562SOL     OW40321   2.286   2.195   3.926 -0.0322  0.1430  0.3389
 9562SOL    HW140322   2.191   2.207   3.928 -0.0908 -0.1895 -0.4203
 9562SOL    HW240323   2.317   2.269   3.875  0.2951  0.8414  1.5659
 9563SOL     OW40324   3.273   2.275   7.554  0.2533  0.0433 -0.5646
 9563SOL    HW140325   3.320   2.201   7.515 -2.0276 -0.7216 -1.8128
 9563SOL    HW240326   3.314   2.272   7.641  0.1458 -1.3322 -0.5580
 9564SOL     OW40327   3.291   3.000  17.735  0.0290  0.1175  0.1552
 9564SOL    HW140328   3.253   3.081  17.701  1.6354  0.3964 -0.9924
 9564SOL    HW240329   3.220   2.936  17.744  0.8428 -0.5359  2.0453
 9565SOL     OW40330   4.135   4.364   6.806 -0.0858 -0.4649 -0.5352
 9565SOL    HW140331   4.136   4.443   6.860 -1.6682 -1.1955  0.5494
 9565SOL    HW240332   4.192   4.307   6.858 -0.9270 -1.2592 -0.4768
 9566SOL     OW40333   1.911   1.168   2.246 -0.2063 -0.6315  0.3465
 9566SOL    HW140334   1.844   1.105   2.274 -0.3632 -0.0672  1.2285
 9566SOL    HW240335   1.981   1.141   2.304  0.8165 -1.6052 -1.3373
 9567SOL     OW40336   0.006   4.243   0.005  0.0611 -0.5456 -0.0991
 9567SOL    HW140337   4.655   4.278  17.739 -0.3040 -1.7566 -1.0194
 9567SOL    HW240338   0.017   4.230   0.099 -1.1913 -0.1688  0.0902
 9568SOL     OW40339   2.896   1.417   6.279  0.1789 -0.2505 -0.3576
 9568SOL    HW140340   2.952   1.437   6.203 -2.0358  1.2814 -1.5667
 9568SOL    HW240341   2.928   1.472   6.350  0.7343  1.0399 -1.5898
 9569SOL     OW40342   2.290   3.002   1.870  0.1359 -0.1203  0.0014
 9569SOL    HW140343   2.332   2.948   1.803 -1.5720 -0.6363 -0.6532
 9569SOL    HW240344   2.228   2.939   1.906  1.6442  0.9946  4.5867
   4.73668   4.73668  17.74518
