Membrane in water
40344
    1TMC1    C1    1   2.980   2.046  11.711 -0.8957 -0.4719 -0.1155
    1TMC1    C2    2   3.096   2.079  11.648 -0.1480  0.0451  0.2190
    1TMC1    C3    3   3.136   2.207  11.644  0.1455  0.5064 -0.5641
    1TMC1    C4    4   2.897   2.146  11.763  0.7578  0.0938 -0.0104
    1TMC1    C5    5   2.932   2.284  11.744 -0.3805  0.0371 -0.3482
    1TMC1    C6    6   3.052   2.312  11.680  0.6554  0.3911  0.6882
    1TMC1     C    7   2.955   1.905  11.745  0.6693 -0.6248  0.0742
    1TMC1     O    8   2.870   1.888  11.831  0.2517  0.3416  0.7912
    1TMC1     H    9   3.171   2.005  11.624  0.1865  0.2056  0.7699
    1TMC1    H1   10   2.813   2.117  11.825  0.6051  1.3931  0.4065
    1TMC1    H2   11   3.080   2.412  11.651  0.4383 -0.5275 -2.7052
    1TMC1    C7   12   2.875   2.371  11.848 -1.0343 -0.4673  0.4301
    1TMC1    C8   13   3.238   2.238  11.546  0.1494 -1.6300 -0.1343
    1TMC1    O1   14   2.860   2.324  11.958 -0.4586  0.5781 -0.4714
    1TMC1    O2   15   3.261   2.177  11.441 -0.4612 -0.2438 -0.0938
    1TMC1    O3   16   2.935   2.493  11.834 -0.1306  0.4047 -0.0578
    1TMC1    H3   17   2.909   2.544  11.754 -0.5142 -0.0825 -0.2446
    1TMC1    O5   18   3.326   2.333  11.585  0.5103  0.7192 -0.3561
    1TMC1    H5   19   3.311   2.379  11.671 -0.6167  2.8520 -1.6875
    2MPD2     C   20   2.953   1.415  11.614  0.7029  0.4733 -0.5416
    2MPD2    C1   21   2.908   1.469  11.729 -0.3084 -0.8301  0.7649
    2MPD2    C2   22   2.927   1.609  11.748 -0.3422  0.0654  0.2801
    2MPD2    C3   23   3.000   1.685  11.651  0.2048  0.2593  0.2413
    2MPD2    C4   24   3.053   1.621  11.544 -0.2668  0.0654 -0.3335
    2MPD2    C5   25   3.029   1.488  11.527 -0.3002  0.0051  0.1101
    2MPD2     H   26   2.892   1.655  11.840  0.7430  0.5744  0.4384
    2MPD2    H1   27   3.116   1.667  11.469 -1.1193  2.3081  0.3136
    2MPD2    H2   28   2.949   1.309  11.590  1.1916  0.3284  0.0181
    2MPD2    H3   29   3.074   1.436  11.444 -1.2352  1.1159 -1.0960
    2MPD2     N   30   3.021   1.825  11.660  1.1331  0.1623  0.9440
    2MPD2    H5   31   3.063   1.863  11.576 -0.1739  0.4828  0.4411
    2MPD2    N1   32   2.831   1.401  11.827  0.0875 -0.4083  0.1353
    2MPD2    H7   33   2.780   1.457  11.894  0.9969  1.6035 -0.8611
    3TMC1    C1   34   1.494   1.913  10.865 -0.2082  0.0035  0.0053
    3TMC1    C2   35   1.579   2.008  10.817  0.3141 -0.4327 -0.0861
    3TMC1    C3   36   1.645   1.971  10.703 -0.2771 -0.5522  0.8833
    3TMC1    C4   37   1.449   1.801  10.794  0.1356  0.1948 -0.0748
    3TMC1    C5   38   1.506   1.789  10.669  0.5101 -0.1408 -0.0770
    3TMC1    C6   39   1.604   1.871  10.620 -0.3106 -0.2621 -0.0616
    3TMC1     C   40   1.400   1.970  10.957  0.0646  0.7820 -0.4261
    3TMC1     O   41   1.344   1.894  11.033 -0.1254 -0.0628  0.2946
    3TMC1     H   42   1.615   2.092  10.876  2.3515 -0.6039 -1.0762
    3TMC1    H1   43   1.368   1.741  10.832 -0.6153  2.2922  1.6256
    3TMC1    H2   44   1.644   1.844  10.523  0.8075  1.7110 -0.1413
    3TMC1    C7   45   1.459   1.682  10.585  0.3568  0.0943 -0.5030
    3TMC1    C8   46   1.721   2.086  10.652 -0.1624 -0.3177  0.7748
    3TMC1    O1   47   1.477   1.671  10.465  0.0840 -0.3461  0.2482
    3TMC1    O2   48   1.706   2.199  10.698  0.1158  0.4555  0.5120
    3TMC1    O3   49   1.439   1.576  10.665 -0.7103  0.3961 -0.3217
    3TMC1    H3   50   1.475   1.601  10.753 -0.5509 -0.4888 -0.1352
    3TMC1    O5   51   1.748   2.049  10.523 -0.2117  0.7305 -0.5590
    3TMC1    H5   52   1.778   1.957  10.505  1.8155  1.4395 -0.7875
    4MPD2     C   53   1.188   2.395  11.149 -0.0747  0.0974 -0.2946
    4MPD2    C1   54   1.213   2.421  11.019  0.0082  0.0422  0.4487
    4MPD2    C2   55   1.273   2.319  10.938 -0.2695 -0.1880 -0.7527
    4MPD2    C3   56   1.299   2.194  10.984 -0.0066 -0.1011 -0.3361
    4MPD2    C4   57   1.263   2.167  11.114  0.6019  0.2890  1.2535
    4MPD2    C5   58   1.207   2.269  11.190 -0.4790  0.1293 -0.2641
    4MPD2     H   59   1.300   2.337  10.835  1.1509  1.2912 -0.1218
    4MPD2    H1   60   1.286   2.072  11.162  2.2316 -0.1288 -0.3561
    4MPD2    H2   61   1.145   2.467  11.218 -0.0374  1.5069 -1.7437
    4MPD2    H3   62   1.183   2.246  11.293  0.7762 -1.0842 -0.2372
    4MPD2     N   63   1.367   2.097  10.913  0.7164  0.1822  0.3086
    4MPD2    H5   64   1.417   2.130  10.831 -1.1798  0.6632 -0.6613
    4MPD2    N1   65   1.201   2.547  10.956 -0.2742 -0.5094 -0.5473
    4MPD2    H7   66   1.238   2.557  10.862  1.1168 -1.2485 -0.0784
    5TCq1    O1   67   1.935   4.098  12.007 -0.4239  0.5006 -0.2728
    5TCq1    C1   68   1.919   4.213  12.073 -0.1287 -0.2507 -0.4192
    5TCq1    O2   69   1.897   4.229  12.191  0.3935 -0.8739  0.0209
    5TCq1    C2   70   1.872   4.312  11.977  0.5150 -0.6359  0.1833
    5TCq1    C3   71   1.788   4.412  12.022  0.0027 -0.4758 -0.0756
    5TCq1    C4   72   1.786   4.531  11.951 -0.1042  0.8090 -0.0737
    5TCq1    C5   73   1.848   4.555  11.829 -0.2891  0.5618  0.0878
    5TCq1    C6   74   1.927   4.448  11.793 -0.2135  0.4320 -0.2260
    5TCq1    C7   75   1.948   4.339  11.863 -0.4434 -1.0444 -0.3118
    5TCq1    C8   76   1.999   4.462  11.671 -0.1207 -0.4207  0.2979
    5TCq1    O4   77   2.040   4.365  11.611 -0.1320  0.0548 -0.0947
    5TCq1    C9   78   1.697   4.636  12.005 -0.4475 -0.0409  0.5500
    5TCq1    O5   79   1.626   4.600  12.103 -0.2600  0.0752  0.0314
    5TCq1    O6   80   1.687   0.005  11.936 -0.0372 -0.2606  0.0567
    5TCq1    H1   81   1.902   4.104  11.915 -0.6864  0.9721 -0.1456
    5TCq1    H2   82   1.735   4.395  12.115 -2.0494 -1.3075 -1.4047
    5TCq1    H3   83   1.817   4.634  11.762  0.4949  0.9933  0.2342
    5TCq1    H4   84   2.026   4.272  11.830 -0.5620 -2.4149  2.1686
    6MPD2     C   85   2.034   0.029  11.459 -0.6101  0.2438 -0.9416
    6MPD2    C1   86   2.047   4.631  11.497 -0.2488  0.5108  0.8488
    6MPD2    C2   87   2.083   4.544  11.402  0.0109  0.4238  0.2441
    6MPD2    C3   88   2.111   4.578  11.271  0.3347  0.8837  0.2059
    6MPD2    C4   89   2.114   4.714  11.241 -0.9621  0.6020 -0.0644
    6MPD2    C5   90   2.070   0.070  11.329 -0.5810  0.5788  0.1966
    6MPD2     H   91   2.082   4.436  11.414  0.8303  0.3507 -0.3324
    6MPD2    H1   92   2.128   0.015  11.139  2.5702  1.8747  0.8814
    6MPD2    H2   93   2.011   0.108  11.530  0.4608  0.1817 -0.5164
    6MPD2    H3   94   2.067   0.174  11.300 -2.5067  1.1889  2.5234
    6MPD2     N   95   2.139   4.475  11.177  0.0436 -0.2785 -0.3954
    6MPD2    H5   96   2.135   4.379  11.210  0.0517 -0.4551 -0.8999
    6MPD2    N1   97   2.017   4.594  11.629  0.6832 -0.2254 -0.3707
    6MPD2    H7   98   1.995   4.666  11.697 -0.6289  1.0634 -2.1652
    7TCq1    O1   99   0.689   2.973  13.257 -0.1513  0.2439 -0.3607
    7TCq1    C1  100   0.580   2.897  13.235 -0.1227  0.3622 -0.8759
    7TCq1    O2  101   0.545   2.865  13.125  0.0667  0.0504 -0.1462
    7TCq1    C2  102   0.491   2.902  13.347  0.2027  0.4708  0.5347
    7TCq1    C3  103   0.548   2.898  13.468  0.0973  0.1442 -0.8169
    7TCq1    C4  104   0.464   2.925  13.568 -0.2289  0.3435 -0.1000
    7TCq1    C5  105   0.334   2.956  13.544 -0.3872  0.5772  0.2363
    7TCq1    C6  106   0.285   2.962  13.416  0.7367  0.8738 -0.1568
    7TCq1    C7  107   0.365   2.930  13.311  0.2438 -0.0836  0.9702
    7TCq1    C8  108   0.143   2.955  13.383  0.0431 -0.1965  0.6111
    7TCq1    O4  109   0.065   2.933  13.471  0.2307 -0.5741  0.0614
    7TCq1    C9  110   0.513   2.929  13.700  0.2115 -0.4137  0.0343
    7TCq1    O5  111   0.623   2.879  13.736  0.0697  0.6808  0.0032
    7TCq1    O6  112   0.442   2.992  13.785  0.1726  0.1536 -0.4032
    7TCq1    H1  113   0.704   3.001  13.350  0.5052  2.9752 -1.2695
    7TCq1    H2  114   0.653   2.874  13.487  0.6616  2.1621 -1.4100
    7TCq1    H3  115   0.272   2.983  13.628  1.4663 -0.8183  2.0591
    7TCq1    H4  116   0.339   2.947  13.207 -0.1384 -0.8301  0.9463
    8MPD2     C  117   4.508   2.886  13.034  0.2688 -0.5719  0.4222
    8MPD2    C1  118   4.532   2.825  13.154 -0.2530 -0.5831  0.8183
    8MPD2    C2  119   4.643   2.861  13.228  0.4003 -0.6002 -0.0942
    8MPD2    C3  120   4.727   2.955  13.183  0.3966 -0.3033  0.3010
    8MPD2    C4  121   4.694   3.019  13.066  0.7038 -0.0537 -0.0406
    8MPD2    C5  122   4.593   2.983  12.987 -0.1217 -0.0136  1.0348
    8MPD2     H  123   4.664   2.809  13.321 -0.5515 -0.0180  0.4448
    8MPD2    H1  124   0.025   3.098  13.031 -0.4006  1.4172  1.2066
    8MPD2    H2  125   4.424   2.851  12.975  1.9584 -1.7246 -1.2805
    8MPD2    H3  126   4.589   3.032  12.891 -0.4142 -0.8018  0.6418
    8MPD2     N  127   0.111   2.995  13.257 -0.5639  0.1601  0.4806
    8MPD2    H5  128   0.169   3.063  13.210 -0.6894  0.0153  0.1116
    8MPD2    N1  129   4.444   2.731  13.207 -0.1648  0.7247 -0.2052
    8MPD2    H7  130   4.383   2.689  13.137 -0.2433 -3.2490  2.2514
    9TMC1    C1  131   2.365   2.259  11.186  0.0112 -0.0467 -0.0710
    9TMC1    C2  132   2.458   2.301  11.098  0.0018 -0.3040  0.3373
    9TMC1    C3  133   2.525   2.217  11.027 -0.3574 -0.4513 -0.0409
    9TMC1    C4  134   2.352   2.127  11.216  0.3510  0.8294  0.7702
    9TMC1    C5  135   2.434   2.036  11.146 -0.2708 -0.3245 -0.4573
    9TMC1    C6  136   2.523   2.080  11.050 -0.1521 -0.3491 -0.2731
    9TMC1     C  137   2.330   2.370  11.275 -0.4103  0.5884  0.0554
    9TMC1     O  138   2.375   2.480  11.249 -0.3610 -0.3384 -0.3821
    9TMC1     H  139   2.464   2.406  11.070 -0.3216 -0.0567  1.1954
    9TMC1    H1  140   2.273   2.091  11.280 -1.1204  1.4449 -0.6979
    9TMC1    H2  141   2.591   2.009  11.004 -1.0967 -0.7514 -1.0581
    9TMC1    C7  142   2.445   1.900  11.179  0.0892  0.2744  0.4709
    9TMC1    C8  143   2.635   2.271  10.957  0.4090  1.3833  0.1412
    9TMC1    O1  144   2.548   1.836  11.166 -0.5762  0.4721  0.7396
    9TMC1    O2  145   2.695   2.370  11.001 -0.6001  0.0742 -0.4218
    9TMC1    O3  146   2.323   1.852  11.178 -0.0631  0.5601 -0.2198
    9TMC1    H3  147   2.247   1.914  11.174 -1.4731 -1.2290 -1.3393
    9TMC1    O5  148   2.687   2.180  10.875  0.3167 -0.2775  0.1387
    9TMC1    H5  149   2.622   2.111  10.850 -0.3408 -0.2665  1.8403
   10MPD2     C  150   2.238   2.527  11.516 -0.0682  0.3998 -0.4591
   10MPD2    C1  151   2.231   2.391  11.512  0.2844  0.9579  0.2875
   10MPD2    C2  152   2.182   2.319  11.619 -0.4581 -0.9667 -0.0212
   10MPD2    C3  153   2.156   2.379  11.743  0.1188 -0.4750  0.8253
   10MPD2    C4  154   2.177   2.519  11.756 -0.0404 -0.0247  0.6905
   10MPD2    C5  155   2.210   2.591  11.643  0.5580  0.0494  0.1162
   10MPD2     H  156   2.177   2.212  11.604 -1.1393 -1.0023  0.4425
   10MPD2    H1  157   2.150   2.562  11.852  1.2594  0.5327  0.8103
   10MPD2    H2  158   2.269   2.593  11.436  1.0724  0.5313  0.0906
   10MPD2    H3  159   2.239   2.695  11.647 -0.6226  0.2291  5.0181
   10MPD2     N  160   2.109   2.308  11.858 -0.2111 -0.1100  0.5863
   10MPD2    H5  161   2.088   2.360  11.943 -0.3808  0.6122  0.1022
   10MPD2    N1  162   2.268   2.317  11.395  0.5635 -0.1026 -0.3315
   10MPD2    H7  163   2.267   2.216  11.403  1.8099  0.0146  1.2980
   11TCq1    O1  164   3.313   2.082  15.018 -0.4216 -0.3846  0.0018
   11TCq1    C1  165   3.295   1.957  14.965 -0.2647  0.6489  0.3343
   11TCq1    O2  166   3.201   1.886  14.985  0.6331 -0.1817 -0.4266
   11TCq1    C2  167   3.388   1.950  14.858  0.0786 -0.6107 -0.9417
   11TCq1    C3  168   3.521   1.994  14.886  0.4402  0.4670  0.0061
   11TCq1    C4  169   3.592   2.045  14.782 -1.2777 -0.0835  0.1933
   11TCq1    C5  170   3.543   2.043  14.656  0.0195  0.2752  0.9305
   11TCq1    C6  171   3.415   1.987  14.627  0.3090 -0.5998  0.2777
   11TCq1    C7  172   3.332   1.939  14.734 -0.3439  0.3745  0.2190
   11TCq1    C8  173   3.370   1.974  14.490  0.7323 -0.0131 -0.7008
   11TCq1    O4  174   3.422   2.044  14.404 -0.2327  0.1273 -0.1572
   11TCq1    C9  175   3.729   2.091  14.808 -0.4967  0.0000 -0.3227
   11TCq1    O5  176   3.757   2.096  14.930  0.3985  0.0752  0.1147
   11TCq1    O6  177   3.806   2.105  14.713  0.2883 -0.1170 -0.5513
   11TCq1    H1  178   3.384   2.138  14.980 -1.1299 -0.5223 -1.5216
   11TCq1    H2  179   3.553   1.998  14.990  0.2093 -2.7037  0.1941
   11TCq1    H3  180   3.607   2.076  14.575 -0.3988  1.1050  0.9357
   11TCq1    H4  181   3.241   1.881  14.722  0.3656 -0.6569 -0.2525
   12MPD2     C  182   3.201   1.912  14.257  0.2140  0.1341  0.1695
   12MPD2    C1  183   3.211   1.828  14.363 -0.7629  0.4734 -0.5808
   12MPD2    C2  184   3.152   1.703  14.357 -0.5244  0.4755 -0.3436
   12MPD2    C3  185   3.064   1.678  14.251  0.3647  0.2973 -0.0923
   12MPD2    C4  186   3.044   1.766  14.143 -0.6919 -0.1674  0.4638
   12MPD2    C5  187   3.124   1.881  14.147 -0.6948 -0.2683  0.3689
   12MPD2     H  188   3.157   1.629  14.436 -0.0143 -1.0325 -1.7843
   12MPD2    H1  189   2.994   1.742  14.050  1.5344 -2.6833 -0.0728
   12MPD2    H2  190   3.239   2.014  14.255  0.0340  0.2284  1.1792
   12MPD2    H3  191   3.112   1.956  14.070  0.2447 -0.1388  0.3431
   12MPD2     N  192   3.010   1.547  14.253 -0.3153 -0.5788 -0.7855
   12MPD2    H5  193   3.041   1.491  14.333  1.1266  0.6161 -0.5103
   12MPD2    N1  194   3.283   1.870  14.477  0.1115  0.2930  1.1732
   12MPD2    H7  195   3.262   1.813  14.558 -0.4025 -2.5122 -0.9306
   13TCq1    O1  196   2.823   2.847  10.433  0.1724 -0.8218 -0.1718
   13TCq1    C1  197   2.691   2.811  10.456  0.1846  0.6993  0.6497
   13TCq1    O2  198   2.614   2.754  10.378  0.8665 -0.4544  0.0239
   13TCq1    C2  199   2.674   2.813  10.598 -0.1891  0.6886  0.4004
   13TCq1    C3  200   2.702   2.928  10.658  0.6900  0.0933  0.3327
   13TCq1    C4  201   2.649   2.946  10.782 -0.3514 -0.1027 -0.3105
   13TCq1    C5  202   2.577   2.848  10.851  0.4981 -0.2070 -0.5493
   13TCq1    C6  203   2.556   2.732  10.779  0.6268  0.2160  0.2513
   13TCq1    C7  204   2.587   2.724  10.651  0.7253  0.0779 -0.5685
   13TCq1    C8  205   2.464   2.637  10.833  0.0397  0.0554  0.2857
   13TCq1    O4  206   2.393   2.672  10.930 -0.2541  0.2376  0.0041
   13TCq1    C9  207   2.682   3.071  10.843  0.4579  0.4617  0.9118
   13TCq1    O5  208   2.631   3.103  10.956  0.1877  0.4646  0.5364
   13TCq1    O6  209   2.737   3.154  10.768  0.3332 -0.0482 -0.0198
   13TCq1    H1  210   2.881   2.866  10.510  1.0106 -0.3332 -0.9330
   13TCq1    H2  211   2.736   3.015  10.603  1.1293  0.3852  1.0584
   13TCq1    H3  212   2.544   2.861  10.953  0.3771 -0.7298 -0.5227
   13TCq1    H4  213   2.572   2.633  10.593 -2.2433  0.4624 -0.4037
   14MPD2     C  214   2.425   2.288  10.701 -0.4539 -0.6899  0.6707
   14MPD2    C1  215   2.393   2.394  10.784 -0.4500 -0.3301 -0.7453
   14MPD2    C2  216   2.275   2.400  10.848  0.1724 -0.0024  1.0812
   14MPD2    C3  217   2.191   2.287  10.847  0.2484  0.0543 -0.4146
   14MPD2    C4  218   2.226   2.178  10.780  0.5459 -0.2854  0.1851
   14MPD2    C5  219   2.340   2.177  10.704 -0.4970 -0.2745 -0.0662
   14MPD2     H  220   2.238   2.483  10.907  0.4200  0.0345  1.1826
   14MPD2    H1  221   2.168   2.086  10.779  0.4497 -0.2185 -1.0232
   14MPD2    H2  222   2.513   2.287  10.638 -0.6211 -0.0345  0.4300
   14MPD2    H3  223   2.353   2.100  10.629  0.3552  0.0214 -0.2233
   14MPD2     N  224   2.060   2.316  10.901 -0.0530  0.1268  0.4376
   14MPD2    H5  225   2.044   2.405  10.947  0.9344  1.9977 -2.8184
   14MPD2    N1  226   2.479   2.512  10.772  0.1299 -0.1034  0.0913
   14MPD2    H7  227   2.547   2.503  10.698 -1.4603  1.1827 -1.5390
   15TCq1    O1  228   0.347   1.221   1.820  0.3841  0.2171 -0.4528
   15TCq1    C1  229   0.307   1.215   1.689  0.2782 -0.7901 -0.2962
   15TCq1    O2  230   0.277   1.313   1.622  0.2257  0.3620 -0.0640
   15TCq1    C2  231   0.326   1.084   1.637  0.3346  0.3779  0.4999
   15TCq1    C3  232   0.433   1.016   1.681  0.3482  0.0748 -0.1757
   15TCq1    C4  233   0.446   0.896   1.628 -0.1793 -0.2567 -0.8279
   15TCq1    C5  234   0.362   0.844   1.527  0.3575  0.0754 -0.4033
   15TCq1    C6  235   0.258   0.922   1.490 -0.1000  0.1518 -0.5903
   15TCq1    C7  236   0.232   1.037   1.556 -0.4193  0.5013 -0.2173
   15TCq1    C8  237   0.182   0.866   1.373 -0.7304 -0.8259 -0.2987
   15TCq1    O4  238   0.244   0.781   1.308  0.2800 -0.1755 -0.3442
   15TCq1    C9  239   0.558   0.810   1.670  0.5507  0.2425  0.2150
   15TCq1    O5  240   0.653   0.868   1.731 -0.1642 -0.0336  0.4033
   15TCq1    O6  241   0.569   0.697   1.619 -0.4842 -0.3094 -0.0835
   15TCq1    H1  242   0.354   1.135   1.866 -0.6281 -0.4121 -1.4960
   15TCq1    H2  243   0.502   1.047   1.759 -0.1472  1.0901 -0.1317
   15TCq1    H3  244   0.384   0.744   1.491 -1.0887 -0.9425  1.5254
   15TCq1    H4  245   0.158   1.106   1.516 -0.9929  1.2944  2.2188
   16MPD2     C  246   4.606   0.987   1.230 -0.0433 -0.3026 -0.6734
   16MPD2    C1  247   4.711   0.899   1.248 -1.0350  0.5385  0.2429
   16MPD2    C2  248   4.713   0.787   1.172  0.2929  0.5508  0.5047
   16MPD2    C3  249   4.627   0.761   1.067 -0.4444 -0.5150 -0.4742
   16MPD2    C4  250   4.528   0.854   1.044  1.0328 -0.8870 -0.5558
   16MPD2    C5  251   4.524   0.968   1.123 -0.0916 -0.4170  0.3337
   16MPD2     H  252   0.042   0.702   1.195  2.7167  2.6377  1.6372
   16MPD2    H1  253   4.452   0.831   0.970  0.3475  0.5215 -0.2890
   16MPD2    H2  254   4.576   1.069   1.294  0.4932  1.2348 -2.4024
   16MPD2    H3  255   4.442   1.039   1.115 -0.8446 -1.4632 -1.3083
   16MPD2     N  256   4.651   0.639   0.997  0.2366 -0.5167 -0.0840
   16MPD2    H5  257   4.731   0.585   1.028 -0.7666 -0.4723  2.6404
   16MPD2    N1  258   0.061   0.931   1.355  0.7234  0.2691  0.4131
   16MPD2    H7  259   0.026   1.007   1.412 -0.7147 -1.1603  1.4280
   17TMC1    C1  260   2.741   2.388  11.383 -0.6162 -0.2790  0.9300
   17TMC1    C2  261   2.777   2.467  11.276 -0.0913  0.1816 -0.0610
   17TMC1    C3  262   2.734   2.597  11.275  0.4329 -0.1349 -0.0861
   17TMC1    C4  263   2.652   2.429  11.479  0.5433  0.6352 -0.1691
   17TMC1    C5  264   2.625   2.564  11.483  0.0031  1.0509  0.6330
   17TMC1    C6  265   2.663   2.647  11.382 -0.1102  0.0107  0.3722
   17TMC1     C  266   2.788   2.253  11.399  0.7825  0.1309 -0.5736
   17TMC1     O  267   2.723   2.187  11.480 -0.1562 -0.2653 -0.0240
   17TMC1     H  268   2.848   2.440  11.199  0.0377  2.2470 -0.6636
   17TMC1    H1  269   2.618   2.363  11.557 -1.8486  1.4312 -0.5502
   17TMC1    H2  270   2.649   2.753  11.397 -1.6689 -0.1953  0.3314
   17TMC1    C7  271   2.587   2.629  11.607  0.1158 -0.1512  0.9830
   17TMC1    C8  272   2.736   2.676  11.156  0.6516 -0.2607 -0.2896
   17TMC1    O1  273   2.576   2.752  11.610  0.4392 -0.1150  0.3318
   17TMC1    O2  274   2.696   2.790  11.159  0.4896  0.0599  0.2525
   17TMC1    O3  275   2.642   2.560  11.708 -0.0888  0.0434 -0.9493
   17TMC1    H3  276   2.621   2.465  11.722  1.1044  0.1211  1.3978
   17TMC1    O5  277   2.837   2.631  11.070 -0.1091  0.3244 -0.2127
   17TMC1    H5  278   2.885   2.546  11.079 -1.3857 -0.5854 -1.9478
   18MPD2     C  279   2.843   1.979  11.319 -0.0131  0.0910 -0.9116
   18MPD2    C1  280   2.912   2.086  11.273  0.4952 -0.8727 -0.0577
   18MPD2    C2  281   3.021   2.072  11.194  0.4080  0.6829  0.9908
   18MPD2    C3  282   3.057   1.940  11.150  0.8918 -0.0745  0.4432
   18MPD2    C4  283   2.970   1.836  11.178  0.3015 -0.1154 -0.1562
   18MPD2    C5  284   2.860   1.855  11.257  1.1220  0.2074 -1.5168
   18MPD2     H  285   3.085   2.156  11.170  0.2580  0.1772 -1.1274
   18MPD2    H1  286   2.976   1.739  11.130  0.8323 -1.1818  2.0908
   18MPD2    H2  287   2.755   1.987  11.381 -1.1765 -1.5773 -2.3161
   18MPD2    H3  288   2.800   1.770  11.286  0.4949  1.5150  1.0074
   18MPD2     N  289   3.169   1.902  11.066 -0.2225  0.2378 -0.6124
   18MPD2    H5  290   3.156   1.810  11.026 -1.3140  0.6292 -1.1582
   18MPD2    N1  291   2.873   2.215  11.304  0.1300  0.2274  0.7172
   18MPD2    H7  292   2.920   2.285  11.247 -1.3701  1.0559  0.4914
   19TMC2    C1  293   4.293   1.968  14.531 -0.2229 -0.4866  0.0044
   19TMC2    C2  294   4.250   2.094  14.571  0.5122 -0.3545 -0.1351
   19TMC2    C3  295   4.152   2.096  14.666  0.4057  0.5712  0.2247
   19TMC2    C4  296   4.236   1.851  14.578 -0.1412  0.0549 -0.6142
   19TMC2    C5  297   4.138   1.866  14.664  0.5436 -0.5115 -0.7189
   19TMC2    C6  298   4.093   1.985  14.712 -0.4315 -0.2066 -0.0432
   19TMC2     C  299   4.396   1.972  14.429  0.4354 -0.4428 -0.3355
   19TMC2     O  300   4.457   2.075  14.394 -0.3884 -0.5113 -0.0431
   19TMC2     H  301   4.284   2.186  14.525 -0.8784  0.1548 -0.1538
   19TMC2    H1  302   4.268   1.750  14.556  1.0334  0.5034 -0.9888
   19TMC2    H2  303   4.014   1.974  14.785  2.7164  0.6838  3.5149
   19TMC2    C7  304   4.056   1.748  14.686  0.2335 -0.1093  1.1535
   19TMC2    C8  305   4.140   2.221  14.740  0.0291 -0.4914  0.4291
   19TMC2    O1  306   4.108   1.638  14.673 -0.1313  0.2494 -0.1191
   19TMC2    O2  307   4.234   2.302  14.746 -0.0691  0.2139 -0.2727
   19TMC2    O5  308   4.007   2.238  14.773  0.1920  0.6710 -0.5323
   19TMC2    H5  309   3.942   2.175  14.734 -0.2458  0.5282  0.4305
   20MPD2     C  310   4.587   1.898  14.196 -0.2161 -0.0728  0.0634
   20MPD2    C1  311   4.525   1.811  14.288 -0.3669 -0.7103  0.0359
   20MPD2    C2  312   4.559   1.677  14.298  0.2211 -0.2889 -0.2538
   20MPD2    C3  313   4.667   1.634  14.222  0.2931  0.4390  0.0764
   20MPD2    C4  314   4.732   1.725  14.137  0.1687  0.5949  0.1463
   20MPD2    C5  315   4.686   1.852  14.120  0.5113  0.0885  0.2082
   20MPD2     H  316   4.512   1.614  14.372 -0.2921 -1.1049 -1.2825
   20MPD2    H1  317   0.085   1.681  14.090  1.6875  0.2461  3.2985
   20MPD2    H2  318   4.556   2.001  14.189  1.8759  0.7229  2.5461
   20MPD2    H3  319   4.730   1.918  14.045 -1.1877  2.7263  1.5666
   20MPD2     N  320   4.715   1.498  14.227  0.2674  0.2387 -0.1748
   20MPD2    H5  321   0.067   1.472  14.182  0.8961  0.3458  0.9758
   20MPD2    N1  322   4.424   1.843  14.384  0.6119 -0.1350 -0.3556
   20MPD2    H7  323   4.366   1.766  14.413 -1.0135  1.4720  0.6886
   21TMC2    C1  324   1.769   3.020  14.299 -0.1532  0.9229 -0.3291
   21TMC2    C2  325   1.877   3.044  14.375 -0.4147 -0.4119 -0.1552
   21TMC2    C3  326   1.936   2.944  14.442  0.1852 -0.1226 -0.4494
   21TMC2    C4  327   1.720   2.891  14.296 -0.2254 -0.6837 -0.4439
   21TMC2    C5  328   1.777   2.790  14.374 -0.4011 -0.8217  0.3956
   21TMC2    C6  329   1.891   2.811  14.445 -0.7581 -0.0722 -0.2661
   21TMC2     C  330   1.711   3.131  14.222  0.2961  0.3926  0.1159
   21TMC2     O  331   1.791   3.198  14.159 -0.1912  0.0200 -0.3860
   21TMC2     H  332   1.915   3.145  14.385 -3.7359  0.7444  0.8994
   21TMC2    H1  333   1.626   2.876  14.244 -0.9878  1.0262  0.4401
   21TMC2    H2  334   1.931   2.748  14.524  0.5605 -0.8770 -1.5661
   21TMC2    C7  335   1.704   2.666  14.401 -0.0427 -0.5011 -0.0679
   21TMC2    C8  336   2.069   2.981  14.502 -0.0664 -0.7080 -0.2749
   21TMC2    O1  337   1.754   2.584  14.481  0.2461  0.4820  0.2967
   21TMC2    O2  338   2.111   3.095  14.504  0.0573  0.1615  0.5174
   21TMC2    O5  339   2.142   2.867  14.490 -0.3615 -0.3963  0.1331
   21TMC2    H5  340   2.086   2.787  14.483 -0.7927 -0.1001  0.1664
   22MPD2     C  341   1.260   2.921  14.357  0.3059 -0.3924 -0.2590
   22MPD2    C1  342   1.372   2.937  14.430 -0.1326  0.3836 -0.7971
   22MPD2    C2  343   1.472   3.016  14.384  0.2506 -0.4680 -0.2806
   22MPD2    C3  344   1.467   3.081  14.258  0.1793  0.5872  0.1257
   22MPD2    C4  345   1.346   3.074  14.193  0.0052  0.1144 -0.1743
   22MPD2    C5  346   1.249   2.992  14.244  0.3348  0.1899 -0.6785
   22MPD2     H  347   1.561   3.047  14.438 -0.8529  3.7497 -0.8869
   22MPD2    H1  348   1.324   3.106  14.092  0.5988  0.2581 -0.2554
   22MPD2    H2  349   1.186   2.848  14.388 -1.0026  1.1945  0.3605
   22MPD2    H3  350   1.159   2.974  14.186  1.5519  2.5361 -3.3316
   22MPD2     N  351   1.575   3.137  14.192 -0.4247 -0.3094  0.6033
   22MPD2    H5  352   1.542   3.203  14.122  1.3258 -0.7111 -0.5835
   22MPD2    N1  353   1.396   2.867  14.551 -0.2704 -0.2009  0.5653
   22MPD2    H7  354   1.490   2.868  14.590  0.1739  0.5862 -0.5312
   23TMC2    C1  355   2.822   3.013  14.457  0.3007 -0.1242  0.3593
   23TMC2    C2  356   2.937   2.989  14.387 -0.3924  0.0741  0.3408
   23TMC2    C3  357   2.929   2.910  14.275 -0.0924  0.1282  0.0103
   23TMC2    C4  358   2.707   2.960  14.416  0.9478 -0.1739  0.1037
   23TMC2    C5  359   2.702   2.871  14.315 -0.0976 -0.2781  0.0529
   23TMC2    C6  360   2.811   2.843  14.249  0.2390  0.1639  0.2195
   23TMC2     C  361   2.826   3.081  14.580 -0.0021  0.0354  0.1000
   23TMC2     O  362   2.932   3.086  14.639  0.1780  0.3704 -0.1380
   23TMC2     H  363   3.023   3.045  14.423  0.9450 -0.6342 -1.7277
   23TMC2    H1  364   2.627   2.951  14.489  0.6472 -3.3404 -0.6266
   23TMC2    H2  365   2.806   2.777  14.163 -3.1191  0.7340 -0.0495
   23TMC2    C7  366   2.596   2.786  14.287 -0.2884  0.2094  0.3076
   23TMC2    C8  367   3.042   2.906  14.181  0.5107  0.0568  0.1934
   23TMC2    O1  368   2.629   2.666  14.275  0.4348 -0.4205 -0.0646
   23TMC2    O2  369   3.063   2.816  14.101  0.3622  0.0301 -0.0180
   23TMC2    O5  370   3.118   3.020  14.199  0.3701 -0.5570 -0.1262
   23TMC2    H5  371   3.076   3.075  14.268 -2.6475 -0.7929 -1.7884
   24MPD2     C  372   2.584   3.354  14.945 -0.4903  1.0023  0.3491
   24MPD2    C1  373   2.693   3.262  14.949 -0.2750  0.6429  0.4171
   24MPD2    C2  374   2.735   3.196  14.837 -0.3261  0.2829 -0.1176
   24MPD2    C3  375   2.679   3.223  14.717  0.0589  1.3147  0.1511
   24MPD2    C4  376   2.575   3.310  14.717  0.2050  0.4508  0.0665
   24MPD2    C5  377   2.524   3.379  14.828  0.6457 -0.8155 -0.2843
   24MPD2     H  378   2.821   3.130  14.849 -0.4626 -0.0879 -1.1832
   24MPD2    H1  379   2.532   3.333  14.621 -1.5632 -2.2233  0.2006
   24MPD2    H2  380   2.548   3.398  15.037 -1.3449  0.7181  0.1559
   24MPD2    H3  381   2.442   3.451  14.829  3.5544  2.4637  2.1278
   24MPD2     N  382   2.706   3.146  14.599 -0.4752  0.1170 -0.0628
   24MPD2    H5  383   2.640   3.144  14.522  0.5456 -0.0026 -0.9332
   24MPD2    N1  384   2.765   3.236  15.067 -0.5108 -0.1871  0.3947
   24MPD2    H7  385   2.820   3.152  15.070  0.6685  0.6551  2.5436
   25TMC2    C1  386   1.457   0.886  11.304 -0.1924 -0.1505 -0.4199
   25TMC2    C2  387   1.352   0.974  11.312  0.5455 -0.3469 -0.5305
   25TMC2    C3  388   1.337   1.047  11.426  0.1891  0.1203  0.8705
   25TMC2    C4  389   1.550   0.878  11.402 -0.2551 -0.6135 -0.2318
   25TMC2    C5  390   1.533   0.962  11.513 -0.1482 -0.2026  0.2146
   25TMC2    C6  391   1.427   1.046  11.528  0.4313  0.0299 -0.5165
   25TMC2     C  392   1.481   0.815  11.181  0.4184  0.9690 -0.0512
   25TMC2     O  393   1.454   0.868  11.074 -0.4737 -0.5365  0.0932
   25TMC2     H  394   1.291   0.998  11.226  1.0560 -0.0598 -0.8100
   25TMC2    H1  395   1.639   0.817  11.385 -1.6506 -2.2442 -1.7364
   25TMC2    H2  396   1.409   1.125  11.601  2.4703  0.6922 -0.7417
   25TMC2    C7  397   1.626   0.930  11.625 -0.2626 -0.0326 -0.1302
   25TMC2    C8  398   1.231   1.147  11.425  0.4348 -0.0803 -0.0157
   25TMC2    O1  399   1.717   0.843  11.604  0.0173 -0.2146 -0.4064
   25TMC2    O2  400   1.197   1.206  11.324 -0.1251  0.3770  0.2169
   25TMC2    O5  401   1.146   1.105  11.517 -0.4442 -0.3865  0.0051
   25TMC2    H5  402   1.189   1.038  11.574 -2.6642 -0.5123  1.5040
   26MPD2     C  403   1.656   0.406  10.913  0.6542  0.3500 -0.3104
   26MPD2    C1  404   1.651   0.368  11.044  0.0718 -0.2992 -0.3124
   26MPD2    C2  405   1.611   0.470  11.133  0.1004 -0.3834 -0.4406
   26MPD2    C3  406   1.574   0.596  11.087 -0.0778  0.3934 -0.1113
   26MPD2    C4  407   1.562   0.628  10.954 -0.6005 -0.1326 -0.6491
   26MPD2    C5  408   1.603   0.527  10.873 -0.5327 -0.4778 -0.1721
   26MPD2     H  409   1.604   0.446  11.238 -2.4963 -0.8210 -0.6959
   26MPD2    H1  410   1.530   0.726  10.923 -3.0957 -0.8151 -0.2624
   26MPD2    H2  411   1.678   0.334  10.834 -0.8588  1.6114 -1.8625
   26MPD2    H3  412   1.591   0.543  10.767 -1.1516  1.4694  0.2054
   26MPD2     N  413   1.537   0.691  11.191  0.2569 -0.3772 -0.4595
   26MPD2    H5  414   1.546   0.660  11.288 -0.9048 -0.1812 -0.2943
   26MPD2    N1  415   1.707   0.245  11.082 -0.2029 -0.0214  0.0576
   26MPD2    H7  416   1.764   0.191  11.017 -1.2119  0.2151 -1.0115
   27TMC2    C1  417   0.465   2.811  11.720  0.1524 -0.1301  0.0209
   27TMC2    C2  418   0.352   2.785  11.649 -0.1388  0.2399  0.6271
   27TMC2    C3  419   0.321   2.888  11.561 -0.3650  0.1943 -0.6772
   27TMC2    C4  420   0.550   2.914  11.699  0.9234 -0.0132 -0.0723
   27TMC2    C5  421   0.499   3.023  11.627  0.0311  0.1725 -0.7307
   27TMC2    C6  422   0.388   3.004  11.552  0.7056  0.4345  0.5627
   27TMC2     C  423   0.467   2.783  11.864  0.0974  0.1451  0.3306
   27TMC2     O  424   0.576   2.759  11.911 -0.5873 -0.3089 -0.2315
   27TMC2     H  425   0.294   2.697  11.671 -3.4319  1.3206 -3.7822
   27TMC2    H1  426   0.625   2.935  11.776  0.8567 -0.9028  0.2346
   27TMC2    H2  427   0.368   3.086  11.484  0.3722 -1.4672 -1.6467
   27TMC2    C7  428   0.511   3.147  11.694  0.1816  0.4038 -0.4804
   27TMC2    C8  429   0.198   2.888  11.496  0.2141  0.2571  0.1103
   27TMC2    O1  430   0.609   3.164  11.765 -0.5403 -0.2055 -0.0431
   27TMC2    O2  431   0.131   2.992  11.485 -0.2378  0.2552  0.1160
   27TMC2    O5  432   0.193   2.770  11.435 -0.1727 -0.5254  0.3688
   27TMC2    H5  433   0.259   2.702  11.460 -0.5139 -0.7717  0.6112
   28MPD2     C  434   0.288   2.908  12.333  0.1851  0.1696 -1.4057
   28MPD2    C1  435   0.197   2.940  12.236 -0.6161  0.1222  0.1235
   28MPD2    C2  436   0.225   2.929  12.101 -0.3448  0.1498 -0.1515
   28MPD2    C3  437   0.340   2.863  12.059  0.7939  0.0850  0.4073
   28MPD2    C4  438   0.422   2.823  12.159  0.5312  0.4893 -0.0177
   28MPD2    C5  439   0.395   2.843  12.291 -0.7229  0.1306 -0.2706
   28MPD2     H  440   0.159   2.979  12.031 -0.6584  1.5730  1.1509
   28MPD2    H1  441   0.520   2.779  12.145 -0.0991 -0.3057 -1.9390
   28MPD2    H2  442   0.263   2.920  12.438  3.0379  1.0637 -0.8299
   28MPD2    H3  443   0.465   2.798  12.360 -1.2707 -0.9324 -0.4056
   28MPD2     N  444   0.354   2.834  11.918 -0.1253  0.1630 -0.3176
   28MPD2    H5  445   0.289   2.875  11.853 -0.2543  0.2995 -0.1021
   28MPD2    N1  446   0.086   3.001  12.280 -0.1711 -0.1338 -0.0342
   28MPD2    H7  447   0.074   3.037  12.374 -0.1637  1.3573 -0.6160
   29TMC2    C1  448   0.355   0.356  14.434 -0.3593  0.7644 -0.1790
   29TMC2    C2  449   0.344   0.374  14.571  0.6291  0.0231  0.1028
   29TMC2    C3  450   0.405   0.491  14.617  0.5533  0.4886  0.1372
   29TMC2    C4  451   0.417   0.440  14.343  0.0439 -1.0904 -1.0056
   29TMC2    C5  452   0.479   0.547  14.396 -0.3969 -0.9716 -0.9037
   29TMC2    C6  453   0.479   0.573  14.535 -0.3290 -0.3787 -0.1054
   29TMC2     C  454   0.293   0.239  14.385 -0.7872  0.2975  0.4098
   29TMC2     O  455   0.263   0.144  14.452  0.2142 -0.2267  0.5122
   29TMC2     H  456   0.288   0.308  14.636  1.9756  1.3283  2.5984
   29TMC2    H1  457   0.451   0.400  14.248  1.3881  1.3330 -1.5453
   29TMC2    H2  458   0.527   0.663  14.573 -0.4059 -0.1849 -0.4673
   29TMC2    C7  459   0.543   0.633  14.303  0.1692 -0.2077  0.1865
   29TMC2    C8  460   0.407   0.517  14.761 -0.0697 -0.6945  0.7163
   29TMC2    O1  461   0.508   0.618  14.188  0.2478 -0.2336 -0.5962
   29TMC2    O2  462   0.427   0.625  14.819  0.2277 -0.2820 -0.4274
   29TMC2    O5  463   0.398   0.394  14.821 -0.2911  0.4557  0.3543
   29TMC2    H5  464   0.415   0.322  14.756  0.3987  0.6902  0.2736
   30MPD2     C  465   4.696   0.009  14.072 -0.0583  0.0683  0.2898
   30MPD2    C1  466   0.056   4.685  14.160 -0.4140 -0.3018 -0.0835
   30MPD2    C2  467   0.153   0.037  14.214  0.3305 -0.2835  0.3500
   30MPD2    C3  468   0.150   0.174  14.195 -0.0263  0.3081 -0.4471
   30MPD2    C4  469   0.067   0.222  14.096 -0.5841 -0.1817  0.1569
   30MPD2    C5  470   4.701   0.142  14.040 -0.0438 -0.1070 -0.0001
   30MPD2     H  471   0.219   4.727  14.288 -2.4487 -1.0663  2.3819
   30MPD2    H1  472   0.073   0.329  14.079  1.1489 -0.0681  1.4657
   30MPD2    H2  473   4.620   4.682  14.026 -1.9797  1.9591  0.9165
   30MPD2    H3  474   4.626   0.179  13.971  0.3816  0.6612 -0.0555
   30MPD2     N  475   0.234   0.267  14.265 -0.0753  0.4300  0.4955
   30MPD2    H5  476   0.245   0.365  14.243  0.3332 -0.5116 -3.6149
   30MPD2    N1  477   0.070   4.544  14.175 -0.3524  0.2735 -1.3097
   30MPD2    H7  478   0.157   4.519  14.219 -0.2779 -1.0001 -2.1923
   31TMC2    C1  479   2.287   3.953  15.281 -0.0780 -0.2234 -0.2868
   31TMC2    C2  480   2.150   3.977  15.309  0.2352 -0.3014  0.0366
   31TMC2    C3  481   2.107   3.917  15.433 -0.0740 -0.5234  0.3767
   31TMC2    C4  482   2.373   3.883  15.364  0.6456 -1.4279 -0.0428
   31TMC2    C5  483   2.321   3.845  15.485  0.5934  0.0872  0.9202
   31TMC2    C6  484   2.190   3.859  15.521 -0.0973 -0.6098  0.1234
   31TMC2     C  485   2.348   4.037  15.183 -0.3425  0.2129 -0.2806
   31TMC2     O  486   2.283   4.138  15.156  0.5432  0.4968  0.3855
   31TMC2     H  487   2.090   4.049  15.255 -0.3904 -1.3774 -0.6820
   31TMC2    H1  488   2.480   3.887  15.354  0.7890 -1.0495  1.6854
   31TMC2    H2  489   2.142   3.821  15.610 -0.1568 -0.9436 -0.0468
   31TMC2    C7  490   2.425   3.823  15.583  0.4027 -0.2316 -0.3941
   31TMC2    C8  491   1.970   3.928  15.468  0.2054 -0.0835 -0.8242
   31TMC2    O1  492   2.539   3.787  15.549 -0.4055 -0.3706  0.1915
   31TMC2    O2  493   1.880   3.933  15.388 -0.1700  0.0042 -0.2815
   31TMC2    O5  494   1.976   4.014  15.573 -0.8384 -0.6243  0.3395
   31TMC2    H5  495   2.056   4.002  15.628 -0.2500  1.1632 -0.1185
   32MPD2     C  496   2.756   4.157  14.897 -0.4326 -0.2855  0.7756
   32MPD2    C1  497   2.645   4.231  14.914 -0.2561  0.3660  0.2298
   32MPD2    C2  498   2.542   4.190  15.005  0.3543 -0.3095  0.5121
   32MPD2    C3  499   2.557   4.066  15.068 -0.0767  0.4075  0.0109
   32MPD2    C4  500   2.676   4.000  15.049 -0.2542 -0.2214  0.5776
   32MPD2    C5  501   2.773   4.048  14.971 -0.0140  0.4517  0.8449
   32MPD2     H  502   2.446   4.239  15.016  0.8148  0.8833 -0.8015
   32MPD2    H1  503   2.696   3.912  15.109 -0.0771 -0.6480 -0.1014
   32MPD2    H2  504   2.841   4.189  14.837 -0.1396 -0.3529  1.1489
   32MPD2    H3  505   2.871   4.001  14.968 -0.2715 -0.0487  0.2176
   32MPD2     N  506   2.473   4.000  15.154 -0.1868 -0.2927  0.3053
   32MPD2    H5  507   2.497   3.910  15.195  1.8675 -0.8819 -2.1890
   32MPD2    N1  508   2.629   4.339  14.821  0.1628  0.0002 -0.4446
   32MPD2    H7  509   2.704   4.351  14.752  0.6843  1.0410  0.2955
   33TMC2    C1  510   3.046   2.575  10.303 -0.3596  0.2899  0.2892
   33TMC2    C2  511   2.923   2.613  10.250  0.3490 -0.4974  0.3015
   33TMC2    C3  512   2.915   2.632  10.115  0.3156  0.1238  0.0406
   33TMC2    C4  513   3.160   2.567  10.229  0.1234  0.2555  0.5953
   33TMC2    C5  514   3.147   2.586  10.099 -0.2058 -0.7042  0.2943
   33TMC2    C6  515   3.029   2.624  10.037 -0.2228 -0.5380 -0.0063
   33TMC2     C  516   3.049   2.556  10.445  0.0777 -0.3836  0.0281
   33TMC2     O  517   2.965   2.596  10.523 -0.3792 -0.4399  0.0315
   33TMC2     H  518   2.838   2.605  10.317 -0.0583 -0.6314 -0.2347
   33TMC2    H1  519   3.257   2.530  10.260 -0.7143 -1.1724  1.5395
   33TMC2    H2  520   3.041   2.649   9.932 -3.7223 -0.8738 -0.4893
   33TMC2    C7  521   3.278   2.598  10.037  0.0872  0.6950  0.0488
   33TMC2    C8  522   2.787   2.641  10.053  0.4557 -0.1330  0.9247
   33TMC2    O1  523   3.368   2.656  10.096  0.4509  0.5055  0.1706
   33TMC2    O2  524   2.765   2.624   9.932 -0.0579  0.6014 -0.1516
   33TMC2    O5  525   2.703   2.721  10.131  0.1484  0.7083  0.1179
   33TMC2    H5  526   2.733   2.736  10.223 -0.5148 -2.6424  0.8697
   34MPD2     C  527   3.330   2.425  10.856 -0.1852  0.5348  0.4766
   34MPD2    C1  528   3.381   2.359  10.744  0.3172  0.0861  0.0994
   34MPD2    C2  529   3.325   2.381  10.619  0.3473 -0.5190 -0.1583
   34MPD2    C3  530   3.216   2.464  10.611  0.4835 -0.1425 -0.0736
   34MPD2    C4  531   3.175   2.543  10.722  0.8233  0.2389 -0.4928
   34MPD2    C5  532   3.232   2.520  10.840 -0.3781 -0.4172 -0.1586
   34MPD2     H  533   3.366   2.334  10.530 -0.9294  0.2473 -1.1622
   34MPD2    H1  534   3.093   2.613  10.718  3.1511  3.0869  1.4278
   34MPD2    H2  535   3.349   2.402  10.960  0.7706 -0.2124  0.1353
   34MPD2    H3  536   3.193   2.571  10.928  0.0570 -0.0840 -0.1551
   34MPD2     N  537   3.157   2.481  10.485  0.2382  0.6205  0.2599
   34MPD2    H5  538   3.216   2.451  10.409 -0.6017  0.1896 -0.2261
   34MPD2    N1  539   3.476   2.256  10.776  0.0083  0.4133 -0.1354
   34MPD2    H7  540   3.499   2.260  10.874  1.2952  0.2544 -0.4323
   35TMC2    C1  541   3.534   3.097  11.047  0.6625  0.1254 -0.1425
   35TMC2    C2  542   3.451   3.076  10.941  1.2671 -0.5819 -0.2414
   35TMC2    C3  543   3.389   2.955  10.926  0.3737  0.0576  0.4738
   35TMC2    C4  544   3.551   2.992  11.139 -0.0743 -0.1255  0.4311
   35TMC2    C5  545   3.477   2.880  11.122  0.0519  0.2458  0.4524
   35TMC2    C6  546   3.394   2.856  11.021  0.3478 -0.8089  0.1276
   35TMC2     C  547   3.595   3.227  11.060 -0.1359  0.5202 -0.1486
   35TMC2     O  548   3.583   3.299  10.965 -0.3215 -1.1187 -0.2067
   35TMC2     H  549   3.432   3.162  10.878 -0.9288  1.4990  3.2280
   35TMC2    H1  550   3.626   2.985  11.217  0.6320 -0.0369 -0.2509
   35TMC2    H2  551   3.337   2.765  11.008  2.2585 -1.8941 -0.5057
   35TMC2    C7  552   3.502   2.779  11.214 -0.5552  0.6983  0.0388
   35TMC2    C8  553   3.287   2.948  10.810 -0.2087 -0.4063 -0.0093
   35TMC2    O1  554   3.486   2.673  11.163  0.3117 -0.1832  0.0744
   35TMC2    O2  555   3.173   2.918  10.825 -0.2203  0.1617  0.3205
   35TMC2    O5  556   3.342   2.998  10.696  0.3713 -0.6216 -0.1636
   35TMC2    H5  557   3.440   3.010  10.696  0.3744 -0.6434  0.0706
   36MPD2     C  558   3.876   3.571  11.330 -0.1553 -0.1662 -0.1627
   36MPD2    C1  559   3.875   3.446  11.389  0.7963 -0.3639 -0.0838
   36MPD2    C2  560   3.796   3.345  11.341 -0.2559  0.1264  0.0222
   36MPD2    C3  561   3.737   3.352  11.221  0.1111 -0.0601  0.2564
   36MPD2    C4  562   3.742   3.475  11.153 -0.0326 -0.0034 -0.2954
   36MPD2    C5  563   3.806   3.583  11.209  0.0113 -0.4068  0.3669
   36MPD2     H  564   3.793   3.249  11.392  0.3798  0.1784  0.1568
   36MPD2    H1  565   3.705   3.487  11.052 -1.1577  2.4345  0.4098
   36MPD2    H2  566   3.923   3.657  11.376  0.3001 -1.1616  1.2375
   36MPD2    H3  567   3.813   3.682  11.167  0.3810 -0.0739  1.2150
   36MPD2     N  568   3.659   3.244  11.178 -0.3061  0.7045  0.5107
   36MPD2    H5  569   3.661   3.164  11.241  4.4834  0.7160  0.4280
   36MPD2    N1  570   3.944   3.438  11.514 -0.6767 -0.3611  0.4161
   36MPD2    H7  571   3.988   3.524  11.543  0.3209 -2.2451  4.5412
   37TMC2    C1  572   0.752   3.526  12.147 -0.2941  0.0714  0.9633
   37TMC2    C2  573   0.632   3.579  12.182  0.4135 -0.5496 -0.2646
   37TMC2    C3  574   0.572   3.654  12.086 -0.0332 -0.2371  0.1440
   37TMC2    C4  575   0.808   3.562  12.029  0.2199  0.2982  0.3061
   37TMC2    C5  576   0.751   3.649  11.945 -0.2435  0.4677 -0.2485
   37TMC2    C6  577   0.625   3.692  11.968 -0.5008 -0.5870 -0.0005
   37TMC2     C  578   0.789   3.413  12.231 -0.1006  0.2845 -0.5992
   37TMC2     O  579   0.697   3.356  12.292 -0.5852  0.0453 -0.4137
   37TMC2     H  580   0.571   3.540  12.263  1.3583 -0.3993  0.5169
   37TMC2    H1  581   0.901   3.511  12.011  0.9269  1.1247  1.5982
   37TMC2    H2  582   0.573   3.760  11.901 -1.6231 -0.9245  0.5349
   37TMC2    C7  583   0.831   3.709  11.840  0.2571 -0.0781  0.2879
   37TMC2    C8  584   0.467   3.740  12.137 -0.2250 -0.4471 -0.1098
   37TMC2    O1  585   0.939   3.655  11.820  0.0036 -0.1895 -0.0007
   37TMC2    O2  586   0.398   3.795  12.051  0.2318 -0.2019  0.1261
   37TMC2    O5  587   0.541   3.811  12.223 -0.6906 -0.1274 -0.4229
   37TMC2    H5  588   0.568   3.753  12.298  1.2085  2.3202  0.7711
   38MPD2     C  589   1.136   3.099  12.431  0.2483  0.5021  0.2860
   38MPD2    C1  590   1.197   3.190  12.352  0.6492  0.1332  0.4649
   38MPD2    C2  591   1.125   3.289  12.283 -0.9995  0.1136 -0.5851
   38MPD2    C3  592   0.992   3.286  12.293  0.4770 -0.3793  0.0472
   38MPD2    C4  593   0.930   3.192  12.364  0.0575  0.9441  0.5837
   38MPD2    C5  594   1.000   3.094  12.427  0.6705 -0.2913 -0.0118
   38MPD2     H  595   1.178   3.364  12.225 -0.8986  0.2068 -0.3753
   38MPD2    H1  596   0.824   3.206  12.382  0.0285  0.3726  0.8827
   38MPD2    H2  597   1.194   3.021  12.478 -2.1700 -1.2201  0.4176
   38MPD2    H3  598   0.950   3.025  12.494  2.5610  0.9308  2.6487
   38MPD2     N  599   0.925   3.390  12.219 -0.5546 -0.6152 -0.2798
   38MPD2    H5  600   0.988   3.458  12.178  1.4381 -0.6281  2.6780
   38MPD2    N1  601   1.340   3.195  12.335  0.0008  0.8034 -0.2000
   38MPD2    H7  602   1.374   3.261  12.266  0.8611 -0.6175 -1.1264
   39TMC2    C1  603   0.387   4.304   1.309  0.4364  0.2316  1.0732
   39TMC2    C2  604   0.330   4.228   1.409 -0.2903  0.0602  0.1093
   39TMC2    C3  605   0.423   4.194   1.511 -0.4051 -0.0908  0.2365
   39TMC2    C4  606   0.529   4.317   1.295 -0.4276 -0.0865  0.3283
   39TMC2    C5  607   0.610   4.264   1.394  0.2210  0.5441  0.3149
   39TMC2    C6  608   0.557   4.207   1.505  0.3203 -0.0809  0.3770
   39TMC2     C  609   0.292   4.344   1.214  0.2571 -0.2493 -0.2807
   39TMC2     O  610   0.170   4.333   1.230 -0.4964 -0.4577 -0.6104
   39TMC2     H  611   0.223   4.213   1.413 -0.1512 -0.7335  0.8698
   39TMC2    H1  612   0.566   4.383   1.218 -2.4837  2.1060  1.2433
   39TMC2    H2  613   0.624   4.160   1.575  0.3716 -2.2912 -1.1640
   39TMC2    C7  614   0.752   4.304   1.400  0.0946  0.1466 -0.2772
   39TMC2    C8  615   0.379   4.118   1.623  0.6975  0.7859 -0.0263
   39TMC2    O1  616   0.809   4.254   1.496 -0.0032  0.0518  0.3132
   39TMC2    O2  617   0.436   4.028   1.687  0.0031 -1.3618  0.0071
   39TMC2    O5  618   0.250   4.154   1.649  0.6461  0.4378 -0.4781
   39TMC2    H5  619   0.234   4.232   1.592 -1.9332  0.7871  0.7517
   40MPD2     C  620   0.366   4.425   0.860 -0.1908 -0.1378  0.2377
   40MPD2    C1  621   0.292   4.431   0.982 -0.0380  0.0112 -0.1768
   40MPD2    C2  622   0.165   4.488   0.976 -0.1168  0.5238 -0.1565
   40MPD2    C3  623   0.111   4.533   0.855 -0.2888  0.3530 -1.1150
   40MPD2    C4  624   0.175   4.512   0.738 -0.6640  0.3064 -0.0678
   40MPD2    C5  625   0.304   4.467   0.743 -0.1678  0.1838 -0.4558
   40MPD2     H  626   0.117   4.495   1.073  1.0701  1.7604  0.3410
   40MPD2    H1  627   0.136   4.542   0.641 -1.6879  0.4531  0.3924
   40MPD2    H2  628   0.465   4.383   0.847 -0.8350 -1.1176 -1.3563
   40MPD2    H3  629   0.366   4.462   0.654  1.7114  0.5132  0.8516
   40MPD2     N  630   4.714   4.576   0.842 -0.1574  0.0549 -0.5623
   40MPD2    H5  631   4.683   4.615   0.754  1.3484 -1.4168 -1.7507
   40MPD2    N1  632   0.356   4.388   1.103 -0.1489 -0.2317 -0.1645
   40MPD2    H7  633   0.456   4.370   1.102 -0.1445 -0.2264  0.3455
   41TMC2    C1  634   3.870   2.549  13.985  0.2447  0.7813 -0.2280
   41TMC2    C2  635   3.763   2.482  13.929  0.9014 -0.5900 -0.2324
   41TMC2    C3  636   3.752   2.495  13.795  0.2207  0.0034  0.3544
   41TMC2    C4  637   3.970   2.604  13.908  0.5927  0.3311 -0.2102
   41TMC2    C5  638   3.965   2.587  13.771  0.0872  0.5431  0.9511
   41TMC2    C6  639   3.853   2.528  13.710 -0.7469  0.3475  0.4626
   41TMC2     C  640   3.898   2.530  14.120 -0.0344  0.4767 -0.0754
   41TMC2     O  641   3.835   2.437  14.177  0.6838 -0.3845 -0.3877
   41TMC2     H  642   3.690   2.433  13.992 -1.1837  1.8244 -0.7633
   41TMC2    H1  643   4.059   2.643  13.956 -0.1988  0.7851  0.9026
   41TMC2    H2  644   3.837   2.510  13.605 -0.4692 -0.2576  0.5284
   41TMC2    C7  645   4.047   2.682  13.699 -0.6141 -0.1256  0.6948
   41TMC2    C8  646   3.621   2.471  13.735 -0.2910 -0.3266 -0.1368
   41TMC2    O1  647   4.141   2.722  13.767 -0.1839  0.3956  0.2444
   41TMC2    O2  648   3.621   2.401  13.632  0.0029 -0.5646 -0.2075
   41TMC2    O5  649   3.532   2.483  13.830  0.3078 -0.0230  0.1270
   41TMC2    H5  650   3.565   2.543  13.900  0.8139 -0.6945  0.4722
   42MPD2     C  651   4.026   2.527  14.381 -0.1779 -0.5255 -0.1919
   42MPD2    C1  652   3.999   2.647  14.313 -0.0526 -0.1965 -0.1123
   42MPD2    C2  653   4.030   2.768  14.379 -0.1360 -0.2907 -0.1458
   42MPD2    C3  654   4.067   2.771  14.512 -0.1382  0.0580  0.3041
   42MPD2    C4  655   4.107   2.650  14.570 -0.0351 -0.2747 -0.5020
   42MPD2    C5  656   4.077   2.534  14.510  0.0723 -1.1137 -0.3061
   42MPD2     H  657   4.020   2.863  14.329 -1.9284 -0.1133  0.5849
   42MPD2    H1  658   4.149   2.655  14.670  0.1820 -1.5654 -0.5320
   42MPD2    H2  659   4.018   2.430  14.334  0.5193 -0.6507 -0.0499
   42MPD2    H3  660   4.112   2.442  14.554  1.3831  1.0153  3.0939
   42MPD2     N  661   4.104   2.892  14.584 -0.0911 -0.1723 -0.8262
   42MPD2    H5  662   4.165   2.884  14.664 -1.9628  0.5655  0.6619
   42MPD2    N1  663   3.960   2.641  14.179  0.3743  0.1469  0.3421
   42MPD2    H7  664   3.952   2.730  14.131 -2.7453  0.8608  2.1526
   43TMC2    C1  665   0.692   1.251   0.929  1.1514 -0.2827  0.0853
   43TMC2    C2  666   0.598   1.348   0.927  0.1606  0.3747  0.1415
   43TMC2    C3  667   0.583   1.426   1.039 -0.2639 -0.1961 -0.3638
   43TMC2    C4  668   0.779   1.240   1.033 -0.1975  0.0536  0.4725
   43TMC2    C5  669   0.770   1.325   1.138 -0.8802  0.3149  0.8982
   43TMC2    C6  670   0.672   1.421   1.144 -0.8438  0.1026 -0.2022
   43TMC2     C  671   0.695   1.147   0.835  0.4414  0.2158  0.7888
   43TMC2     O  672   0.781   1.064   0.841  0.5432  0.0439  0.7095
   43TMC2     H  673   0.529   1.355   0.843  2.2387  4.0314 -1.2881
   43TMC2    H1  674   0.861   1.168   1.028 -2.1015 -2.0394 -0.7848
   43TMC2    H2  675   0.663   1.482   1.233  3.0430 -0.7138  0.7787
   43TMC2    C7  676   0.897   1.338   1.216 -0.0893 -0.5486 -0.5663
   43TMC2    C8  677   0.461   1.504   1.038  0.0928  0.1637  0.2112
   43TMC2    O1  678   0.987   1.262   1.183  0.2691 -0.1499  1.1916
   43TMC2    O2  679   0.361   1.476   0.974  0.0167 -0.2398 -0.0881
   43TMC2    O5  680   0.473   1.600   1.131 -0.2239  0.1659 -0.6092
   43TMC2    H5  681   0.568   1.613   1.151 -0.7566  1.8119  0.8533
   44MPD2     C  682   0.555   0.858   0.435 -0.7647 -0.0726 -0.1000
   44MPD2    C1  683   0.679   0.901   0.482 -0.0039 -0.7981 -0.5852
   44MPD2    C2  684   0.692   0.995   0.590 -0.2795  0.7116  0.5774
   44MPD2    C3  685   0.579   1.047   0.642  0.4265 -0.0254  0.3323
   44MPD2    C4  686   0.455   1.002   0.598  0.6949  0.8421  0.0553
   44MPD2    C5  687   0.447   0.909   0.497  0.1483 -0.5400  0.2096
   44MPD2     H  688   0.786   1.032   0.631  0.4978  0.3538 -0.8808
   44MPD2    H1  689   0.361   1.043   0.633  1.0228  1.2423  0.4612
   44MPD2    H2  690   0.540   0.794   0.349 -0.8459  0.8874 -0.8014
   44MPD2    H3  691   0.350   0.878   0.461  0.2330 -1.1309  0.4908
   44MPD2     N  692   0.586   1.136   0.751  0.6370 -0.3611 -0.3670
   44MPD2    H5  693   0.500   1.187   0.767  0.2205 -1.9307  2.3716
   44MPD2    N1  694   0.790   0.853   0.407 -0.3125 -0.8404 -0.1520
   44MPD2    H7  695   0.786   0.774   0.344 -1.4254 -1.2464  0.4385
   45TMC2    C1  696   0.538   4.209   9.517 -0.4866 -0.1576 -0.2896
   45TMC2    C2  697   0.486   4.330   9.538 -0.5471  0.4876  0.6953
   45TMC2    C3  698   0.564   4.408   9.615  0.0535 -0.7518  0.4496
   45TMC2    C4  699   0.662   4.170   9.569 -0.7963  0.9946 -0.1778
   45TMC2    C5  700   0.731   4.262   9.648 -0.5007  0.6847 -0.2754
   45TMC2    C6  701   0.682   4.386   9.671  0.2168  0.5930 -0.2059
   45TMC2     C  702   0.493   4.130   9.412  0.5691  0.6816 -0.3617
   45TMC2     O  703   0.577   4.068   9.347  0.1302  0.5575 -0.4131
   45TMC2     H  704   0.393   4.362   9.492 -1.7660 -2.6222  0.9975
   45TMC2    H1  705   0.701   4.072   9.543  1.2286  1.7061  0.1872
   45TMC2    H2  706   0.730   4.462   9.733  1.6224  0.5348 -1.2314
   45TMC2    C7  707   0.849   4.220   9.721  0.0354 -0.3680  0.7422
   45TMC2    C8  708   0.507   4.540   9.642  0.3675  0.1451 -0.4645
   45TMC2    O1  709   0.902   4.302   9.791 -0.5654 -0.1179  0.1759
   45TMC2    O2  710   0.395   4.564   9.636  0.1386 -0.2823  0.1082
   45TMC2    O5  711   0.598   4.620   9.589 -0.0293 -0.2644 -0.2434
   45TMC2    H5  712   0.692   4.596   9.575 -0.0365 -0.5930  0.2775
   46MPD2     C  713   0.340   4.022   9.189 -0.5089  0.0142  0.0990
   46MPD2    C1  714   0.285   4.038   9.318 -0.2785  0.0769 -0.5218
   46MPD2    C2  715   0.155   4.002   9.336 -0.9020  0.2009  0.9069
   46MPD2    C3  716   0.083   3.943   9.240 -0.2208 -0.0500  0.7098
   46MPD2    C4  717   0.133   3.929   9.113  0.1724  0.0843 -0.1518
   46MPD2    C5  718   0.259   3.974   9.089 -0.3208 -0.5894 -0.3824
   46MPD2     H  719   0.114   4.011   9.436  0.0209 -0.3265  1.3411
   46MPD2    H1  720   0.087   3.883   9.026 -2.0027 -0.6967  1.4074
   46MPD2    H2  721   0.438   4.059   9.162 -1.0279  1.2287 -0.1466
   46MPD2    H3  722   0.293   3.971   8.986  0.7238 -2.3589  0.0123
   46MPD2     N  723   4.686   3.896   9.272 -0.1598  0.7384  0.1069
   46MPD2    H5  724   4.649   3.922   9.362  0.1214  0.0108  0.4348
   46MPD2    N1  725   0.358   4.097   9.423 -0.3145  0.9820 -0.4265
   46MPD2    H7  726   0.316   4.129   9.510  0.0765  1.7196 -0.5078
   47TMC2    C1  727   3.416   4.323   9.232  0.2889  0.2538  0.1059
   47TMC2    C2  728   3.296   4.377   9.217  0.5242  0.6103 -1.1710
   47TMC2    C3  729   3.231   4.344   9.102 -0.4575  0.0234  0.1469
   47TMC2    C4  730   3.466   4.214   9.154 -0.2021 -0.1515  0.0847
   47TMC2    C5  731   3.383   4.179   9.047 -0.1179 -0.6807 -0.5341
   47TMC2    C6  732   3.266   4.239   9.021 -0.1023  0.0763  0.0955
   47TMC2     C  733   3.496   4.366   9.342  0.2100 -0.4755  0.1123
   47TMC2     O  734   3.468   4.478   9.386 -0.4563 -0.4521  0.4677
   47TMC2     H  735   3.260   4.457   9.281  0.1887 -1.7076  1.5218
   47TMC2    H1  736   3.559   4.164   9.175 -0.0035 -0.6700 -1.9907
   47TMC2    H2  737   3.202   4.231   8.934 -1.7711 -1.2831  1.4631
   47TMC2    C7  738   3.435   4.083   8.955  0.1266 -0.1033 -0.1298
   47TMC2    C8  739   3.099   4.402   9.080  0.0274 -0.1180 -0.2612
   47TMC2    O1  740   3.558   4.080   8.958  0.0861 -0.6009  0.3334
   47TMC2    O2  741   3.051   4.389   8.969 -0.0097  0.6241  0.0783
   47TMC2    O5  742   3.045   4.459   9.188 -0.0798 -0.4842  0.1107
   47TMC2    H5  743   3.107   4.464   9.264  0.1814  1.7732 -0.2676
   48MPD2     C  744   3.652   4.378   9.601  0.1097 -0.3038 -0.1045
   48MPD2    C1  745   3.652   4.270   9.511 -0.3695  0.6133  0.0351
   48MPD2    C2  746   3.730   4.168   9.554 -0.4993  0.2495  0.7382
   48MPD2    C3  747   3.798   4.162   9.673 -0.1780  1.0649  0.0787
   48MPD2    C4  748   3.790   4.270   9.759  0.4371  0.2973 -0.1406
   48MPD2    C5  749   3.720   4.376   9.720  0.0568  0.2104  0.6473
   48MPD2     H  750   3.740   4.073   9.504  1.4135  0.0863  1.4295
   48MPD2    H1  751   3.848   4.276   9.850  0.2111  0.1260  0.0125
   48MPD2    H2  752   3.592   4.466   9.582  3.5432  1.7942 -1.1558
   48MPD2    H3  753   3.715   4.463   9.785  0.3764  1.0512 -0.4610
   48MPD2     N  754   3.881   4.051   9.700 -0.3360 -0.1716 -0.4976
   48MPD2    H5  755   3.868   3.973   9.636  0.8711  0.1393 -1.1113
   48MPD2    N1  756   3.577   4.266   9.389  0.9126 -0.5694 -0.4227
   48MPD2    H7  757   3.576   4.181   9.334  1.1159 -1.2972  0.7012
   49TMC2    C1  758   2.407   1.866  10.161 -0.3424 -0.5189 -0.4937
   49TMC2    C2  759   2.526   1.911  10.107  0.2441 -0.8179 -0.1280
   49TMC2    C3  760   2.545   2.044  10.124  0.4465  0.6838  0.2678
   49TMC2    C4  761   2.330   1.942  10.242 -0.2493  0.8582  0.5168
   49TMC2    C5  762   2.367   2.074  10.265 -0.0162  0.0483 -0.0123
   49TMC2    C6  763   2.464   2.129  10.196  0.6104 -0.8076 -0.2188
   49TMC2     C  764   2.372   1.730  10.141 -0.4576  0.3732  0.3902
   49TMC2     O  765   2.452   1.672  10.062  0.0245 -0.3769 -0.2636
   49TMC2     H  766   2.597   1.843  10.060  1.1622  0.1255 -0.1068
   49TMC2    H1  767   2.262   1.891  10.309 -2.3285  2.4118 -0.3844
   49TMC2    H2  768   2.486   2.235  10.202  0.7160 -0.9450  2.1319
   49TMC2    C7  769   2.271   2.153  10.337 -0.0094 -1.5320  0.0367
   49TMC2    C8  770   2.657   2.106  10.049 -0.4775  0.2344  0.2137
   49TMC2    O1  771   2.187   2.087  10.393 -0.3477  0.0782  0.5914
   49TMC2    O2  772   2.675   2.225  10.038  0.1569 -0.0144 -0.1497
   49TMC2    O5  773   2.674   2.034   9.943 -0.1132  0.0283  0.0514
   49TMC2    H5  774   2.642   1.943   9.960  0.6103  0.0231  1.3652
   50MPD2     C  775   2.313   1.440  10.160  0.2702 -0.2013  0.1953
   50MPD2    C1  776   2.240   1.541  10.223 -0.2863 -0.4328  0.2390
   50MPD2    C2  777   2.143   1.503  10.312 -0.8206 -1.1635  0.0532
   50MPD2    C3  778   2.103   1.370  10.335  0.1524  0.2782  0.1700
   50MPD2    C4  779   2.183   1.275  10.278 -0.5070 -0.6069  0.2138
   50MPD2    C5  780   2.279   1.309  10.186  0.2350 -0.7897  0.1631
   50MPD2     H  781   2.085   1.582  10.358 -2.2274 -0.1537 -3.4376
   50MPD2    H1  782   2.159   1.172  10.299 -0.2966 -1.2434 -2.7035
   50MPD2    H2  783   2.401   1.463  10.101 -0.8962 -0.5937 -1.6832
   50MPD2    H3  784   2.350   1.238  10.146  0.6797  0.0720 -0.5706
   50MPD2     N  785   2.004   1.322  10.430 -0.0796  0.4443 -0.6351
   50MPD2    H5  786   2.007   1.228  10.469 -2.5503  0.5472 -0.1917
   50MPD2    N1  787   2.275   1.676  10.213  0.3323  0.5595 -0.4916
   50MPD2    H7  788   2.218   1.738  10.269  1.2828  0.4485  0.5999
   51TMC2    C1  789   2.094   0.514   1.386  0.0250 -0.0202  0.4023
   51TMC2    C2  790   1.997   0.609   1.363  0.6536 -1.3685 -0.1246
   51TMC2    C3  791   2.028   0.712   1.278 -0.2833 -0.3833  0.0319
   51TMC2    C4  792   2.225   0.537   1.356  0.5057 -0.5072 -0.5825
   51TMC2    C5  793   2.255   0.648   1.282 -0.0186 -1.1961  0.1574
   51TMC2    C6  794   2.156   0.739   1.243  0.2451  0.2781 -0.5180
   51TMC2     C  795   2.060   0.385   1.442  0.0541 -0.2125 -0.1941
   51TMC2     O  796   2.143   0.293   1.425 -0.1335  0.2311  0.3413
   51TMC2     H  797   1.892   0.594   1.388  0.0852  0.9950 -1.0469
   51TMC2    H1  798   2.304   0.465   1.375  1.0179 -0.1475 -1.3181
   51TMC2    H2  799   2.172   0.827   1.181 -0.1508  1.7368  1.4448
   51TMC2    C7  800   2.383   0.656   1.211  0.0431  0.1933 -0.1013
   51TMC2    C8  801   1.924   0.775   1.206 -1.2595 -0.2659  0.3696
   51TMC2    O1  802   2.387   0.733   1.118 -0.0645 -0.1226  0.5295
   51TMC2    O2  803   1.956   0.818   1.094 -0.4982  0.4899  0.4828
   51TMC2    O5  804   1.804   0.765   1.268 -0.3414  0.4467 -0.0616
   51TMC2    H5  805   1.812   0.771   1.365  2.3272  0.6516 -0.3083
   52MPD2     C  806   1.766   0.061   1.702  0.1915 -0.3545 -0.7338
   52MPD2    C1  807   1.885   0.035   1.638  0.2234  0.2953  0.3090
   52MPD2    C2  808   1.942   0.140   1.579 -0.6047 -0.4110  0.1837
   52MPD2    C3  809   1.879   0.265   1.578 -0.3928  0.5377  0.2407
   52MPD2    C4  810   1.762   0.289   1.638 -0.6642 -0.2235  0.0074
   52MPD2    C5  811   1.710   0.184   1.703  0.2034 -0.3192 -0.2874
   52MPD2     H  812   2.035   0.115   1.529  0.7030  1.5253  1.6526
   52MPD2    H1  813   1.704   0.381   1.635  0.8175  0.7112 -0.0616
   52MPD2    H2  814   1.706   4.713   1.739  1.1197 -0.2638  0.9738
   52MPD2    H3  815   1.620   0.203   1.761  0.5763  3.1276 -0.8218
   52MPD2     N  816   1.941   0.379   1.512 -0.5346 -0.5720  0.3184
   52MPD2    H5  817   1.887   0.464   1.517 -0.2101 -0.4662  2.1311
   52MPD2    N1  818   1.953   4.640   1.639 -0.4010 -0.7798 -0.1390
   52MPD2    H7  819   2.041   4.637   1.587  1.2377 -0.0736  2.6194
   53TMC2    C1  820   1.304   3.869  11.302  0.3566  0.5565  0.2659
   53TMC2    C2  821   1.369   3.876  11.181 -0.3595 -0.7180  0.2808
   53TMC2    C3  822   1.493   3.807  11.154  0.3286  0.2037  0.2818
   53TMC2    C4  823   1.373   3.807  11.407  0.1465 -0.4215  0.5331
   53TMC2    C5  824   1.480   3.726  11.378  0.6017  0.3697 -0.5392
   53TMC2    C6  825   1.539   3.711  11.248 -0.0565  0.5734  0.5940
   53TMC2     C  826   1.166   3.912  11.318 -0.2512 -0.0310  0.1766
   53TMC2     O  827   1.136   4.002  11.243  0.0488  0.0312  0.7786
   53TMC2     H  828   1.311   3.923  11.102  0.3441 -0.8043 -0.2870
   53TMC2    H1  829   1.337   3.805  11.509 -0.2481  0.6515  0.4123
   53TMC2    H2  830   1.632   3.656  11.234 -0.9342 -0.5186 -0.8935
   53TMC2    C7  831   1.554   3.701  11.503  0.2525  0.7023 -0.1385
   53TMC2    C8  832   1.493   3.760  11.017  0.0887  0.0884  0.2636
   53TMC2    O1  833   1.545   3.771  11.604 -0.6694 -0.3417  0.3238
   53TMC2    O2  834   1.378   3.739  10.980 -0.4048  0.1228  0.1376
   53TMC2    O5  835   1.597   3.677  10.999  0.1345 -0.1962  0.5779
   53TMC2    H5  836   1.672   3.720  11.046 -0.3963 -0.2243  1.4427
   54MPD2     C  837   0.909   4.008  11.430  0.0403 -0.3983 -0.3614
   54MPD2    C1  838   0.988   3.915  11.493 -0.4118  0.1532  0.0474
   54MPD2    C2  839   0.936   3.849  11.603 -0.6958  0.1634  0.1238
   54MPD2    C3  840   0.819   3.869  11.657  0.1868  0.0569 -0.1901
   54MPD2    C4  841   0.735   3.954  11.592  0.2515  0.7856 -0.1992
   54MPD2    C5  842   0.785   4.023  11.479 -0.6156  0.2954  0.2237
   54MPD2     H  843   1.008   3.777  11.641 -0.8235  0.4890  0.9841
   54MPD2    H1  844   0.640   3.984  11.635  0.3640  0.8508  0.0027
   54MPD2    H2  845   0.943   4.073  11.350 -2.0954  0.0160 -0.9382
   54MPD2    H3  846   0.722   4.088  11.419 -0.5680  1.1640  1.1178
   54MPD2     N  847   0.761   3.806  11.767 -0.3860 -0.2168 -0.4412
   54MPD2    H5  848   0.669   3.833  11.801 -1.8018 -1.4076 -3.2899
   54MPD2    N1  849   1.115   3.875  11.443  0.1242 -0.3394 -0.4541
   54MPD2    H7  850   1.163   3.799  11.490  0.0221 -0.2942 -0.2783
   55TMC2    C1  851   3.549   2.211   0.064  0.1785  0.4844 -0.0273
   55TMC2    C2  852   3.625   2.310   0.013  0.6809  0.5610  0.5031
   55TMC2    C3  853   3.746   2.342   0.074  0.9237 -0.3705  0.5319
   55TMC2    C4  854   3.586   2.133   0.167  1.4328 -0.2525 -0.1108
   55TMC2    C5  855   3.694   2.173   0.240  0.2781  0.1743  0.3661
   55TMC2    C6  856   3.780   2.269   0.188  0.2007 -0.8737  1.0634
   55TMC2     C  857   3.417   2.192   0.029 -0.5264 -0.0312 -0.8164
   55TMC2     O  858   3.347   2.133   0.109 -0.6728  0.5592 -0.1181
   55TMC2     H  859   3.580   2.377  17.677  1.5045 -3.2855 -3.5114
   55TMC2    H1  860   3.516   2.057   0.201 -0.3506  1.2496 -0.4206
   55TMC2    H2  861   3.863   2.296   0.254  0.5725 -0.5545  0.4640
   55TMC2    C7  862   3.724   2.107   0.364 -0.2501 -0.3590  0.6798
   55TMC2    C8  863   3.827   2.434   0.014  0.3749 -0.8103 -0.8379
   55TMC2    O1  864   3.838   2.132   0.406 -0.2853  0.7300 -0.0176
   55TMC2    O2  865   3.781   2.514  17.671 -0.0894  0.0394  0.1096
   55TMC2    O5  866   3.932   2.458   0.098  0.3747 -0.7337  0.4178
   55TMC2    H5  867   3.991   2.382   0.119  1.0255 -0.9540 -2.2621
   56MPD2     C  868   3.285   2.188  17.427 -0.2889 -0.0082 -0.4474
   56MPD2    C1  869   3.282   2.205  17.567  0.1082  0.2206  0.0283
   56MPD2    C2  870   3.164   2.209  17.636 -0.0606 -0.3287  0.3370
   56MPD2    C3  871   3.043   2.199  17.570  0.0679  0.6219  0.6423
   56MPD2    C4  872   3.038   2.187  17.433 -0.1740  0.4712  0.1391
   56MPD2    C5  873   3.162   2.188  17.373  0.0521  0.3315  0.4126
   56MPD2     H  874   3.162   2.212   0.007 -2.3221 -2.9069  0.3757
   56MPD2    H1  875   2.950   2.191  17.371 -0.1381  2.0902  0.1804
   56MPD2    H2  876   3.371   2.206  17.363 -0.8749 -0.6482 -1.4127
   56MPD2    H3  877   3.158   2.176  17.265 -1.2341 -1.6821  0.6864
   56MPD2     N  878   2.931   2.189  17.655 -0.6096  0.0389 -0.3096
   56MPD2    H5  879   2.958   2.177   0.015  0.2677 -0.9938 -0.6775
   56MPD2    N1  880   3.405   2.205  17.633  0.1057 -0.4234  0.4632
   56MPD2    H7  881   3.483   2.229  17.573 -0.6174 -0.5018 -0.5003
   57TMC2    C1  882   2.284   1.707  13.899  0.3701 -0.3232  0.0414
   57TMC2    C2  883   2.376   1.744  13.990 -0.0523 -0.3696  0.7761
   57TMC2    C3  884   2.507   1.760  13.947 -0.8645 -1.0008  0.3021
   57TMC2    C4  885   2.315   1.667  13.773 -0.6129  0.1239 -0.1815
   57TMC2    C5  886   2.446   1.672  13.736 -0.4448  0.2795  0.6438
   57TMC2    C6  887   2.542   1.719  13.826  0.0260 -0.3695 -0.7749
   57TMC2     C  888   2.149   1.745  13.925 -0.6482  0.1998 -0.3598
   57TMC2     O  889   2.086   1.786  13.825 -0.1362  0.7532  0.0624
   57TMC2     H  890   2.353   1.768  14.093  0.6635  1.4302  0.5178
   57TMC2    H1  891   2.229   1.650  13.708  1.1114 -1.4072 -2.0451
   57TMC2    H2  892   2.642   1.729  13.786 -0.2566  1.9879 -0.9034
   57TMC2    C7  893   2.475   1.600  13.614  0.2604 -0.0446  0.2177
   57TMC2    C8  894   2.610   1.811  14.038 -0.2396  0.3025  0.0400
   57TMC2    O1  895   2.381   1.571  13.538  0.5837  0.0667  0.1993
   57TMC2    O2  896   2.582   1.822  14.155 -0.2854 -0.1358 -0.3685
   57TMC2    O5  897   2.674   1.916  13.979 -0.2629  0.0068  0.1532
   57TMC2    H5  898   2.639   1.929  13.888  0.3595  0.7227  0.0163
   58MPD2     C  899   1.750   1.848  14.238 -1.1633  1.1932  0.4103
   58MPD2    C1  900   1.765   1.860  14.102  0.3448  0.0712  0.3380
   58MPD2    C2  901   1.878   1.819  14.037 -0.8333 -0.4215 -0.2208
   58MPD2    C3  902   1.984   1.764  14.113 -0.5172 -0.6110 -0.0475
   58MPD2    C4  903   1.968   1.755  14.250 -0.1940  0.6005 -0.0155
   58MPD2    C5  904   1.857   1.802  14.314 -0.3656 -0.0596 -0.0762
   58MPD2     H  905   1.898   1.839  13.932  2.3950  0.4444  0.5475
   58MPD2    H1  906   2.059   1.729  14.302 -0.8468 -0.7026  0.4805
   58MPD2    H2  907   1.661   1.888  14.287 -0.8770  1.2994  0.8417
   58MPD2    H3  908   1.853   1.784  14.421 -0.7584 -1.7919 -0.3745
   58MPD2     N  909   2.112   1.733  14.054 -0.1312  0.4355 -0.1007
   58MPD2    H5  910   2.185   1.691  14.111  1.8385 -0.5488 -3.3429
   58MPD2    N1  911   1.664   1.928  14.026  0.5564  0.3451  0.4097
   58MPD2    H7  912   1.684   1.928  13.926 -1.8809  4.1336 -0.0842
   59TMC2    C1  913   0.099   2.605  12.254 -0.1081  0.5029  0.1857
   59TMC2    C2  914   0.209   2.522  12.254  0.0820 -0.1538  0.1727
   59TMC2    C3  915   0.261   2.490  12.130 -0.8643  0.2401  0.3696
   59TMC2    C4  916   0.036   2.642  12.139 -0.4535  0.0348 -0.2810
   59TMC2    C5  917   0.099   2.619  12.019  0.4005  0.1056  0.0351
   59TMC2    C6  918   0.210   2.536  12.017  0.7537  0.1681  0.3248
   59TMC2     C  919   0.039   2.656  12.376 -0.0857 -0.3071 -0.2833
   59TMC2     O  920   4.661   2.695  12.365 -0.1816  0.3243 -0.3146
   59TMC2     H  921   0.263   2.497  12.345  1.0231  0.9816 -0.0835
   59TMC2    H1  922   4.673   2.691  12.142 -0.2406  0.3263  1.7734
   59TMC2    H2  923   0.250   2.520  11.917  0.8828  1.7236  0.1294
   59TMC2    C7  924   0.049   2.652  11.884 -0.4407  0.5977 -0.0548
   59TMC2    C8  925   0.406   2.452  12.125 -0.8057  0.6096  0.3068
   59TMC2    O1  926   0.109   2.616  11.783 -0.1838 -0.1081 -0.0283
   59TMC2    O2  927   0.481   2.499  12.206  0.0861  0.2688  0.1589
   59TMC2    O5  928   0.439   2.405  12.002 -0.5792 -0.2554 -0.4510
   59TMC2    H5  929   0.372   2.358  11.948  0.5932 -0.4735 -1.7117
   60MPD2     C  930   4.692   2.684  12.658  0.2708  0.4184 -0.4206
   60MPD2    C1  931   0.091   2.666  12.621  0.2960  0.7479  0.1656
   60MPD2    C2  932   0.189   2.656  12.719  0.0938 -0.9599  0.3653
   60MPD2    C3  933   0.149   2.654  12.848  0.3327 -0.3696 -0.5028
   60MPD2    C4  934   0.019   2.685  12.885 -0.0517  0.3781 -0.1145
   60MPD2    C5  935   4.657   2.699  12.792  0.1378  0.5432 -0.8259
   60MPD2     H  936   0.294   2.646  12.696 -0.4743  0.3396 -2.8590
   60MPD2    H1  937   4.719   2.692  12.988  2.0373  0.6263  0.5630
   60MPD2    H2  938   4.615   2.694  12.583  0.1822  0.3964 -0.3319
   60MPD2    H3  939   4.561   2.734  12.826 -0.1657 -1.8707  0.8413
   60MPD2     N  940   0.259   2.625  12.941  0.1883 -0.1060 -0.2904
   60MPD2    H5  941   0.354   2.620  12.905  1.0665  1.2420  1.8280
   60MPD2    N1  942   0.125   2.648  12.483 -0.0582 -0.2565 -0.2485
   60MPD2    H7  943   0.219   2.613  12.471  0.1531  0.3490 -0.3686
   61TMC2    C1  944   4.224   3.847  16.150 -0.0113 -0.5383  0.1667
   61TMC2    C2  945   4.305   3.790  16.242  0.4961 -0.3720  0.4479
   61TMC2    C3  946   4.398   3.877  16.302  0.9659  0.2497 -0.2227
   61TMC2    C4  947   4.229   3.983  16.124 -0.5893  0.3862 -0.5086
   61TMC2    C5  948   4.333   4.063  16.175 -0.1632 -0.2885  0.1299
   61TMC2    C6  949   4.419   4.008  16.268 -0.6889 -0.2948 -0.4801
   61TMC2     C  950   4.192   3.763  16.030 -0.2870  0.0659  0.5015
   61TMC2     O  951   4.205   3.643  16.046  0.1768 -0.0443  0.2026
   61TMC2     H  952   4.304   3.683  16.259  2.6027 -0.2863  1.1469
   61TMC2    H1  953   4.146   4.029  16.072 -0.3808  0.5971 -0.6563
   61TMC2    H2  954   4.513   4.057  16.290 -3.0903  3.4552  1.3339
   61TMC2    C7  955   4.381   4.180  16.102  0.9187  0.5568  0.5288
   61TMC2    C8  956   4.473   3.814  16.415  0.0997  0.0071 -0.2496
   61TMC2    O1  957   4.482   4.236  16.158 -0.2346 -0.6907 -0.8205
   61TMC2    O2  958   4.483   3.697  16.439 -0.0414 -0.5293  0.1323
   61TMC2    O5  959   4.485   3.913  16.506  0.2571  0.3564 -0.2418
   61TMC2    H5  960   4.446   3.997  16.471 -0.5685 -0.0348 -0.2552
   62MPD2     C  961   4.161   3.650  15.751  0.2717 -0.0677 -0.1052
   62MPD2    C1  962   4.186   3.781  15.787  0.2392 -0.0277  0.2319
   62MPD2    C2  963   4.206   3.879  15.687  0.3268  0.5477  0.0129
   62MPD2    C3  964   4.206   3.851  15.548 -0.1449  0.1721 -0.0803
   62MPD2    C4  965   4.186   3.720  15.519  0.1227  0.2475 -0.0219
   62MPD2    C5  966   4.153   3.628  15.616 -0.1160 -0.5619  0.1542
   62MPD2     H  967   4.210   3.984  15.715  1.8753  0.3722  0.4655
   62MPD2    H1  968   4.177   3.691  15.414  0.7704  1.1426 -0.3212
   62MPD2    H2  969   4.132   3.580  15.829 -3.5147  0.5511 -0.9869
   62MPD2    H3  970   4.127   3.529  15.579  1.1085 -0.5502 -0.7313
   62MPD2     N  971   4.237   3.951  15.448  0.5840 -0.2866 -0.0006
   62MPD2    H5  972   4.221   3.931  15.350  1.4927  0.8799 -0.3840
   62MPD2    N1  973   4.184   3.834  15.921 -0.0819 -0.3727  0.0500
   62MPD2    H7  974   4.191   3.935  15.923 -0.7535 -0.3382  0.5295
   63TMC2    C1  975   3.864   4.086  10.836  0.0633  0.4266 -0.8129
   63TMC2    C2  976   3.919   4.165  10.942  0.4825  0.1089 -0.2784
   63TMC2    C3  977   3.929   4.297  10.927 -1.0115 -0.3075  0.3824
   63TMC2    C4  978   3.820   4.147  10.719  0.4732 -0.1410 -0.3963
   63TMC2    C5  979   3.840   4.280  10.711 -0.2729 -0.3458  0.4037
   63TMC2    C6  980   3.904   4.354  10.810 -0.2079 -0.7154 -0.3961
   63TMC2     C  981   3.776   3.985  10.886  0.6323  0.4806  0.2234
   63TMC2     O  982   3.756   3.990  11.007  0.3764  0.3303 -0.2385
   63TMC2     H  983   3.940   4.131  11.043  0.6983  0.1995 -0.2947
   63TMC2    H1  984   3.781   4.091  10.634  1.5116 -0.0681 -0.9142
   63TMC2    H2  985   3.898   4.462  10.811 -0.0786 -0.7079 -0.3628
   63TMC2    C7  986   3.803   4.351  10.593  0.7905  0.3226  0.3094
   63TMC2    C8  987   3.930   4.369  11.052 -0.4968 -0.1883 -0.8087
   63TMC2    O1  988   3.696   4.319  10.542 -0.5200 -0.4011  0.2424
   63TMC2    O2  989   4.019   4.353  11.133  0.6780 -0.4148 -0.6318
   63TMC2    O5  990   3.801   4.389  11.087 -0.1414  0.3337  0.1826
   63TMC2    H5  991   3.738   4.384  11.011 -1.6276  0.6342  1.3833
   64MPD2     C  992   3.461   3.584  10.863  0.2384 -0.1912  0.1137
   64MPD2    C1  993   3.498   3.615  10.735 -0.3211 -1.1333  1.0918
   64MPD2    C2  994   3.581   3.720  10.715 -0.1693 -0.0742 -0.1110
   64MPD2    C3  995   3.633   3.793  10.824  0.6200  0.5324 -0.4381
   64MPD2    C4  996   3.593   3.760  10.952  0.5424 -0.3650 -0.6062
   64MPD2    C5  997   3.513   3.656  10.969  0.6236 -0.2739  0.3019
   64MPD2     H  998   3.601   3.743  10.611 -1.1618 -0.6021 -0.4183
   64MPD2    H1  999   3.640   3.793  11.044  0.8458  0.6253 -1.1159
   64MPD2    H2 1000   3.397   3.498  10.874  1.7386 -1.2703  0.4152
   64MPD2    H3 1001   3.489   3.613  11.066  1.6128 -1.2638  0.1161
   64MPD2     N 1002   3.730   3.897  10.795  0.0431  0.4312 -0.3795
   64MPD2    H5 1003   3.763   3.901  10.699 -1.3558  0.1142 -0.8711
   64MPD2    N1 1004   3.447   3.547  10.622 -0.6086  0.5048 -0.0738
   64MPD2    H7 1005   3.496   3.568  10.535 -2.2853  1.7351 -0.7071
   65TMC2    C1 1006   0.446   3.269  15.859 -0.3105 -0.0468  1.0704
   65TMC2    C2 1007   0.539   3.316  15.951 -0.2658 -0.0564 -0.0864
   65TMC2    C3 1008   0.526   3.444  15.982  0.2161  0.4294 -0.3696
   65TMC2    C4 1009   0.356   3.344  15.795  0.0635  0.0317  0.2901
   65TMC2    C5 1010   0.349   3.476  15.835  0.7487 -0.6467 -0.1792
   65TMC2    C6 1011   0.435   3.535  15.927  0.2731 -0.1759  0.3135
   65TMC2     C 1012   0.422   3.126  15.859  0.4012 -0.7220  0.2618
   65TMC2     O 1013   0.517   3.053  15.860  0.1611  0.6313  0.2996
   65TMC2     H 1014   0.600   3.244  16.004  0.3341 -0.7138 -1.6664
   65TMC2    H1 1015   0.282   3.302  15.728  0.6587 -0.4943 -0.0356
   65TMC2    H2 1016   0.444   3.641  15.947  0.9189 -0.6779  2.5831
   65TMC2    C7 1017   0.265   3.568  15.757 -0.2834  1.0463 -0.4620
   65TMC2    C8 1018   0.636   3.498  16.066  0.0251  0.6605  0.3715
   65TMC2    O1 1019   0.237   3.508  15.652 -0.3033 -0.2709  0.0356
   65TMC2    O2 1020   0.617   3.580  16.153 -0.1738  0.3980  0.3927
   65TMC2    O5 1021   0.750   3.424  16.054  0.2909  0.3695 -0.3568
   65TMC2    H5 1022   0.750   3.380  15.966 -0.6250 -0.6460  0.1582
   66MPD2     C 1023   0.311   2.857  15.922 -0.3433 -0.6895  0.5823
   66MPD2    C1 1024   0.237   2.965  15.883 -0.3147  0.0219 -0.1886
   66MPD2    C2 1025   0.102   2.958  15.879  0.4020 -0.3469  0.3838
   66MPD2    C3 1026   0.034   2.843  15.890  0.1981 -0.2641 -0.1346
   66MPD2    C4 1027   0.107   2.732  15.932  0.3506  0.5593  0.3290
   66MPD2    C5 1028   0.235   2.745  15.962  0.1702 -0.4331 -0.2055
   66MPD2     H 1029   0.048   3.044  15.842 -0.4416 -0.5781  1.1027
   66MPD2    H1 1030   0.056   2.637  15.938 -1.7970  1.5662 -2.2123
   66MPD2    H2 1031   0.418   2.850  15.937 -0.3597 -1.7976  0.2008
   66MPD2    H3 1032   0.286   2.660  16.007  0.0536 -0.8716 -0.9106
   66MPD2     N 1033   4.629   2.831  15.884 -0.6781  0.2122 -0.3304
   66MPD2    H5 1034   4.582   2.749  15.922 -0.0199 -0.4537 -0.9606
   66MPD2    N1 1035   0.290   3.094  15.851  0.7057  0.3514 -0.0280
   66MPD2    H7 1036   0.221   3.168  15.841 -0.1773 -1.0103 -3.8323
   67TMC2    C1 1037   0.034   2.260  14.182  0.1938  0.2332  0.8249
   67TMC2    C2 1038   0.055   2.159  14.267  0.1937  0.0754 -0.4794
   67TMC2    C3 1039   0.039   2.172  14.403 -0.2785  0.9612 -0.2956
   67TMC2    C4 1040   4.732   2.381  14.228 -0.3803 -0.0538 -1.1757
   67TMC2    C5 1041   4.711   2.392  14.363 -0.2920 -0.4142 -0.2720
   67TMC2    C6 1042   0.000   2.295  14.454  0.0081  0.6832  0.0699
   67TMC2     C 1043   0.046   2.226  14.043 -0.7234  0.4284 -0.3538
   67TMC2     O 1044   0.143   2.164  14.008 -0.3367  0.3164  0.8280
   67TMC2     H 1045   0.096   2.067  14.226  0.0515  0.1642 -0.8252
   67TMC2    H1 1046   4.707   2.466  14.165 -0.6009 -0.1272 -1.1890
   67TMC2    H2 1047   0.005   2.314  14.560  1.4478 -1.4096  0.3794
   67TMC2    C7 1048   4.691   2.522  14.415  0.0183 -0.1174 -0.3149
   67TMC2    C8 1049   0.048   2.055  14.486 -0.3671  0.0163  0.0770
   67TMC2    O1 1050   0.007   2.616  14.353  0.4910  0.6228  0.4151
   67TMC2    O2 1051   0.121   1.959  14.461 -0.3747 -0.4425 -0.1429
   67TMC2    O5 1052   4.714   2.064  14.604 -0.4812  0.0381 -0.2732
   67TMC2    H5 1053   4.645   2.133  14.609 -0.9449 -0.4697  0.2936
   68MPD2     C 1054   4.730   2.191  13.755  0.3695  0.4248 -0.0158
   68MPD2    C1 1055   4.630   2.182  13.855  0.2425  0.1900  0.1351
   68MPD2    C2 1056   4.505   2.123  13.829 -0.5182 -0.0351  0.5228
   68MPD2    C3 1057   4.484   2.082  13.697  0.0702  0.6532 -0.2326
   68MPD2    C4 1058   4.571   2.109  13.600  0.6149 -0.0846  0.4537
   68MPD2    C5 1059   4.699   2.161  13.628 -0.1030 -0.4728  0.1528
   68MPD2     H 1060   4.431   2.107  13.907 -0.4072 -1.4803  0.3303
   68MPD2    H1 1061   4.545   2.091  13.496  0.8693 -0.4527  0.4559
   68MPD2    H2 1062   0.096   2.227  13.773  0.1697  2.0320 -2.0820
   68MPD2    H3 1063   0.041   2.183  13.555 -0.0383  0.8472  0.6123
   68MPD2     N 1064   4.366   2.023  13.645  0.4898 -0.4620 -0.0712
   68MPD2    H5 1065   4.358   2.015  13.544  0.2873  0.2850 -0.1096
   68MPD2    N1 1066   4.655   2.229  13.985  0.5816  0.7991 -0.0288
   68MPD2    H7 1067   4.576   2.233  14.049  0.5428 -0.2030 -0.0211
   69TMC2    C1 1068   2.634   3.877  12.594  0.3162  0.1429  0.0102
   69TMC2    C2 1069   2.613   4.003  12.652 -0.1583  0.1127 -0.1564
   69TMC2    C3 1070   2.641   4.110  12.574  0.6556 -0.0619  0.0894
   69TMC2    C4 1071   2.674   3.859  12.466  0.1376  0.1105  0.1841
   69TMC2    C5 1072   2.665   3.970  12.387  0.0834  0.1281 -0.0457
   69TMC2    C6 1073   2.664   4.100  12.436 -0.6315 -0.0528  0.4366
   69TMC2     C 1074   2.561   3.765  12.654  0.4964  0.8252  0.1858
   69TMC2     O 1075   2.558   3.659  12.589 -0.3779 -0.0965  0.4960
   69TMC2     H 1076   2.582   4.027  12.753 -2.2886 -0.7507 -0.6100
   69TMC2    H1 1077   2.686   3.761  12.421  1.8068  1.4539 -2.3463
   69TMC2    H2 1078   2.683   4.189  12.377 -0.2853 -1.2447 -1.2385
   69TMC2    C7 1079   2.660   3.947  12.243  0.8181 -1.4227  0.0538
   69TMC2    C8 1080   2.580   4.236  12.611 -0.4169 -0.6678  0.3517
   69TMC2    O1 1081   2.672   3.834  12.210  0.0451  1.0830 -0.3299
   69TMC2    O2 1082   2.476   4.236  12.676 -0.0078 -0.4407  0.2126
   69TMC2    O5 1083   2.691   4.310  12.639 -0.2787 -0.4241  0.3547
   69TMC2    H5 1084   2.759   4.290  12.572  1.5819  0.6666  1.9134
   70MPD2     C 1085   2.371   3.757  12.960 -0.5225 -0.1397 -0.1070
   70MPD2    C1 1086   2.410   3.713  12.841 -1.2452 -0.0083 -0.8020
   70MPD2    C2 1087   2.360   3.599  12.783 -0.0012  0.4196  0.0943
   70MPD2    C3 1088   2.261   3.522  12.839  0.8108  0.0151  0.0296
   70MPD2    C4 1089   2.217   3.569  12.964 -0.7523 -0.3067  0.4520
   70MPD2    C5 1090   2.267   3.688  13.018  0.3676 -0.3031  0.0130
   70MPD2     H 1091   2.404   3.561  12.691 -1.5948 -1.8011  0.2666
   70MPD2    H1 1092   2.145   3.520  13.029  0.8708 -0.3536  2.2064
   70MPD2    H2 1093   2.409   3.850  13.002 -0.9978 -0.3451  0.7729
   70MPD2    H3 1094   2.235   3.726  13.115 -0.9574  1.2331 -1.0308
   70MPD2     N 1095   2.233   3.404  12.776 -0.2812  0.2778  0.2019
   70MPD2    H5 1096   2.277   3.376  12.688 -0.2513  0.5866  0.1188
   70MPD2    N1 1097   2.513   3.787  12.777 -0.4054  0.0282  0.5006
   70MPD2    H7 1098   2.532   3.881  12.813  0.4137 -0.0349  0.2194
   71TMC2    C1 1099   4.610   4.150   0.783 -0.8822  0.3965 -0.1851
   71TMC2    C2 1100   4.725   4.079   0.796 -0.0958  0.1852 -0.0772
   71TMC2    C3 1101   0.039   4.069   0.923 -0.0546 -0.3811 -0.1154
   71TMC2    C4 1102   4.540   4.201   0.890 -0.2384 -0.8789  0.1637
   71TMC2    C5 1103   4.594   4.187   1.013 -0.8485 -0.2468 -0.3148
   71TMC2    C6 1104   4.710   4.120   1.036  0.0070 -0.2020 -0.3711
   71TMC2     C 1105   4.572   4.188   0.650  0.0981  0.6555  0.3894
   71TMC2     O 1106   4.517   4.293   0.625  0.7296 -0.5947 -0.1058
   71TMC2     H 1107   0.039   4.031   0.712  0.4729 -1.2801  1.0955
   71TMC2    H1 1108   4.443   4.246   0.873  0.3358  0.3406  0.1385
   71TMC2    H2 1109   0.014   4.108   1.136 -0.3753  2.2566  0.0546
   71TMC2    C7 1110   4.514   4.205   1.130 -0.4380  0.1231  0.4882
   71TMC2    C8 1111   0.180   4.045   0.917  0.3871  0.1349 -0.5738
   71TMC2    O1 1112   4.569   4.239   1.237  0.5230  0.8571 -0.1749
   71TMC2    O2 1113   0.249   4.088   0.819 -0.3636  0.5069 -0.3391
   71TMC2    O5 1114   0.220   4.010   1.039  0.2204  0.2560 -0.0504
   71TMC2    H5 1115   0.147   3.968   1.089  0.6130 -0.6367 -0.2174
   72MPD2     C 1116   4.579   4.116   0.141  0.1670 -0.6885  0.0031
   72MPD2    C1 1117   4.600   4.230   0.214 -0.3810  0.0245  0.2932
   72MPD2    C2 1118   4.587   4.226   0.350  0.2416  0.2241  0.0419
   72MPD2    C3 1119   4.565   4.103   0.413  0.2991 -0.5515 -0.6390
   72MPD2    C4 1120   4.547   3.988   0.338 -0.1851  0.6422  0.5151
   72MPD2    C5 1121   4.556   4.000   0.199  0.1438 -1.0235  0.3319
   72MPD2     H 1122   4.594   4.315   0.411  1.5728  0.3821 -0.3474
   72MPD2    H1 1123   4.532   3.895   0.391  0.9262 -1.7556 -3.3551
   72MPD2    H2 1124   4.570   4.126   0.033 -1.4512 -0.7835  0.1291
   72MPD2    H3 1125   4.559   3.912   0.135  1.0718 -1.3959  0.8919
   72MPD2     N 1126   4.558   4.084   0.556  0.9795  0.0258  0.0708
   72MPD2    H5 1127   4.565   3.992   0.598  0.8975  0.1434  0.3402
   72MPD2    N1 1128   4.647   4.345   0.156 -0.0229 -0.3235  0.7282
   72MPD2    H7 1129   4.676   4.413   0.226 -1.0209 -1.3726  2.1454
   73TMC2    C1 1130   4.055   1.277  14.449 -0.1168 -0.0653  0.4136
   73TMC2    C2 1131   4.119   1.267  14.566  0.1176 -0.4320 -0.6040
   73TMC2    C3 1132   4.168   1.142  14.606 -0.5894  0.1898  0.2614
   73TMC2    C4 1133   4.046   1.168  14.370 -0.2840  0.5759 -0.0786
   73TMC2    C5 1134   4.101   1.044  14.404 -0.1882 -0.9860  0.1871
   73TMC2    C6 1135   4.160   1.029  14.529  0.3156  0.0930 -0.7078
   73TMC2     C 1136   4.105   1.385  14.361 -1.5322  0.0660  0.1703
   73TMC2     O 1137   4.162   1.333  14.264  0.5620  0.4266  0.1863
   73TMC2     H 1138   4.143   1.356  14.624  1.5588 -1.0756 -0.2029
   73TMC2    H1 1139   4.005   1.176  14.269  1.1919  0.0714 -0.7121
   73TMC2    H2 1140   4.226   0.946  14.553 -2.0934 -1.0152  2.0893
   73TMC2    C7 1141   4.173   0.976  14.292  0.1057  0.0878 -0.5365
   73TMC2    C8 1142   4.239   1.131  14.729  0.2218  0.2359 -0.1757
   73TMC2    O1 1143   4.212   0.859  14.295  0.3819 -0.0923 -0.2882
   73TMC2    O2 1144   4.208   1.045  14.810 -0.3044  0.9180  0.3122
   73TMC2    O5 1145   4.299   1.246  14.751 -0.3920  0.0837  0.2173
   73TMC2    H5 1146   4.315   1.284  14.662 -1.6765 -0.9319 -0.4497
   74MPD2     C 1147   4.138   1.840  14.134 -0.2289 -1.0038  0.4380
   74MPD2    C1 1148   4.215   1.727  14.116 -0.0974 -0.1666 -0.2930
   74MPD2    C2 1149   4.201   1.616  14.207  0.0600 -0.1572  0.1419
   74MPD2    C3 1150   4.119   1.624  14.317 -0.0927  0.2850 -0.1099
   74MPD2    C4 1151   4.037   1.733  14.332 -0.1814 -0.4872 -0.4069
   74MPD2    C5 1152   4.056   1.837  14.244 -0.4044  0.2929 -0.4675
   74MPD2     H 1153   4.266   1.531  14.195  0.8294  0.8036 -2.5793
   74MPD2    H1 1154   3.954   1.742  14.401 -0.3290  0.9267 -0.7731
   74MPD2    H2 1155   4.158   1.929  14.076  1.2141 -1.9140 -0.4320
   74MPD2    H3 1156   3.998   1.926  14.264 -0.5828 -0.1464  0.9092
   74MPD2     N 1157   4.087   1.517  14.405  0.1206  0.4848  0.0959
   74MPD2    H5 1158   4.027   1.521  14.487  0.4033 -0.2085  0.3371
   74MPD2    N1 1159   4.317   1.728  14.013  0.0162  0.2139 -0.2659
   74MPD2    H7 1160   4.328   1.813  13.959 -2.9041  1.5421  1.2305
   75TMC2    C1 1161   4.139   1.932  13.660 -0.7077  0.3792  0.4211
   75TMC2    C2 1162   4.039   1.897  13.743 -0.0521 -0.0993 -0.3775
   75TMC2    C3 1163   3.910   1.917  13.700 -0.0706  0.2924 -0.7008
   75TMC2    C4 1164   4.125   1.956  13.526 -0.5798  0.1049 -0.0548
   75TMC2    C5 1165   3.999   1.955  13.480  0.0562 -0.4546 -0.1674
   75TMC2    C6 1166   3.887   1.936  13.566 -0.3821  0.7370  0.9260
   75TMC2     C 1167   4.259   1.985  13.725 -0.2549  0.2553 -0.7060
   75TMC2     O 1168   4.260   1.970  13.851 -0.3440  0.3883 -0.1800
   75TMC2     H 1169   4.063   1.848  13.836  0.0362 -0.3918 -0.5535
   75TMC2    H1 1170   4.209   1.958  13.457  0.8422  2.1662  1.7267
   75TMC2    H2 1171   3.787   1.932  13.525  0.1886  3.8353 -0.7669
   75TMC2    C7 1172   3.978   2.024  13.359 -0.4790 -0.6488  0.3187
   75TMC2    C8 1173   3.799   1.870  13.781 -0.3528 -0.6763 -0.4695
   75TMC2    O1 1174   3.915   1.974  13.271  0.6432 -0.8292  0.2798
   75TMC2    O2 1175   3.812   1.817  13.891  0.2205  0.4191 -0.5099
   75TMC2    O5 1176   3.696   1.941  13.734  0.2266 -0.5283  0.4054
   75TMC2    H5 1177   3.728   2.008  13.670  0.5577 -0.6808  0.4124
   76TMC2    C1 1178   3.104   2.826  11.930 -0.0254 -0.4427  0.1651
   76TMC2    C2 1179   3.184   2.730  11.876 -0.6756 -0.3717  0.4903
   76TMC2    C3 1180   3.255   2.649  11.960 -0.0681 -0.0539 -0.5849
   76TMC2    C4 1181   3.089   2.845  12.068 -0.3126 -0.0550  0.5473
   76TMC2    C5 1182   3.165   2.767  12.151  0.0693  0.1816  0.3680
   76TMC2    C6 1183   3.251   2.672  12.095 -0.2044  0.0215  0.4568
   76TMC2     C 1184   3.059   2.933  11.842 -0.4762 -0.8817  0.7550
   76TMC2     O 1185   2.982   3.014  11.890 -0.0111  0.3531 -0.8180
   76TMC2     H 1186   3.179   2.690  11.775 -1.0919  0.4226  0.1987
   76TMC2    H1 1187   3.022   2.922  12.105  0.9963  0.4042  1.9979
   76TMC2    H2 1188   3.306   2.606  12.161  0.2159  0.6004  0.6830
   76TMC2    C7 1189   3.168   2.783  12.287  0.3473 -0.7948  0.8049
   76TMC2    C8 1190   3.322   2.533  11.903  0.0306 -0.0914  0.7156
   76TMC2    O1 1191   3.063   2.803  12.344 -0.2151  0.4340 -0.5087
   76TMC2    O2 1192   3.270   2.472  11.811  0.3011  0.5915 -0.8699
   76TMC2    O5 1193   3.415   2.495  11.992  0.1453  0.2874  0.7729
   76TMC2    H5 1194   3.450   2.566  12.049 -2.1901  2.6259 -0.7313
   77MPD2     C 1195   3.067   3.164  11.380 -0.5968 -0.4654  0.9570
   77MPD2    C1 1196   2.995   3.194  11.499 -0.1778  0.2610  0.8311
   77MPD2    C2 1197   3.013   3.113  11.613 -0.4356  0.8120  0.0655
   77MPD2    C3 1198   3.108   3.005  11.613  0.4662 -0.1505 -0.0329
   77MPD2    C4 1199   3.180   2.983  11.503 -0.4681  0.0978  0.0747
   77MPD2    C5 1200   3.154   3.055  11.389 -0.3207 -0.0955 -0.0826
   77MPD2     H 1201   2.941   3.124  11.693 -0.7745 -0.0330 -0.1242
   77MPD2    H1 1202   3.257   2.908  11.489  0.0810  0.0965  3.2810
   77MPD2    H2 1203   3.059   3.228  11.293  1.1214 -0.7434  0.6027
   77MPD2    H3 1204   3.202   3.023  11.297 -0.2530  0.1103 -0.1197
   77MPD2     N 1205   3.123   2.920  11.721 -0.1530 -0.3267  1.0935
   77MPD2    H5 1206   3.180   2.836  11.710  0.0851  0.2840 -2.1150
   77MPD2    N1 1207   2.916   3.309  11.489 -0.3647 -0.6747  0.4998
   77MPD2    H7 1208   2.899   3.356  11.401  5.3414  0.4104 -0.0277
   78TMC2    C1 1209   4.352   3.850   1.355  0.4455 -0.0494  0.4208
   78TMC2    C2 1210   4.310   3.813   1.234 -0.1830  0.2083  0.4688
   78TMC2    C3 1211   4.396   3.799   1.129  0.2399  0.0417 -0.1384
   78TMC2    C4 1212   4.484   3.867   1.384  0.9529 -0.2434  0.0364
   78TMC2    C5 1213   4.569   3.864   1.272  0.0261 -0.5071  0.2383
   78TMC2    C6 1214   4.526   3.840   1.149 -0.2993 -0.2698 -0.0090
   78TMC2     C 1215   4.249   3.848   1.455  0.3627  0.5304  0.6336
   78TMC2     O 1216   4.140   3.802   1.423 -0.4159 -0.3429  0.3058
   78TMC2     H 1217   4.203   3.807   1.217 -0.1145  0.3195  0.0012
   78TMC2    H1 1218   4.521   3.912   1.476  2.0747 -2.5373  0.7032
   78TMC2    H2 1219   4.599   3.838   1.069  0.5558  1.5514  0.7413
   78TMC2    C7 1220   4.713   3.860   1.292 -0.4313 -0.2975 -0.2062
   78TMC2    C8 1221   4.343   3.838   1.001  0.0050  0.5148  0.6274
   78TMC2    O1 1222   0.048   3.889   1.195 -0.5825  0.4385 -0.0022
   78TMC2    O2 1223   4.388   3.927   0.938  0.3803  1.1992 -0.0287
   78TMC2    O5 1224   4.226   3.773   0.984 -0.1307 -0.6153 -0.1462
   78TMC2    H5 1225   4.223   3.690   1.037  0.4000  0.8285  2.1545
   79MPD1     C 1226   4.035   3.974   1.915 -0.3951  0.7090  0.4121
   79MPD1    C1 1227   3.983   3.949   1.792 -0.1751 -0.2093 -0.2735
   79MPD1    C2 1228   4.064   3.924   1.689  0.3103 -0.2850 -0.2334
   79MPD1    C3 1229   4.205   3.920   1.692  0.3359  0.4825 -0.0008
   79MPD1    C4 1230   4.254   3.953   1.817 -0.0885  0.1287 -0.0873
   79MPD1    C5 1231   4.172   3.983   1.925 -0.8335  0.3104  0.2635
   79MPD1     H 1232   4.018   3.916   1.592  1.2619  0.7034 -0.7756
   79MPD1    H1 1233   4.361   3.958   1.832  0.0710 -0.0523 -1.1459
   79MPD1    H2 1234   3.977   3.999   2.003 -1.8431  1.0054 -0.6274
   79MPD1    H3 1235   4.219   4.017   2.017 -0.3862  0.0125  0.1416
   79MPD1     N 1236   4.288   3.900   1.574  0.0924  0.0098 -0.0510
   79MPD1    H5 1237   4.381   3.936   1.592 -0.0069 -0.6794  1.8012
   79MPD1    N1 1238   3.850   3.965   1.772 -0.2025 -0.0829  0.1354
   79MPD1    H6 1239   3.813   3.898   1.704  0.7708 -0.9586  0.4695
   79MPD1    H7 1240   3.802   3.965   1.861 -0.3150 -0.8659  0.0702
   80TMC2    C1 1241   1.811   2.526  11.649 -0.8703  0.3249 -0.5406
   80TMC2    C2 1242   1.887   2.508  11.541 -0.2101 -0.4129  0.1410
   80TMC2    C3 1243   1.888   2.376  11.496  0.5289  0.8786  0.9435
   80TMC2    C4 1244   1.726   2.435  11.701  0.0338  0.4320 -0.5436
   80TMC2    C5 1245   1.732   2.308  11.653 -0.6374  0.4059 -0.3560
   80TMC2    C6 1246   1.818   2.280  11.553  0.1210 -0.2417  0.0475
   80TMC2     C 1247   1.812   2.654  11.718  0.2030 -0.0888  0.6214
   80TMC2     O 1248   1.717   2.680  11.789  0.1489  0.2490 -0.0276
   80TMC2     H 1249   1.939   2.592  11.496 -0.7507 -1.4424 -2.4043
   80TMC2    H1 1250   1.642   2.461  11.765  1.1779  3.6484 -0.3375
   80TMC2    H2 1251   1.796   2.187  11.502  1.1680  0.1470 -1.1061
   80TMC2    C7 1252   1.706   2.202  11.742  1.0659 -0.4121  0.1248
   80TMC2    C8 1253   1.912   2.370  11.356 -0.4768 -0.0555  0.5026
   80TMC2    O1 1254   1.719   2.084  11.702 -0.7163 -0.1017 -0.4212
   80TMC2    O2 1255   1.889   2.467  11.288  0.1681  0.1082 -0.3792
   80TMC2    O5 1256   1.945   2.246  11.312  0.1819  0.2601  0.3593
   80TMC2    H5 1257   1.965   2.181  11.383 -0.5316 -0.6209 -0.2504
   81MPD2     C 1258   2.074   2.907  11.706 -0.0009 -0.4460  0.0404
   81MPD2    C1 1259   1.951   2.859  11.743 -0.3517 -0.0666  0.2319
   81MPD2    C2 1260   1.877   2.941  11.831 -0.4231  0.2491 -0.1377
   81MPD2    C3 1261   1.921   3.061  11.884  0.6402 -0.4540  0.1591
   81MPD2    C4 1262   2.047   3.108  11.848 -0.1488 -0.7371 -0.1883
   81MPD2    C5 1263   2.114   3.029  11.754 -0.1735  0.0478  0.0268
   81MPD2     H 1264   1.787   2.899  11.873  1.1368 -2.1341  0.8635
   81MPD2    H1 1265   2.103   3.192  11.889 -0.9208  0.1398 -0.9496
   81MPD2    H2 1266   2.125   2.842  11.636  0.4998  1.0081 -0.9291
   81MPD2    H3 1267   2.206   3.071  11.716  0.5837 -0.5351  1.2162
   81MPD2     N 1268   1.849   3.136  11.981  0.6846 -0.0204 -0.0801
   81MPD2    H5 1269   1.895   3.223  12.005 -2.4951  1.4963  0.5057
   81MPD2    N1 1270   1.920   2.733  11.691  0.5531  0.4680  0.5456
   81MPD2    H7 1271   1.979   2.688  11.622  1.2932  1.1766  0.7155
   82TMC2    C1 1272   4.592   2.232  11.470  0.2709 -0.1849 -0.7476
   82TMC2    C2 1273   4.588   2.283  11.594 -0.4263 -0.9020 -0.1331
   82TMC2    C3 1274   4.610   2.203  11.707 -0.3476 -0.4140  0.1074
   82TMC2    C4 1275   4.613   2.100  11.444 -0.3756  0.0368  0.3678
   82TMC2    C5 1276   4.637   2.020  11.561  0.0115 -0.8955 -0.3211
   82TMC2    C6 1277   4.645   2.075  11.688  0.6195  0.1769 -0.0609
   82TMC2     C 1278   4.549   2.317  11.360 -0.4203  0.1243  0.1407
   82TMC2     O 1279   4.600   2.295  11.253 -0.3791  0.9865 -0.0793
   82TMC2     H 1280   4.590   2.391  11.599  0.5633 -0.8627 -1.1952
   82TMC2    H1 1281   4.607   2.056  11.345 -1.2545  1.2203 -0.0986
   82TMC2    H2 1282   4.669   2.016  11.776 -0.8503 -1.0008 -0.4501
   82TMC2    C7 1283   4.690   1.887  11.555  0.3232 -0.0441  0.4057
   82TMC2    C8 1284   4.659   2.258  11.834  0.1190  0.0153  0.9923
   82TMC2    O1 1285   0.020   1.840  11.641 -0.1334 -0.0873  0.5530
   82TMC2    O2 1286   0.006   2.201  11.902  0.0369  0.5321 -0.3085
   82TMC2    O5 1287   4.583   2.363  11.865  0.2337  0.4029 -0.3788
   82TMC2    H5 1288   4.513   2.395  11.803 -1.5268 -0.7605  0.9869
   83MPD2     C 1289   4.226   2.662  11.166 -0.3577  0.5387  0.3582
   83MPD2    C1 1290   4.304   2.567  11.102  0.2401  0.7226 -0.4933
   83MPD2    C2 1291   4.382   2.478  11.178  0.1366 -0.6928  0.1088
   83MPD2    C3 1292   4.384   2.490  11.317  0.1044 -0.1269  0.2361
   83MPD2    C4 1293   4.312   2.592  11.376  0.3027 -0.1253 -0.0047
   83MPD2    C5 1294   4.224   2.667  11.298 -0.2405  0.1026  0.1779
   83MPD2     H 1295   4.437   2.399  11.128 -1.6701 -1.3971 -0.7582
   83MPD2    H1 1296   4.319   2.617  11.481 -1.5410  0.8708 -0.1160
   83MPD2    H2 1297   4.162   2.722  11.103 -2.2042 -2.9900 -1.1630
   83MPD2    H3 1298   4.160   2.744  11.339  1.8066  1.5751  0.6115
   83MPD2     N 1299   4.456   2.404  11.401  0.1938 -0.1884  0.0429
   83MPD2    H5 1300   4.441   2.414  11.501  1.3655 -0.9811  0.3033
   83MPD2    N1 1301   4.287   2.544  10.964 -0.0478  0.5699  0.5405
   83MPD2    H7 1302   4.228   2.611  10.916 -0.4405 -1.8049 -2.2908
   84TMC2    C1 1303   1.731   1.360  10.813  0.3564 -0.8957 -0.1829
   84TMC2    C2 1304   1.727   1.227  10.820 -0.3220  0.4493 -0.3202
   84TMC2    C3 1305   1.780   1.157  10.720  0.5067  0.9366 -0.3645
   84TMC2    C4 1306   1.774   1.421  10.698 -1.4083 -0.4839 -0.6720
   84TMC2    C5 1307   1.826   1.347  10.599  0.1209  0.4459  0.0253
   84TMC2    C6 1308   1.828   1.213  10.602  0.1159 -0.6361  0.4163
   84TMC2     C 1309   1.650   1.440  10.900 -0.1634  0.1215 -1.2510
   84TMC2     O 1310   1.618   1.551  10.867 -0.0356  0.3715 -0.2681
   84TMC2     H 1311   1.670   1.173  10.895 -0.0361  0.9429  0.2524
   84TMC2    H1 1312   1.778   1.529  10.695 -0.5398 -0.4120  3.5655
   84TMC2    H2 1313   1.857   1.159  10.512 -1.2163 -0.9525  0.1824
   84TMC2    C7 1314   1.917   1.405  10.503 -0.1554  0.3435 -0.2538
   84TMC2    C8 1315   1.768   1.013  10.723  0.1157  0.1055  0.0806
   84TMC2    O1 1316   1.914   1.525  10.499 -0.5673 -0.3533 -0.2664
   84TMC2    O2 1317   1.692   0.949  10.796  0.3089  1.1217 -0.3703
   84TMC2    O5 1318   1.856   0.956  10.649 -0.1412  0.1411  0.0149
   84TMC2    H5 1319   1.918   1.011  10.597  2.0926 -2.7101 -0.3435
   85TMC2    C1 1320   2.739   4.578  16.363 -0.2274  1.0018  0.0231
   85TMC2    C2 1321   2.796   4.696  16.403  0.6401 -0.4607 -0.6130
   85TMC2    C3 1322   2.786   0.066  16.315 -0.4961 -0.1197 -0.0866
   85TMC2    C4 1323   2.692   4.558  16.233 -0.4357  0.6613  0.2809
   85TMC2    C5 1324   2.696   4.668  16.149  0.1671 -0.9704 -0.1256
   85TMC2    C6 1325   2.737   0.056  16.191  0.2361  1.1287  0.4050
   85TMC2     C 1326   2.720   4.483  16.475 -0.0846 -0.2315 -0.6091
   85TMC2     O 1327   2.770   4.513  16.585 -0.0494 -0.2001 -0.7176
   85TMC2     H 1328   2.816   4.721  16.506 -3.0552  0.5159 -0.1105
   85TMC2    H1 1329   2.648   4.461  16.209  1.2134 -0.4360  1.6927
   85TMC2    H2 1330   2.723   0.143  16.128 -0.0372  1.0970  0.4212
   85TMC2    C7 1331   2.682   4.640  16.004  0.2191 -0.1533 -0.2627
   85TMC2    C8 1332   2.787   0.208  16.361 -0.5718  0.9846  0.4849
   85TMC2    O1 1333   2.658   4.520  15.979  0.8025  1.2363  0.3697
   85TMC2    O2 1334   2.713   0.292  16.312  0.0531  0.1127  0.2437
   85TMC2    O5 1335   2.856   0.210  16.471  0.4091  0.1561  0.0293
   85TMC2    H5 1336   2.930   0.146  16.472  0.8881  0.7055  0.0990
   86MPD2     C 1337   2.503   4.084  16.710  0.4544 -0.2679  0.8129
   86MPD2    C1 1338   2.443   4.097  16.585  0.5774  0.3665 -0.5398
   86MPD2    C2 1339   2.491   4.193  16.502  1.1390  0.5481 -0.1853
   86MPD2    C3 1340   2.590   4.279  16.537  0.2501 -1.2190 -0.0494
   86MPD2    C4 1341   2.651   4.257  16.661  0.0383  0.2587  0.2383
   86MPD2    C5 1342   2.604   4.167  16.749  0.2914 -0.2081 -0.2210
   86MPD2     H 1343   2.459   4.194  16.398  0.8563 -3.0707 -0.1382
   86MPD2    H1 1344   2.733   4.320  16.692 -0.6901 -0.0140  2.7051
   86MPD2    H2 1345   2.472   4.014  16.787 -1.9771  1.3324  1.2771
   86MPD2    H3 1346   2.656   4.142  16.841 -0.4202 -1.9439 -0.2915
   86MPD2     N 1347   2.636   4.380  16.444  1.2461  0.3009  0.6378
   86MPD2    H5 1348   2.612   4.374  16.345 -0.5294 -1.1039  1.1575
   86MPD2    N1 1349   2.344   3.996  16.552  0.3089 -0.2875 -1.3175
   86MPD2    H7 1350   2.352   3.914  16.610  2.2568 -0.9537 -2.5485
   87TMC2    C1 1351   0.699   2.603   1.063 -0.2534 -0.8969  0.1757
   87TMC2    C2 1352   0.783   2.541   1.155 -0.6035 -0.3933  0.3920
   87TMC2    C3 1353   0.812   2.613   1.272 -0.4990  0.3183  0.2787
   87TMC2    C4 1354   0.656   2.736   1.087  0.1140  0.0727 -0.0876
   87TMC2    C5 1355   0.693   2.805   1.198  0.5064 -0.1325 -0.4181
   87TMC2    C6 1356   0.755   2.731   1.301  0.2547  0.2404 -0.0562
   87TMC2     C 1357   0.676   2.550   0.933 -0.5048  1.5700 -0.4672
   87TMC2     O 1358   0.590   2.612   0.872 -0.3502  0.2595  0.0115
   87TMC2     H 1359   0.795   2.433   1.146  1.5252 -0.1605  0.4606
   87TMC2    H1 1360   0.596   2.790   1.014  1.0141  2.2197  0.7926
   87TMC2    H2 1361   0.783   2.780   1.393 -1.5851 -1.1489  1.2295
   87TMC2    C7 1362   0.631   2.932   1.229  0.2243  0.1553  0.4012
   87TMC2    C8 1363   0.913   2.567   1.364 -0.3969  0.1234  0.4149
   87TMC2    O1 1364   0.593   3.000   1.131 -0.5455  0.3282  0.4597
   87TMC2    O2 1365   0.914   2.606   1.478  0.1947  0.1465 -0.0174
   87TMC2    O5 1366   1.015   2.515   1.292 -0.5835 -0.2926 -0.0382
   87TMC2    H5 1367   1.005   2.536   1.197  0.8878  0.4577 -0.0291
   88MPD2     C 1368   0.526   3.097   1.545 -0.0533  0.2021  0.3866
   88MPD2    C1 1369   0.563   3.090   1.411  0.1769 -0.2529 -0.3544
   88MPD2    C2 1370   0.518   3.198   1.334  0.8681 -0.0550  0.2331
   88MPD2    C3 1371   0.437   3.294   1.382  0.2052 -0.3701 -0.1162
   88MPD2    C4 1372   0.396   3.289   1.508  0.5982 -0.2492  0.2589
   88MPD2    C5 1373   0.440   3.190   1.591  0.4440 -0.1002 -0.3589
   88MPD2     H 1374   0.538   3.206   1.228  1.0863 -3.0830  0.0385
   88MPD2    H1 1375   0.321   3.349   1.559 -0.8598 -0.3438 -1.8057
   88MPD2    H2 1376   0.561   3.020   1.614  1.1088 -1.1596 -1.7370
   88MPD2    H3 1377   0.410   3.188   1.695 -1.7984 -0.7986 -1.0117
   88MPD2     N 1378   0.392   3.393   1.294  0.5027 -0.0201 -0.1547
   88MPD2    H5 1379   0.440   3.396   1.204 -1.7753  1.8670 -1.3138
   88MPD2    N1 1380   0.628   2.967   1.360 -0.0560  0.3673  0.2090
   88MPD2    H7 1381   0.645   2.902   1.436  2.1395  1.3085  0.5377
   89TMC2    C1 1382   1.115   0.210   1.004  0.2187  0.3552 -0.0519
   89TMC2    C2 1383   0.983   0.223   0.961 -0.4300 -0.2306  0.1876
   89TMC2    C3 1384   0.968   0.291   0.840 -0.0584  0.1079 -1.3730
   89TMC2    C4 1385   1.218   0.256   0.932  0.9614  0.2034 -0.1375
   89TMC2    C5 1386   1.195   0.310   0.808 -0.3899 -0.7550  0.0676
   89TMC2    C6 1387   1.071   0.339   0.769  0.3322  0.1858  0.0382
   89TMC2     C 1388   1.147   0.115   1.110 -0.9221  0.0546  0.3909
   89TMC2     O 1389   1.261   0.080   1.123 -0.1113 -0.2649  0.1682
   89TMC2     H 1390   0.899   0.187   1.018 -0.6307 -0.4415 -0.2354
   89TMC2    H1 1391   1.317   0.224   0.961  1.5958  0.0437 -2.4583
   89TMC2    H2 1392   1.064   0.391   0.675 -2.0945  1.1180  0.7219
   89TMC2    C7 1393   1.302   0.392   0.759  0.0180 -0.4444  0.3688
   89TMC2    C8 1394   0.829   0.298   0.804  0.7794 -0.6318  0.1076
   89TMC2    O1 1395   1.412   0.343   0.742  0.0503  0.4865  0.1004
   89TMC2    O2 1396   0.757   0.196   0.819 -0.1075  0.0455  0.6768
   89TMC2    O5 1397   0.820   0.383   0.695  0.5003 -0.0108  0.0226
   89TMC2    H5 1398   0.870   0.463   0.722  0.8953  0.3771 -1.8579
   90MPD2     C 1399   1.016   4.438   1.398 -0.0412  0.0842  0.6812
   90MPD2    C1 1400   0.906   4.493   1.337  0.1013  0.4624  0.0542
   90MPD2    C2 1401   0.912   4.614   1.272 -0.0514 -0.2932 -0.0144
   90MPD2    C3 1402   1.031   4.677   1.251  0.5290 -0.0959  0.5831
   90MPD2    C4 1403   1.145   4.619   1.303  0.5141 -0.3343 -0.1186
   90MPD2    C5 1404   1.132   4.504   1.379  0.9857  0.6332  0.1982
   90MPD2     H 1405   0.827   4.664   1.226  0.9727  1.1160 -0.3620
   90MPD2    H1 1406   1.245   4.659   1.294 -0.5933  1.8976 -2.3272
   90MPD2    H2 1407   1.018   4.346   1.455 -1.4771  0.6999  1.7411
   90MPD2    H3 1408   1.222   4.476   1.432  2.3792  1.5700 -1.6683
   90MPD2     N 1409   1.036   0.057   1.166 -0.2962  0.0280 -0.0784
   90MPD2    H5 1410   0.949   0.106   1.147  0.0015  0.6458  0.1248
   90MPD2    N1 1411   0.787   4.418   1.332 -0.4301 -0.3466  0.9223
   90MPD2    H7 1412   0.719   4.458   1.269  1.1409 -1.6309 -1.5575
   91TMC2    C1 1413   2.094   0.737  16.453 -0.1861 -0.4964  0.1207
   91TMC2    C2 1414   2.146   0.748  16.582 -0.0361  0.5491 -0.0883
   91TMC2    C3 1415   2.069   0.701  16.683  0.1531  0.0815 -0.2553
   91TMC2    C4 1416   1.971   0.690  16.427 -0.3556  0.2244  0.0484
   91TMC2    C5 1417   1.897   0.639  16.533  0.2883 -0.3709 -0.5033
   91TMC2    C6 1418   1.952   0.632  16.656  0.6995 -0.1077 -0.3104
   91TMC2     C 1419   2.162   0.810  16.337 -0.7371  0.1698 -0.1188
   91TMC2     O 1420   2.089   0.859  16.253  0.2905  0.4142  0.6229
   91TMC2     H 1421   2.252   0.766  16.594 -0.2561  0.9525  1.1898
   91TMC2    H1 1422   1.929   0.686  16.327  1.0867  3.5278 -0.6797
   91TMC2    H2 1423   1.896   0.593  16.740  1.5565 -0.2530  0.1997
   91TMC2    C7 1424   1.787   0.545  16.499 -0.3106 -0.0062 -0.1163
   91TMC2    C8 1425   2.109   0.696  16.823  0.1570  0.6121  0.6204
   91TMC2    O1 1426   1.768   0.450  16.577  0.1045  0.3464  0.0137
   91TMC2    O2 1427   2.066   0.611  16.903 -0.2845  0.1560  0.5378
   91TMC2    O5 1428   2.223   0.767  16.836 -0.0920 -0.5703  0.7031
   91TMC2    H5 1429   2.248   0.821  16.758 -0.1780 -0.3489  0.8304
   92MPD2     C 1430   2.357   0.982  16.206  0.2423 -0.1357 -0.2632
   92MPD2    C1 1431   2.389   0.876  16.288  0.4731  0.7020 -0.2672
   92MPD2    C2 1432   2.517   0.844  16.302  0.2082 -0.2964  0.5478
   92MPD2    C3 1433   2.620   0.900  16.231 -0.2004 -0.3828 -0.5147
   92MPD2    C4 1434   2.590   1.000  16.145 -0.6428 -0.1840 -0.5172
   92MPD2    C5 1435   2.461   1.042  16.136  0.7853  0.0963  0.0938
   92MPD2     H 1436   2.551   0.764  16.366 -0.5468  0.0741  1.4197
   92MPD2    H1 1437   2.663   1.042  16.077 -0.9955  3.0589  1.1217
   92MPD2    H2 1438   2.256   1.006  16.175  0.1815 -0.3280 -0.2127
   92MPD2    H3 1439   2.442   1.116  16.059 -1.0251 -0.6986 -0.2300
   92MPD2     N 1440   2.749   0.859  16.242  0.1424 -0.2356  0.0481
   92MPD2    H5 1441   2.770   0.779  16.301  2.9352 -0.0131 -0.6232
   92MPD2    N1 1442   2.291   0.806  16.356 -0.0333  0.3136 -0.0068
   92MPD2    H7 1443   2.322   0.735  16.422 -3.5069 -0.5874  0.6900
   93TMC2    C1 1444   4.252   0.433  13.635  0.2234 -0.4224 -0.0485
   93TMC2    C2 1445   4.251   0.485  13.756 -0.8626 -0.3151  0.6584
   93TMC2    C3 1446   4.364   0.471  13.831  0.2888 -0.1418  0.0145
   93TMC2    C4 1447   4.354   0.360  13.583  0.2194  0.1942 -1.2565
   93TMC2    C5 1448   4.469   0.365  13.654 -0.3341  0.5009  0.4175
   93TMC2    C6 1449   4.473   0.404  13.785  0.0214 -0.2130 -0.4502
   93TMC2     C 1450   4.160   0.497  13.539 -0.4575 -0.0173  0.4756
   93TMC2     O 1451   4.207   0.503  13.425 -0.1485 -0.2089 -0.3429
   93TMC2     H 1452   4.181   0.565  13.777 -1.6824 -0.4513 -1.4994
   93TMC2    H1 1453   4.337   0.333  13.479 -0.1403 -1.0790 -0.8654
   93TMC2    H2 1454   4.563   0.408  13.846 -0.7891  1.0676  0.6456
   93TMC2    C7 1455   4.587   0.400  13.572 -0.3302 -0.0241 -0.3277
   93TMC2    C8 1456   4.385   0.554  13.950 -0.4748  0.5669  0.4714
   93TMC2    O1 1457   4.701   0.396  13.623 -0.4072 -0.1123  0.6229
   93TMC2    O2 1458   4.487   0.540  14.011  0.1047  0.1262  0.1035
   93TMC2    O5 1459   4.268   0.601  13.999 -0.0669  0.2870 -0.0784
   93TMC2    H5 1460   4.188   0.587  13.943 -0.8669 -0.6950  1.3112
   94MPD2     C 1461   3.972   0.681  13.404 -0.3453 -0.6452 -0.1281
   94MPD2    C1 1462   3.947   0.623  13.530 -0.4305 -0.4655 -0.2086
   94MPD2    C2 1463   3.823   0.639  13.587  0.0908  0.2188 -0.4250
   94MPD2    C3 1464   3.722   0.705  13.516 -0.0835  0.3504  0.5196
   94MPD2    C4 1465   3.750   0.761  13.396 -0.3838 -0.9139  0.1966
   94MPD2    C5 1466   3.881   0.749  13.339 -0.1599  0.7901 -0.4176
   94MPD2     H 1467   3.794   0.606  13.686  1.0026  0.6589 -0.0105
   94MPD2    H1 1468   3.671   0.820  13.351  1.2949  2.1246  1.1917
   94MPD2    H2 1469   4.076   0.678  13.373 -0.7018 -1.8439 -1.1719
   94MPD2    H3 1470   3.896   0.782  13.237  1.4313  1.1744 -0.0582
   94MPD2     N 1471   3.587   0.719  13.571 -0.6219  0.2540 -0.3484
   94MPD2    H5 1472   3.570   0.699  13.669 -1.4277  2.7563  0.0332
   94MPD2    N1 1473   4.050   0.552  13.599  0.0039 -0.7048  0.1633
   94MPD2    H7 1474   4.023   0.521  13.692  1.5421 -1.8791  0.2221
   95TMC2    C1 1475   3.972   2.470  16.590 -0.3673 -0.2035  0.3781
   95TMC2    C2 1476   3.864   2.395  16.616 -0.8301 -0.1786  0.3789
   95TMC2    C3 1477   3.837   2.392  16.748  0.2864 -0.2278 -0.0615
   95TMC2    C4 1478   4.041   2.546  16.681  0.8717 -0.4188  1.0368
   95TMC2    C5 1479   4.003   2.543  16.810  0.1101  0.0084  0.1401
   95TMC2    C6 1480   3.897   2.470  16.849 -0.3866 -0.6784  0.0563
   95TMC2     C 1481   3.995   2.491  16.451  0.1609 -0.2757  0.1443
   95TMC2     O 1482   4.055   2.589  16.414 -0.5779  0.0560  0.1468
   95TMC2     H 1483   3.806   2.332  16.549  1.4643 -0.7842 -1.0292
   95TMC2    H1 1484   4.132   2.598  16.651  0.7812 -0.0305  1.4498
   95TMC2    H2 1485   3.867   2.474  16.953 -1.3822  0.4540 -0.2779
   95TMC2    C7 1486   4.087   2.597  16.918 -0.9759 -0.2217  0.0825
   95TMC2    C8 1487   3.715   2.317  16.781 -0.1672 -0.2341  0.3080
   95TMC2    O1 1488   4.072   2.573  17.034  0.3019 -0.6605  0.5472
   95TMC2    O2 1489   3.618   2.331  16.710 -0.1999 -0.7205 -0.1053
   95TMC2    O5 1490   3.720   2.287  16.911 -0.2615 -0.0393 -0.2394
   95TMC2    H5 1491   3.809   2.285  16.951 -0.4736 -0.9430  0.1745
   96MPD2     C 1492   3.964   2.353  15.959 -0.3518  0.6877  0.4855
   96MPD2    C1 1493   4.027   2.463  16.014 -0.0902 -0.4416 -0.8269
   96MPD2    C2 1494   4.024   2.476  16.153  0.2914 -0.3092  0.0518
   96MPD2    C3 1495   3.970   2.379  16.230  0.4182  0.3899  0.5070
   96MPD2    C4 1496   3.922   2.263  16.178 -0.2198  0.3408 -0.0499
   96MPD2    C5 1497   3.914   2.259  16.041 -0.7093  0.7325  0.1106
   96MPD2     H 1498   4.062   2.568  16.195  0.9880 -0.5097 -0.1376
   96MPD2    H1 1499   3.895   2.181  16.244  0.6259 -0.4430 -0.6842
   96MPD2    H2 1500   3.957   2.342  15.852 -2.1448 -0.2887  0.7035
   96MPD2    H3 1501   3.872   2.173  15.989  1.7479 -0.8461  0.7284
   96MPD2     N 1502   3.945   2.390  16.369  0.1185  0.5433  0.9855
   96MPD2    H5 1503   3.900   2.308  16.407  0.7944 -0.5607 -0.6130
   96MPD2    N1 1504   4.094   2.558  15.930  0.1184  0.1015  0.0844
   96MPD2    H7 1505   4.083   2.550  15.829  1.2146 -0.8404  0.0331
   97TMC2    C1 1506   2.522   4.721   0.553  0.4350 -0.8925 -0.0559
   97TMC2    C2 1507   2.506   4.606   0.487  0.1593 -0.4521 -0.2518
   97TMC2    C3 1508   2.534   4.599   0.355 -0.4178  0.2081 -1.3051
   97TMC2    C4 1509   2.574   0.093   0.489 -0.0797  0.5581 -0.0244
   97TMC2    C5 1510   2.608   0.088   0.358 -0.2418  0.1673  0.8537
   97TMC2    C6 1511   2.583   4.708   0.290  0.9675 -0.5506 -0.4013
   97TMC2     C 1512   2.455   0.006   0.677  0.5849 -0.1684  0.3393
   97TMC2     O 1513   2.423   0.122   0.693 -0.7434  0.1072  0.1101
   97TMC2     H 1514   2.468   4.513   0.529  1.5551 -0.5638  0.7639
   97TMC2    H1 1515   2.575   0.191   0.536  2.0026  0.1015  0.9031
   97TMC2    H2 1516   2.613   4.709   0.186 -0.2700 -0.7144 -0.7543
   97TMC2    C7 1517   2.578   0.206   0.283  0.8295  0.5446  0.4868
   97TMC2    C8 1518   2.545   4.463   0.303  0.1294  0.1948  0.0525
   97TMC2    O1 1519   2.674   0.273   0.245 -1.0372 -0.8196  0.1142
   97TMC2    O2 1520   2.558   4.359   0.368 -0.5698  0.2502  0.9640
   97TMC2    O5 1521   2.511   4.476   0.173 -0.2985 -0.2566 -0.0825
   97TMC2    H5 1522   2.514   4.564   0.129 -0.9508 -1.0269 -1.6490
   98MPD2     C 1523   2.104   4.637   1.028 -0.0470 -0.0381  0.1054
   98MPD2    C1 1524   2.155   4.510   0.984 -0.5495  0.0573 -0.3013
   98MPD2    C2 1525   2.260   4.514   0.886  0.0160 -0.0079  1.1338
   98MPD2    C3 1526   2.303   4.634   0.835  0.3289 -0.0117  0.5592
   98MPD2    C4 1527   2.257   0.018   0.894  0.3595  0.3411  0.2038
   98MPD2    C5 1528   2.154   0.022   0.983  0.7080 -0.1336 -0.4257
   98MPD2     H 1529   2.301   4.420   0.851  0.8350 -0.2407  2.7368
   98MPD2    H1 1530   2.287   0.113   0.852 -0.8368  0.0347 -1.3393
   98MPD2    H2 1531   2.020   4.627   1.095 -0.4408 -0.3395 -0.4389
   98MPD2    H3 1532   2.121   0.120   1.014  1.1044 -0.2712  0.4586
   98MPD2     N 1533   2.398   4.627   0.731  0.6348 -0.2468 -0.1342
   98MPD2    H5 1534   2.437   4.535   0.710 -1.5323 -1.3739  0.7620
   98MPD2    N1 1535   2.095   4.394   1.043 -0.1001 -0.1361  0.3891
   98MPD2    H7 1536   2.018   4.416   1.105 -0.5141  0.3813 -0.3176
   99TMC2    C1 1537   1.100   1.932   1.796  0.3073 -0.2212  0.0878
   99TMC2    C2 1538   1.171   1.955   1.914 -0.6423  0.1855 -0.4227
   99TMC2    C3 1539   1.107   2.023   2.016  0.2325  0.4989 -0.7223
   99TMC2    C4 1540   0.969   1.976   1.788 -0.5155  0.2349  0.0727
   99TMC2    C5 1541   0.914   2.057   1.882  0.5464 -0.1416 -0.0561
   99TMC2    C6 1542   0.983   2.086   1.996  0.0599 -0.1642 -0.0798
   99TMC2     C 1543   1.145   1.824   1.715 -0.9839  0.1172  0.3833
   99TMC2     O 1544   1.267   1.809   1.722  0.5634  0.3944  0.2912
   99TMC2     H 1545   1.275   1.925   1.925 -0.3424  1.5673  0.4626
   99TMC2    H1 1546   0.913   1.963   1.697  1.5571 -0.5466 -1.1034
   99TMC2    H2 1547   0.922   2.128   2.076 -0.0403  1.8522 -1.2326
   99TMC2    C7 1548   0.780   2.114   1.866  0.5583  0.2640  0.0098
   99TMC2    C8 1549   1.185   2.081   2.122  0.1126 -0.3144 -0.2615
   99TMC2    O1 1550   0.753   2.212   1.929 -0.6411  0.6396  0.0270
   99TMC2    O2 1551   1.290   2.032   2.165 -0.2798  0.2834  0.0355
   99TMC2    O5 1552   1.169   2.207   2.093  0.0736 -0.0726 -0.3771
   99TMC2    H5 1553   1.097   2.229   2.031  0.6459  1.9124 -0.3212
  100MPD2     C 1554   1.206   1.607   1.523 -0.6661 -0.2272 -0.2906
  100MPD2    C1 1555   1.083   1.649   1.548  0.2038  0.2128  0.3986
  100MPD2    C2 1556   0.978   1.592   1.484  0.0144  0.4932  0.1580
  100MPD2    C3 1557   0.997   1.495   1.390 -0.0765  0.1084 -0.6465
  100MPD2    C4 1558   1.127   1.454   1.358  0.1066  0.4500  0.2019
  100MPD2    C5 1559   1.226   1.518   1.420 -0.9343 -0.1309  0.5562
  100MPD2     H 1560   0.878   1.633   1.495 -0.8206 -1.2742 -0.7507
  100MPD2    H1 1561   1.160   1.387   1.279  0.8369 -0.2738  1.1245
  100MPD2    H2 1562   1.290   1.640   1.584  0.5918 -0.6268 -1.7989
  100MPD2    H3 1563   1.328   1.488   1.397 -0.2544  2.6609 -0.0172
  100MPD2     N 1564   0.889   1.436   1.318 -0.4702  0.4034  0.0839
  100MPD2    H5 1565   0.795   1.469   1.338 -0.7839 -0.2704 -0.2771
  100MPD2    N1 1566   1.055   1.754   1.644  0.1041 -0.5456  0.5968
  100MPD2    H7 1567   0.961   1.784   1.664  0.5575  2.6701 -2.3263
  101TMC2    C1 1568   0.916   3.203  12.748  0.4060  0.0864 -0.5478
  101TMC2    C2 1569   0.814   3.288  12.709 -0.2793  0.2664  0.2186
  101TMC2    C3 1570   0.842   3.415  12.694 -0.3257 -1.1244 -0.2062
  101TMC2    C4 1571   1.043   3.246  12.767 -1.2637  0.4829 -0.1297
  101TMC2    C5 1572   1.070   3.382  12.743  0.3193  0.2996  0.1294
  101TMC2    C6 1573   0.968   3.462  12.698 -0.1218  0.0053  0.1815
  101TMC2     C 1574   0.870   3.068  12.783 -0.1923  0.8545 -0.5345
  101TMC2     O 1575   0.746   3.063  12.807 -0.0829 -0.0716  0.4812
  101TMC2     H 1576   0.712   3.252  12.706 -0.8241  1.7731  0.3082
  101TMC2    H1 1577   1.110   3.180  12.820 -1.1585 -0.3347 -1.2981
  101TMC2    H2 1578   0.987   3.566  12.673 -0.9353  0.0584 -0.1977
  101TMC2    C7 1579   1.206   3.423  12.713 -0.1981  0.8618 -0.1180
  101TMC2    C8 1580   0.766   3.484  12.590  0.3650  0.1047  0.4515
  101TMC2    O1 1581   1.222   3.535  12.660  0.6961 -0.0112  0.4616
  101TMC2    O2 1582   0.800   3.575  12.513 -0.7399 -0.0858 -0.1393
  101TMC2    O5 1583   0.637   3.460  12.623 -0.3156  0.1635  0.1623
  101TMC2    H5 1584   0.611   3.425  12.711  2.9399  2.3204  1.9789
  102MPD2     C 1585   1.072   2.768  12.820 -0.1153  1.3720  0.3330
  102MPD2    C1 1586   0.958   2.845  12.825  0.0312  0.0752  0.2647
  102MPD2    C2 1587   0.850   2.788  12.889  0.1551 -0.7538  0.1987
  102MPD2    C3 1588   0.854   2.670  12.957  0.2425  0.2225  0.6744
  102MPD2    C4 1589   0.972   2.604  12.960  0.2235 -0.4296 -0.1281
  102MPD2    C5 1590   1.080   2.655  12.897  0.6835  0.6070  0.1991
  102MPD2     H 1591   0.761   2.848  12.904 -0.7341 -1.7941 -0.8628
  102MPD2    H1 1592   0.981   2.508  13.009 -1.1148 -0.5579 -0.1136
  102MPD2    H2 1593   1.165   2.800  12.775 -0.5666  0.7161 -1.0903
  102MPD2    H3 1594   1.175   2.604  12.911  0.8885 -0.1093 -3.9231
  102MPD2     N 1595   0.733   2.624  13.013  0.6155  0.6042 -0.4269
  102MPD2    H5 1596   0.643   2.668  12.998  0.6804  0.6612 -0.6668
  102MPD2    N1 1597   0.965   2.973  12.774 -0.0102  0.1134 -0.5113
  102MPD2    H7 1598   1.054   3.005  12.736 -0.4413  0.0069 -1.5939
  103TMC2    C1 1599   3.832   2.872  12.731  0.4335 -0.4091  0.3323
  103TMC2    C2 1600   3.945   2.910  12.667 -0.2759 -0.0971 -0.5646
  103TMC2    C3 1601   4.064   2.873  12.728 -0.5105 -0.4486 -0.0245
  103TMC2    C4 1602   3.827   2.831  12.858 -0.7514  0.5139  0.4177
  103TMC2    C5 1603   3.948   2.835  12.925  0.4275 -0.4981  0.7508
  103TMC2    C6 1604   4.067   2.840  12.861 -0.2294 -0.8153 -1.0674
  103TMC2     C 1605   3.714   2.846  12.642  0.0666 -0.3214  0.1307
  103TMC2     O 1606   3.698   2.921  12.545  0.7126 -0.2088  0.3985
  103TMC2     H 1607   3.947   2.919  12.559  1.0353 -0.5943 -0.5788
  103TMC2    H1 1608   3.737   2.807  12.913 -0.8564  0.0935  0.0621
  103TMC2    H2 1609   4.160   2.820  12.914  0.6891  2.1222 -1.5765
  103TMC2    C7 1610   3.938   2.844  13.071 -0.0206  1.0297  0.5789
  103TMC2    C8 1611   4.186   2.876  12.656  0.4035 -0.0687 -0.1486
  103TMC2    O1 1612   3.843   2.794  13.129  0.0416 -0.3058  0.3693
  103TMC2    O2 1613   4.293   2.821  12.686  0.3045  0.5997 -0.9279
  103TMC2    O5 1614   4.182   3.002  12.605 -0.3457  0.5601 -0.7574
  103TMC2    H5 1615   4.093   3.031  12.575 -1.2830  1.1861  2.5551
  104MPD2     C 1616   3.387   2.712  12.746  0.3441  0.0649 -0.0699
  104MPD2    C1 1617   3.487   2.754  12.657 -0.8068  0.1143  0.1084
  104MPD2    C2 1618   3.454   2.761  12.519 -1.0695  0.4808 -0.3537
  104MPD2    C3 1619   3.325   2.737  12.474  0.6663 -0.3993  0.7390
  104MPD2    C4 1620   3.229   2.703  12.567  0.1198 -0.0317 -0.4782
  104MPD2    C5 1621   3.260   2.698  12.702  0.3575 -0.7289  0.1478
  104MPD2     H 1622   3.528   2.786  12.444 -0.3696  0.8855  0.4718
  104MPD2    H1 1623   3.133   2.671  12.528 -0.5455  0.5423  0.6773
  104MPD2    H2 1624   3.411   2.694  12.850 -1.1216 -0.1197  0.2433
  104MPD2    H3 1625   3.181   2.673  12.771  1.2440  2.7122  2.3892
  104MPD2     N 1626   3.297   2.754  12.336 -0.3112  0.3475  0.5232
  104MPD2    H5 1627   3.380   2.755  12.277 -1.8360  0.2340 -1.6374
  104MPD2    N1 1628   3.615   2.775  12.707 -0.4698 -0.0696 -0.4143
  104MPD2    H7 1629   3.639   2.732  12.796  2.5063  0.5513 -0.9037
  105TMC2    C1 1630   0.049   2.097   0.318 -0.4972 -0.0270  0.1334
  105TMC2    C2 1631   4.733   2.222   0.308  0.4018 -0.2308 -0.5634
  105TMC2    C3 1632   0.053   2.325   0.375 -0.0552  0.4084  0.7453
  105TMC2    C4 1633   0.152   2.080   0.403 -0.3352  0.4917  0.1223
  105TMC2    C5 1634   0.213   2.185   0.465  0.1337  0.5459  0.7108
  105TMC2    C6 1635   0.167   2.316   0.453 -0.7672  0.2039 -0.2101
  105TMC2     C 1636   0.043   2.013   0.204  0.3745 -0.0759  0.0207
  105TMC2     O 1637   4.710   1.910   0.201 -0.5932 -0.4411  0.1970
  105TMC2     H 1638   4.661   2.250   0.231  0.4916  0.1586 -0.5040
  105TMC2    H1 1639   0.209   1.989   0.387 -2.3721 -0.9686  1.2286
  105TMC2    H2 1640   0.217   2.404   0.493 -1.7160 -0.5220  2.5960
  105TMC2    C7 1641   0.351   2.153   0.516  0.3002  0.1204 -0.3661
  105TMC2    C8 1642   4.725   2.447   0.406 -0.7388  0.5252 -0.8165
  105TMC2    O1 1643   0.384   2.035   0.512 -0.4770  0.0945  0.0199
  105TMC2    O2 1644   0.047   2.554   0.421  0.5069 -0.8176  0.1417
  105TMC2    O5 1645   4.589   2.425   0.403 -0.3359 -0.2886 -0.2974
  105TMC2    H5 1646   4.561   2.332   0.395 -0.6231 -0.1946 -0.3642
  106MPD2     C 1647   0.335   1.818  17.572 -0.5516  0.0866  0.5841
  106MPD2    C1 1648   0.370   1.947  17.586 -0.3534 -0.0816 -0.3531
  106MPD2    C2 1649   0.308   2.021  17.687 -0.0853 -0.0711 -0.3308
  106MPD2    C3 1650   0.199   1.966   0.020 -0.0606  0.4512 -0.0579
  106MPD2    C4 1651   0.177   1.824   0.012 -0.1267  0.9000  0.0600
  106MPD2    C5 1652   0.247   1.752  17.656  0.3897  0.1772  0.0621
  106MPD2     H 1653   0.351   2.118  17.712 -0.3330 -1.0776  3.9921
  106MPD2    H1 1654   0.114   1.772   0.083 -4.0246  1.9415 -2.6341
  106MPD2    H2 1655   0.394   1.755  17.506  0.1954  0.9670  0.4059
  106MPD2    H3 1656   0.213   1.650  17.641 -0.9899  0.8092 -1.1348
  106MPD2     N 1657   0.150   2.044   0.124 -0.3015 -0.6251 -0.0216
  106MPD2    H5 1658   0.193   2.134   0.144 -1.1902 -0.1281 -0.3555
  106MPD2    N1 1659   0.475   2.013  17.510  0.2698  0.5661  0.2280
  106MPD2    H7 1660   0.501   2.109  17.528  0.8876  0.0490  2.0209
  107TMC2    C1 1661   1.040   2.015  11.417 -0.0343 -0.0038 -0.0823
  107TMC2    C2 1662   0.971   2.032  11.301  0.0162 -0.5792  0.8229
  107TMC2    C3 1663   1.018   1.957  11.189 -0.0458 -0.0547 -1.3988
  107TMC2    C4 1664   1.133   1.918  11.425  0.2306  0.6616  0.6227
  107TMC2    C5 1665   1.167   1.847  11.316  0.1526 -0.0272  0.6690
  107TMC2    C6 1666   1.118   1.865  11.189  0.0312  0.4433  0.0585
  107TMC2     C 1667   1.007   2.097  11.536 -0.0891 -0.0596  0.6071
  107TMC2     O 1668   1.051   2.056  11.641  0.6485 -0.4049 -0.1082
  107TMC2     H 1669   0.892   2.105  11.286 -0.1054 -0.8012  0.3783
  107TMC2    H1 1670   1.178   1.902  11.523 -1.2911  0.6035  1.3109
  107TMC2    H2 1671   1.146   1.808  11.101 -1.6179 -0.6238  0.2187
  107TMC2    C7 1672   1.247   1.732  11.343 -0.1602 -0.4470  0.1256
  107TMC2    C8 1673   0.938   1.964  11.074  0.2297  0.4909  0.0974
  107TMC2    O1 1674   1.258   1.696  11.457 -0.2929  0.4038  0.0474
  107TMC2    O2 1675   0.861   2.061  11.062  0.3213 -0.0463 -0.6260
  107TMC2    O5 1676   0.895   1.831  11.053 -0.0527 -0.0075 -0.1793
  107TMC2    H5 1677   0.947   1.771  11.110 -0.3430 -1.1519 -1.1230
  108MPD2     C 1678   0.924   2.453  11.559 -0.3011  0.5426 -0.0829
  108MPD2    C1 1679   0.935   2.320  11.599 -0.0416 -0.0950  0.8261
  108MPD2    C2 1680   0.891   2.292  11.728 -0.4336 -0.2160 -0.7653
  108MPD2    C3 1681   0.841   2.388  11.815 -0.0799  0.2370 -0.0083
  108MPD2    C4 1682   0.847   2.519  11.777  0.0115  0.6976  0.2379
  108MPD2    C5 1683   0.884   2.549  11.651 -0.3021  0.3454  0.2045
  108MPD2     H 1684   0.899   2.189  11.762  3.1958  0.5450  0.7322
  108MPD2    H1 1685   0.794   2.591  11.838  1.1139  1.5440  0.1788
  108MPD2    H2 1686   0.964   2.484  11.463  1.7225 -0.8645  0.3035
  108MPD2    H3 1687   0.866   2.648  11.610 -0.0089  1.3243  2.4982
  108MPD2     N 1688   0.776   2.345  11.932 -0.2518 -0.2632  0.2519
  108MPD2    H5 1689   0.752   2.415  12.002 -2.3617 -0.8785  0.1378
  108MPD2    N1 1690   0.973   2.225  11.505  0.5465 -0.3163  0.2819
  108MPD2    H7 1691   0.977   2.252  11.407  0.2665  0.5895  0.5244
  109TMC2    C1 1692   1.189   4.188   0.367 -0.4084 -0.2820 -0.0931
  109TMC2    C2 1693   1.227   4.248   0.250  0.1738 -0.1878  0.0731
  109TMC2    C3 1694   1.363   4.226   0.208  0.1346  0.1273  0.0130
  109TMC2    C4 1695   1.274   4.109   0.444  0.2501  0.0519  0.0362
  109TMC2    C5 1696   1.396   4.086   0.391  0.0803 -0.0345  0.4217
  109TMC2    C6 1697   1.449   4.147   0.280 -0.2387 -0.2931  0.0812
  109TMC2     C 1698   1.066   4.234   0.423  0.3847 -0.1816 -0.0181
  109TMC2     O 1699   0.976   4.262   0.346 -0.3935  0.0151  0.0445
  109TMC2     H 1700   1.159   4.319   0.205  0.6978  0.2567 -0.0105
  109TMC2    H1 1701   1.230   4.050   0.523  0.3391 -0.5773 -0.3822
  109TMC2    H2 1702   1.551   4.149   0.244 -0.3988  1.3108 -0.2697
  109TMC2    C7 1703   1.491   4.019   0.478  0.6742 -0.0461  0.3268
  109TMC2    C8 1704   1.404   4.257   0.066 -0.4171 -0.4260 -0.4440
  109TMC2    O1 1705   1.446   4.000   0.589 -0.0036 -0.0591  1.0057
  109TMC2    O2 1706   1.521   4.277   0.027  0.2799  0.3618  0.9436
  109TMC2    O5 1707   1.301   4.220  17.725  0.1867 -0.0941 -0.2870
  109TMC2    H5 1708   1.220   4.222   0.043 -0.3552  2.6893 -1.1717
  110MPD2     C 1709   0.715   4.250   0.790 -0.1249  0.1886  0.4298
  110MPD2    C1 1710   0.818   4.176   0.836 -0.3670 -0.6498  0.4178
  110MPD2    C2 1711   0.930   4.172   0.757 -0.1623 -0.1561 -0.1428
  110MPD2    C3 1712   0.945   4.239   0.639  0.1289  0.0185  0.6912
  110MPD2    C4 1713   0.839   4.311   0.590 -0.5180  0.0312 -0.5437
  110MPD2    C5 1714   0.726   4.312   0.665  0.1365  0.5246  0.3964
  110MPD2     H 1715   1.010   4.102   0.778  1.4640  1.4445 -0.9869
  110MPD2    H1 1716   0.852   4.371   0.501 -0.6252  0.6331 -0.1531
  110MPD2    H2 1717   0.617   4.256   0.836  0.7318  0.6056  2.1892
  110MPD2    H3 1718   0.647   4.378   0.632 -1.3286 -0.9673  0.9666
  110MPD2     N 1719   1.061   4.217   0.559  0.9761  0.1855 -0.2279
  110MPD2    H5 1720   1.145   4.180   0.601  0.1814 -0.9466  0.3590
  110MPD2    N1 1721   0.792   4.094   0.947 -0.5003  0.0131 -0.8518
  110MPD2    H7 1722   0.702   4.110   0.991  1.1632 -0.1026  2.5221
  111TMC2    C1 1723   0.644   4.109  12.022  0.6275  0.3420  0.5778
  111TMC2    C2 1724   0.588   4.137  12.147 -0.6800 -0.2513  0.2400
  111TMC2    C3 1725   0.668   4.142  12.258  0.3145 -1.1387 -0.0522
  111TMC2    C4 1726   0.773   4.062  12.017 -0.0488 -0.2924 -0.4380
  111TMC2    C5 1727   0.838   4.041  12.141 -0.3003  0.1020 -0.4458
  111TMC2    C6 1728   0.782   4.068  12.265  0.7247  0.1305 -0.0421
  111TMC2     C 1729   0.596   4.154  11.888 -0.4502 -0.8146  0.2612
  111TMC2     O 1730   0.682   4.163  11.806 -0.3345 -0.0452 -0.1943
  111TMC2     H 1731   0.496   4.194  12.140 -0.9410 -0.6263  0.6195
  111TMC2    H1 1732   0.815   4.025  11.924  0.6952  0.4109 -0.3886
  111TMC2    H2 1733   0.848   4.070  12.351 -0.1409 -2.7147  0.6939
  111TMC2    C7 1734   0.978   4.007  12.136 -0.3509  0.2428 -0.2722
  111TMC2    C8 1735   0.607   4.185  12.384  0.6219  0.4178 -0.8079
  111TMC2    O1 1736   1.032   3.958  12.234  0.4106  0.1605  0.4848
  111TMC2    O2 1737   0.538   4.285  12.395 -0.4699 -0.0055 -0.2468
  111TMC2    O5 1738   0.666   4.116  12.480 -0.2123  0.2799 -0.1439
  111TMC2    H5 1739   0.683   4.022  12.460 -0.1672 -0.0456  1.3662
  112MPD2     C 1740   0.300   4.429  11.569  0.3676 -0.3350 -0.4095
  112MPD2    C1 1741   0.417   4.356  11.541 -0.9027 -0.1228  0.7470
  112MPD2    C2 1742   0.476   4.290  11.651 -0.1747 -0.3715  0.4846
  112MPD2    C3 1743   0.413   4.282  11.772 -0.1285  0.1784  0.2842
  112MPD2    C4 1744   0.301   4.353  11.795 -0.7224 -0.1471  0.0550
  112MPD2    C5 1745   0.246   4.421  11.691 -0.0563  0.4424  0.3395
  112MPD2     H 1746   0.557   4.222  11.626  0.6308  0.5257  0.6878
  112MPD2    H1 1747   0.239   4.345  11.884  0.5998 -0.6104  0.9488
  112MPD2    H2 1748   0.236   4.481  11.498 -1.4282 -0.3408  1.1924
  112MPD2    H3 1749   0.148   4.467  11.704  0.4276  2.1507 -2.1678
  112MPD2     N 1750   0.466   4.205  11.882 -0.0402 -0.2370 -0.1953
  112MPD2    H5 1751   0.419   4.218  11.972  0.8156  0.7901  0.1049
  112MPD2    N1 1752   0.472   4.341  11.416  0.1095  0.3159  0.3175
  112MPD2    H7 1753   0.558   4.289  11.406 -0.0919 -0.3230  1.8391
  113TMC2    C1 1754   4.397   2.089   0.958  0.4085 -0.2464  0.4824
  113TMC2    C2 1755   4.320   2.202   0.984 -0.1806 -0.2170 -0.2829
  113TMC2    C3 1756   4.194   2.209   0.926 -0.4890  0.3143 -0.3062
  113TMC2    C4 1757   4.357   1.989   0.864 -0.4477  0.2997 -0.0189
  113TMC2    C5 1758   4.246   2.016   0.803 -1.3743  0.3280 -0.4092
  113TMC2    C6 1759   4.155   2.116   0.834 -0.3577 -0.2520 -0.6287
  113TMC2     C 1760   4.522   2.083   1.039 -0.0913 -0.0871 -0.1876
  113TMC2     O 1761   4.551   2.174   1.115  0.8202 -0.2346  0.0286
  113TMC2     H 1762   4.340   2.265   1.070  1.6277 -1.7547  0.3988
  113TMC2    H1 1763   4.416   1.904   0.833  0.6760  0.1170  2.6674
  113TMC2    H2 1764   4.060   2.122   0.781 -0.3972  0.3603 -0.4826
  113TMC2    C7 1765   4.202   1.920   0.701  0.1447  0.7631  0.1394
  113TMC2    C8 1766   4.093   2.316   0.962  0.0908  0.3571  0.9817
  113TMC2    O1 1767   4.123   1.973   0.624 -0.0899  0.0316  0.3755
  113TMC2    O2 1768   4.120   2.399   1.050 -0.2559 -0.2679 -0.7441
  113TMC2    O5 1769   4.026   2.351   0.850  0.2881  0.9779  0.3349
  113TMC2    H5 1770   4.035   2.303   0.765  1.4604 -0.2105  1.1219
  114MPD2     C 1771   0.234   1.850   1.165 -0.0567  0.7030  0.3879
  114MPD2    C1 1772   0.177   1.965   1.209  0.4157 -0.2916  0.2430
  114MPD2    C2 1773   0.051   2.009   1.165  0.1802 -0.0131 -0.5445
  114MPD2    C3 1774   4.722   1.938   1.061 -0.1904 -0.3348  0.1460
  114MPD2    C4 1775   0.050   1.821   1.015  0.4795 -0.4265 -0.5980
  114MPD2    C5 1776   0.172   1.778   1.065 -0.1850 -0.5158 -0.9317
  114MPD2     H 1777   0.012   2.095   1.218 -1.7270 -0.7498 -0.7482
  114MPD2    H1 1778   0.015   1.758   0.934 -1.6232 -0.0304  0.0094
  114MPD2    H2 1779   0.323   1.807   1.209 -0.9469  0.0062  1.4895
  114MPD2    H3 1780   0.228   1.701   1.013  3.1184  0.6990  0.8181
  114MPD2     N 1781   4.595   1.970   1.009 -0.4601  0.1973 -0.0533
  114MPD2    H5 1782   4.567   1.907   0.934 -0.3792 -0.0440  0.1201
  114MPD2    N1 1783   0.243   2.047   1.304 -0.2419  0.0389 -0.0423
  114MPD2    H7 1784   0.193   2.129   1.337 -0.3611 -1.0113  2.3914
  115TMC2    C1 1785   0.624   4.226  17.689  0.2795  0.4544 -0.0881
  115TMC2    C2 1786   0.761   4.221  17.688 -0.1172  0.3822 -0.5254
  115TMC2    C3 1787   0.824   4.339  17.704 -0.7757 -0.0725 -0.8958
  115TMC2    C4 1788   0.559   4.347  17.695 -0.4516 -0.1241 -0.6803
  115TMC2    C5 1789   0.635   4.456  17.714  0.1339  0.4790 -0.0633
  115TMC2    C6 1790   0.767   4.457  17.723 -0.8208  0.1648  0.6106
  115TMC2     C 1791   0.554   4.107  17.654 -0.2350 -0.1564 -0.5925
  115TMC2     O 1792   0.618   4.012  17.608  0.0324  0.6508 -0.0078
  115TMC2     H 1793   0.825   4.135  17.668 -1.5697 -0.9741  0.6319
  115TMC2    H1 1794   0.452   4.356  17.681 -0.3636  1.2580 -0.3893
  115TMC2    H2 1795   0.830   4.536   0.025 -0.6978  0.1794  0.3845
  115TMC2    C7 1796   0.562   4.578   0.006  0.1696 -0.3488 -0.5762
  115TMC2    C8 1797   0.963   4.335   0.003 -0.3293  0.7440  1.3127
  115TMC2    O1 1798   0.446   4.573   0.042  0.4606  0.5009 -0.3101
  115TMC2    O2 1799   1.023   4.228   0.031  0.6578 -0.3611 -0.1987
  115TMC2    O5 1800   1.026   4.442  17.685 -0.0403  0.4533  0.3756
  115TMC2    H5 1801   0.976   4.514  17.641  0.3019 -0.0964 -0.9049
  116MPD2     C 1802   0.129   3.818  17.615 -0.3686 -0.0929  0.6036
  116MPD2    C1 1803   0.257   3.779  17.626 -0.0386 -0.4255  0.7888
  116MPD2    C2 1804   0.359   3.869  17.629 -0.2931 -0.2582  0.6532
  116MPD2    C3 1805   0.329   4.009  17.628  0.6728  0.0494  0.3383
  116MPD2    C4 1806   0.191   4.037  17.624  0.0326  0.8243  0.2980
  116MPD2    C5 1807   0.093   3.950  17.616 -0.0919  0.4041 -0.7742
  116MPD2     H 1808   0.459   3.828  17.631 -0.1258  0.2184  2.4137
  116MPD2    H1 1809   0.161   4.141  17.627 -2.5940  0.0853 -0.0216
  116MPD2    H2 1810   0.045   3.751  17.623  1.0330 -1.7791  1.1084
  116MPD2    H3 1811   4.729   3.995  17.609 -1.4454 -2.3871  0.0817
  116MPD2     N 1812   0.423   4.113  17.662  0.5061  0.0673 -0.0846
  116MPD2    H5 1813   0.382   4.198  17.698  0.9780  0.5591 -0.6993
  116MPD2    N1 1814   0.279   3.642  17.624  0.1088 -0.1857  0.3226
  116MPD2    H7 1815   0.194   3.587  17.628 -0.1817  0.0473 -3.3213
  117TMC2    C1 1816   3.789   0.899  14.662  0.8718  0.5569 -0.0489
  117TMC2    C2 1817   3.879   0.829  14.736 -0.2984  0.1535  0.5627
  117TMC2    C3 1818   3.939   0.892  14.840  1.0676  0.5085  0.4934
  117TMC2    C4 1819   3.797   1.038  14.663 -0.1145 -0.0527 -0.0784
  117TMC2    C5 1820   3.854   1.099  14.770 -0.2814  0.1105  0.3909
  117TMC2    C6 1821   3.922   1.023  14.862  0.8910 -0.5955  0.9696
  117TMC2     C 1822   3.718   0.826  14.554  0.7340  0.0451 -0.1555
  117TMC2     O 1823   3.755   0.715  14.513  0.5303  0.4853  0.4237
  117TMC2     H 1824   3.871   0.721  14.731  1.5828 -0.0724  2.3876
  117TMC2    H1 1825   3.744   1.102  14.593  2.1542  1.0203 -0.8284
  117TMC2    H2 1826   3.968   1.071  14.948  1.2195 -0.1121  0.5191
  117TMC2    C7 1827   3.866   1.247  14.774 -0.2406 -0.6636  0.5171
  117TMC2    C8 1828   3.988   0.806  14.941 -0.1872  0.4828  0.0598
  117TMC2    O1 1829   3.951   1.291  14.853 -0.0415  0.3769  0.1954
  117TMC2    O2 1830   3.909   0.738  15.005 -0.3732 -0.0239 -0.1960
  117TMC2    O5 1831   4.093   0.878  15.000  0.1361  0.2922  0.1844
  117TMC2    H5 1832   4.149   0.930  14.938 -1.2863 -0.7081 -1.9758
  118MPD2     C 1833   3.617   1.493  14.712 -0.4179  0.4669 -0.2747
  118MPD2    C1 1834   3.744   1.446  14.715 -0.6288  0.2857  0.7183
  118MPD2    C2 1835   3.850   1.540  14.717 -0.5538  0.7433 -0.5549
  118MPD2    C3 1836   3.823   1.674  14.699 -0.1819 -0.4358  0.0306
  118MPD2    C4 1837   3.694   1.714  14.698  0.2864 -0.0198  0.5021
  118MPD2    C5 1838   3.591   1.628  14.715 -0.8131 -0.3148 -0.8164
  118MPD2     H 1839   3.949   1.499  14.732 -0.0455  2.3702  0.5030
  118MPD2    H1 1840   3.667   1.818  14.684  0.8654 -0.0733 -1.0174
  118MPD2    H2 1841   3.528   1.431  14.701 -0.5042  0.0742  2.6613
  118MPD2    H3 1842   3.491   1.669  14.712  0.0492  1.7987 -0.5813
  118MPD2     N 1843   3.920   1.779  14.697  0.0426  0.8877  0.1979
  118MPD2    H5 1844   3.885   1.873  14.685  0.2399  0.8612 -0.5504
  118MPD2    N1 1845   3.757   1.309  14.720 -0.0574  0.2386 -0.1004
  118MPD2    H7 1846   3.683   1.256  14.676  2.2272 -1.0572 -2.3236
  119TMC2    C1 1847   1.302   2.049  12.951 -0.6591  0.5941 -0.7106
  119TMC2    C2 1848   1.363   2.163  12.899  0.0926 -0.0894  0.3418
  119TMC2    C3 1849   1.288   2.274  12.878 -0.4783  0.1685  0.9628
  119TMC2    C4 1850   1.166   2.051  12.983 -0.0044 -0.1966  0.5010
  119TMC2    C5 1851   1.096   2.168  12.960  0.0564 -0.4155 -0.7082
  119TMC2    C6 1852   1.153   2.278  12.907  0.0454  0.9813 -0.2238
  119TMC2     C 1853   1.378   1.985  13.059  0.1330  0.5520  0.7473
  119TMC2     O 1854   1.301   1.925  13.133 -0.0936 -0.1951 -0.4430
  119TMC2     H 1855   1.464   2.156  12.861 -0.6012  0.2248 -1.5418
  119TMC2    H1 1856   1.118   1.963  13.024 -1.1859  0.2528  0.0838
  119TMC2    H2 1857   1.109   2.377  12.902  1.4362  1.6337  0.5897
  119TMC2    C7 1858   0.965   2.180  13.013  1.3052  0.0081 -0.1596
  119TMC2    C8 1859   1.341   2.358  12.766 -0.1674  0.0793 -0.3262
  119TMC2    O1 1860   0.892   2.263  12.958 -0.3408  0.5350 -0.2713
  119TMC2    O2 1861   1.460   2.352  12.738  0.1901 -0.2927 -0.3954
  119TMC2    O5 1862   1.237   2.386  12.686 -0.0470 -0.7984 -0.6020
  119TMC2    H5 1863   1.143   2.378  12.711 -0.0781  1.3170 -0.0699
  120MPD2     C 1864   1.731   1.964  13.430 -0.2422  0.0849  0.4850
  120MPD2    C1 1865   1.598   2.000  13.442 -0.1346  0.4346 -0.5620
  120MPD2    C2 1866   1.519   2.005  13.325 -0.1055 -0.3115  0.5608
  120MPD2    C3 1867   1.581   1.996  13.201 -0.2231  0.0150  0.6471
  120MPD2    C4 1868   1.719   1.976  13.195 -0.1100  0.2757  0.0095
  120MPD2    C5 1869   1.787   1.958  13.308 -0.3334  0.1116 -0.3762
  120MPD2     H 1870   1.411   2.014  13.328 -0.1078  0.4201 -1.4424
  120MPD2    H1 1871   1.770   1.968  13.099  0.4764 -0.1176  0.3534
  120MPD2    H2 1872   1.791   1.957  13.520  1.9959 -2.6690 -1.2209
  120MPD2    H3 1873   1.891   1.932  13.295 -0.4854 -0.5337 -0.2877
  120MPD2     N 1874   1.518   2.001  13.074  0.6790  0.5872  0.5832
  120MPD2    H5 1875   1.574   2.043  13.001  1.5302 -0.0478  0.8762
  120MPD2    N1 1876   1.551   2.007  13.575  0.1624 -0.1139 -0.0391
  120MPD2    H7 1877   1.621   2.003  13.649 -0.0671 -2.3314  0.0551
  121TMC2    C1 1878   3.538   3.288  13.990 -0.3894 -0.9262 -0.4780
  121TMC2    C2 1879   3.514   3.154  13.978  0.1524 -0.3989  0.1165
  121TMC2    C3 1880   3.385   3.106  13.969  0.1338 -0.2681  0.2042
  121TMC2    C4 1881   3.430   3.379  13.989  0.1726  0.1787  0.2777
  121TMC2    C5 1882   3.303   3.323  13.991 -0.4262 -0.2850 -0.1520
  121TMC2    C6 1883   3.276   3.191  13.973 -0.3740 -0.7154 -0.9620
  121TMC2     C 1884   3.673   3.341  13.969 -0.4491 -0.4311 -0.0965
  121TMC2     O 1885   3.759   3.259  14.005 -0.5086 -0.5223  0.1082
  121TMC2     H 1886   3.592   3.080  13.971  1.9993  1.6450 -0.7940
  121TMC2    H1 1887   3.446   3.485  14.001  1.9416 -0.1656  0.9167
  121TMC2    H2 1888   3.176   3.151  13.986 -1.1954  1.3182 -1.1065
  121TMC2    C7 1889   3.181   3.403  14.010  0.2491 -0.6530  1.0944
  121TMC2    C8 1890   3.368   2.968  13.980 -0.6951  0.2604 -1.2884
  121TMC2    O1 1891   3.088   3.379  13.933  0.0463 -0.5100  0.1591
  121TMC2    O2 1892   3.458   2.898  14.026  0.3966 -0.3660 -0.3140
  121TMC2    O5 1893   3.266   2.929  13.894  0.4111  0.5875  0.1506
  121TMC2    H5 1894   3.249   3.006  13.836 -0.9650  0.7238  0.7417
  122MPD2     C 1895   3.912   3.486  13.891  0.1636  0.2776  0.6849
  122MPD2    C1 1896   3.789   3.505  13.827  0.0513  0.6129  0.2095
  122MPD2    C2 1897   3.775   3.592  13.718 -0.0078  0.2012 -0.4135
  122MPD2    C3 1898   3.887   3.659  13.668  0.3158 -0.0301  0.4441
  122MPD2    C4 1899   4.012   3.630  13.727  0.4980 -0.5425  0.5768
  122MPD2    C5 1900   4.019   3.540  13.830 -0.2020 -0.2027  0.1637
  122MPD2     H 1901   3.679   3.606  13.668  1.0867  0.5227 -2.4082
  122MPD2    H1 1902   4.102   3.673  13.682 -0.4681  1.9987  1.0713
  122MPD2    H2 1903   3.925   3.432  13.985  0.1685  0.8225  1.0011
  122MPD2    H3 1904   4.119   3.521  13.865  0.6813 -0.4413 -2.5156
  122MPD2     N 1905   3.880   3.755  13.570 -0.2911  0.6110 -0.5308
  122MPD2    H5 1906   3.966   3.782  13.523  1.0495 -1.0398  1.0034
  122MPD2    N1 1907   3.671   3.432  13.866  0.2958 -0.0893 -0.2495
  122MPD2    H7 1908   3.582   3.446  13.821  0.8768  0.2604 -1.2863
  123TMC2    C1 1909   1.449   2.163  10.448 -0.0130 -0.5970  0.2886
  123TMC2    C2 1910   1.482   2.295  10.478  0.6559  0.3046 -0.5201
  123TMC2    C3 1911   1.573   2.361  10.400 -0.1575  0.1968  0.0587
  123TMC2    C4 1912   1.508   2.104  10.339  0.3644 -0.2411  0.5305
  123TMC2    C5 1913   1.595   2.186  10.264 -0.7221  0.0360  0.4062
  123TMC2    C6 1914   1.632   2.309  10.294 -0.2672  0.0869  0.0500
  123TMC2     C 1915   1.345   2.092  10.524 -0.4886  0.7250  0.0149
  123TMC2     O 1916   1.330   2.137  10.641  0.2984 -0.2472 -0.1417
  123TMC2     H 1917   1.450   2.349  10.567 -0.5415  0.8540 -1.2948
  123TMC2    H1 1918   1.496   1.998  10.322  2.5565 -0.5573  0.9362
  123TMC2    H2 1919   1.690   2.370  10.226  0.1260 -1.4261 -0.9889
  123TMC2    C7 1920   1.678   2.105  10.184  0.5629  0.0246 -0.1759
  123TMC2    C8 1921   1.598   2.500  10.442 -0.2410  0.8478 -0.4782
  123TMC2    O1 1922   1.618   2.010  10.135  0.2821  0.0522  0.8392
  123TMC2    O2 1923   1.535   2.563  10.532  0.2023 -0.3322  0.6100
  123TMC2    O5 1924   1.716   2.544  10.396  0.1570 -0.6824 -0.0477
  123TMC2    H5 1925   1.765   2.474  10.347  2.4783  0.5026  0.5579
  124MPD2     C 1926   1.061   1.686  10.652 -0.6653  0.2097  0.6793
  124MPD2    C1 1927   1.112   1.664  10.524  0.6236  0.1685 -0.3866
  124MPD2    C2 1928   1.168   1.774  10.456  0.0355 -0.2005  0.6012
  124MPD2    C3 1929   1.193   1.893  10.516  0.1279 -0.6711  0.3729
  124MPD2    C4 1930   1.148   1.908  10.643  0.2946  0.3632 -0.1616
  124MPD2    C5 1931   1.079   1.808  10.705  0.2190  0.8651  0.1782
  124MPD2     H 1932   1.223   1.752  10.365  0.2439 -0.5022  0.7996
  124MPD2    H1 1933   1.157   2.007  10.688  1.8596  0.6356 -1.0795
  124MPD2    H2 1934   1.016   1.604  10.707  0.3005 -1.6139 -1.2657
  124MPD2    H3 1935   1.030   1.842  10.795  0.2963  1.3082  0.0521
  124MPD2     N 1936   1.282   1.994  10.455  0.3820  0.6991  0.1725
  124MPD2    H5 1937   1.298   1.982  10.356  1.0321  0.0993  0.3517
  124MPD2    N1 1938   1.122   1.534  10.465 -0.1690 -0.7414  0.1523
  124MPD2    H7 1939   1.111   1.455  10.528  0.3814  0.7921  2.1524
  125TMC2    C1 1940   4.075   3.433   8.651 -0.5157  0.4869 -0.2594
  125TMC2    C2 1941   4.157   3.540   8.682 -0.2781  0.8502 -0.8200
  125TMC2    C3 1942   4.104   3.660   8.712 -1.3659  0.3439  0.5216
  125TMC2    C4 1943   3.938   3.459   8.637 -0.2234 -0.4450  0.0598
  125TMC2    C5 1944   3.885   3.583   8.659  0.2237 -0.2459 -0.1385
  125TMC2    C6 1945   3.971   3.687   8.700  0.3241  1.0606  1.0898
  125TMC2     C 1946   4.135   3.302   8.617 -0.8674  0.7937  0.3111
  125TMC2     O 1947   4.254   3.293   8.649  0.6678 -0.2047  0.4671
  125TMC2     H 1948   4.263   3.520   8.692 -0.5762  0.1125  0.9666
  125TMC2    H1 1949   3.870   3.375   8.632  0.0629 -0.6829  0.1667
  125TMC2    H2 1950   3.942   3.790   8.717 -0.7139  0.7985  0.9498
  125TMC2    C7 1951   3.738   3.587   8.675  0.9804  0.9261  0.1757
  125TMC2    C8 1952   4.185   3.778   8.739 -0.5372 -0.2317 -0.6791
  125TMC2    O1 1953   3.686   3.492   8.616  0.3635 -0.1028 -0.0394
  125TMC2    O2 1954   4.151   3.879   8.684  0.0904 -0.0746 -0.2047
  125TMC2    O5 1955   4.288   3.752   8.818  0.2268  0.5286 -0.2928
  125TMC2    H5 1956   4.293   3.662   8.858  0.3573  0.8529  0.4303
  126MPD1     C 1957   4.109   2.811   8.489 -0.1807  0.2513  0.6612
  126MPD1    C1 1958   4.017   2.878   8.410  0.5296 -0.5915 -0.0106
  126MPD1    C2 1959   4.008   3.015   8.419  0.0800  0.3763 -0.6646
  126MPD1    C3 1960   4.077   3.084   8.516  0.2395  0.6044  0.5459
  126MPD1    C4 1961   4.168   3.014   8.595 -0.4838  0.5903  0.0733
  126MPD1    C5 1962   4.185   2.880   8.575 -0.6929  0.3120 -0.1772
  126MPD1     H 1963   3.938   3.072   8.359  0.3038 -0.7606 -2.0193
  126MPD1    H1 1964   4.223   3.060   8.677  0.1513  0.5555 -0.3299
  126MPD1    H2 1965   4.134   2.707   8.474  2.6494  1.1392 -0.7772
  126MPD1    H3 1966   4.262   2.832   8.635 -0.2777  1.0607 -0.1173
  126MPD1     N 1967   4.057   3.224   8.537 -0.0004 -0.6154 -0.6062
  126MPD1    H5 1968   3.995   3.269   8.469 -0.4156  0.6470  0.6166
  126MPD1    N1 1969   3.965   2.810   8.301 -0.4532 -0.8146  0.6011
  126MPD1    H6 1970   3.878   2.846   8.265  0.3250  1.1029  0.6660
  126MPD1    H7 1971   3.946   2.715   8.333 -0.0106 -0.8191  0.8538
  127TMC2    C1 1972   4.121   2.779   9.782  0.1939 -0.7851  0.4764
  127TMC2    C2 1973   4.157   2.745   9.913 -0.4324 -0.3304  0.0026
  127TMC2    C3 1974   4.113   2.632   9.972 -0.5080  0.5573  1.0162
  127TMC2    C4 1975   4.019   2.706   9.722  0.5207 -0.4411 -0.1124
  127TMC2    C5 1976   3.977   2.590   9.791  0.4550 -0.2637 -0.3866
  127TMC2    C6 1977   4.028   2.543   9.906  1.0934  0.0822  0.5054
  127TMC2     C 1978   4.131   2.929   9.748 -0.0875 -0.2797 -0.3718
  127TMC2     O 1979   4.207   2.998   9.814  0.4424 -0.8887  0.5009
  127TMC2     H 1980   4.219   2.816   9.966 -2.9664  1.1370  1.0059
  127TMC2    H1 1981   3.964   2.732   9.632  0.3680  2.9952  0.9619
  127TMC2    H2 1982   3.990   2.453   9.952 -0.1770  0.5096  0.2814
  127TMC2    C7 1983   3.859   2.531   9.733  0.9181  0.4215  0.6108
  127TMC2    C8 1984   4.192   2.578  10.077  0.0246  0.1336  0.1908
  127TMC2    O1 1985   3.870   2.488   9.620 -0.0694  0.3792  0.5136
  127TMC2    O2 1986   4.233   2.637  10.175  0.2848  0.0039 -0.0678
  127TMC2    O5 1987   4.201   2.446  10.056 -0.2609 -1.0469  0.0335
  127TMC2    H5 1988   4.161   2.414   9.972 -0.8826  2.1896 -0.9095
  128MPD2     C 1989   4.017   3.106   9.439 -0.3326 -0.2572  0.3629
  128MPD2    C1 1990   4.061   3.095   9.571  0.1127  0.7128  0.4358
  128MPD2    C2 1991   4.080   3.215   9.646 -0.8495 -0.8524  0.4913
  128MPD2    C3 1992   4.055   3.337   9.581  0.0324  0.3479 -0.2071
  128MPD2    C4 1993   4.012   3.343   9.449  0.2640 -0.3991  0.3158
  128MPD2    C5 1994   3.997   3.226   9.381 -0.3802 -0.7755 -0.4295
  128MPD2     H 1995   4.087   3.214   9.754 -1.3257 -0.2990  0.5300
  128MPD2    H1 1996   3.982   3.435   9.400  1.3223 -0.0990  0.2335
  128MPD2    H2 1997   4.000   3.018   9.379  0.5511  0.3961 -0.8454
  128MPD2    H3 1998   3.952   3.223   9.282  1.7370 -0.0287 -1.4329
  128MPD2     N 1999   4.066   3.459   9.657  0.5731 -0.5754  0.4056
  128MPD2    H5 2000   4.095   3.442   9.753  0.4259  1.7330  0.8486
  128MPD2    N1 2001   4.074   2.960   9.622 -0.1593 -0.3002  0.1408
  128MPD2    H7 2002   4.049   2.884   9.558  0.3826 -0.9499  0.6951
  129TMC2    C1 2003   2.137   3.310   1.459  0.4141  0.5802  0.3708
  129TMC2    C2 2004   2.229   3.380   1.385 -0.0810  0.2831  0.0252
  129TMC2    C3 2005   2.337   3.314   1.329 -0.3164  0.5409 -0.1025
  129TMC2    C4 2006   2.152   3.179   1.483 -0.3976 -0.2238  0.0691
  129TMC2    C5 2007   2.261   3.117   1.426 -0.1902  0.0723 -0.5375
  129TMC2    C6 2008   2.358   3.180   1.350  0.8866 -0.5703  0.3165
  129TMC2     C 2009   2.032   3.372   1.540  0.4954  0.3544  0.6121
  129TMC2     O 2010   1.923   3.318   1.551  0.3495 -0.1495  0.4322
  129TMC2     H 2011   2.210   3.485   1.372  1.3661  0.5837  0.3456
  129TMC2    H1 2012   2.076   3.127   1.540 -0.8155  0.6848  0.3337
  129TMC2    H2 2013   2.437   3.122   1.302 -0.5379 -1.5491 -0.8387
  129TMC2    C7 2014   2.270   2.983   1.450  0.3753 -0.4083 -0.5620
  129TMC2    C8 2015   2.418   3.394   1.241 -0.5955 -0.0935  0.4001
  129TMC2    O1 2016   2.169   2.918   1.455  0.5954  0.2858 -0.1327
  129TMC2    O2 2017   2.385   3.500   1.195 -0.0216 -0.1197 -0.0351
  129TMC2    O5 2018   2.547   3.365   1.263  0.6537  0.0960  0.3580
  129TMC2    H5 2019   2.563   3.305   1.339  1.3133 -1.7277 -1.2067
  130MPD2     C 2020   1.842   3.581   1.646  0.4381 -0.1041 -0.5990
  130MPD2    C1 2021   1.983   3.591   1.631  0.9342  0.4191  0.5698
  130MPD2    C2 2022   2.035   3.712   1.660  0.7840 -0.3636  0.5498
  130MPD2    C3 2023   1.965   3.825   1.708  0.9921 -0.8370 -0.2468
  130MPD2    C4 2024   1.830   3.811   1.713  0.2450  0.0321  0.5808
  130MPD2    C5 2025   1.774   3.690   1.679 -0.3381 -0.7468  0.4444
  130MPD2     H 2026   2.139   3.724   1.634  0.7562  0.4711  0.8213
  130MPD2    H1 2027   1.760   3.888   1.745 -0.8501 -1.2381  1.2232
  130MPD2    H2 2028   1.791   3.487   1.631  3.4905 -1.8681  0.1816
  130MPD2    H3 2029   1.670   3.673   1.705 -0.3245 -0.7666  0.4859
  130MPD2     N 2030   2.027   3.951   1.720 -0.0558 -0.1218 -0.1243
  130MPD2    H5 2031   2.124   3.952   1.691  0.3126 -0.2424  1.1134
  130MPD2    N1 2032   2.068   3.498   1.566  0.7973  0.6757  0.7140
  130MPD2    H7 2033   2.166   3.524   1.563  1.0546 -0.4543 -0.4989
  131TMC2    C1 2034   1.764   1.867   9.759  0.3610  0.0273 -0.3879
  131TMC2    C2 2035   1.884   1.862   9.695 -0.3294 -0.1385  0.1465
  131TMC2    C3 2036   1.955   1.979   9.685 -0.3769 -0.7372  0.2898
  131TMC2    C4 2037   1.708   1.992   9.795  0.4005  0.6647  0.2358
  131TMC2    C5 2038   1.770   2.108   9.773 -0.1259 -0.0686 -0.3341
  131TMC2    C6 2039   1.896   2.106   9.716  0.1879 -0.4915  0.0910
  131TMC2     C 2040   1.677   1.750   9.766  0.5821 -0.1295 -0.7849
  131TMC2     O 2041   1.567   1.776   9.815 -0.4603  0.1622 -0.0947
  131TMC2     H 2042   1.928   1.771   9.655  2.0438  1.0071  0.1253
  131TMC2    H1 2043   1.611   1.994   9.842  1.1389 -0.6196  1.8260
  131TMC2    H2 2044   1.937   2.197   9.673  0.2242 -0.1020  0.9586
  131TMC2    C7 2045   1.721   2.226   9.841 -0.0340 -0.2088  0.1534
  131TMC2    C8 2046   2.081   1.979   9.603 -0.3780 -0.3902  0.0943
  131TMC2    O1 2047   1.603   2.221   9.874  0.2175  0.4116  0.4912
  131TMC2    O2 2048   2.133   1.880   9.559 -0.7207  0.3198 -0.2644
  131TMC2    O5 2049   2.148   2.081   9.651 -0.3004 -0.0044 -0.5996
  131TMC2    H5 2050   2.086   2.146   9.691 -0.8040 -0.9052  0.0730
  132MPD2     C 2051   1.687   1.414   9.638 -1.0596 -0.2188 -0.1053
  132MPD2    C1 2052   1.660   1.508   9.734  0.6740 -0.4706 -0.1420
  132MPD2    C2 2053   1.577   1.488   9.843 -0.0504  0.3400 -0.1658
  132MPD2    C3 2054   1.524   1.366   9.863  0.2084 -0.0898 -0.2564
  132MPD2    C4 2055   1.540   1.278   9.756 -0.2642  0.2164  0.3270
  132MPD2    C5 2056   1.614   1.297   9.645 -0.0375 -0.2393  0.8045
  132MPD2     H 2057   1.571   1.565   9.919  0.7246 -0.8529  1.1087
  132MPD2    H1 2058   1.505   1.175   9.758 -0.4982  0.3187  1.3767
  132MPD2    H2 2059   1.742   1.426   9.546 -1.6959 -0.6192 -0.5368
  132MPD2    H3 2060   1.606   1.220   9.569 -1.4791  0.1587  0.5576
  132MPD2     N 2061   1.448   1.338   9.987  0.1044 -0.5163 -0.3492
  132MPD2    H5 2062   1.467   1.397  10.068  0.4733 -1.8755  0.5511
  132MPD2    N1 2063   1.728   1.633   9.718  0.7408 -0.3684  0.2361
  132MPD2    H7 2064   1.803   1.629   9.649  1.4721  0.2157  1.0081
  133TMC2    C1 2065   3.545   3.538   9.070 -0.3884  0.3096  0.5886
  133TMC2    C2 2066   3.480   3.654   9.111  0.0590  0.7593 -0.1628
  133TMC2    C3 2067   3.343   3.655   9.129  0.4020  0.2298  0.0212
  133TMC2    C4 2068   3.475   3.417   9.055 -0.5243 -0.1134  0.2314
  133TMC2    C5 2069   3.341   3.427   9.077 -0.2314  0.7204  0.0741
  133TMC2    C6 2070   3.271   3.534   9.122  0.3807 -0.0143 -0.3200
  133TMC2     C 2071   3.681   3.544   9.056  1.2781 -0.3020  0.4149
  133TMC2     O 2072   3.739   3.638   9.111 -0.3844  0.2940  0.2976
  133TMC2     H 2073   3.531   3.750   9.113  0.0307  0.7708  0.1131
  133TMC2    H1 2074   3.517   3.318   9.044 -1.0554 -0.4412  1.2159
  133TMC2    H2 2075   3.165   3.524   9.141  0.4949 -0.4479  0.1010
  133TMC2    C7 2076   3.265   3.313   9.025  0.3280  0.0324 -0.9387
  133TMC2    C8 2077   3.272   3.779   9.167 -0.1731 -0.7730  0.2590
  133TMC2    O1 2078   3.314   3.255   8.927 -0.4022  0.2676  0.4406
  133TMC2    O2 2079   3.155   3.799   9.148 -0.0486 -0.8015 -0.3763
  133TMC2    O5 2080   3.338   3.847   9.262 -0.0821  0.0776 -0.0023
  133TMC2    H5 2081   3.435   3.831   9.267 -0.1624  0.1887  1.9466
  134MPD2     C 2082   3.881   3.271   8.920  0.8442  0.8266 -0.3275
  134MPD2    C1 2083   3.853   3.379   8.999  0.3650 -1.4638  0.2872
  134MPD2    C2 2084   3.954   3.435   9.073  0.4796  0.1450 -0.5429
  134MPD2    C3 2085   4.079   3.387   9.069  0.6184  0.6415 -0.3540
  134MPD2    C4 2086   4.110   3.272   8.988  0.2694 -0.6232 -0.1603
  134MPD2    C5 2087   4.011   3.226   8.915  0.3200 -0.2422  0.0523
  134MPD2     H 2088   3.933   3.513   9.145 -3.5141 -3.9917  2.7801
  134MPD2    H1 2089   4.209   3.233   8.967  0.6264 -0.3629  1.0164
  134MPD2    H2 2090   3.799   3.225   8.868  1.8175  1.4566 -2.4406
  134MPD2    H3 2091   4.025   3.148   8.841 -1.1629  0.0636 -0.5476
  134MPD2     N 2092   4.185   3.462   9.134 -0.2906 -0.1041 -0.3873
  134MPD2    H5 2093   4.275   3.420   9.152  0.0161  0.4490 -0.6561
  134MPD2    N1 2094   3.728   3.438   8.990 -0.4003 -0.3688  0.9131
  134MPD2    H7 2095   3.658   3.374   8.954 -2.6420  2.5192  0.1458
  135TMC2    C1 2096   2.646   0.220  10.168 -0.1252  0.2736  0.6340
  135TMC2    C2 2097   2.772   0.164  10.167  0.4588  0.1901 -0.5271
  135TMC2    C3 2098   2.805   0.067  10.257  0.0661  0.4088  0.4884
  135TMC2    C4 2099   2.552   0.182  10.256  0.6932 -0.6312  0.5186
  135TMC2    C5 2100   2.586   0.083  10.349  0.3805 -0.0720  0.1766
  135TMC2    C6 2101   2.710   0.021  10.340 -0.4324 -0.4318  0.3994
  135TMC2     C 2102   2.621   0.341  10.087 -0.5315 -0.2445 -0.6576
  135TMC2     O 2103   2.550   0.425  10.135 -0.6670  0.0597 -0.6159
  135TMC2     H 2104   2.860   0.198  10.113 -0.7761  1.4448 -1.7323
  135TMC2    H1 2105   2.455   0.230  10.255  0.6622 -0.7266 -0.9788
  135TMC2    H2 2106   2.739   4.675  10.406  0.0437 -0.3571  0.2766
  135TMC2    C7 2107   2.480   0.015  10.415  0.1519 -0.2303  0.4440
  135TMC2    C8 2108   2.943   0.038  10.288 -0.5040 -0.5792 -0.3498
  135TMC2    O1 2109   2.381   0.085  10.441  0.2799  0.2222 -0.0957
  135TMC2    O2 2110   3.030   0.059  10.205  0.6281  0.3619 -0.3130
  135TMC2    O5 2111   2.964   0.059  10.421  0.1344 -0.1162 -0.0590
  135TMC2    H5 2112   2.890   0.058  10.485  1.6647  0.9936  1.7664
  136MPD2     C 2113   2.602   0.527   9.851 -0.1680 -0.3398 -0.2524
  136MPD2    C1 2114   2.682   0.418   9.860 -0.1299 -0.1543  0.3296
  136MPD2    C2 2115   2.755   0.373   9.758 -0.6399 -0.7136  0.5367
  136MPD2    C3 2116   2.763   0.440   9.639  0.2662  0.3948 -0.0963
  136MPD2    C4 2117   2.694   0.566   9.638  0.0363 -0.3191  0.0528
  136MPD2    C5 2118   2.605   0.603   9.742 -0.0643 -0.3174 -0.1023
  136MPD2     H 2119   2.799   0.274   9.763 -0.1741 -0.6694 -2.4274
  136MPD2    H1 2120   2.699   0.631   9.552 -1.8140 -2.9796 -2.0528
  136MPD2    H2 2121   2.532   0.555   9.930  0.8039  0.3098  0.3741
  136MPD2    H3 2122   2.554   0.698   9.739 -1.7955 -1.1874  1.5283
  136MPD2     N 2123   2.824   0.397   9.520  0.0654 -0.1442 -0.6381
  136MPD2    H5 2124   2.817   0.461   9.442 -1.2466  0.7058  0.1725
  136MPD2    N1 2125   2.682   0.327   9.970  0.3820 -0.2985  0.5318
  136MPD2    H7 2126   2.729   0.238   9.957  1.4287 -0.0285  2.4193
  137TMC2    C1 2127   3.223   2.951   9.360 -0.8852 -0.5088 -0.4241
  137TMC2    C2 2128   3.292   2.938   9.245  0.1225  0.1694  0.1450
  137TMC2    C3 2129   3.233   2.857   9.150  0.2541 -0.7090  0.1432
  137TMC2    C4 2130   3.102   2.884   9.386  0.1240  0.4384 -0.2334
  137TMC2    C5 2131   3.051   2.812   9.288  0.1481  0.0304  0.2521
  137TMC2    C6 2132   3.111   2.798   9.167 -0.1341  0.6491 -0.1940
  137TMC2     C 2133   3.282   3.032   9.461  0.2661 -0.1007  0.6231
  137TMC2     O 2134   3.337   3.136   9.432  0.6303 -0.3964  0.4382
  137TMC2     H 2135   3.380   3.000   9.229  0.6269 -0.5102  0.3227
  137TMC2    H1 2136   3.053   2.900   9.481 -0.0257 -0.9565 -0.0770
  137TMC2    H2 2137   3.068   2.737   9.089 -1.4217 -0.8780  1.6860
  137TMC2    C7 2138   2.938   2.727   9.306 -0.3811  0.8785 -0.3689
  137TMC2    C8 2139   3.303   2.833   9.031 -0.0092  0.2117 -0.4269
  137TMC2    O1 2140   2.918   2.633   9.236  0.4091 -0.1256 -0.0086
  137TMC2    O2 2141   3.243   2.821   8.925 -0.2279 -0.8282 -1.1360
  137TMC2    O5 2142   3.425   2.797   9.059 -0.1557 -0.5505 -0.4071
  137TMC2    H5 2143   3.446   2.774   9.152 -1.9822 -1.2894 -0.1811
  138MPD2     C 2144   3.400   2.890   9.778 -0.2763 -0.7454 -0.2729
  138MPD2    C1 2145   3.356   2.992   9.695 -0.2481  0.4468 -0.0210
  138MPD2    C2 2146   3.375   3.120   9.728  0.1530 -0.1000 -0.4891
  138MPD2    C3 2147   3.446   3.153   9.842  0.0782  0.0012 -0.1294
  138MPD2    C4 2148   3.476   3.053   9.931  0.4129  0.2426  0.5151
  138MPD2    C5 2149   3.463   2.923   9.898 -0.2235 -0.5184 -0.5081
  138MPD2     H 2150   3.345   3.200   9.661 -3.9834  0.2107  1.7079
  138MPD2    H1 2151   3.533   3.080  10.020  0.9680  0.8231 -0.0160
  138MPD2    H2 2152   3.406   2.785   9.752 -1.5703 -0.8613 -0.1046
  138MPD2    H3 2153   3.500   2.844   9.962  0.8525  1.0437  0.7811
  138MPD2     N 2154   3.461   3.290   9.870  0.1593 -0.1858 -0.1284
  138MPD2    H5 2155   3.418   3.356   9.806 -0.3872  0.5008  0.9342
  138MPD2    N1 2156   3.289   2.956   9.576 -0.2585 -0.2975 -0.4276
  138MPD2    H7 2157   3.267   2.859   9.559 -0.0191 -0.3554 -0.4073
  139TMC2    C1 2158   3.309   1.627  13.507  0.3362 -0.2489  0.2197
  139TMC2    C2 2159   3.270   1.552  13.402 -0.3204 -0.1584  0.2309
  139TMC2    C3 2160   3.140   1.554  13.372 -0.2523  0.0399  0.2631
  139TMC2    C4 2161   3.218   1.692  13.588  0.0633 -0.5156  0.3525
  139TMC2    C5 2162   3.088   1.667  13.564 -0.7162 -0.8119 -0.5530
  139TMC2    C6 2163   3.047   1.605  13.454  0.3241  0.3296 -0.3702
  139TMC2     C 2164   3.446   1.647  13.542 -0.1015  0.1695  0.1194
  139TMC2     O 2165   3.473   1.666  13.663 -0.4067 -0.5213  0.1428
  139TMC2     H 2166   3.341   1.500  13.339  0.1503 -1.9610  2.2346
  139TMC2    H1 2167   3.249   1.737  13.682  0.6907  2.4811 -1.3005
  139TMC2    H2 2168   2.942   1.610  13.428 -0.0038 -1.0692  0.7270
  139TMC2    C7 2169   2.996   1.764  13.619  0.2538 -0.3814  0.2915
  139TMC2    C8 2170   3.105   1.491  13.253  0.1195  0.4495  0.3568
  139TMC2    O1 2171   2.879   1.735  13.646  0.0468  0.0021 -0.0179
  139TMC2    O2 2172   3.161   1.386  13.226 -0.4743 -0.2398 -0.9872
  139TMC2    O5 2173   3.055   1.583  13.171 -0.2507  0.4753 -0.6052
  139TMC2    H5 2174   3.043   1.666  13.222 -0.7797  0.2992 -0.4460
  140MPD2     C 2175   3.750   1.636  13.337  0.0729 -0.6818  0.6475
  140MPD2    C1 2176   3.674   1.628  13.453 -0.0063 -0.0713 -0.3765
  140MPD2    C2 2177   3.734   1.600  13.575  0.5313 -0.3166  0.3510
  140MPD2    C3 2178   3.870   1.601  13.589  0.0386 -0.4658 -0.2654
  140MPD2    C4 2179   3.944   1.600  13.475 -0.8541  0.4301 -0.0958
  140MPD2    C5 2180   3.887   1.619  13.356 -0.0049 -0.0118  0.1151
  140MPD2     H 2181   3.678   1.583  13.667 -0.6087  1.0763 -0.0877
  140MPD2    H1 2182   4.053   1.596  13.479 -0.8601  1.9087  1.4951
  140MPD2    H2 2183   3.707   1.660  13.240 -0.1448  0.9643  1.1484
  140MPD2    H3 2184   3.955   1.611  13.272  0.9789  1.3441  0.7825
  140MPD2     N 2185   3.923   1.575  13.720  0.0034  0.2231  0.1716
  140MPD2    H5 2186   3.858   1.564  13.797  0.0737  1.5963  0.4170
  140MPD2    N1 2187   3.532   1.633  13.441  0.5408  0.1053 -0.4729
  140MPD2    H7 2188   3.498   1.616  13.347 -0.1477  0.4294 -0.2821
  141TMC2    C1 2189   4.099   3.120  14.658 -0.3992 -0.2502 -0.4445
  141TMC2    C2 2190   4.142   3.083  14.785 -0.8013 -0.0479  0.3122
  141TMC2    C3 2191   4.176   3.184  14.870 -0.3381 -0.1281 -0.6589
  141TMC2    C4 2192   4.094   3.253  14.617 -0.0349 -0.7555  0.5063
  141TMC2    C5 2193   4.136   3.351  14.704 -0.2859  0.7199 -0.0937
  141TMC2    C6 2194   4.177   3.316  14.832  0.6659  0.1450  0.6551
  141TMC2     C 2195   4.050   3.016  14.557 -0.1820  0.2097 -0.0513
  141TMC2     O 2196   3.999   3.053  14.454  0.4134 -0.3597  0.3011
  141TMC2     H 2197   4.136   2.982  14.825 -0.0848  0.7278  2.3606
  141TMC2    H1 2198   4.067   3.273  14.514  0.3865 -1.5202  0.2532
  141TMC2    H2 2199   4.206   3.390  14.906  1.2945 -1.4225  1.9716
  141TMC2    C7 2200   4.178   3.485  14.652  0.3431 -0.0386  0.4468
  141TMC2    C8 2201   4.279   3.164  14.967 -0.4657 -1.1166  0.3620
  141TMC2    O1 2202   4.209   3.493  14.535 -0.4181  0.6849 -0.1848
  141TMC2    O2 2203   4.327   3.255  15.032 -0.3016 -0.1691  0.2388
  141TMC2    O5 2204   4.349   3.061  14.911  0.2344 -0.2888 -0.2896
  141TMC2    H5 2205   4.297   2.989  14.871  1.9359 -1.3289 -0.6322
  142TMC2    C1 2206   1.799   1.293  10.111  0.2816  0.8465 -0.6976
  142TMC2    C2 2207   1.879   1.242  10.010 -0.3795  0.2170 -0.0749
  142TMC2    C3 2208   1.938   1.328   9.926  0.0816 -0.7874 -0.0205
  142TMC2    C4 2209   1.803   1.424  10.138 -0.0871 -1.0447 -0.0001
  142TMC2    C5 2210   1.864   1.504  10.046 -0.1746 -0.0269  0.0825
  142TMC2    C6 2211   1.930   1.463   9.933 -0.2424 -0.4481  0.1811
  142TMC2     C 2212   1.733   1.203  10.198 -0.7141  0.4352 -0.5596
  142TMC2     O 2213   1.739   1.086  10.175 -0.1000 -0.1142 -0.2509
  142TMC2     H 2214   1.876   1.134  10.002  1.0608  0.2124 -0.5660
  142TMC2    H1 2215   1.772   1.461  10.234 -1.9007  0.2901 -1.1024
  142TMC2    H2 2216   1.956   1.523   9.846  0.1565 -0.4527  0.2973
  142TMC2    C7 2217   1.882   1.640  10.086 -0.5183  0.7847 -0.0944
  142TMC2    C8 2218   1.994   1.277   9.802  0.5425 -0.4985  0.1697
  142TMC2    O1 2219   1.826   1.673  10.190 -0.4527  0.0285  1.0804
  142TMC2    O2 2220   2.000   1.332   9.692  0.5917  0.3495 -0.2049
  142TMC2    O5 2221   2.061   1.166   9.828  0.6634  0.5834 -0.4762
  142TMC2    H5 2222   2.063   1.134   9.921 -0.1047 -0.7364 -0.9260
  143MPD2     C 2223   1.386   1.117  10.562  0.2002  0.4730  0.3411
  143MPD2    C1 2224   1.459   1.031  10.496 -0.3138  0.0594  0.0537
  143MPD2    C2 2225   1.548   1.075  10.395 -0.6640  0.7858 -0.0119
  143MPD2    C3 2226   1.553   1.211  10.363  0.4996  0.4430 -0.2523
  143MPD2    C4 2227   1.469   1.300  10.425  0.2353 -0.7878 -0.1768
  143MPD2    C5 2228   1.405   1.258  10.537  0.1006 -0.3455  1.0075
  143MPD2     H 2229   1.608   1.001  10.343  2.2327  1.9546  1.6852
  143MPD2    H1 2230   1.470   1.406  10.402  2.2371 -0.3568  1.8524
  143MPD2    H2 2231   1.327   1.089  10.649  1.6282 -3.7174 -0.0480
  143MPD2    H3 2232   1.357   1.337  10.593  2.5262 -0.8113  3.7208
  143MPD2     N 2233   1.647   1.273  10.278  0.9214  0.3013 -0.6615
  143MPD2    H5 2234   1.641   1.375  10.283 -2.8458  0.0973 -1.1535
  143MPD2    N1 2235   1.446   0.901  10.545  0.0759 -0.6572  0.2409
  143MPD2    H7 2236   1.387   0.895  10.627  0.6864  1.1165  0.8031
  144TMC2    C1 2237   0.141   0.778   0.712 -0.1640  0.0305  0.3801
  144TMC2    C2 2238   0.210   0.689   0.637  0.6013 -0.3215 -1.0920
  144TMC2    C3 2239   0.329   0.644   0.673 -0.2086  0.3006  0.3629
  144TMC2    C4 2240   0.189   0.824   0.830 -0.2902 -0.2970 -0.1816
  144TMC2    C5 2241   0.317   0.778   0.860  0.4354 -1.0736 -0.0916
  144TMC2    C6 2242   0.386   0.690   0.781  0.0441  0.3442  0.1662
  144TMC2     C 2243   4.730   0.788   0.675  0.5009 -0.2152 -0.7956
  144TMC2     O 2244   4.683   0.708   0.594 -0.7026  0.0463 -0.2651
  144TMC2     H 2245   0.171   0.667   0.538 -1.5767  0.6029 -0.4427
  144TMC2    H1 2246   0.135   0.889   0.898 -1.6976 -0.2437 -1.3356
  144TMC2    H2 2247   0.484   0.653   0.807  0.6809  1.2801 -0.9039
  144TMC2    C7 2248   0.402   0.844   0.960 -0.7362  0.4793  0.3023
  144TMC2    C8 2249   0.390   0.545   0.591 -0.0826  0.3083  0.3196
  144TMC2    O1 2250   0.514   0.803   0.978  0.6549 -0.0852 -0.3527
  144TMC2    O2 2251   0.335   0.489   0.499 -0.2755 -0.5143 -0.4216
  144TMC2    O5 2252   0.508   0.504   0.648 -0.1012  0.6583 -0.3322
  144TMC2    H5 2253   0.530   0.525   0.741  1.8785  0.7514 -0.8128
  145MPD2     C 2254   4.314   1.072   0.638  0.1794 -0.1263  0.2262
  145MPD2    C1 2255   4.334   0.944   0.614 -0.5917 -0.1003  0.6723
  145MPD2    C2 2256   4.453   0.882   0.649 -0.3718 -1.2188 -0.0917
  145MPD2    C3 2257   4.547   0.957   0.710  0.2602  0.0490  0.0034
  145MPD2    C4 2258   4.530   1.092   0.730  1.3295 -0.2693 -0.0122
  145MPD2    C5 2259   4.408   1.147   0.702  0.1712  0.2374  0.7276
  145MPD2     H 2260   4.477   0.781   0.618  0.5506  0.1107 -3.7956
  145MPD2    H1 2261   4.603   1.159   0.774  0.2411  0.5639  0.5356
  145MPD2    H2 2262   4.224   1.128   0.616 -0.0400 -0.9817 -1.0654
  145MPD2    H3 2263   4.388   1.252   0.717  0.0658  0.5997 -1.8798
  145MPD2     N 2264   4.675   0.903   0.728 -0.3844  0.1348  0.1794
  145MPD2    H5 2265   0.007   0.956   0.782 -2.9164  3.3578  0.1703
  145MPD2    N1 2266   4.228   0.862   0.554  0.1033  0.0661  0.1005
  145MPD2    H7 2267   4.246   0.762   0.549  1.2294  0.2195  1.0414
  146TMC2    C1 2268   0.928   4.639  12.901 -0.5019 -0.8014  0.4648
  146TMC2    C2 2269   0.859   0.010  12.849  0.1870  0.1542 -0.2394
  146TMC2    C3 2270   0.903   0.073  12.734  0.9803  0.3721  0.5555
  146TMC2    C4 2271   1.038   4.596  12.833  0.7583  0.6102 -0.6169
  146TMC2    C5 2272   1.082   4.663  12.726 -0.2346 -0.2633 -0.0057
  146TMC2    C6 2273   1.020   0.038  12.671 -0.5956 -0.6579 -0.4780
  146TMC2     C 2274   0.875   4.574  13.014 -0.8514  0.4768  0.0651
  146TMC2     O 2275   0.766   4.618  13.062  1.1416 -0.1521  0.3340
  146TMC2     H 2276   0.763   0.039  12.891 -0.0298 -1.5896  0.4602
  146TMC2    H1 2277   1.088   4.507  12.869 -0.3315 -0.0491 -0.7499
  146TMC2    H2 2278   1.063   0.096  12.590 -0.1643 -0.4233 -0.0799
  146TMC2    C7 2279   1.201   4.613  12.663  0.4709 -0.3275  0.5225
  146TMC2    C8 2280   0.815   0.173  12.683  0.1670  0.0848 -0.4160
  146TMC2    O1 2281   1.230   4.663  12.556  0.0607  0.2808 -0.2507
  146TMC2    O2 2282   0.734   0.236  12.751 -0.2156 -0.4477 -1.0146
  146TMC2    O5 2283   0.829   0.172  12.546 -0.9542 -0.2650  0.0477
  146TMC2    H5 2284   0.876   0.098  12.502 -2.9495 -1.5376  0.0181
  147MPD2     C 2285   1.617   4.318  12.596 -0.5081  0.0290 -0.2360
  147MPD2    C1 2286   1.536   4.259  12.691 -0.3527  0.3815  0.3135
  147MPD2    C2 2287   1.427   4.329  12.738  0.7501 -0.2278  1.1877
  147MPD2    C3 2288   1.391   4.453  12.677 -0.1616 -0.9168  0.1464
  147MPD2    C4 2289   1.457   4.490  12.562 -0.1617  0.5642  0.1810
  147MPD2    C5 2290   1.570   4.427  12.529 -0.6045  0.2576  0.0347
  147MPD2     H 2291   1.364   4.294  12.820  1.6307 -1.0344  1.5217
  147MPD2    H1 2292   1.431   4.577  12.502 -2.4083 -1.9392 -2.4524
  147MPD2    H2 2293   1.701   4.268  12.549 -1.4785 -1.7274 -0.0697
  147MPD2    H3 2294   1.628   4.463  12.445 -0.1317 -2.1812 -0.6797
  147MPD2     N 2295   1.273   4.519  12.729  0.4509  0.1397 -0.4834
  147MPD2    H5 2296   1.238   4.489  12.819 -1.9758  3.2510 -0.3977
  147MPD2    N1 2297   1.578   4.135  12.736  0.5104 -0.0195  0.1868
  147MPD2    H7 2298   1.663   4.098  12.696 -0.6234 -2.4408 -0.0067
  148TMC2    C1 2299   0.597   3.625  10.388 -0.8176 -0.0566  0.1110
  148TMC2    C2 2300   0.713   3.690  10.395  0.3752  0.0332 -0.0346
  148TMC2    C3 2301   0.802   3.643  10.494  0.7948  0.1907 -0.1330
  148TMC2    C4 2302   0.569   3.513  10.458  0.0851  0.7022 -0.4621
  148TMC2    C5 2303   0.665   3.465  10.551 -0.1761 -0.0948 -0.6411
  148TMC2    C6 2304   0.777   3.535  10.571  0.8460 -0.5274 -0.3245
  148TMC2     C 2305   0.537   3.638  10.253  0.4679  0.6084 -0.2513
  148TMC2     O 2306   0.542   3.741  10.189  0.1213 -0.1152  0.0154
  148TMC2     H 2307   0.725   3.777  10.332 -0.2213  2.0334  2.5937
  148TMC2    H1 2308   0.467   3.478  10.463  0.4171  0.0215  1.6856
  148TMC2    H2 2309   0.849   3.510  10.647  1.2028  0.0440 -0.4749
  148TMC2    C7 2310   0.618   3.350  10.625 -0.8169  0.1506 -0.7806
  148TMC2    C8 2311   0.902   3.732  10.547  0.3025  0.5317 -0.1177
  148TMC2    O1 2312   0.529   3.282  10.569 -0.5218 -0.1970 -0.3423
  148TMC2    O2 2313   0.923   3.738  10.668 -0.5023  0.3311  0.5147
  148TMC2    O5 2314   0.924   3.830  10.461 -0.0734 -0.1346  0.1219
  148TMC2    H5 2315   0.905   3.813  10.366 -1.2812 -1.3832  0.5836
  149MPD2     C 2316   0.311   3.625  10.074 -0.5335 -0.1576 -0.0597
  149MPD2    C1 2317   0.375   3.516  10.121  0.2889  0.0781 -0.0145
  149MPD2    C2 2318   0.325   3.389  10.101  0.5737  0.4933 -0.4861
  149MPD2    C3 2319   0.202   3.360  10.040  0.5163 -0.1835  0.2700
  149MPD2    C4 2320   0.141   3.473   9.990  0.0777 -0.6172 -0.5667
  149MPD2    C5 2321   0.203   3.598   9.994 -0.2576 -0.9463  0.2988
  149MPD2     H 2322   0.393   3.313  10.138 -0.6027  0.2171  1.1266
  149MPD2    H1 2323   0.045   3.467   9.940  0.4943  0.9850 -1.5470
  149MPD2    H2 2324   0.340   3.728  10.089 -3.9264  0.7758  0.0315
  149MPD2    H3 2325   0.161   3.687   9.949  1.1821  0.0979  1.0450
  149MPD2     N 2326   0.138   3.234  10.058  0.6589 -0.4874 -0.2720
  149MPD2    H5 2327   0.048   3.224  10.013  0.1379  0.7674  0.4756
  149MPD2    N1 2328   0.487   3.521  10.210 -0.0001  0.4622  0.0630
  149MPD2    H7 2329   0.508   3.431  10.254  0.1511  0.4040 -0.1301
  150TMC2    C1 2330   2.789   1.732  12.546  0.1341  0.0048 -0.0669
  150TMC2    C2 2331   2.863   1.620  12.533  0.1927  0.4795  0.2326
  150TMC2    C3 2332   2.989   1.628  12.483 -0.0307 -0.6099  0.1873
  150TMC2    C4 2333   2.839   1.854  12.530 -0.1106 -1.5931 -0.3748
  150TMC2    C5 2334   2.968   1.862  12.468 -0.3961 -0.5610 -0.0445
  150TMC2    C6 2335   3.043   1.747  12.446  0.9279 -0.3751 -0.3007
  150TMC2     C 2336   2.650   1.711  12.585 -0.4396  0.0627  0.3358
  150TMC2     O 2337   2.621   1.607  12.643  0.2549 -0.1247 -0.0419
  150TMC2     H 2338   2.822   1.521  12.549 -0.2688  0.5880 -0.2652
  150TMC2    H1 2339   2.778   1.940  12.555  1.3148 -0.7178  0.0358
  150TMC2    H2 2340   3.133   1.742  12.384 -0.5990  1.3875 -2.6517
  150TMC2    C7 2341   3.011   1.987  12.406 -0.6674 -0.8264 -0.6457
  150TMC2    C8 2342   3.053   1.510  12.425 -0.6242  1.1948 -0.7171
  150TMC2    O1 2343   2.942   2.083  12.429  0.5581  0.0799 -0.3719
  150TMC2    O2 2344   3.134   1.514  12.333 -0.1262 -0.0986 -0.2010
  150TMC2    O5 2345   3.030   1.400  12.504  0.3238 -0.2811  0.4821
  150TMC2    H5 2346   2.990   1.427  12.589 -2.3272  1.9598 -1.4567
  151MPD2     C 2347   2.148   1.814  12.582 -0.8316  0.2231  1.1552
  151MPD2    C1 2348   2.211   1.880  12.480 -0.7983 -0.6360  1.1904
  151MPD2    C2 2349   2.351   1.888  12.466  0.1183 -0.3242 -0.3171
  151MPD2    C3 2350   2.424   1.812  12.554 -0.9473 -0.0825 -0.2170
  151MPD2    C4 2351   2.361   1.738  12.663  0.2173  0.3683  0.1085
  151MPD2    C5 2352   2.222   1.741  12.674  0.4148 -0.2044 -0.6745
  151MPD2     H 2353   2.398   1.946  12.387  0.6301 -1.6183 -0.9516
  151MPD2    H1 2354   2.415   1.677  12.735  0.2254  2.2567  1.7156
  151MPD2    H2 2355   2.041   1.815  12.599 -0.9452 -1.0736  0.5624
  151MPD2    H3 2356   2.168   1.682  12.747  0.9200  0.0280 -0.1115
  151MPD2     N 2357   2.565   1.801  12.523  0.0891 -0.2421  0.2841
  151MPD2    H5 2358   2.597   1.855  12.444  1.6349 -0.3916  0.8193
  151MPD2    N1 2359   2.129   1.954  12.392 -0.2098 -0.2177 -0.2488
  151MPD2    H7 2360   2.030   1.934  12.403 -0.0420 -0.3392  1.0035
  152TMC2    C1 2361   2.837   1.830  12.918 -0.2221 -0.3144 -0.7768
  152TMC2    C2 2362   2.918   1.721  12.918  0.1015 -0.2780 -0.6729
  152TMC2    C3 2363   3.045   1.738  12.876 -0.4661  0.6706  0.2076
  152TMC2    C4 2364   2.886   1.954  12.878 -0.0646 -0.0229  0.7971
  152TMC2    C5 2365   3.014   1.967  12.827  0.3371 -0.0026 -0.4230
  152TMC2    C6 2366   3.096   1.856  12.825 -0.8891  0.2936  0.5639
  152TMC2     C 2367   2.703   1.805  12.957 -0.0129 -0.4377  0.5245
  152TMC2     O 2368   2.675   1.699  13.011  0.3140  0.2265  0.5327
  152TMC2     H 2369   2.892   1.618  12.935  0.4015 -0.0744  1.0008
  152TMC2    H1 2370   2.824   2.042  12.892 -0.7417  0.0840 -2.6384
  152TMC2    H2 2371   3.199   1.852  12.793 -1.9532 -2.6099 -2.4593
  152TMC2    C7 2372   3.048   2.084  12.748 -0.2671 -0.4972 -0.5426
  152TMC2    C8 2373   3.103   1.610  12.835  0.0363  0.0722 -0.0021
  152TMC2    O1 2374   2.958   2.169  12.747 -0.0454  0.3566  0.1151
  152TMC2    O2 2375   3.036   1.527  12.771 -0.1735 -0.4698 -0.0997
  152TMC2    O5 2376   3.237   1.629  12.846 -0.0951  0.1202  0.0001
  152TMC2    H5 2377   3.266   1.696  12.911 -2.2266  1.5292 -0.4884
  153MPD2     C 2378   2.406   1.839  13.035  0.0879  0.3765  0.2533
  153MPD2    C1 2379   2.473   1.912  12.936  0.2346  0.1199  0.0079
  153MPD2    C2 2380   2.405   2.002  12.862 -0.4401  0.6350  0.0086
  153MPD2    C3 2381   2.269   2.008  12.863  0.0024 -0.3824  0.5670
  153MPD2    C4 2382   2.198   1.926  12.954 -0.4349  0.2193  1.1887
  153MPD2    C5 2383   2.269   1.846  13.044 -0.1512 -0.2366 -0.6941
  153MPD2     H 2384   2.457   2.059  12.786 -0.6468  0.6579 -0.1155
  153MPD2    H1 2385   2.090   1.923  12.964 -0.4055 -1.6237  1.0532
  153MPD2    H2 2386   2.458   1.784  13.112  0.8861 -1.8301 -1.8633
  153MPD2    H3 2387   2.225   1.780  13.118  1.0354 -0.6269 -0.3371
  153MPD2     N 2388   2.205   2.093  12.769  0.0829 -0.0578 -0.9882
  153MPD2    H5 2389   2.266   2.146  12.707 -0.0870  0.8508 -0.3727
  153MPD2    N1 2390   2.617   1.910  12.920  1.4377 -0.3952 -0.1722
  153MPD2    H7 2391   2.648   1.986  12.860  0.3495  0.1948 -0.0012
  154TMC2    C1 2392   0.327   2.039   0.888  0.4689  0.1187  0.0201
  154TMC2    C2 2393   0.412   2.092   0.984  0.0040  0.0185  0.5500
  154TMC2    C3 2394   0.535   2.038   0.988 -0.1007 -0.0206 -0.3852
  154TMC2    C4 2395   0.368   1.935   0.811 -0.0399 -0.7391  0.1823
  154TMC2    C5 2396   0.499   1.885   0.826 -0.3438  0.2873 -0.4225
  154TMC2    C6 2397   0.584   1.938   0.914 -0.2721 -0.0430 -0.7771
  154TMC2     C 2398   0.213   2.117   0.861 -0.4733 -0.3117  0.0813
  154TMC2     O 2399   0.191   2.214   0.936  0.0499  0.0869  0.0093
  154TMC2     H 2400   0.381   2.166   1.056 -0.9151  0.5328 -0.3788
  154TMC2    H1 2401   0.293   1.895   0.744 -1.4632 -0.0755  1.3735
  154TMC2    H2 2402   0.680   1.899   0.943 -1.5866 -0.6720  2.8198
  154TMC2    C7 2403   0.538   1.769   0.749  0.4610  0.4026  0.2695
  154TMC2    C8 2404   0.616   2.083   1.103  0.0758 -0.6705 -0.3339
  154TMC2    O1 2405   0.625   1.695   0.797  0.3653 -0.8333  0.5108
  154TMC2    O2 2406   0.696   2.009   1.156  0.3993 -0.2360  0.2521
  154TMC2    O5 2407   0.625   2.222   1.102  0.2986 -0.1886  0.7691
  154TMC2    H5 2408   0.558   2.261   1.042  1.2901 -1.3562 -1.0691
  155MPD2     C 2409   4.648   2.051   0.653  0.0088  0.6615 -0.0842
  155MPD2    C1 2410   4.732   2.126   0.728  0.2630 -0.4350  0.1526
  155MPD2    C2 2411   4.695   2.249   0.767  0.3822  0.7229 -0.2616
  155MPD2    C3 2412   4.566   2.298   0.738  0.0186  0.7048 -0.1209
  155MPD2    C4 2413   4.487   2.230   0.641 -0.4241  0.7439 -0.3386
  155MPD2    C5 2414   4.534   2.108   0.602  0.3174 -0.7420 -0.0600
  155MPD2     H 2415   0.023   2.314   0.828  2.1007  0.7989 -2.0959
  155MPD2    H1 2416   4.385   2.257   0.620 -1.2485 -1.0572  1.3412
  155MPD2    H2 2417   4.668   1.949   0.624 -1.3195  0.0771  1.0062
  155MPD2    H3 2418   4.470   2.050   0.536  0.6120 -1.2273  0.0820
  155MPD2     N 2419   4.531   2.423   0.798 -0.0075 -0.1786 -0.2236
  155MPD2    H5 2420   4.606   2.474   0.844 -1.8210  0.6197  1.8909
  155MPD2    N1 2421   0.125   2.065   0.770  0.1817 -0.4967  0.2089
  155MPD2    H7 2422   0.150   1.978   0.724 -1.1203 -0.5424 -0.4264
  156TMC2    C1 2423   3.020   4.153  11.807  1.1454 -0.0320  0.1454
  156TMC2    C2 2424   3.001   4.034  11.738  0.1679  0.0413 -0.7602
  156TMC2    C3 2425   2.940   4.052  11.613 -0.1414 -0.6154 -0.6609
  156TMC2    C4 2426   2.962   4.273  11.774  0.4558 -0.2903  0.3798
  156TMC2    C5 2427   2.881   4.276  11.665  0.9872  0.1794  0.1284
  156TMC2    C6 2428   2.872   4.168  11.583  0.5441 -0.4825  0.4880
  156TMC2     C 2429   3.090   4.161  11.930 -0.4973 -0.2290 -0.4043
  156TMC2     O 2430   3.101   4.268  11.991  0.0180 -0.3442 -0.3850
  156TMC2     H 2431   3.031   3.937  11.776 -1.1012  0.0414  0.2409
  156TMC2    H1 2432   2.965   4.364  11.833 -2.6022  0.6520 -0.9076
  156TMC2    H2 2433   2.825   4.174  11.485  0.3373 -1.0676  0.5555
  156TMC2    C7 2434   2.822   4.400  11.626  0.2887  0.6842  0.4519
  156TMC2    C8 2435   2.873   3.933  11.560 -0.3530  0.3316 -0.7863
  156TMC2    O1 2436   2.875   4.503  11.669  0.0667  0.5026 -0.2418
  156TMC2    O2 2437   2.756   3.937  11.519 -0.4052  0.1110 -0.2487
  156TMC2    O5 2438   2.950   3.827  11.597 -0.1893 -0.0371 -0.7839
  156TMC2    H5 2439   3.044   3.853  11.589  0.4723 -3.0276 -2.6730
  157MPD2     C 2440   3.181   3.885  12.147  0.4575  0.4200  0.7832
  157MPD2    C1 2441   3.204   4.008  12.083 -0.1275 -0.3122 -0.9585
  157MPD2    C2 2442   3.299   4.097  12.133 -0.1673 -0.2200  0.4629
  157MPD2    C3 2443   3.367   4.066  12.246 -0.1052  0.9452 -0.0693
  157MPD2    C4 2444   3.353   3.945  12.304 -0.0167 -0.4220 -0.2823
  157MPD2    C5 2445   3.258   3.858  12.257  0.5494  0.1491  0.2889
  157MPD2     H 2446   3.318   4.193  12.087 -0.5654 -0.8696 -1.0302
  157MPD2    H1 2447   3.409   3.912  12.391 -1.0181 -2.8761 -0.5605
  157MPD2    H2 2448   3.102   3.822  12.108  0.4298  0.4378  0.8105
  157MPD2    H3 2449   3.241   3.770  12.318 -0.4498  0.4165  0.4055
  157MPD2     N 2450   3.456   4.170  12.287 -0.2833 -0.1412 -0.2613
  157MPD2    H5 2451   3.476   4.238  12.214  2.4787 -1.4484 -0.7363
  157MPD2    N1 2452   3.120   4.035  11.976 -0.3104  0.4706 -0.0532
  157MPD2    H7 2453   3.054   3.964  11.946  1.5992 -0.7997 -1.2183
  158TMC2    C1 2454   2.871   2.986  13.162  0.3750  0.0965  0.6380
  158TMC2    C2 2455   2.892   3.112  13.098 -0.6247 -0.7785  0.9206
  158TMC2    C3 2456   2.778   3.170  13.052 -0.0389 -0.7042  0.1285
  158TMC2    C4 2457   2.745   2.943  13.182 -0.1161  0.1569 -0.3021
  158TMC2    C5 2458   2.634   3.009  13.130  1.1135 -0.2026 -0.3581
  158TMC2    C6 2459   2.655   3.126  13.073  0.0964  0.1727 -0.3351
  158TMC2     C 2460   2.986   2.932  13.224 -0.0501 -0.5909  0.1333
  158TMC2     O 2461   3.091   2.975  13.181  0.1884 -0.2306 -0.3152
  158TMC2     H 2462   2.986   3.163  13.079 -0.7991 -1.3498 -1.4290
  158TMC2    H1 2463   2.732   2.857  13.247 -0.7595 -1.0373 -1.9949
  158TMC2    H2 2464   2.573   3.189  13.039  1.3273  1.2402 -1.3218
  158TMC2    C7 2465   2.498   2.954  13.128 -0.7975  0.1966  0.4210
  158TMC2    C8 2466   2.808   3.304  13.011 -0.0699  0.3679  0.5346
  158TMC2    O1 2467   2.412   3.006  13.059 -0.2186  0.0992  0.1946
  158TMC2    O2 2468   2.905   3.336  12.946 -0.8042 -0.5759  0.9782
  158TMC2    O5 2469   2.707   3.381  13.058  0.1634 -0.0933  0.2380
  158TMC2    H5 2470   2.669   3.348  13.142 -1.5941  1.7203  0.1623
  159MPD2     C 2471   3.201   2.699  13.624  0.3910 -0.5008  0.3430
  159MPD2    C1 2472   3.067   2.689  13.633 -0.1076  0.3106 -0.2211
  159MPD2    C2 2473   2.985   2.752  13.541 -0.0780  0.6289 -0.0064
  159MPD2    C3 2474   3.045   2.811  13.434 -0.7753 -0.2211 -0.2592
  159MPD2    C4 2475   3.175   2.840  13.441  0.4974 -0.5526 -0.0093
  159MPD2    C5 2476   3.260   2.782  13.531 -0.1321  0.6724  0.2819
  159MPD2     H 2477   2.877   2.763  13.546 -0.0778  0.7544 -0.3177
  159MPD2    H1 2478   3.221   2.903  13.366  0.7542  1.1125  1.5484
  159MPD2    H2 2479   3.260   2.652  13.702  0.2157  0.8116  1.2503
  159MPD2    H3 2480   3.368   2.791  13.535  0.1163 -0.9819 -3.1587
  159MPD2     N 2481   2.956   2.864  13.337  0.1514 -0.1034  0.1332
  159MPD2    H5 2482   2.857   2.858  13.359  0.0811  1.5199  0.2650
  159MPD2    N1 2483   3.017   2.614  13.744  0.0568 -0.2134  0.4999
  159MPD2    H7 2484   3.084   2.587  13.816 -1.1402 -2.7971  0.6304
  160TMC2    C1 2485   3.195   0.803   1.151  0.3086 -0.5049 -0.2394
  160TMC2    C2 2486   3.175   0.678   1.104  0.1839 -0.3565  0.0984
  160TMC2    C3 2487   3.279   0.623   1.037  0.7436  0.8283 -0.0994
  160TMC2    C4 2488   3.307   0.875   1.124 -0.3954 -0.8838  0.1860
  160TMC2    C5 2489   3.406   0.816   1.054 -0.7302  0.1061 -0.1704
  160TMC2    C6 2490   3.393   0.690   1.012  0.1554  0.0746  0.3833
  160TMC2     C 2491   3.104   0.853   1.251 -0.8816 -0.2692  0.6680
  160TMC2     O 2492   3.048   0.781   1.334  0.0286 -0.1665  0.0806
  160TMC2     H 2493   3.088   0.618   1.131 -0.0739 -0.3823 -0.7989
  160TMC2    H1 2494   3.324   0.974   1.167  0.4068 -0.0278 -2.1250
  160TMC2    H2 2495   3.463   0.633   0.952  0.7865  0.0002  1.1950
  160TMC2    C7 2496   3.545   0.875   1.063 -0.3523  0.0835 -0.5534
  160TMC2    C8 2497   3.234   0.516   0.952 -0.0908  0.2006  0.4888
  160TMC2    O1 2498   3.630   0.792   1.091 -0.5860 -0.2083  0.2693
  160TMC2    O2 2499   3.120   0.507   0.910 -0.2935  0.1108  0.3073
  160TMC2    O5 2500   3.324   0.416   0.974  0.2455  0.2751 -0.4695
  160TMC2    H5 2501   3.403   0.440   1.027  1.2699 -2.2477 -0.8276
  161MPD2     C 2502   2.930   1.030   1.415 -0.3083 -0.5947 -0.5733
  161MPD2    C1 2503   2.985   1.059   1.294 -1.0208 -0.0273 -0.4360
  161MPD2    C2 2504   2.960   1.183   1.237  0.3592 -0.0014 -0.2203
  161MPD2    C3 2505   2.864   1.274   1.287 -0.0732  0.4088 -0.7096
  161MPD2    C4 2506   2.807   1.232   1.409 -0.7019  0.7714 -0.1601
  161MPD2    C5 2507   2.840   1.114   1.468  0.0939  0.0632  0.0992
  161MPD2     H 2508   3.005   1.206   1.140 -4.5005 -0.6189 -2.5934
  161MPD2    H1 2509   2.734   1.299   1.453 -0.3788  0.9146  0.1558
  161MPD2    H2 2510   2.938   0.935   1.467  1.8745 -1.4098 -2.3603
  161MPD2    H3 2511   2.803   1.087   1.566 -1.0503  1.9084  0.1776
  161MPD2     N 2512   2.824   1.390   1.219 -1.2925 -0.3338 -0.1679
  161MPD2    H5 2513   2.759   1.446   1.273 -3.0292 -0.0172 -2.5894
  161MPD2    N1 2514   3.076   0.981   1.224  0.1990  0.8305  0.1979
  161MPD2    H7 2515   3.119   1.021   1.141  0.7349 -1.0370 -0.4405
  162TMC2    C1 2516   1.181   2.790   1.595 -0.0040 -0.0633  0.7457
  162TMC2    C2 2517   1.120   2.874   1.692 -0.3534 -0.0485  0.0017
  162TMC2    C3 2518   1.107   2.816   1.815 -0.6799 -0.2181  0.3723
  162TMC2    C4 2519   1.229   2.665   1.619  0.4293  0.0760 -0.6866
  162TMC2    C5 2520   1.233   2.624   1.753 -0.1219  0.4052  0.3710
  162TMC2    C6 2521   1.162   2.692   1.850  0.1509  0.7534  0.2536
  162TMC2     C 2522   1.182   2.833   1.455 -0.6822 -0.1717 -0.3089
  162TMC2     O 2523   1.280   2.793   1.390  0.5547 -0.1885 -0.1783
  162TMC2     H 2524   1.099   2.978   1.672  0.2347 -0.0874 -0.7818
  162TMC2    H1 2525   1.266   2.603   1.538 -2.0876 -2.4006  0.0714
  162TMC2    H2 2526   1.160   2.648   1.949 -1.0362 -1.5718 -0.7879
  162TMC2    C7 2527   1.283   2.489   1.790  0.0815 -0.1113  0.2145
  162TMC2    C8 2528   1.030   2.887   1.913  0.6371  0.1806  0.1575
  162TMC2    O1 2529   1.259   2.444   1.903  0.8846 -0.7415  0.1472
  162TMC2    O2 2530   0.938   2.954   1.876 -0.0912  0.6655 -0.0173
  162TMC2    O5 2531   1.028   2.817   2.024  0.1601 -0.1700  0.1682
  162TMC2    H5 2532   1.121   2.799   2.050 -0.4768  0.3543  2.7355
  163MPD2     C 2533   1.008   3.114   1.068 -0.1881 -0.2337  0.4822
  163MPD2    C1 2534   1.105   3.020   1.062  0.3951  0.9040 -0.4452
  163MPD2    C2 2535   1.133   2.949   1.185  0.4623  0.1139  0.1625
  163MPD2    C3 2536   1.058   2.976   1.296 -0.2974 -0.4297  0.1112
  163MPD2    C4 2537   0.951   3.062   1.295 -0.6539 -0.4020 -0.3211
  163MPD2    C5 2538   0.927   3.131   1.177 -0.2579  0.3518  0.7850
  163MPD2     H 2539   1.216   2.879   1.194  1.1312  0.5802 -2.3908
  163MPD2    H1 2540   0.880   3.072   1.376  0.1065 -2.2423  0.5741
  163MPD2    H2 2541   0.984   3.171   0.979 -1.3099  2.8699  2.7461
  163MPD2    H3 2542   0.842   3.197   1.170  1.3292  2.4377  1.3643
  163MPD2     N 2543   1.081   2.920   1.422  0.5471  1.0312 -0.6472
  163MPD2    H5 2544   1.016   2.947   1.495 -1.2228  1.2953 -2.3312
  163MPD2    N1 2545   1.183   3.007   0.946 -0.1801 -0.6468 -0.0280
  163MPD2    H7 2546   1.170   3.073   0.869 -0.0857 -0.9620 -0.3134
  164TMC2    C1 2547   1.162   2.787  10.934 -0.0581 -0.0995  0.1840
  164TMC2    C2 2548   1.161   2.779  10.799  0.9173 -0.1717 -0.1883
  164TMC2    C3 2549   1.177   2.897  10.726 -1.0682 -0.2924  0.4129
  164TMC2    C4 2550   1.164   2.917  10.991 -1.0416 -0.7606  0.7755
  164TMC2    C5 2551   1.180   3.029  10.911 -0.4418  0.3730 -0.1996
  164TMC2    C6 2552   1.187   3.022  10.773  0.3764 -0.0431 -0.0808
  164TMC2     C 2553   1.152   2.664  11.018 -0.1498  0.1387  0.0250
  164TMC2     O 2554   1.114   2.676  11.133  0.1091 -0.7418 -0.3781
  164TMC2     H 2555   1.160   2.680  10.756  0.0906 -0.7419  1.1575
  164TMC2    H1 2556   1.163   2.914  11.100 -0.9036 -0.6291  0.7812
  164TMC2    H2 2557   1.203   3.109  10.710  1.7634 -0.2966 -0.0803
  164TMC2    C7 2558   1.139   3.160  10.957 -0.9192  0.1045  0.1247
  164TMC2    C8 2559   1.202   2.896  10.585  0.3409  0.5506 -0.2781
  164TMC2    O1 2560   1.118   3.234  10.865  0.3985 -0.1372  0.1252
  164TMC2    O2 2561   1.223   3.001  10.525  0.0963  0.3867  0.1963
  164TMC2    O5 2562   1.233   2.770  10.541  0.0135  0.0362  0.0742
  164TMC2    H5 2563   1.193   2.705  10.601  0.7626  0.2114  0.7676
  165TMC2    C1 2564   2.898   0.731   0.741  0.2193  0.4885 -0.0045
  165TMC2    C2 2565   2.837   0.723   0.618 -0.2308 -0.5032  0.5275
  165TMC2    C3 2566   2.923   0.738   0.511 -0.5047  0.5336  0.4818
  165TMC2    C4 2567   3.030   0.776   0.757  0.1384 -0.2302 -0.1687
  165TMC2    C5 2568   3.102   0.802   0.649  0.0460 -0.2461  0.1103
  165TMC2    C6 2569   3.059   0.765   0.521  0.8398  0.0451  0.0500
  165TMC2     C 2570   2.806   0.726   0.863  0.9540 -0.9420  0.4495
  165TMC2     O 2571   2.689   0.756   0.851  0.4867  0.1860  0.8216
  165TMC2     H 2572   2.733   0.694   0.606 -0.3677 -0.2834  1.1623
  165TMC2    H1 2573   3.083   0.780   0.851 -2.8712 -0.6153  1.5405
  165TMC2    H2 2574   3.126   0.781   0.437 -1.8826  0.0817 -2.0912
  165TMC2    C7 2575   3.246   0.801   0.671  0.2829 -0.3626  0.2630
  165TMC2    C8 2576   2.872   0.700   0.371  0.4228  0.6955  0.0883
  165TMC2    O1 2577   3.294   0.892   0.733  0.5172 -0.6161 -0.1782
  165TMC2    O2 2578   2.749   0.709   0.344 -0.1766 -0.0774  0.5559
  165TMC2    O5 2579   2.975   0.686   0.289  0.0756 -0.5703  0.4653
  165TMC2    H5 2580   3.059   0.676   0.339 -0.0420  2.2176  1.2390
  166MPD2     C 2581   2.684   0.452   1.285  0.1617 -0.0538 -0.6570
  166MPD2    C1 2582   2.605   0.540   1.208  0.2966 -0.0031 -0.3440
  166MPD2    C2 2583   2.657   0.599   1.096  0.9291  0.4622 -0.3248
  166MPD2    C3 2584   2.790   0.570   1.062  0.0107 -0.2807  0.1529
  166MPD2    C4 2585   2.861   0.483   1.140  0.1355 -0.6688 -0.1116
  166MPD2    C5 2586   2.808   0.419   1.251  0.0171 -0.2444  0.1854
  166MPD2     H 2587   2.602   0.672   1.038  0.3630  0.8826  0.7464
  166MPD2    H1 2588   2.961   0.446   1.123  0.3503  0.0352 -0.3783
  166MPD2    H2 2589   2.646   0.412   1.378 -0.8936  0.8037 -0.7119
  166MPD2    H3 2590   2.857   0.343   1.310  2.5649 -0.4091 -2.1397
  166MPD2     N 2591   2.861   0.635   0.953  0.0471 -0.2612  0.1018
  166MPD2    H5 2592   2.952   0.601   0.924  1.0352 -0.6718  3.7349
  166MPD2    N1 2593   2.477   0.572   1.264  0.3380  0.0778 -0.1546
  166MPD2    H7 2594   2.456   0.519   1.348 -1.4950  2.0079  0.5871
  167TMC2    C1 2595   0.321   3.290  12.399 -0.4848  0.4854  0.1637
  167TMC2    C2 2596   0.281   3.351  12.515  0.0780 -0.2916 -0.1785
  167TMC2    C3 2597   0.313   3.280  12.629 -0.1999 -0.7577 -0.1803
  167TMC2    C4 2598   0.401   3.176  12.401 -0.0609  0.4720 -0.8853
  167TMC2    C5 2599   0.446   3.124  12.522  0.0137 -0.0914  0.1579
  167TMC2    C6 2600   0.404   3.177  12.640 -0.3525 -1.0617  0.3183
  167TMC2     C 2601   0.284   3.352  12.272 -0.8050 -0.2837  0.1593
  167TMC2     O 2602   0.198   3.442  12.282 -0.0754  0.4850  0.2712
  167TMC2     H 2603   0.220   3.440  12.523  1.6767  0.7562  0.4754
  167TMC2    H1 2604   0.421   3.122  12.309 -0.1815 -1.3287  0.1629
  167TMC2    H2 2605   0.430   3.138  12.738 -1.0731 -1.1993  0.4585
  167TMC2    C7 2606   0.533   3.010  12.542  0.4824  0.1590  0.3007
  167TMC2    C8 2607   0.278   3.346  12.752  0.8397 -0.5494  0.4197
  167TMC2    O1 2608   0.512   2.948  12.644  0.4112  1.2857 -0.2304
  167TMC2    O2 2609   0.247   3.466  12.769 -0.0419 -0.3454 -0.6588
  167TMC2    O5 2610   0.228   3.244  12.823  0.1186 -0.5256 -0.1241
  167TMC2    H5 2611   0.264   3.159  12.792  0.3124 -0.7347  0.6768
  168MPD2     C 2612   0.268   3.472  11.991 -0.3141  0.3153 -0.0079
  168MPD2    C1 2613   0.334   3.351  12.027  0.1028  0.2005  0.4410
  168MPD2    C2 2614   0.383   3.271  11.923 -0.3608  0.9170 -0.1053
  168MPD2    C3 2615   0.367   3.314  11.789  0.3122  0.1571 -0.1192
  168MPD2    C4 2616   0.287   3.426  11.764 -0.3928  1.0701 -0.3418
  168MPD2    C5 2617   0.246   3.510  11.863 -0.1026  1.0497 -0.1286
  168MPD2     H 2618   0.422   3.174  11.951  1.2276  1.8401  0.8496
  168MPD2    H1 2619   0.259   3.452  11.662  2.7836  0.9036 -1.2454
  168MPD2    H2 2620   0.236   3.552  12.057 -1.2541  0.7416 -0.9869
  168MPD2    H3 2621   0.205   3.607  11.836 -1.0838  0.6121 -0.2356
  168MPD2     N 2622   0.406   3.232  11.682 -0.0546  0.7563  0.1500
  168MPD2    H5 2623   0.349   3.235  11.597 -0.7915  0.7383  0.6427
  168MPD2    N1 2624   0.351   3.306  12.158  0.6333  0.0757 -0.3174
  168MPD2    H7 2625   0.421   3.233  12.161 -0.8249 -1.3436 -0.3638
  169MPD1     C 2626   3.641   3.140   8.618  0.2551 -0.6938 -0.0429
  169MPD1    C1 2627   3.564   3.141   8.731 -0.0953 -0.8253 -0.1117
  169MPD1    C2 2628   3.533   3.015   8.788  0.1051 -0.0205 -0.7947
  169MPD1    C3 2629   3.553   2.900   8.714 -0.2868 -0.3386 -0.1625
  169MPD1    C4 2630   3.631   2.907   8.600  0.1048  0.3487  1.0521
  169MPD1    C5 2631   3.669   3.029   8.550  0.6693 -0.7904 -0.7320
  169MPD1     H 2632   3.480   3.010   8.882 -0.8255 -2.0460 -1.4156
  169MPD1    H1 2633   3.654   2.823   8.536 -0.5230  2.4572 -1.9453
  169MPD1    H2 2634   3.675   3.232   8.572 -2.0306  1.4879  2.6878
  169MPD1    H3 2635   3.727   3.027   8.459  0.6308  1.0678 -0.7981
  169MPD1     N 2636   3.527   2.777   8.788 -0.8092  0.5177  0.5725
  169MPD1    H5 2637   3.480   2.787   8.878  1.3443 -1.3640  1.8966
  169MPD1    N1 2638   3.556   3.258   8.803 -0.2509 -0.7660 -0.3770
  169MPD1    H6 2639   3.565   3.339   8.741 -0.7729 -0.8219 -0.5291
  169MPD1    H7 2640   3.468   3.271   8.854 -0.7526 -1.2644 -1.1051
  170MPD1     C 2641   2.358   0.807  13.321  0.0903 -0.0952  0.2623
  170MPD1    C1 2642   2.299   0.798  13.452 -0.8357 -0.7311  0.7491
  170MPD1    C2 2643   2.160   0.782  13.455 -0.5392 -0.3198  0.1331
  170MPD1    C3 2644   2.080   0.788  13.336 -0.3198 -0.5120  0.0463
  170MPD1    C4 2645   2.140   0.818  13.213  0.3110 -0.2467  0.0194
  170MPD1    C5 2646   2.279   0.830  13.213  0.7844  0.1388  0.3759
  170MPD1     H 2647   2.124   0.736  13.546 -1.0929  2.9573  1.5776
  170MPD1    H1 2648   2.085   0.821  13.120 -0.7659 -1.9361  0.6189
  170MPD1    H2 2649   2.465   0.804  13.308  0.0264 -0.3256 -0.2017
  170MPD1    H3 2650   2.332   0.853  13.121 -0.9800  2.7690  0.0244
  170MPD1     N 2651   1.945   0.741  13.348 -0.3059 -0.2119 -0.1286
  170MPD1    H5 2652   1.924   0.714  13.443 -0.5067 -0.8647 -0.3616
  170MPD1    N1 2653   2.376   0.770  13.562  0.0605 -0.0838 -0.3265
  170MPD1    H6 2654   2.467   0.813  13.552  0.3822 -0.9901 -1.2290
  170MPD1    H7 2655   2.324   0.798  13.645  0.9295  0.9649 -0.1294
  171MPD1     C 2656   0.418   1.710  15.362 -0.3650 -1.1967 -0.0870
  171MPD1    C1 2657   0.382   1.587  15.315 -0.1880 -0.0510 -0.6636
  171MPD1    C2 2658   0.429   1.478  15.391  0.3421  0.1844  0.3978
  171MPD1    C3 2659   0.522   1.494  15.488 -1.0153  0.0969  0.3084
  171MPD1    C4 2660   0.570   1.617  15.512  0.5196  0.1793 -0.7224
  171MPD1    C5 2661   0.523   1.726  15.447 -0.2085 -1.0760  0.2901
  171MPD1     H 2662   0.387   1.382  15.365 -0.6902  0.9837 -0.9127
  171MPD1    H1 2663   0.659   1.621  15.574 -0.6760  0.5623  0.9946
  171MPD1    H2 2664   0.385   1.802  15.315 -0.6694 -0.6075  1.2644
  171MPD1    H3 2665   0.554   1.829  15.462 -2.0444 -0.2884 -1.2966
  171MPD1     N 2666   0.577   1.393  15.574  0.5453  0.5435  0.5602
  171MPD1    H5 2667   0.634   1.422  15.652  1.5563 -2.3375  0.8739
  171MPD1    N1 2668   0.271   1.570  15.232  0.0528 -0.3770 -0.2059
  171MPD1    H6 2669   0.257   1.650  15.171 -1.1038  0.2043  0.8411
  171MPD1    H7 2670   0.277   1.480  15.184 -1.3296 -0.0837 -0.9215
  172MPD1     C 2671   4.148   0.151   0.327 -0.1513 -0.6536 -0.3363
  172MPD1    C1 2672   4.179   0.240   0.428  0.0717 -0.2781 -0.0690
  172MPD1    C2 2673   4.243   0.361   0.395  0.4925 -0.9623 -0.4719
  172MPD1    C3 2674   4.298   0.376   0.266 -0.2265 -1.3574  0.1533
  172MPD1    C4 2675   4.259   0.284   0.163  0.1458  0.3203  0.1453
  172MPD1    C5 2676   4.179   0.174   0.197  0.6485 -0.3841 -0.0062
  172MPD1     H 2677   4.245   0.426   0.481  1.4418 -1.1478 -0.3596
  172MPD1    H1 2678   4.286   0.285   0.058 -0.1738  0.9778  0.0682
  172MPD1    H2 2679   4.099   0.055   0.340 -2.7575  0.9529  1.6570
  172MPD1    H3 2680   4.145   0.106   0.121 -1.6063  1.9946 -1.1023
  172MPD1     N 2681   4.382   0.489   0.230 -0.7979  0.0617 -0.3274
  172MPD1    H5 2682   4.391   0.507   0.130 -0.8960 -0.2494 -0.3895
  172MPD1    N1 2683   4.114   0.214   0.550  0.8427  0.0562 -0.4856
  172MPD1    H6 2684   4.131   0.279   0.627 -2.1787 -0.7045  0.8018
  172MPD1    H7 2685   4.107   0.118   0.581 -1.2041 -0.4549 -2.5850
  173MPD1     C 2686   0.787   0.640  13.727 -0.7209  0.0606  0.5087
  173MPD1    C1 2687   0.694   0.612  13.826 -0.4633  0.6815  0.5877
  173MPD1    C2 2688   0.743   0.567  13.953 -0.1063  0.4189  0.2934
  173MPD1    C3 2689   0.876   0.548  13.978  0.1119  0.6258  0.7700
  173MPD1    C4 2690   0.963   0.550  13.867  0.1054  0.0109  0.5550
  173MPD1    C5 2691   0.917   0.600  13.752 -0.2505 -0.2327  0.2659
  173MPD1     H 2692   0.667   0.553  14.030  0.5499 -1.5286  0.5882
  173MPD1    H1 2693   1.068   0.527  13.878  0.6555  2.7871  1.1964
  173MPD1    H2 2694   0.755   0.684  13.634  1.6581  1.7141  0.4915
  173MPD1    H3 2695   0.996   0.626  13.683 -2.4185  3.5933 -0.7859
  173MPD1     N 2696   0.915   0.526  14.107  1.1992  0.2521  0.2801
  173MPD1    H5 2697   0.838   0.505  14.171  1.7437  2.2151  1.6074
  173MPD1    N1 2698   0.554   0.640  13.811  0.2368 -0.2051 -0.3255
  173MPD1    H6 2699   0.521   0.657  13.716  1.2399 -2.4331 -1.0655
  173MPD1    H7 2700   0.502   0.571  13.865 -1.6076 -0.1713 -2.0362
  174MPD1     C 2701   1.593   4.609  14.327 -0.4726 -0.3888  0.1039
  174MPD1    C1 2702   1.493   4.597  14.409  0.9809 -0.5264 -0.1220
  174MPD1    C2 2703   1.399   4.701  14.411 -0.0318 -0.6671  0.0187
  174MPD1    C3 2704   1.419   0.091  14.349  0.4090  1.0004 -0.3000
  174MPD1    C4 2705   1.527   0.102  14.264  0.1802 -0.4229 -0.0994
  174MPD1    C5 2706   1.616   4.728  14.255 -0.2359 -0.4057  0.2046
  174MPD1     H 2707   1.313   4.686  14.476 -0.4847  0.3489 -0.3463
  174MPD1    H1 2708   1.535   0.192  14.205 -1.6752  0.1641  0.5523
  174MPD1    H2 2709   1.670   4.533  14.320 -1.9066 -1.4120 -4.4703
  174MPD1    H3 2710   1.704   0.004  14.192  0.8820 -0.7056  1.7225
  174MPD1     N 2711   1.339   0.205  14.372  0.4915  0.0497 -0.5103
  174MPD1    H5 2712   1.370   0.290  14.325 -2.5208  1.1328 -0.5931
  174MPD1    N1 2713   1.469   4.474  14.471 -0.4001 -0.0791 -0.3938
  174MPD1    H6 2714   1.403   4.497  14.545  1.8986 -0.8414  1.8766
  174MPD1    H7 2715   1.553   4.432  14.512  0.6628  2.5044  0.0899
  175MPD1     C 2716   3.740   1.992  15.427  0.6019 -0.1038 -0.6158
  175MPD1    C1 2717   3.798   1.869  15.452  0.6414  0.1593  0.2509
  175MPD1    C2 2718   3.817   1.824  15.580 -1.3529  0.0756  0.9666
  175MPD1    C3 2719   3.762   1.897  15.684 -0.5293  0.2479 -0.4826
  175MPD1    C4 2720   3.673   2.001  15.654 -0.0291  0.2701 -0.4218
  175MPD1    C5 2721   3.675   2.061  15.532  0.2254 -0.0268  0.5236
  175MPD1     H 2722   3.879   1.739  15.605 -4.2391 -1.2414  3.6749
  175MPD1    H1 2723   3.614   2.054  15.727  0.7137  0.3247  0.1340
  175MPD1    H2 2724   3.723   2.047  15.335  0.1198 -1.5488 -1.3942
  175MPD1    H3 2725   3.613   2.147  15.509 -0.0163  0.0095  1.3434
  175MPD1     N 2726   3.772   1.862  15.822  0.7513  0.1158 -0.9283
  175MPD1    H5 2727   3.724   1.922  15.887  1.7760 -2.7070  2.4620
  175MPD1    N1 2728   3.868   1.813  15.345 -0.3467  0.4318  0.0648
  175MPD1    H6 2729   3.825   1.839  15.257  1.7528  0.1718 -1.0065
  175MPD1    H7 2730   3.871   1.711  15.355  0.1613  0.2031 -2.4869
  176MPD1     C 2731   1.180   3.795   0.212  0.2238 -0.2501  0.0182
  176MPD1    C1 2732   1.162   3.882   0.110 -0.2601 -0.1821 -0.3365
  176MPD1    C2 2733   1.266   3.917   0.026 -0.1469 -0.2374 -0.8492
  176MPD1    C3 2734   1.399   3.877   0.059  0.7981 -0.7064  0.5655
  176MPD1    C4 2735   1.420   3.797   0.171 -0.7116 -0.3049  0.6986
  176MPD1    C5 2736   1.309   3.752   0.241  0.2515 -0.8478 -0.4231
  176MPD1     H 2737   1.247   3.990  17.686  1.1350  2.2148  1.1602
  176MPD1    H1 2738   1.519   3.769   0.207  0.2421  1.4867 -0.5067
  176MPD1    H2 2739   1.095   3.767   0.273 -0.2529 -0.9056 -0.9333
  176MPD1    H3 2740   1.330   3.686   0.325  0.5745 -1.9726 -1.3952
  176MPD1     N 2741   1.507   3.920  17.717  0.2545  0.5368 -0.1338
  176MPD1    H5 2742   1.489   3.976  17.634  0.5643 -0.7540 -1.0695
  176MPD1    N1 2743   1.036   3.930   0.075  0.3753  0.2327  0.1771
  176MPD1    H6 2744   1.041   4.027   0.043 -1.2064 -0.1615 -1.2725
  176MPD1    H7 2745   0.983   3.915   0.160 -1.3147 -0.2501 -0.9699
  177MPD1     C 2746   4.406   3.759  10.514  0.1418  0.7446  0.4966
  177MPD1    C1 2747   4.401   3.877  10.446 -0.1878  0.4643 -0.4437
  177MPD1    C2 2748   4.343   3.884  10.326  0.0569  0.0949  0.2709
  177MPD1    C3 2749   4.309   3.766  10.260 -0.1133  0.5661  0.7932
  177MPD1    C4 2750   4.334   3.643  10.320 -0.4368 -0.6745 -0.7794
  177MPD1    C5 2751   4.379   3.639  10.447 -0.4741 -0.3571 -0.9134
  177MPD1     H 2752   4.319   3.977  10.276 -1.1753  0.7579  2.0747
  177MPD1    H1 2753   4.320   3.551  10.265  1.9346 -0.2352 -2.0993
  177MPD1    H2 2754   4.446   3.770  10.614  2.6414  1.0721 -0.5513
  177MPD1    H3 2755   4.401   3.542  10.491  2.2030  1.0322  0.8032
  177MPD1     N 2756   4.262   3.782  10.128 -0.3425  0.3212  0.0567
  177MPD1    H5 2757   4.261   3.875  10.088 -0.5953 -0.6283 -2.1290
  177MPD1    N1 2758   4.425   3.996  10.514 -0.0696  0.4698  0.4804
  177MPD1    H6 2759   4.507   3.981  10.572 -0.0778 -0.8521  0.1579
  177MPD1    H7 2760   4.451   4.073  10.453 -2.4397  1.9134  1.2698
  178MPD1     C 2761   2.047   4.402   0.616 -0.5437 -0.1761  0.1364
  178MPD1    C1 2762   2.007   4.278   0.569 -0.4625 -0.8412  0.8804
  178MPD1    C2 2763   2.054   4.243   0.440  0.5373  0.2283  0.8889
  178MPD1    C3 2764   2.143   4.323   0.373 -0.8442  0.2976  0.3809
  178MPD1    C4 2765   2.194   4.442   0.425  0.2801  0.5311  0.4931
  178MPD1    C5 2766   2.140   4.476   0.545 -0.1501  0.1251 -0.2709
  178MPD1     H 2767   2.005   4.156   0.395  0.4210 -0.4503  2.3251
  178MPD1    H1 2768   2.252   4.510   0.364  1.2389 -0.2003  0.5814
  178MPD1    H2 2769   2.006   4.449   0.704  0.5093 -0.4040  0.7428
  178MPD1    H3 2770   2.179   4.570   0.585  0.0848  0.5018 -1.3984
  178MPD1     N 2771   2.192   4.288   0.241 -0.3470  0.3814 -0.3401
  178MPD1    H5 2772   2.260   4.351   0.200  0.2985  0.5109  0.9282
  178MPD1    N1 2773   1.912   4.204   0.644  0.7753  0.0281 -0.6070
  178MPD1    H6 2774   1.938   4.105   0.637  0.0382 -0.1722 -0.5456
  178MPD1    H7 2775   1.923   4.238   0.739 -1.0833 -2.3579  0.4808
  179MPD1     C 2776   1.177   2.599  15.322  0.1662  1.0082  0.6501
  179MPD1    C1 2777   1.130   2.478  15.285  0.5062 -0.3348  0.6224
  179MPD1    C2 2778   1.162   2.371  15.363 -0.0544 -0.3316 -0.1803
  179MPD1    C3 2779   1.249   2.372  15.472  0.4113 -0.3018 -1.0252
  179MPD1    C4 2780   1.296   2.496  15.505 -0.1255 -0.2268 -0.0876
  179MPD1    C5 2781   1.262   2.608  15.432 -0.0252 -0.4529  0.1024
  179MPD1     H 2782   1.124   2.276  15.327 -0.4184 -0.5954  0.8950
  179MPD1    H1 2783   1.373   2.521  15.577 -0.0315 -0.9710  0.0655
  179MPD1    H2 2784   1.149   2.694  15.278  0.4848  0.5960 -0.4541
  179MPD1    H3 2785   1.291   2.710  15.456  1.8542 -0.3648 -2.6265
  179MPD1     N 2786   1.279   2.251  15.542  0.2963  0.2596 -0.2353
  179MPD1    H5 2787   1.222   2.176  15.504  0.9042 -0.3634  0.0756
  179MPD1    N1 2788   1.036   2.462  15.183  0.0698 -0.0904  0.6919
  179MPD1    H6 2789   1.047   2.527  15.106  1.0822 -0.9510  0.1037
  179MPD1    H7 2790   1.037   2.371  15.137  0.3484 -0.0795  0.6767
  180MPD1     C 2791   1.599   3.629  15.211  0.4564  0.1619 -0.6271
  180MPD1    C1 2792   1.490   3.573  15.158  0.7872  0.5017 -1.1468
  180MPD1    C2 2793   1.476   3.587  15.021  0.2025 -0.8443 -0.3305
  180MPD1    C3 2794   1.564   3.665  14.948 -1.0323  0.4829  0.5474
  180MPD1    C4 2795   1.672   3.725  15.012  0.1851  0.3627  0.3203
  180MPD1    C5 2796   1.682   3.709  15.145 -0.1564 -0.0222  0.0329
  180MPD1     H 2797   1.402   3.530  14.965 -2.0203  2.5959 -0.8899
  180MPD1    H1 2798   1.739   3.799  14.972 -0.5629  1.0193  0.2871
  180MPD1    H2 2799   1.618   3.630  15.317 -0.5246  0.0888 -0.4495
  180MPD1    H3 2800   1.768   3.754  15.193 -1.6037  2.1753  0.5145
  180MPD1     N 2801   1.538   3.675  14.807  0.4654 -0.0614  0.1331
  180MPD1    H5 2802   1.459   3.622  14.773 -0.5719  1.0073  0.8688
  180MPD1    N1 2803   1.412   3.482  15.236  0.1211 -0.0495 -0.6760
  180MPD1    H6 2804   1.313   3.482  15.212 -0.0433  0.5517 -0.0032
  180MPD1    H7 2805   1.412   3.513  15.333  2.0264  1.6229 -1.1979
  181MPD1     C 2806   2.778   1.836  10.901  0.2416  0.8720 -0.1660
  181MPD1    C1 2807   2.708   1.721  10.849  0.3238 -0.0907  0.3208
  181MPD1    C2 2808   2.767   1.654  10.745 -0.3005 -0.6255 -0.1951
  181MPD1    C3 2809   2.891   1.689  10.698  1.1782 -0.1955  0.3854
  181MPD1    C4 2810   2.962   1.791  10.758 -0.3180  0.1592 -0.1237
  181MPD1    C5 2811   2.903   1.866  10.855  0.9133 -0.6905 -0.2547
  181MPD1     H 2812   2.710   1.574  10.699 -1.4302  0.4630 -0.7127
  181MPD1    H1 2813   3.062   1.817  10.725 -0.3234 -1.0510 -1.0716
  181MPD1    H2 2814   2.758   1.880  10.998 -0.2467  2.1444 -0.8420
  181MPD1    H3 2815   2.958   1.949  10.898  0.9671 -0.8037 -0.1032
  181MPD1     N 2816   2.955   1.635  10.589 -0.3503 -0.3840  0.8312
  181MPD1    H5 2817   3.053   1.652  10.567 -0.6190  1.2154  0.8777
  181MPD1    N1 2818   2.574   1.708  10.879 -0.0261  0.8138  0.1509
  181MPD1    H6 2819   2.549   1.732  10.975  2.2383  2.9676  0.2054
  181MPD1    H7 2820   2.553   1.610  10.864  0.9613  0.4127  1.3421
  182MPD1     C 2821   4.145   4.469   0.962  0.1032  0.4890 -0.3942
  182MPD1    C1 2822   4.088   4.496   1.083  0.4038  0.1061 -0.1766
  182MPD1    C2 2823   3.951   4.502   1.093 -0.1184 -0.1895  0.0216
  182MPD1    C3 2824   3.868   4.459   0.989  0.2551 -0.1825  0.1151
  182MPD1    C4 2825   3.929   4.422   0.865 -0.1122  0.8326  0.1313
  182MPD1    C5 2826   4.066   4.434   0.853  0.0555  0.2973 -0.0483
  182MPD1     H 2827   3.912   4.539   1.187  0.6382  0.6449  0.0053
  182MPD1    H1 2828   3.868   4.386   0.783 -1.5507 -0.2571  1.6572
  182MPD1    H2 2829   4.251   4.463   0.940 -0.1486 -2.2970 -0.8789
  182MPD1    H3 2830   4.111   4.406   0.759  1.8163  0.3390  0.7764
  182MPD1     N 2831   3.724   4.472   0.984  0.4165 -0.0847 -0.1428
  182MPD1    H5 2832   3.682   4.454   0.894  2.6806 -0.4439 -1.1111
  182MPD1    N1 2833   4.175   4.556   1.179 -0.5498 -0.8240  0.5980
  182MPD1    H6 2834   4.273   4.537   1.163 -0.3019  1.3914 -0.4755
  182MPD1    H7 2835   4.155   4.528   1.275 -0.5707  1.2058  1.1922
  183MPD1     C 2836   4.389   1.177   9.359  0.9656  0.2076  0.1142
  183MPD1    C1 2837   4.317   1.064   9.389  0.7893  0.0861 -0.1054
  183MPD1    C2 2838   4.178   1.070   9.384  0.1505  0.2777  0.2254
  183MPD1    C3 2839   4.117   1.188   9.352 -0.1452  0.1142 -0.1678
  183MPD1    C4 2840   4.190   1.293   9.312  0.3124  0.4852  0.2112
  183MPD1    C5 2841   4.329   1.289   9.319  0.2074 -0.4454  0.4671
  183MPD1     H 2842   4.117   0.984   9.409  0.8996 -1.8276 -5.1094
  183MPD1    H1 2843   4.145   1.389   9.288  0.1894  0.8702  1.9876
  183MPD1    H2 2844   4.497   1.174   9.353  1.0270  0.6510  1.0219
  183MPD1    H3 2845   4.388   1.371   9.280  1.0677 -1.6249 -0.6715
  183MPD1     N 2846   3.978   1.194   9.378 -0.1987  0.0460  0.2028
  183MPD1    H5 2847   3.937   1.103   9.398 -0.1290  0.0890  0.5393
  183MPD1    N1 2848   4.387   0.948   9.430 -0.3307  0.1480  0.2831
  183MPD1    H6 2849   4.463   0.937   9.363  0.0980 -2.8191  1.2160
  183MPD1    H7 2850   4.320   0.873   9.414  2.5382 -2.5153  0.7738
  184MPD1     C 2851   3.928   2.867  10.149 -0.0053 -0.6476  0.2582
  184MPD1    C1 2852   3.848   2.797  10.061  0.5713 -0.3472 -0.3032
  184MPD1    C2 2853   3.809   2.870   9.952  0.2833  0.2626  0.6091
  184MPD1    C3 2854   3.854   3.000   9.922 -0.0902 -0.1251  0.7794
  184MPD1    C4 2855   3.943   3.055  10.011  1.0187 -0.0184 -0.4933
  184MPD1    C5 2856   3.978   2.995  10.123  0.3642  0.1012  0.0075
  184MPD1     H 2857   3.746   2.819   9.880  0.9009  1.0122 -0.4559
  184MPD1    H1 2858   3.997   3.147   9.995 -1.4850  1.4344 -0.7256
  184MPD1    H2 2859   3.975   2.812  10.229 -1.8854 -0.0168  1.8120
  184MPD1    H3 2860   4.034   3.047  10.199 -2.3799  0.3669  1.8658
  184MPD1     N 2861   3.810   3.071   9.808 -0.2385  0.2121  0.6310
  184MPD1    H5 2862   3.832   3.170   9.805  2.5932 -0.3701  2.7329
  184MPD1    N1 2863   3.799   2.666  10.095  0.2567 -0.1358 -0.5035
  184MPD1    H6 2864   3.861   2.615  10.158  1.8101  3.5439  0.9499
  184MPD1    H7 2865   3.715   2.686  10.149 -1.1659 -1.6857 -2.1487
  185MPD1     C 2866   3.915   2.717   8.940 -0.2793  0.0331 -0.4020
  185MPD1    C1 2867   3.878   2.848   8.909 -0.5100 -0.0888  0.8982
  185MPD1    C2 2868   3.807   2.921   9.001  0.1242  0.2330  0.3783
  185MPD1    C3 2869   3.775   2.861   9.129  0.0542  0.6715 -0.4949
  185MPD1    C4 2870   3.802   2.727   9.149 -0.5588  0.3008 -0.3613
  185MPD1    C5 2871   3.871   2.656   9.055  0.1399 -0.6850 -0.3095
  185MPD1     H 2872   3.791   3.028   8.987 -1.3056 -0.3170 -2.2977
  185MPD1    H1 2873   3.774   2.677   9.240 -2.3632 -0.3151 -1.2529
  185MPD1    H2 2874   3.983   2.660   8.878  0.4355 -2.4706  2.6809
  185MPD1    H3 2875   3.886   2.550   9.070 -0.1329 -0.8001 -0.8639
  185MPD1     N 2876   3.717   2.934   9.234  0.2177 -0.3588 -0.1538
  185MPD1    H5 2877   3.693   2.877   9.315 -1.7252 -0.2281 -0.6401
  185MPD1    N1 2878   3.933   2.913   8.799 -0.0762 -0.1622  0.3993
  185MPD1    H6 2879   3.937   2.849   8.719 -0.4369 -1.6263  1.5599
  185MPD1    H7 2880   3.871   2.991   8.779 -1.2696 -0.4861  2.8964
  186MPD1     C 2881   1.251   3.551  16.658 -0.5162 -0.7175 -0.2138
  186MPD1    C1 2882   1.263   3.514  16.530  0.0127 -0.1086 -0.2059
  186MPD1    C2 2883   1.364   3.426  16.487 -0.2030  0.4523  0.3201
  186MPD1    C3 2884   1.456   3.375  16.579 -0.4581 -0.7320  0.5868
  186MPD1    C4 2885   1.440   3.416  16.709  0.6029  0.1026  0.0504
  186MPD1    C5 2886   1.340   3.499  16.748  0.4978  0.0397 -0.1170
  186MPD1     H 2887   1.380   3.404  16.383 -0.2040 -3.1623  1.0854
  186MPD1    H1 2888   1.519   3.407  16.783  0.2942  1.1673  0.5127
  186MPD1    H2 2889   1.178   3.626  16.686  0.9835  0.8279 -0.3717
  186MPD1    H3 2890   1.330   3.523  16.853  2.3549 -4.4297  1.0709
  186MPD1     N 2891   1.573   3.308  16.540 -0.3045 -0.1509  0.4810
  186MPD1    H5 2892   1.640   3.288  16.614  2.4461  0.3244 -1.9133
  186MPD1    N1 2893   1.181   3.570  16.433  0.6857  0.3412  0.0411
  186MPD1    H6 2894   1.097   3.612  16.473  0.8984  2.1984 -1.4660
  186MPD1    H7 2895   1.152   3.507  16.358  0.7316  1.1449 -0.6468
  187MPD1     C 2896   2.094   4.626  17.348  0.2589  0.2172 -0.6273
  187MPD1    C1 2897   2.022   4.567  17.448 -0.4837  0.3607 -0.7652
  187MPD1    C2 2898   1.892   4.605  17.466  0.1389  0.5175  0.9533
  187MPD1    C3 2899   1.841   4.711  17.392  0.2587 -0.0934 -0.2912
  187MPD1    C4 2900   1.923   0.051  17.312 -0.4542 -0.4256 -0.4507
  187MPD1    C5 2901   2.047   4.733  17.285  0.1934  0.7695 -0.6270
  187MPD1     H 2902   1.836   4.552  17.543 -0.0065 -2.0191 -0.9169
  187MPD1    H1 2903   1.892   0.142  17.262 -0.4796 -1.8487 -3.0241
  187MPD1    H2 2904   2.199   4.604  17.335  0.6970  0.8702  1.8091
  187MPD1    H3 2905   2.111   0.057  17.220  0.5877 -0.1648 -1.0775
  187MPD1     N 2906   1.703   0.013  17.410 -0.0844 -0.6984  0.3666
  187MPD1    H5 2907   1.683   0.100  17.362  1.7107 -0.6338 -0.2608
  187MPD1    N1 2908   2.072   4.446  17.501 -0.3232  0.2966 -0.1147
  187MPD1    H6 2909   2.173   4.434  17.506 -0.3046  0.7651  0.5697
  187MPD1    H7 2910   2.030   4.425  17.592  0.3040  1.7349  0.4990
  188MPD1     C 2911   0.581   0.093  10.022  0.7116 -0.0692 -0.0697
  188MPD1    C1 2912   0.703   0.037  10.040 -0.5865 -0.1622 -0.5958
  188MPD1    C2 2913   0.716   4.635  10.048  0.4180  0.5580  0.3245
  188MPD1    C3 2914   0.604   4.548  10.029 -0.4180 -0.0069 -0.1090
  188MPD1    C4 2915   0.481   4.608  10.006  0.2364  0.0604 -0.7106
  188MPD1    C5 2916   0.471   0.009  10.006 -0.3557 -0.4946 -0.1472
  188MPD1     H 2917   0.805   4.581  10.077  0.6847  1.2754  0.8402
  188MPD1    H1 2918   0.394   4.543  10.002 -0.5248  0.9686  0.8991
  188MPD1    H2 2919   0.561   0.197  10.043 -0.5923 -0.2992 -0.1503
  188MPD1    H3 2920   0.370   0.041   9.983 -0.2157 -0.6163 -0.9135
  188MPD1     N 2921   0.608   4.411  10.023 -0.7829 -0.0791 -0.1324
  188MPD1    H5 2922   0.518   4.363  10.028 -1.3429  1.1684  1.7308
  188MPD1    N1 2923   0.811   0.115  10.081  1.0410  0.0527 -0.1131
  188MPD1    H6 2924   0.904   0.077  10.069 -0.0950 -2.9524  0.6425
  188MPD1    H7 2925   0.813   0.207  10.037 -1.8586 -1.6197 -3.7532
  189MPD1     C 2926   3.353   0.891   0.269 -0.4058 -0.5785 -0.4000
  189MPD1    C1 2927   3.324   0.813   0.158 -0.3898  0.0457  0.7902
  189MPD1    C2 2928   3.210   0.838   0.092 -0.1476  0.0722 -0.6081
  189MPD1    C3 2929   3.130   0.952   0.131  0.1020  0.2286  0.9295
  189MPD1    C4 2930   3.172   1.031   0.240  0.1813  0.1575  0.1008
  189MPD1    C5 2931   3.279   0.998   0.315  0.3324  0.3289  0.1172
  189MPD1     H 2932   3.185   0.769   0.012 -0.8162 -2.1200  1.5093
  189MPD1    H1 2933   3.114   1.116   0.273 -1.1707 -1.8023  2.6966
  189MPD1    H2 2934   3.432   0.871   0.340  0.1266  1.2281 -0.4668
  189MPD1    H3 2935   3.329   1.046   0.398  1.1797 -1.8487  0.8707
  189MPD1     N 2936   3.006   0.960   0.069  0.5458 -0.0902  0.0861
  189MPD1    H5 2937   2.980   0.890  17.737  0.0656 -0.6906  0.8708
  189MPD1    N1 2938   3.392   0.690   0.132 -0.4432 -0.5594  0.6051
  189MPD1    H6 2939   3.490   0.694   0.157 -0.3208 -1.4226  0.2391
  189MPD1    H7 2940   3.384   0.646   0.041 -2.7400 -0.9364  0.9808
  190MPD1     C 2941   0.900   3.659  15.790  0.6350 -0.2768  0.5082
  190MPD1    C1 2942   0.956   3.604  15.669  0.1177 -0.9552  0.0701
  190MPD1    C2 2943   1.091   3.582  15.651 -0.1919  0.2311  0.4668
  190MPD1    C3 2944   1.177   3.648  15.739  0.2790  0.4507 -0.0051
  190MPD1    C4 2945   1.125   3.712  15.845  0.0311  0.1661 -0.5100
  190MPD1    C5 2946   0.990   3.708  15.876  0.2040 -0.1515 -0.0350
  190MPD1     H 2947   1.124   3.524  15.565 -1.3544 -1.6273  1.2724
  190MPD1    H1 2948   1.194   3.754  15.918  0.9941 -1.8680 -0.2727
  190MPD1    H2 2949   0.794   3.678  15.802  0.5409 -0.2854 -0.2957
  190MPD1    H3 2950   0.946   3.755  15.963 -0.4102 -0.6584 -0.0735
  190MPD1     N 2951   1.320   3.653  15.724 -0.2478  1.7011  0.4184
  190MPD1    H5 2952   1.368   3.688  15.806  0.8307 -0.1900  0.5971
  190MPD1    N1 2953   0.858   3.558  15.582 -0.1307  0.1017  0.4896
  190MPD1    H6 2954   0.883   3.524  15.489  2.2193 -1.0838  1.5497
  190MPD1    H7 2955   0.777   3.619  15.571  0.3242  0.5450 -0.4684
  191MPD1     C 2956   0.525   1.698  12.667  0.5602 -0.2101  0.6754
  191MPD1    C1 2957   0.629   1.609  12.643  0.3845 -0.1374  0.5537
  191MPD1    C2 2958   0.718   1.631  12.535  0.1607  0.6019  0.7094
  191MPD1    C3 2959   0.713   1.745  12.459 -0.3295 -0.1447 -0.1738
  191MPD1    C4 2960   0.603   1.830  12.479 -0.6259  0.7818 -0.0070
  191MPD1    C5 2961   0.519   1.811  12.589 -0.4006  0.2857 -0.3135
  191MPD1     H 2962   0.793   1.560  12.502 -0.2703  1.0205 -1.1541
  191MPD1    H1 2963   0.599   1.919  12.418 -1.5609  0.9028  0.2411
  191MPD1    H2 2964   0.444   1.675  12.735  0.3712 -3.4726 -0.6461
  191MPD1    H3 2965   0.434   1.879  12.592  0.5087  1.3422  1.3953
  191MPD1     N 2966   0.810   1.766  12.363  0.5093  0.1876  0.1819
  191MPD1    H5 2967   0.882   1.696  12.355 -0.2708 -0.7375  1.2755
  191MPD1    N1 2968   0.616   1.482  12.699 -0.1483  0.9539  1.1823
  191MPD1    H6 2969   0.703   1.430  12.707 -0.3259  0.0399 -3.0852
  191MPD1    H7 2970   0.576   1.488  12.793 -1.2315 -0.4297  0.8016
  192MPD1     C 2971   0.631   1.890  11.384  0.6191 -0.3656  0.2181
  192MPD1    C1 2972   0.719   1.785  11.403 -0.9629 -0.1150  0.4006
  192MPD1    C2 2973   0.778   1.773  11.526 -0.6664  0.0152 -0.0339
  192MPD1    C3 2974   0.764   1.875  11.619  0.3913 -0.6288  1.0455
  192MPD1    C4 2975   0.688   1.984  11.582 -0.5550 -0.1723 -0.6391
  192MPD1    C5 2976   0.609   1.992  11.475 -0.2813  0.2328 -0.4730
  192MPD1     H 2977   0.838   1.685  11.544 -0.0104  0.4452 -0.1194
  192MPD1    H1 2978   0.677   2.057  11.661  0.1985 -1.1126  0.3288
  192MPD1    H2 2979   0.577   1.887  11.290  1.3964 -0.8502 -0.2195
  192MPD1    H3 2980   0.547   2.077  11.450  1.2639  0.8213 -2.3228
  192MPD1     N 2981   0.813   1.870  11.757 -0.2500  0.0425 -0.3229
  192MPD1    H5 2982   0.796   1.950  11.817 -0.2811  1.2773 -1.9921
  192MPD1    N1 2983   0.731   1.674  11.316 -0.9945 -0.1512  0.4913
  192MPD1    H6 2984   0.716   1.711  11.223  0.6461 -2.2740 -0.5877
  192MPD1    H7 2985   0.826   1.639  11.327 -1.8952 -2.8132 -0.2219
  193MPD1     C 2986   0.303   1.032  16.176  0.0350  0.5031  0.1276
  193MPD1    C1 2987   0.260   1.160  16.143  0.0433 -0.0874  0.4697
  193MPD1    C2 2988   0.319   1.264  16.211 -0.4039  0.4716 -0.0871
  193MPD1    C3 2989   0.407   1.248  16.316  0.2122 -0.5800 -0.2310
  193MPD1    C4 2990   0.450   1.124  16.345 -0.4768  0.2292  0.0893
  193MPD1    C5 2991   0.401   1.016  16.269 -0.0267 -0.2544  0.2464
  193MPD1     H 2992   0.284   1.367  16.207 -2.0393 -0.0884 -0.3813
  193MPD1    H1 2993   0.521   1.109  16.425 -0.5850  3.6825  0.8139
  193MPD1    H2 2994   0.253   0.945  16.135 -1.9384  1.3918  0.6329
  193MPD1    H3 2995   0.429   0.915  16.297  1.1408 -0.3511 -1.2688
  193MPD1     N 2996   0.459   1.352  16.392  0.7259 -0.0609 -0.0234
  193MPD1    H5 2997   0.508   1.310  16.470  1.2604  0.8016  0.1122
  193MPD1    N1 2998   0.151   1.171  16.050  0.5536 -0.7904 -0.1353
  193MPD1    H6 2999   0.156   1.094  15.984  0.6523  0.1786 -1.2565
  193MPD1    H7 3000   0.137   1.261  16.005 -1.0869 -0.1235  1.6719
  194MPD1     C 3001   4.209   3.620  16.680 -0.1384  0.4370 -0.3070
  194MPD1    C1 3002   4.307   3.541  16.734 -0.2220  0.3952  0.2563
  194MPD1    C2 3003   4.263   3.436  16.810  1.0142 -0.2311 -0.3877
  194MPD1    C3 3004   4.128   3.412  16.840 -0.0085  0.3344  0.7814
  194MPD1    C4 3005   4.032   3.493  16.783  0.4181 -0.5499  0.4862
  194MPD1    C5 3006   4.076   3.599  16.708 -0.1859 -0.6838  0.0203
  194MPD1     H 3007   4.328   3.365  16.859  0.4454 -1.1721 -1.0054
  194MPD1    H1 3008   3.925   3.475  16.788  0.2734 -0.0243 -0.9132
  194MPD1    H2 3009   4.238   3.701  16.614 -0.8261  1.2664  0.4004
  194MPD1    H3 3010   3.999   3.667  16.672  0.9391 -0.1230 -1.2903
  194MPD1     N 3011   4.091   3.307  16.926  0.6871 -0.6075  0.0807
  194MPD1    H5 3012   3.992   3.292  16.942  0.9816 -1.2297  1.3196
  194MPD1    N1 3013   4.441   3.577  16.722  1.0528  0.5226  0.0197
  194MPD1    H6 3014   4.498   3.493  16.727  0.7309  0.2780 -0.3729
  194MPD1    H7 3015   4.471   3.621  16.635  0.8446  0.7212  0.0502
  195MPD1     C 3016   1.022   0.818  17.457  1.0853  0.8785 -0.0930
  195MPD1    C1 3017   0.939   0.792  17.566  0.0926 -0.6815  1.0720
  195MPD1    C2 3018   0.974   0.684  17.644  0.1905 -0.6563  0.1962
  195MPD1    C3 3019   1.084   0.601  17.606  0.1026  0.4482 -0.7292
  195MPD1    C4 3020   1.151   0.627  17.487 -0.0239 -0.4197  0.6139
  195MPD1    C5 3021   1.120   0.739  17.413  0.1903 -0.5211  0.4338
  195MPD1     H 3022   0.921   0.669   0.000  2.8989 -1.4362  1.6210
  195MPD1    H1 3023   1.231   0.568  17.445 -1.4321 -1.3942 -0.6986
  195MPD1    H2 3024   0.988   0.905  17.401 -2.8153 -1.5642 -1.4849
  195MPD1    H3 3025   1.173   0.753  17.320  0.7071 -0.0117  0.8006
  195MPD1     N 3026   1.118   0.493  17.689 -0.2797  0.0376 -0.9308
  195MPD1    H5 3027   1.200   0.439  17.662  0.1855  0.2846 -0.0269
  195MPD1    N1 3028   0.844   0.891  17.595  0.6734 -0.4167 -0.4810
  195MPD1    H6 3029   0.801   0.939  17.516  0.4980 -0.3149 -0.3235
  195MPD1    H7 3030   0.778   0.873  17.670 -0.6243 -2.5204 -2.1422
  196MPD1     C 3031   0.648   0.140  17.316 -0.1684  0.2943  0.5153
  196MPD1    C1 3032   0.643   0.005  17.340 -0.3995  0.3789  0.4054
  196MPD1    C2 3033   0.525   4.688  17.390 -0.3289  0.5652  0.8235
  196MPD1    C3 3034   0.415   0.032  17.409 -0.9245  0.0360 -0.4939
  196MPD1    C4 3035   0.420   0.162  17.383 -0.4635  0.5374  0.1284
  196MPD1    C5 3036   0.536   0.211  17.325 -0.0527 -0.3923 -0.2799
  196MPD1     H 3037   0.521   4.581  17.410 -0.0106  0.9471  2.9401
  196MPD1    H1 3038   0.329   0.219  17.399 -0.8800 -0.1032  0.0532
  196MPD1    H2 3039   0.739   0.185  17.278 -0.2310  0.1767  0.2264
  196MPD1    H3 3040   0.532   0.319  17.310  0.6559 -0.5333 -1.5169
  196MPD1     N 3041   0.293   4.722  17.462 -0.5393 -0.2999 -0.1872
  196MPD1    H5 3042   0.223   0.059  17.476  1.0866  1.1069  0.7784
  196MPD1    N1 3043   0.759   4.659  17.328 -1.0003  0.0737  0.3011
  196MPD1    H6 3044   0.730   4.563  17.343 -1.7991  0.1596 -0.6787
  196MPD1    H7 3045   0.793   4.660  17.232  3.3131  1.7662  1.8487
  197MPD1     C 3046   3.938   1.099  17.585  0.0396 -0.9230 -0.3595
  197MPD1    C1 3047   4.034   1.184  17.642  0.0455 -0.1587 -0.1642
  197MPD1    C2 3048   4.103   1.272  17.560  0.1982  0.3198 -0.2041
  197MPD1    C3 3049   4.073   1.271  17.430 -0.3395  0.3356 -0.2701
  197MPD1    C4 3050   3.980   1.194  17.373 -0.8874  0.0130 -0.6993
  197MPD1    C5 3051   3.899   1.115  17.455  0.0016 -0.3579  0.4917
  197MPD1     H 3052   4.182   1.329  17.607  0.1032  1.2422 -1.1767
  197MPD1    H1 3053   3.962   1.200  17.266  1.3858  0.8429 -1.0293
  197MPD1    H2 3054   3.898   1.016  17.641  0.3005  0.6638  2.1774
  197MPD1    H3 3055   3.813   1.055  17.425 -1.2520  2.0273 -0.6477
  197MPD1     N 3056   4.136   1.357  17.343 -0.2520  0.1734  0.1526
  197MPD1    H5 3057   4.108   1.347  17.245 -0.2520  0.5583  0.1129
  197MPD1    N1 3058   4.080   1.160   0.033  0.1918  0.2692  0.3349
  197MPD1    H6 3059   4.154   1.089   0.036  0.8011  0.8564 -0.7671
  197MPD1    H7 3060   4.003   1.127   0.090 -0.2681  0.5432 -0.1365
  198MPD1     C 3061   1.508   1.264  15.738  0.0582  0.3514 -0.3543
  198MPD1    C1 3062   1.549   1.165  15.826 -0.1023 -0.0693  0.2525
  198MPD1    C2 3063   1.463   1.061  15.851  0.1769 -0.2761 -0.3389
  198MPD1    C3 3064   1.357   1.027  15.763 -0.1844 -0.1265 -0.1876
  198MPD1    C4 3065   1.327   1.122  15.669 -0.2693 -0.2021 -0.1342
  198MPD1    C5 3066   1.401   1.243  15.655 -0.2140  0.3640 -0.2424
  198MPD1     H 3067   1.489   0.987  15.926  0.7504  1.5363  1.2166
  198MPD1    H1 3068   1.255   1.101  15.590 -0.3902 -1.8684  0.4236
  198MPD1    H2 3069   1.571   1.352  15.738  1.2470 -0.4958 -0.0626
  198MPD1    H3 3070   1.375   1.310  15.574  0.5933  2.3675  1.1425
  198MPD1     N 3071   1.290   0.907  15.787 -0.1067  0.2616  0.5632
  198MPD1    H5 3072   1.320   0.848  15.864  1.3238  1.4452  0.9161
  198MPD1    N1 3073   1.663   1.185  15.903  0.2107  0.3480 -0.0381
  198MPD1    H6 3074   1.647   1.249  15.981  1.3208  2.5792 -1.6147
  198MPD1    H7 3075   1.735   1.233  15.849 -1.7688  2.0560 -1.1503
  199MPD1     C 3076   3.868   1.417   9.863  0.1584  0.1938 -0.3341
  199MPD1    C1 3077   3.762   1.383   9.937  0.4580 -0.2703  0.2236
  199MPD1    C2 3078   3.654   1.468   9.941  0.0589 -0.3810  0.4538
  199MPD1    C3 3079   3.658   1.576   9.853 -0.7501  0.2107  0.0536
  199MPD1    C4 3080   3.763   1.606   9.768 -0.0547  0.7811  0.2924
  199MPD1    C5 3081   3.870   1.523   9.772 -0.0172 -0.5781  0.5374
  199MPD1     H 3082   3.574   1.439  10.009 -1.1585 -0.0148 -0.8269
  199MPD1    H1 3083   3.764   1.699   9.712  3.2780  0.7128  0.2387
  199MPD1    H2 3084   3.959   1.358   9.859 -0.4465 -1.0693  4.0101
  199MPD1    H3 3085   3.961   1.542   9.716 -1.2017 -0.5298 -1.3586
  199MPD1     N 3086   3.551   1.668   9.846 -0.1910  0.2564 -0.7166
  199MPD1    H5 3087   3.573   1.746   9.786 -0.3092  0.5431 -0.3873
  199MPD1    N1 3088   3.764   1.281  10.034 -0.4466 -0.5770 -0.5475
  199MPD1    H6 3089   3.676   1.257  10.079  0.0526  0.9129  1.2237
  199MPD1    H7 3090   3.821   1.204  10.000  1.5563  1.8070 -2.5489
  200MPD1     C 3091   2.336   1.405  15.417  0.3160 -0.3046  0.7745
  200MPD1    C1 3092   2.244   1.348  15.327 -0.0485 -0.0463  0.4967
  200MPD1    C2 3093   2.188   1.432  15.232  0.1377 -0.0253  0.1366
  200MPD1    C3 3094   2.210   1.567  15.231 -0.4791  0.3452 -0.3385
  200MPD1    C4 3095   2.302   1.612  15.322 -0.5623  0.2697  0.5504
  200MPD1    C5 3096   2.365   1.536  15.418  0.0501  0.0170  0.3364
  200MPD1     H 3097   2.137   1.391  15.146  0.7225 -0.9164  0.2206
  200MPD1    H1 3098   2.326   1.716  15.342  3.7839 -0.4727 -0.7270
  200MPD1    H2 3099   2.405   1.341  15.472 -0.9486 -1.5132  0.9365
  200MPD1    H3 3100   2.438   1.565  15.493  3.2343 -0.9526 -2.3957
  200MPD1     N 3101   2.162   1.648  15.126  0.1457 -0.4879  0.2866
  200MPD1    H5 3102   2.109   1.589  15.061 -0.4188 -0.3190  0.5901
  200MPD1    N1 3103   2.241   1.210  15.312 -0.1246 -0.2704  0.4611
  200MPD1    H6 3104   2.153   1.178  15.271  0.2053 -1.2214  0.4830
  200MPD1    H7 3105   2.246   1.170  15.406 -0.7008 -1.0036  0.1793
  201MPD1     C 3106   4.324   4.671  13.614  0.4140  1.2101 -0.5770
  201MPD1    C1 3107   4.347   4.552  13.683 -0.8252 -0.2151 -0.6487
  201MPD1    C2 3108   4.481   4.519  13.713  0.3406 -0.1795  0.6071
  201MPD1    C3 3109   4.580   4.616  13.700 -0.3950 -0.1816  0.3577
  201MPD1    C4 3110   4.551   0.009  13.654 -0.1338  0.7254 -0.8466
  201MPD1    C5 3111   4.427   0.026  13.594 -0.0579  0.5056 -0.4334
  201MPD1     H 3112   4.496   4.429  13.771 -0.3095 -0.2630  0.6414
  201MPD1    H1 3113   4.630   0.080  13.631  0.4789 -0.0465 -1.1498
  201MPD1    H2 3114   4.228   4.688  13.568  0.6196 -1.1509 -1.8530
  201MPD1    H3 3115   4.397   0.113  13.536 -0.3537 -0.0805 -1.1651
  201MPD1     N 3116   4.710   4.575  13.744 -0.2859 -0.6006  0.1841
  201MPD1    H5 3117   4.718   4.487  13.795 -2.3759 -1.5654 -1.1785
  201MPD1    N1 3118   4.256   4.446  13.686 -0.0414  0.2082  0.2914
  201MPD1    H6 3119   4.280   4.383  13.761  2.3687  0.3901 -0.3454
  201MPD1    H7 3120   4.162   4.486  13.696 -0.8170 -1.5397 -0.0812
  202MPD1     C 3121   4.093   0.041   8.982  0.4476  0.6604 -0.5733
  202MPD1    C1 3122   3.994   0.103   9.052  0.1337 -0.3235 -1.1432
  202MPD1    C2 3123   4.036   0.154   9.174 -0.4506  0.2949 -0.6439
  202MPD1    C3 3124   4.132   0.091   9.250  0.6264  0.5449 -0.1957
  202MPD1    C4 3125   4.216   0.006   9.187 -0.1335  0.4394  0.0500
  202MPD1    C5 3126   4.203   4.730   9.047 -0.2178  0.4864 -0.8239
  202MPD1     H 3127   3.965   0.216   9.227  0.0084  0.5421 -0.3232
  202MPD1    H1 3128   4.291   4.682   9.239 -2.3798 -0.6034  2.1490
  202MPD1    H2 3129   4.101   0.027   8.875 -1.1271  0.1931 -0.6185
  202MPD1    H3 3130   4.275   4.677   8.987 -0.4997  1.0376 -1.6497
  202MPD1     N 3131   4.155   0.119   9.391 -0.3426 -0.1725  0.2710
  202MPD1    H5 3132   4.243   0.097   9.437  0.9896  0.3221 -2.0247
  202MPD1    N1 3133   3.900   0.175   8.975 -0.3097  0.1551 -0.2366
  202MPD1    H6 3134   3.813   0.200   9.021 -0.9571 -0.6985 -0.9956
  202MPD1    H7 3135   3.871   0.118   8.896  1.1422 -1.4798  0.4078
  203MPD1     C 3136   3.768   0.913  12.878 -0.3427  0.1906 -0.2427
  203MPD1    C1 3137   3.807   0.829  12.775  0.6517 -0.1407  0.0126
  203MPD1    C2 3138   3.832   0.695  12.798 -0.4566  0.6538 -0.4616
  203MPD1    C3 3139   3.791   0.645  12.922  0.1936  0.0286  0.1611
  203MPD1    C4 3140   3.736   0.728  13.019 -0.4864 -0.7388 -0.6083
  203MPD1    C5 3141   3.740   0.865  13.003 -0.2082  0.3890 -0.1500
  203MPD1     H 3142   3.872   0.635  12.718  1.2322  1.0347  0.1085
  203MPD1    H1 3143   3.702   0.698  13.118 -0.7370 -1.9250 -1.0538
  203MPD1    H2 3144   3.777   1.021  12.873  1.8957  0.0431  0.4948
  203MPD1    H3 3145   3.700   0.932  13.078  0.3895  0.8152 -0.2142
  203MPD1     N 3146   3.795   0.507  12.937 -0.2032 -0.9700 -0.1374
  203MPD1    H5 3147   3.836   0.450  12.864 -0.5422  0.0652 -1.1413
  203MPD1    N1 3148   3.854   0.892  12.655  0.1086 -0.2584 -0.0953
  203MPD1    H6 3149   3.815   0.985  12.651  1.9677  0.5871  1.3265
  203MPD1    H7 3150   3.844   0.831  12.574 -0.8546  1.0236 -0.9301
  204MPD1     C 3151   3.930   2.010   0.004  0.3725  0.1870  0.4719
  204MPD1    C1 3152   3.863   1.922   0.082 -0.5336 -0.1100  0.4111
  204MPD1    C2 3153   3.736   1.885   0.042  0.5915  0.4712 -0.6917
  204MPD1    C3 3154   3.692   1.920  17.649  0.3434  0.1437 -0.0319
  204MPD1    C4 3155   3.776   1.982  17.560 -0.2363  0.1453 -0.1320
  204MPD1    C5 3156   3.891   2.033  17.610  0.3417  0.0280 -0.0803
  204MPD1     H 3157   3.668   1.838   0.111 -1.2844  2.5778 -1.1051
  204MPD1    H1 3158   3.747   2.009  17.459 -0.6457 -0.6461 -0.2200
  204MPD1    H2 3159   4.028   2.043   0.037  0.3868  1.0621 -0.4329
  204MPD1    H3 3160   3.938   2.100  17.539 -0.2332 -0.4019 -0.8627
  204MPD1     N 3161   3.571   1.888  17.601 -0.0661  0.0140 -0.8058
  204MPD1    H5 3162   3.556   1.902  17.502  1.1580  4.1048 -0.4088
  204MPD1    N1 3163   3.928   1.857   0.193 -0.1927  0.4314  0.4641
  204MPD1    H6 3164   3.856   1.807   0.244 -0.0583 -0.1010  0.1289
  204MPD1    H7 3165   3.975   1.924   0.253 -0.4804  1.3716 -0.3508
  205MPD1     C 3166   3.495   0.702  16.651 -0.2016  0.3088 -0.0872
  205MPD1    C1 3167   3.388   0.683  16.575 -0.2187 -0.1246 -0.4333
  205MPD1    C2 3168   3.259   0.727  16.614 -0.5779 -0.1015 -0.3429
  205MPD1    C3 3169   3.249   0.810  16.721  0.1439 -0.9008  0.0864
  205MPD1    C4 3170   3.361   0.843  16.794 -0.0695  0.0062 -0.1540
  205MPD1    C5 3171   3.484   0.785  16.755  0.3131 -0.1781 -0.3930
  205MPD1     H 3172   3.178   0.691  16.552 -1.3269  1.1617 -0.1108
  205MPD1    H1 3173   3.361   0.903  16.884 -0.1968  1.0537 -0.8472
  205MPD1    H2 3174   3.593   0.662  16.629 -2.7620 -4.6584 -2.4582
  205MPD1    H3 3175   3.578   0.805  16.804  1.0447 -0.6821 -1.5692
  205MPD1     N 3176   3.128   0.875  16.760  0.4061  0.2609 -0.5159
  205MPD1    H5 3177   3.127   0.942  16.837 -0.1417  2.0746 -2.1202
  205MPD1    N1 3178   3.391   0.593  16.471 -0.4113 -0.2082 -0.0230
  205MPD1    H6 3179   3.465   0.599  16.401 -0.9709 -2.8273 -0.8246
  205MPD1    H7 3180   3.300   0.600  16.426 -0.3946  0.8802  0.1099
  206MPD1     C 3181   3.705   3.950  16.472  0.6076 -0.1506 -0.5355
  206MPD1    C1 3182   3.679   3.821  16.438  0.7238  0.2837  0.2310
  206MPD1    C2 3183   3.598   3.793  16.334  0.0709  0.8923 -0.1570
  206MPD1    C3 3184   3.517   3.896  16.277 -0.4433 -0.3341  0.3905
  206MPD1    C4 3185   3.528   4.021  16.329  0.3259  0.1301  1.1416
  206MPD1    C5 3186   3.623   4.045  16.422 -0.7281  0.5396  0.5886
  206MPD1     H 3187   3.599   3.694  16.289 -2.2696  1.0532 -0.5577
  206MPD1    H1 3188   3.469   4.100  16.285  1.2628  0.5713  0.6791
  206MPD1    H2 3189   3.781   3.976  16.545  0.5581 -0.8720 -0.2355
  206MPD1    H3 3190   3.638   4.146  16.458 -0.8615  1.2413 -1.3127
  206MPD1     N 3191   3.416   3.882  16.178 -0.4294 -0.1939  0.3955
  206MPD1    H5 3192   3.374   3.967  16.141 -0.1177  0.6283  1.8968
  206MPD1    N1 3193   3.765   3.723  16.499 -0.6130 -0.3276  0.4687
  206MPD1    H6 3194   3.772   3.738  16.600 -0.5255  1.5376  0.1887
  206MPD1    H7 3195   3.734   3.627  16.492 -0.6163 -0.2714 -0.2416
  207MPD1     C 3196   1.143   4.650  10.217 -0.2614  0.3643 -0.4843
  207MPD1    C1 3197   1.199   0.020  10.146 -0.0637 -0.0733  0.2882
  207MPD1    C2 3198   1.238   0.134  10.214  0.6911  0.0573 -0.4057
  207MPD1    C3 3199   1.191   0.159  10.345 -0.0320  0.2103  0.8234
  207MPD1    C4 3200   1.124   0.059  10.407 -0.2156  0.0712 -0.2252
  207MPD1    C5 3201   1.106   4.670  10.349  0.2209  0.4180 -0.2955
  207MPD1     H 3202   1.315   0.191  10.164  1.5545 -0.3827  0.4232
  207MPD1    H1 3203   1.090   0.068  10.510  1.1936 -3.9882  0.6080
  207MPD1    H2 3204   1.131   4.547  10.184  0.4659  0.3825 -0.8108
  207MPD1    H3 3205   1.041   4.602  10.403 -0.5902  0.7849 -0.8202
  207MPD1     N 3206   1.247   0.267  10.423  0.4049  0.2327 -0.0616
  207MPD1    H5 3207   1.219   0.278  10.520  0.4512 -0.4701  0.0308
  207MPD1    N1 3208   1.258   4.717  10.020  0.1448 -0.1249  0.7978
  207MPD1    H6 3209   1.204   4.639   9.983  0.6826  1.5588 -3.5837
  207MPD1    H7 3210   1.262   0.061   9.955 -1.8728 -0.9892 -0.3709
  208MPD1     C 3211   3.762   0.686  17.433 -0.2056 -0.1660  0.7281
  208MPD1    C1 3212   3.716   0.598  17.342  0.8321 -0.5251  0.6767
  208MPD1    C2 3213   3.626   0.506  17.388  0.3980  0.0592 -0.2216
  208MPD1    C3 3214   3.608   0.483  17.526  0.0686  0.6027  0.4971
  208MPD1    C4 3215   3.655   0.570  17.614  0.3334  0.4162  0.6982
  208MPD1    C5 3216   3.732   0.672  17.563 -0.1103 -0.9176  0.1148
  208MPD1     H 3217   3.584   0.435  17.318  0.3126  1.0172 -1.1412
  208MPD1    H1 3218   3.668   0.555  17.721  1.2005 -0.3741  0.4726
  208MPD1    H2 3219   3.836   0.761  17.408 -0.3928  0.1455  1.1087
  208MPD1    H3 3220   3.790   0.731  17.633  0.7184 -2.0881  0.4257
  208MPD1     N 3221   3.521   0.379  17.562  0.1216 -0.1642  0.1191
  208MPD1    H5 3222   3.485   0.323  17.486  1.3229 -0.8894  0.0852
  208MPD1    N1 3223   3.748   0.607  17.207 -0.2285  0.2388  0.4521
  208MPD1    H6 3224   3.829   0.666  17.191  1.1391 -2.0782 -1.1130
  208MPD1    H7 3225   3.776   0.514  17.176 -0.0101  0.4978 -0.1225
  209MPD1     C 3226   1.443   4.302  11.277 -0.7044 -0.1867 -0.5111
  209MPD1    C1 3227   1.433   4.403  11.189  0.3538 -0.3630 -0.7819
  209MPD1    C2 3228   1.413   4.534  11.244  0.5424  0.1829 -0.8773
  209MPD1    C3 3229   1.376   4.558  11.371 -0.2745  0.7676  0.9262
  209MPD1    C4 3230   1.370   4.450  11.458 -0.1409  0.0580 -0.9142
  209MPD1    C5 3231   1.404   4.326  11.411  0.4018 -0.1386 -0.3559
  209MPD1     H 3232   1.431   4.616  11.175 -3.2973  1.9896  0.2893
  209MPD1    H1 3233   1.336   4.452  11.561 -0.0975 -0.4460 -0.8909
  209MPD1    H2 3234   1.457   4.202  11.239  2.2809  0.0128  0.1050
  209MPD1    H3 3235   1.416   4.241  11.478 -1.5674  0.2593  0.5204
  209MPD1     N 3236   1.343   4.695  11.409  0.0029  0.3671  0.5703
  209MPD1    H5 3237   1.344   0.022  11.329 -0.4222  0.1327  0.3867
  209MPD1    N1 3238   1.491   4.384  11.062 -0.8009 -0.3281  0.2573
  209MPD1    H6 3239   1.444   4.440  10.990  1.2468 -1.7929 -2.2214
  209MPD1    H7 3240   1.486   4.286  11.034  1.3998 -0.2780 -0.2948
  210MPD1     C 3241   1.066   0.313  12.303 -0.3699 -0.1580 -0.0949
  210MPD1    C1 3242   1.019   0.405  12.213 -0.2515  0.1398  0.3009
  210MPD1    C2 3243   1.067   0.397  12.079  0.1304 -0.2274  0.2911
  210MPD1    C3 3244   1.170   0.310  12.045  0.9795  0.8006 -0.3464
  210MPD1    C4 3245   1.222   0.228  12.141  0.3702 -0.2089  0.4199
  210MPD1    C5 3246   1.171   0.235  12.269  0.1565 -0.1632  0.3685
  210MPD1     H 3247   1.023   0.465  12.006  0.4306  2.0549  2.2221
  210MPD1    H1 3248   1.295   0.151  12.120 -0.9677 -1.1136 -0.9509
  210MPD1    H2 3249   1.021   0.309  12.401 -1.2936  1.5453 -0.4481
  210MPD1    H3 3250   1.209   0.159  12.336  1.5608  0.1864 -0.0359
  210MPD1     N 3251   1.216   0.297  11.915 -0.2031  0.1737  0.6072
  210MPD1    H5 3252   1.273   0.213  11.907 -2.4678 -1.2311 -0.5250
  210MPD1    N1 3253   0.905   0.481  12.240 -0.3378  0.2049  0.7126
  210MPD1    H6 3254   0.915   0.533  12.328  1.0079  0.8314  0.1859
  210MPD1    H7 3255   0.893   0.554  12.170 -2.6316 -0.4998  0.3717
  211MPD1     C 3256   3.279   0.042  16.222  0.0202  0.2809  0.3879
  211MPD1    C1 3257   3.384   0.126  16.201 -0.3812 -0.1181  0.0999
  211MPD1    C2 3258   3.364   0.262  16.185 -0.5312 -0.2661  0.0111
  211MPD1    C3 3259   3.242   0.324  16.211  0.1640  0.7775  0.6165
  211MPD1    C4 3260   3.135   0.240  16.244 -0.3090  0.8439 -0.8264
  211MPD1    C5 3261   3.157   0.105  16.252 -0.3695  0.3489  0.0568
  211MPD1     H 3262   3.452   0.322  16.166 -0.0257 -0.2625  2.2833
  211MPD1    H1 3263   3.035   0.282  16.251  0.5620  2.3181  2.6221
  211MPD1    H2 3264   3.284   4.668  16.222  4.2021  0.4767 -2.9236
  211MPD1    H3 3265   3.074   0.037  16.263 -0.3427 -0.0227 -2.0047
  211MPD1     N 3266   3.233   0.466  16.195 -0.4432  0.4480 -0.0752
  211MPD1    H5 3267   3.300   0.518  16.140 -1.6224 -0.3066 -2.2247
  211MPD1    N1 3268   3.509   0.076  16.161 -0.4186  0.4474  0.3236
  211MPD1    H6 3269   3.555   0.008  16.222 -1.1563 -1.1823 -0.9408
  211MPD1    H7 3270   3.579   0.149  16.157  0.2499 -0.1864  0.4997
  212MPD1     C 3271   2.799   3.817  16.377 -0.0385 -0.1917  0.1522
  212MPD1    C1 3272   2.899   3.724  16.398  0.0155  0.2319 -0.1970
  212MPD1    C2 3273   2.880   3.636  16.501  0.2195  0.6123  0.3188
  212MPD1    C3 3274   2.780   3.660  16.593  0.4127  0.3168 -0.4719
  212MPD1    C4 3275   2.690   3.765  16.583  0.6338  0.0059 -0.4894
  212MPD1    C5 3276   2.700   3.843  16.470  0.2918  0.1407 -0.7349
  212MPD1     H 3277   2.937   3.544  16.505 -3.0267 -1.3740  0.5707
  212MPD1    H1 3278   2.603   3.793  16.641  1.1107 -1.5074  0.9499
  212MPD1    H2 3279   2.804   3.883  16.291 -1.1195 -1.4152 -0.8341
  212MPD1    H3 3280   2.632   3.925  16.450 -0.2095  0.0960  0.7976
  212MPD1     N 3281   2.770   3.560  16.696  0.4503  0.4637 -0.5896
  212MPD1    H5 3282   2.824   3.474  16.694 -2.5508 -1.4309  0.9445
  212MPD1    N1 3283   2.987   3.699  16.291  0.1495  0.5595 -0.1744
  212MPD1    H6 3284   3.079   3.674  16.328  0.0949 -0.0050 -0.4320
  212MPD1    H7 3285   3.002   3.784  16.237  0.3950  0.6085 -0.0297
  213MPD1     C 3286   1.408   4.074  15.982 -0.0067 -0.0590  0.2172
  213MPD1    C1 3287   1.283   4.029  16.016 -0.1242 -0.5971 -0.4071
  213MPD1    C2 3288   1.192   4.040  15.913  0.1518 -0.0906  0.1673
  213MPD1    C3 3289   1.229   4.060  15.781  0.0622  0.1204 -0.2289
  213MPD1    C4 3290   1.359   4.085  15.754  0.0516  0.6573 -0.5918
  213MPD1    C5 3291   1.448   4.099  15.853  0.3305  0.1569  0.2484
  213MPD1     H 3292   1.089   4.036  15.945  0.3571 -1.2523  0.6831
  213MPD1    H1 3293   1.390   4.088  15.650 -0.1174  1.8889 -0.6074
  213MPD1    H2 3294   1.476   4.065  16.066  1.1298  0.2878 -0.6639
  213MPD1    H3 3295   1.555   4.103  15.835  0.3504  0.1542  0.3626
  213MPD1     N 3296   1.125   4.071  15.686  0.2550 -0.1003 -0.4045
  213MPD1    H5 3297   1.028   4.047  15.707  0.4913  0.2852  1.1543
  213MPD1    N1 3298   1.247   4.046  16.154 -0.2177  0.2091  0.2153
  213MPD1    H6 3299   1.329   4.026  16.212 -0.5103  0.4346  0.7113
  213MPD1    H7 3300   1.167   3.988  16.180  0.4270 -1.3861 -1.4144
  214MPD1     C 3301   0.478   3.456  15.252  0.0775  0.1319  0.1580
  214MPD1    C1 3302   0.483   3.503  15.382  0.6404 -0.1780 -0.1640
  214MPD1    C2 3303   0.556   3.617  15.411 -0.0569 -0.1533  0.2463
  214MPD1    C3 3304   0.609   3.698  15.312  0.2406 -0.1756 -0.5694
  214MPD1    C4 3305   0.595   3.655  15.181 -0.0094  0.7644  0.1876
  214MPD1    C5 3306   0.528   3.537  15.152  0.3163  0.8434  0.1139
  214MPD1     H 3307   0.561   3.638  15.517 -0.9888 -3.7372  1.0222
  214MPD1    H1 3308   0.634   3.706  15.093 -1.6969 -0.4507 -1.2751
  214MPD1    H2 3309   0.430   3.361  15.229  0.1563  0.2526 -0.5229
  214MPD1    H3 3310   0.528   3.506  15.048  2.5405 -0.1197  0.4071
  214MPD1     N 3311   0.679   3.816  15.338  0.3510  0.7328  0.3413
  214MPD1    H5 3312   0.697   3.870  15.254 -0.8153  0.1068 -0.3197
  214MPD1    N1 3313   0.434   3.417  15.479 -0.4109 -0.4579  0.2011
  214MPD1    H6 3314   0.379   3.466  15.550 -0.7049  1.9089 -1.6606
  214MPD1    H7 3315   0.371   3.345  15.444 -2.0782  0.8113  0.5990
  215MPD1     C 3316   1.511   4.420  10.407 -0.7746 -0.1490 -0.3634
  215MPD1    C1 3317   1.387   4.411  10.368  0.3444  0.2863 -0.1111
  215MPD1    C2 3318   1.294   4.430  10.471  0.1027 -0.5604 -0.0292
  215MPD1    C3 3319   1.321   4.481  10.592 -0.3799 -0.8097  0.7650
  215MPD1    C4 3320   1.448   4.514  10.612  0.4450  0.3226 -0.2227
  215MPD1    C5 3321   1.541   4.479  10.525 -0.1206  0.7658  0.7367
  215MPD1     H 3322   1.190   4.410  10.448  0.6784 -1.7831 -1.6038
  215MPD1    H1 3323   1.481   4.561  10.704 -1.2218 -0.5774  0.8355
  215MPD1    H2 3324   1.593   4.397  10.340  0.6331  1.6689  0.7531
  215MPD1    H3 3325   1.647   4.483  10.548 -0.1395  0.4477  0.8766
  215MPD1     N 3326   1.221   4.499  10.691  0.5786 -0.0635  0.2231
  215MPD1    H5 3327   1.127   4.467  10.667  2.0806 -2.3385 -2.6361
  215MPD1    N1 3328   1.342   4.385  10.229  0.6106  0.3328  0.3529
  215MPD1    H6 3329   1.414   4.345  10.169  0.7670  0.0900  0.7024
  215MPD1    H7 3330   1.246   4.356  10.215  0.5457  0.9607 -0.4816
  216MPD1     C 3331   2.196   2.573   0.327 -0.1620  0.3267  0.2893
  216MPD1    C1 3332   2.320   2.632   0.342 -0.6080 -0.4730 -0.9308
  216MPD1    C2 3333   2.421   2.620   0.243 -0.3564  0.1323 -0.0409
  216MPD1    C3 3334   2.400   2.532   0.135  0.4891  0.2785 -0.1263
  216MPD1    C4 3335   2.273   2.475   0.118  0.5073  0.1366 -0.3140
  216MPD1    C5 3336   2.172   2.493   0.214  0.5045 -0.7698  0.1471
  216MPD1     H 3337   2.516   2.672   0.245 -0.3484  0.0458  1.9963
  216MPD1    H1 3338   2.245   2.409   0.037  1.3077  0.8348 -1.1586
  216MPD1    H2 3339   2.122   2.576   0.406 -0.4690 -1.3803  0.0762
  216MPD1    H3 3340   2.076   2.445   0.205  0.4607 -0.4462 -1.1011
  216MPD1     N 3341   2.510   2.521   0.041 -0.0317  0.2070 -0.9630
  216MPD1    H5 3342   2.596   2.572   0.059 -0.1472  0.7537 -1.9540
  216MPD1    N1 3343   2.349   2.695   0.463  0.6452  0.3405 -0.0003
  216MPD1    H6 3344   2.419   2.764   0.435 -0.4815  2.3764  2.1855
  216MPD1    H7 3345   2.275   2.745   0.511  0.3442  0.8552 -1.0053
  217MPD1     C 3346   3.105   1.003   9.072 -0.9775 -0.0128 -0.0261
  217MPD1    C1 3347   3.205   0.910   9.063  0.3408  0.6573 -0.0550
  217MPD1    C2 3348   3.164   0.778   9.061  0.0052 -0.0505 -0.3479
  217MPD1    C3 3349   3.036   0.740   9.092 -0.6912 -0.5851 -0.3333
  217MPD1    C4 3350   2.945   0.837   9.130 -0.3579 -0.2621  0.0195
  217MPD1    C5 3351   2.977   0.970   9.114 -0.0552 -0.2773 -0.0393
  217MPD1     H 3352   3.233   0.700   9.029  2.2223  2.0804 -0.6907
  217MPD1    H1 3353   2.845   0.816   9.165 -0.3903  1.7995  1.1757
  217MPD1    H2 3354   3.119   1.110   9.070  1.6853 -0.4077 -2.7730
  217MPD1    H3 3355   2.902   1.045   9.134 -2.6388 -2.7994 -0.1744
  217MPD1     N 3356   2.998   0.607   9.122  0.1792 -0.5061  0.5362
  217MPD1    H5 3357   2.906   0.593   9.162 -0.7265  2.0930 -0.6577
  217MPD1    N1 3358   3.333   0.956   9.026 -0.4532  0.0497 -0.3632
  217MPD1    H6 3359   3.413   0.895   9.036  1.2601  2.9420  3.4810
  217MPD1    H7 3360   3.348   1.053   9.053  0.3195 -0.2630  0.3287
  218MPD1     C 3361   0.123   1.556  12.962 -0.2627  0.3533 -0.1242
  218MPD1    C1 3362   0.172   1.584  12.835  0.6008 -0.2386  0.4414
  218MPD1    C2 3363   0.247   1.480  12.780  0.3907  0.1871  0.0895
  218MPD1    C3 3364   0.278   1.358  12.844  0.1278  0.4722  0.3507
  218MPD1    C4 3365   0.232   1.348  12.974 -0.8818  0.1368  0.3359
  218MPD1    C5 3366   0.156   1.443  13.032 -0.3573  0.1088 -0.2069
  218MPD1     H 3367   0.294   1.496  12.683 -0.3117  1.8431  0.0298
  218MPD1    H1 3368   0.247   1.266  13.044  1.2548 -0.3833 -0.7714
  218MPD1    H2 3369   0.054   1.623  13.013  0.1137  0.0101  0.8269
  218MPD1    H3 3370   0.115   1.421  13.130 -1.0744  0.7954 -0.3581
  218MPD1     N 3371   0.355   1.261  12.779  0.0679  1.0161 -0.2823
  218MPD1    H5 3372   0.403   1.280  12.691  2.1730 -0.0163  0.6475
  218MPD1    N1 3373   0.167   1.710  12.777 -0.5468 -0.0403 -1.0883
  218MPD1    H6 3374   0.093   1.770  12.813 -0.0109  1.4517 -2.4656
  218MPD1    H7 3375   0.161   1.693  12.677 -2.6691 -1.3140 -0.7334
  219MPD1     C 3376   0.807   1.467  12.172  0.1874  0.1552 -0.3029
  219MPD1    C1 3377   0.892   1.376  12.220 -0.3106 -1.3080  0.0246
  219MPD1    C2 3378   0.856   1.297  12.322 -1.0468 -0.1026 -0.0651
  219MPD1    C3 3379   0.720   1.293  12.360 -0.0916  0.3303 -0.3685
  219MPD1    C4 3380   0.627   1.363  12.289 -0.3931 -0.4249  0.2308
  219MPD1    C5 3381   0.675   1.459  12.205  0.4051  0.2288  0.0134
  219MPD1     H 3382   0.932   1.246  12.379 -3.2657 -2.8895  0.3891
  219MPD1    H1 3383   0.521   1.364  12.312 -0.6426 -0.1986 -0.9246
  219MPD1    H2 3384   0.842   1.542  12.102 -0.4336  1.4278  0.7510
  219MPD1    H3 3385   0.607   1.530  12.159 -0.3445 -2.0969 -2.4784
  219MPD1     N 3386   0.664   1.213  12.460 -0.0401  0.5323  0.0952
  219MPD1    H5 3387   0.568   1.223  12.491  0.4324 -0.9391  1.9824
  219MPD1    N1 3388   1.033   1.399  12.197 -0.1116 -0.2203  0.1996
  219MPD1    H6 3389   1.051   1.411  12.097 -1.0250  2.1915  0.3225
  219MPD1    H7 3390   1.087   1.314  12.211  2.0484  1.2017  0.4411
  220MPD1     C 3391   0.711   0.267   9.524 -0.2029 -0.3867 -0.5538
  220MPD1    C1 3392   0.638   0.380   9.503  0.1087  0.1169  0.5868
  220MPD1    C2 3393   0.623   0.466   9.613 -0.1405 -0.4787  0.7968
  220MPD1    C3 3394   0.646   0.417   9.746 -0.2342  0.3893  0.2388
  220MPD1    C4 3395   0.718   0.302   9.759  0.3000 -0.2716 -0.1014
  220MPD1    C5 3396   0.746   0.225   9.649  0.1256 -0.0265 -0.1960
  220MPD1     H 3397   0.576   0.563   9.607 -0.8193 -0.8749 -0.2973
  220MPD1    H1 3398   0.739   0.260   9.857 -1.1722 -2.8287 -0.9009
  220MPD1    H2 3399   0.736   0.208   9.437  0.3665  0.4284 -0.9385
  220MPD1    H3 3400   0.797   0.131   9.668  0.3894  0.5733  2.0758
  220MPD1     N 3401   0.617   0.505   9.857  0.6467  1.2724 -0.0649
  220MPD1    H5 3402   0.567   0.593   9.852  0.3225  1.2285  2.6685
  220MPD1    N1 3403   0.626   0.429   9.372 -0.2159  0.3476  0.4780
  220MPD1    H6 3404   0.618   0.346   9.314  0.7062  1.6138 -1.4366
  220MPD1    H7 3405   0.545   0.490   9.368 -0.0011  0.5965 -0.0647
  221MPD1     C 3406   2.714   0.681  16.001 -0.3739 -0.2244 -0.0066
  221MPD1    C1 3407   2.731   0.566  16.065  0.4032  0.0458 -0.6015
  221MPD1    C2 3408   2.828   0.478  16.032  0.6784  0.1083 -0.5324
  221MPD1    C3 3409   2.916   0.505  15.931 -0.1118 -0.1482  0.8035
  221MPD1    C4 3410   2.899   0.629  15.866  0.1105  0.6330  0.7167
  221MPD1    C5 3411   2.801   0.712  15.906  0.1285  0.0782 -0.6850
  221MPD1     H 3412   2.841   0.386  16.087 -1.2841  0.4107  0.4575
  221MPD1    H1 3413   2.949   0.648  15.771  2.2493 -1.2058  1.4830
  221MPD1    H2 3414   2.630   0.747  16.017 -3.8279 -4.9039  0.8050
  221MPD1    H3 3415   2.808   0.811  15.864  0.7929  0.3941  0.1875
  221MPD1     N 3416   3.012   0.412  15.888  0.6069  0.0531 -0.3129
  221MPD1    H5 3417   3.075   0.451  15.818  1.0451 -0.1127 -0.0124
  221MPD1    N1 3418   2.638   0.521  16.164  0.5606 -0.6332 -0.0277
  221MPD1    H6 3419   2.679   0.460  16.235 -0.6308 -0.9423  0.3864
  221MPD1    H7 3420   2.598   0.598  16.216  0.5778 -1.6031  1.4169
  222MPD1     C 3421   1.441   4.244   1.635  0.2278 -0.1397  0.7227
  222MPD1    C1 3422   1.567   4.259   1.583  0.3895 -0.1003 -0.1295
  222MPD1    C2 3423   1.607   4.387   1.545  0.3084  0.3991 -0.2053
  222MPD1    C3 3424   1.521   4.494   1.554 -0.6809 -0.1795  0.2267
  222MPD1    C4 3425   1.403   4.486   1.618  0.2184 -0.2612 -0.3666
  222MPD1    C5 3426   1.358   4.353   1.650 -0.4133 -0.4405  0.5026
  222MPD1     H 3427   1.710   4.407   1.518  0.0750 -2.8197 -3.4501
  222MPD1    H1 3428   1.333   4.568   1.632  0.2345 -0.0256 -1.6987
  222MPD1    H2 3429   1.395   4.149   1.660  2.2929 -1.4353 -0.4156
  222MPD1    H3 3430   1.262   4.337   1.698  1.3225 -2.1578  3.4215
  222MPD1     N 3431   1.549   4.625   1.507 -0.0056  0.7192 -0.0091
  222MPD1    H5 3432   1.480   4.695   1.530  1.2466  0.8695  3.3201
  222MPD1    N1 3433   1.659   4.152   1.595  0.4820 -0.2558  0.1592
  222MPD1    H6 3434   1.606   4.065   1.585  0.8641 -0.4456 -0.2020
  222MPD1    H7 3435   1.737   4.147   1.531 -0.5065  0.5169 -1.1080
  223MPD1     C 3436   1.034   0.643   1.133  0.0431  0.6920  0.1364
  223MPD1    C1 3437   1.151   0.661   1.062  0.0184 -0.1970  0.4329
  223MPD1    C2 3438   1.250   0.571   1.082  0.0007 -1.0728 -0.3561
  223MPD1    C3 3439   1.243   0.476   1.184 -0.0105  1.0873 -0.2865
  223MPD1    C4 3440   1.134   0.466   1.269  0.0619  0.3103  0.3069
  223MPD1    C5 3441   1.028   0.548   1.237  0.1254  0.2069  0.3015
  223MPD1     H 3442   1.348   0.577   1.036 -0.7624  1.6949 -1.5848
  223MPD1    H1 3443   1.116   0.384   1.338  0.5444 -0.6232 -0.6829
  223MPD1    H2 3444   0.944   0.702   1.119 -0.8448 -0.6537  0.1067
  223MPD1    H3 3445   0.933   0.530   1.284 -0.2951  2.1890  0.1997
  223MPD1     N 3446   1.363   0.402   1.211 -0.4005 -0.1969  0.1049
  223MPD1    H5 3447   1.439   0.423   1.148 -2.4882  1.6934 -1.7520
  223MPD1    N1 3448   1.141   0.744   0.951  0.4920 -0.0985  0.6553
  223MPD1    H6 3449   1.233   0.772   0.919  0.4507 -0.8142 -0.0906
  223MPD1    H7 3450   1.087   0.829   0.967  0.2638  0.3168 -2.4027
  224MPD1     C 3451   3.415   1.330   9.149 -0.5049 -0.6939 -0.6437
  224MPD1    C1 3452   3.526   1.247   9.172  0.2960 -0.2075  0.2000
  224MPD1    C2 3453   3.516   1.130   9.253 -0.5273  0.1189  0.7484
  224MPD1    C3 3454   3.389   1.113   9.320  0.2039  0.2799 -0.6348
  224MPD1    C4 3455   3.280   1.194   9.296  0.1024 -0.7901  0.0228
  224MPD1    C5 3456   3.296   1.303   9.211 -0.7500 -0.7414  1.1539
  224MPD1     H 3457   3.602   1.066   9.273 -0.0432  0.0958 -1.4655
  224MPD1    H1 3458   3.179   1.176   9.329 -1.5012  1.3363 -3.7444
  224MPD1    H2 3459   3.418   1.411   9.076 -1.0742  2.1570  2.4680
  224MPD1    H3 3460   3.211   1.366   9.187 -1.5978 -1.2586  2.8126
  224MPD1     N 3461   3.366   1.005   9.411 -0.0053  0.5484  0.8043
  224MPD1    H5 3462   3.275   0.991   9.453  0.1340 -1.1939  0.5278
  224MPD1    N1 3463   3.642   1.255   9.089 -0.3105 -0.0201 -0.1210
  224MPD1    H6 3464   3.663   1.353   9.071 -1.4122  0.4238  0.9818
  224MPD1    H7 3465   3.727   1.217   9.130  0.2822  0.5085 -0.8488
  225MPD1     C 3466   4.608   1.862  12.848  0.0157 -0.2853  0.6143
  225MPD1    C1 3467   4.616   1.882  12.711  0.2482 -0.8591 -0.3730
  225MPD1    C2 3468   4.595   1.780  12.627 -0.1007  0.5229  0.1297
  225MPD1    C3 3469   4.582   1.648  12.671  0.0617 -0.8451  0.1647
  225MPD1    C4 3470   4.580   1.624  12.809  0.2288 -0.5451 -0.0067
  225MPD1    C5 3471   4.585   1.734  12.894  0.3103  0.0452  0.7764
  225MPD1     H 3472   4.605   1.806  12.522  0.7063  0.3701  0.1690
  225MPD1    H1 3473   4.559   1.524  12.846  2.4960 -0.0237  2.6396
  225MPD1    H2 3474   4.628   1.943  12.917  0.4841 -0.6509  0.9026
  225MPD1    H3 3475   4.574   1.723  13.001  1.4231 -0.6997  0.8158
  225MPD1     N 3476   4.550   1.540  12.589  0.1912 -0.0275  0.4842
  225MPD1    H5 3477   4.516   1.457  12.636 -0.9758  0.1631 -0.0318
  225MPD1    N1 3478   4.659   2.001  12.665  0.2463 -0.3718  0.0563
  225MPD1    H6 3479   4.649   2.064  12.744 -0.8798  0.1156 -0.4728
  225MPD1    H7 3480   4.608   2.043  12.587 -0.4704  0.3457  0.9126
  226MPD1     C 3481   2.393   2.617   9.003  0.1093  0.3764  0.3631
  226MPD1    C1 3482   2.520   2.639   8.959  0.0836 -0.3555  0.2443
  226MPD1    C2 3483   2.617   2.552   9.001  0.2090  0.2578  0.8403
  226MPD1    C3 3484   2.594   2.429   9.069 -0.6845  0.1107 -0.4752
  226MPD1    C4 3485   2.460   2.407   9.104 -0.9401  0.4287  0.1573
  226MPD1    C5 3486   2.363   2.501   9.069  0.0265 -0.3982 -0.4158
  226MPD1     H 3487   2.718   2.586   8.983 -0.1693  1.1567  0.4005
  226MPD1    H1 3488   2.419   2.321   9.155  0.9095 -0.0477  0.8053
  226MPD1    H2 3489   2.310   2.684   8.986  1.9254  2.3303 -0.8277
  226MPD1    H3 3490   2.267   2.493   9.119  0.4054 -1.4441  0.1491
  226MPD1     N 3491   2.705   2.344   9.103 -0.3859  0.2584 -0.3579
  226MPD1    H5 3492   2.792   2.382   9.068 -0.3076 -0.1105 -0.5558
  226MPD1    N1 3493   2.546   2.769   8.918 -0.3123  0.3387 -0.0871
  226MPD1    H6 3494   2.477   2.805   8.852  1.0506  1.9356 -0.6245
  226MPD1    H7 3495   2.635   2.789   8.873 -0.8052  0.3362 -1.0599
  227MPD1     C 3496   3.381   2.325   8.597  0.5519 -0.0947  0.3937
  227MPD1    C1 3497   3.274   2.404   8.629 -0.1060 -0.2090 -0.6847
  227MPD1    C2 3498   3.179   2.361   8.728  0.1849  0.8495 -0.4939
  227MPD1    C3 3499   3.208   2.246   8.811 -0.1229 -0.6408 -0.7956
  227MPD1    C4 3500   3.321   2.166   8.771 -0.2688 -0.4992 -0.0226
  227MPD1    C5 3501   3.405   2.210   8.671  0.2390 -0.8383  0.3027
  227MPD1     H 3502   3.092   2.424   8.744  1.5956  2.4163  1.0255
  227MPD1    H1 3503   3.346   2.074   8.823 -0.4427 -0.9761 -0.7804
  227MPD1    H2 3504   3.446   2.336   8.511  2.0352  1.6219  1.7259
  227MPD1    H3 3505   3.494   2.150   8.658  1.4736  0.4608  2.8126
  227MPD1     N 3506   3.129   2.213   8.926  0.0594  0.3022  0.0167
  227MPD1    H5 3507   3.052   2.273   8.953  0.0456  0.6760 -0.8457
  227MPD1    N1 3508   3.244   2.517   8.547 -0.3479  0.1597  0.5849
  227MPD1    H6 3509   3.335   2.560   8.530  1.0075 -2.2139  1.7684
  227MPD1    H7 3510   3.195   2.588   8.601  0.2642  0.9968  0.0513
  228MPD1     C 3511   2.217   3.813  12.327  0.2289 -0.4794  0.0417
  228MPD1    C1 3512   2.102   3.879  12.290 -0.1663  0.4596  0.1286
  228MPD1    C2 3513   1.986   3.884  12.366  0.9338 -0.2400 -0.7252
  228MPD1    C3 3514   1.992   3.810  12.488  0.6688  0.4910  0.2931
  228MPD1    C4 3515   2.113   3.749  12.523 -0.3013 -0.1825  1.2630
  228MPD1    C5 3516   2.222   3.750  12.446 -0.4532 -0.1717 -0.1401
  228MPD1     H 3517   1.907   3.950  12.333  0.5816  0.1308  0.8598
  228MPD1    H1 3518   2.120   3.701  12.620  1.0859 -0.6349  0.9354
  228MPD1    H2 3519   2.312   3.811  12.274  0.0277  0.6299 -0.3423
  228MPD1    H3 3520   2.311   3.696  12.479 -0.3253 -0.6389 -1.2477
  228MPD1     N 3521   1.874   3.806  12.565 -0.1956 -0.5668  0.3450
  228MPD1    H5 3522   1.808   3.879  12.539  0.1808 -0.4729 -0.3426
  228MPD1    N1 3523   2.120   3.975  12.188  0.5335 -0.0691  0.5998
  228MPD1    H6 3524   2.038   4.007  12.136  0.2382 -1.2665  0.3292
  228MPD1    H7 3525   2.194   3.948  12.124  0.8842  2.4351 -0.0209
  229MPD1     C 3526   1.059   3.080  14.736  0.5439  0.6243 -0.0300
  229MPD1    C1 3527   1.001   2.978  14.812 -0.2667 -0.6618 -0.0320
  229MPD1    C2 3528   1.081   2.897  14.893 -0.3271  0.1705  0.0609
  229MPD1    C3 3529   1.217   2.923  14.905  0.2179 -0.1073  0.6444
  229MPD1    C4 3530   1.266   3.023  14.829  0.2081  0.3185 -0.2234
  229MPD1    C5 3531   1.194   3.104  14.753  0.2371 -0.6875  0.3049
  229MPD1     H 3532   1.035   2.825  14.959 -1.4205 -0.0490 -0.9515
  229MPD1    H1 3533   1.373   3.039  14.834 -0.4556  5.1427 -1.4845
  229MPD1    H2 3534   1.006   3.145  14.668  3.8418  1.4286 -1.8259
  229MPD1    H3 3535   1.233   3.187  14.695 -0.3733 -1.5941 -1.4024
  229MPD1     N 3536   1.299   2.847  14.986  0.9547 -0.3756 -0.3503
  229MPD1    H5 3537   1.393   2.882  15.005  0.3787  0.6547  0.6501
  229MPD1    N1 3538   0.862   2.945  14.791 -0.5650  0.2122  0.2796
  229MPD1    H6 3539   0.822   2.923  14.882  0.2618 -1.5022  0.2362
  229MPD1    H7 3540   0.804   3.021  14.756  2.8720  1.9800 -1.4998
  230MPD1     C 3541   1.600   2.700  15.875 -0.1311 -0.8961  0.0089
  230MPD1    C1 3542   1.695   2.626  15.819  0.0257 -0.2881 -0.1214
  230MPD1    C2 3543   1.703   2.608  15.682 -0.4286 -0.1574  0.2019
  230MPD1    C3 3544   1.617   2.676  15.596 -0.3476 -0.1830  0.4043
  230MPD1    C4 3545   1.528   2.764  15.650  0.2493  0.2218 -0.2580
  230MPD1    C5 3546   1.515   2.765  15.787  0.0940 -0.3425  0.1130
  230MPD1     H 3547   1.778   2.539  15.646 -0.0090  0.1304  0.5214
  230MPD1    H1 3548   1.451   2.821  15.600 -0.8748  0.5631  1.8708
  230MPD1    H2 3549   1.584   2.706  15.982 -0.1150 -1.1814  0.0271
  230MPD1    H3 3550   1.436   2.825  15.831  0.4342  1.1276 -1.3034
  230MPD1     N 3551   1.630   2.653  15.463  0.6287 -0.1894 -0.3218
  230MPD1    H5 3552   1.668   2.567  15.425  0.8132  0.5206 -1.7457
  230MPD1    N1 3553   1.778   2.548  15.903  0.1909  0.7533  0.0199
  230MPD1    H6 3554   1.796   2.606  15.985 -0.2295  2.0561 -0.8086
  230MPD1    H7 3555   1.872   2.539  15.864  0.3007 -1.4868  0.7980
  231MPD1     C 3556   0.812   4.251  15.927  0.1505 -0.5488 -0.7703
  231MPD1    C1 3557   0.777   4.180  15.810  0.3561 -0.3932  0.6207
  231MPD1    C2 3558   0.725   4.249  15.700  0.0626 -0.2986 -0.6992
  231MPD1    C3 3559   0.712   4.388  15.706  0.1878 -0.1382 -0.0174
  231MPD1    C4 3560   0.744   4.455  15.822  0.2125  0.9280  0.3328
  231MPD1    C5 3561   0.788   4.382  15.932  0.4190  0.4807  0.2240
  231MPD1     H 3562   0.696   4.193  15.612  0.9666  0.8673 -1.7400
  231MPD1    H1 3563   0.716   4.558  15.845 -0.4910  0.4863  1.4638
  231MPD1    H2 3564   0.850   4.200  16.014  2.7632  0.6776 -1.1860
  231MPD1    H3 3565   0.811   4.433  16.025 -0.7231  1.1404  0.1511
  231MPD1     N 3566   0.655   4.458  15.597  0.4227 -0.5921  0.2524
  231MPD1    H5 3567   0.604   4.401  15.531 -1.1003  0.0424  0.8798
  231MPD1    N1 3568   0.819   4.045  15.807 -0.6928  0.1244  0.1935
  231MPD1    H6 3569   0.752   3.991  15.752 -0.4545 -2.0795  2.0703
  231MPD1    H7 3570   0.826   4.013  15.903  0.4444 -0.9123 -0.2435
  232MPD1     C 3571   1.967   2.461   0.652  0.4924 -0.0530 -0.2232
  232MPD1    C1 3572   1.899   2.564   0.595 -0.4001  0.2476 -0.1651
  232MPD1    C2 3573   1.845   2.529   0.474 -0.5984 -0.0553  0.2053
  232MPD1    C3 3574   1.858   2.407   0.407  0.3196 -0.6064 -0.8857
  232MPD1    C4 3575   1.945   2.314   0.461  0.2950 -0.1030 -0.1573
  232MPD1    C5 3576   2.001   2.351   0.581  0.1118  0.0524 -0.6983
  232MPD1     H 3577   1.767   2.592   0.433 -0.3214 -0.0461 -0.3064
  232MPD1    H1 3578   1.976   2.222   0.413 -1.4905 -1.5529  1.4907
  232MPD1    H2 3579   2.005   2.468   0.754 -0.3024 -2.0296  0.1997
  232MPD1    H3 3580   2.071   2.286   0.633  0.6224 -0.9290 -2.6233
  232MPD1     N 3581   1.778   2.376   0.294  0.8088 -0.0661 -0.4785
  232MPD1    H5 3582   1.721   2.450   0.254 -0.4937 -0.7518  0.0789
  232MPD1    N1 3583   1.873   2.681   0.659 -0.0243  0.2315  0.4669
  232MPD1    H6 3584   1.850   2.760   0.599 -1.6715  0.2839  1.1765
  232MPD1    H7 3585   1.943   2.718   0.723  0.9473  0.2775 -0.6187
  233MPD1     C 3586   2.132   4.432   2.042  0.0617 -0.4650  0.6411
  233MPD1    C1 3587   2.175   4.296   2.048 -0.5748  0.2827  0.6868
  233MPD1    C2 3588   2.279   4.253   1.968  0.4068 -0.6620 -0.3818
  233MPD1    C3 3589   2.341   4.335   1.877 -0.5563 -0.5550  0.5436
  233MPD1    C4 3590   2.291   4.461   1.856  0.0017 -0.0626  0.2530
  233MPD1    C5 3591   2.190   4.508   1.940 -0.2890  0.0656 -0.6976
  233MPD1     H 3592   2.312   4.153   1.994  0.7934 -0.4641 -0.1201
  233MPD1    H1 3593   2.336   4.519   1.776  2.1655  2.2917  3.1628
  233MPD1    H2 3594   2.058   4.475   2.109 -0.1693 -2.8943  1.9490
  233MPD1    H3 3595   2.140   4.599   1.910 -2.9316 -0.8788  0.7451
  233MPD1     N 3596   2.456   4.302   1.808  0.3932 -0.0536  0.1837
  233MPD1    H5 3597   2.496   4.373   1.747  0.0624  1.0197  1.2141
  233MPD1    N1 3598   2.133   4.217   2.155  0.3963 -0.0855  0.1068
  233MPD1    H6 3599   2.040   4.238   2.192  1.4629  6.1991 -0.7571
  233MPD1    H7 3600   2.130   4.115   2.149  1.3061  0.0062 -1.6407
  234MPD1     C 3601   4.277   3.929   9.533  0.2386  1.1332 -0.5849
  234MPD1    C1 3602   4.300   4.045   9.604 -0.3712  0.6334 -0.6572
  234MPD1    C2 3603   4.232   4.158   9.562  0.9398 -0.0640  0.5053
  234MPD1    C3 3604   4.125   4.149   9.471  0.6233  0.4766  0.3285
  234MPD1    C4 3605   4.085   4.021   9.420  0.1963 -0.6027 -0.1642
  234MPD1    C5 3606   4.169   3.917   9.446  0.4079  0.6829 -0.2270
  234MPD1     H 3607   4.259   4.255   9.603  0.2603 -0.0229  0.8643
  234MPD1    H1 3608   4.006   4.010   9.346 -0.7957 -1.0776  0.9777
  234MPD1    H2 3609   4.341   3.843   9.549  1.1992  2.0527  0.5395
  234MPD1    H3 3610   4.161   3.820   9.397 -0.2864  0.5563  0.1374
  234MPD1     N 3611   4.054   4.268   9.448  0.5038 -0.6227 -0.1583
  234MPD1    H5 3612   4.095   4.348   9.495 -0.6969  0.1800 -0.4803
  234MPD1    N1 3613   4.398   4.059   9.705  0.3853  0.4424 -0.2265
  234MPD1    H6 3614   4.381   3.985   9.773  1.8101 -2.0980 -2.6165
  234MPD1    H7 3615   4.394   4.148   9.755 -0.9685  0.8861 -1.1518
  235MPD1     C 3616   0.987   0.538  10.243  0.0913  0.6221  0.3710
  235MPD1    C1 3617   1.000   0.608  10.128 -0.1286 -0.1451  0.4536
  235MPD1    C2 3618   1.045   0.742  10.129  0.1046 -0.1150  0.8225
  235MPD1    C3 3619   1.052   0.804  10.253  0.3905 -0.5049  0.1351
  235MPD1    C4 3620   1.028   0.730  10.371 -0.0027 -1.3081 -0.0279
  235MPD1    C5 3621   1.009   0.596  10.366  0.3124  0.5793  0.1880
  235MPD1     H 3622   1.065   0.787  10.032  0.2683 -0.2798  0.7796
  235MPD1    H1 3623   1.022   0.780  10.467  0.1120 -1.5211  0.0901
  235MPD1    H2 3624   0.961   0.432  10.240  3.0009 -0.0906  0.2242
  235MPD1    H3 3625   0.979   0.543  10.456  0.1567  0.5750  0.1341
  235MPD1     N 3626   1.074   0.944  10.250 -0.1650 -0.0784 -0.3040
  235MPD1    H5 3627   1.082   0.981  10.156 -0.0276  0.3762 -0.1126
  235MPD1    N1 3628   0.997   0.534  10.010  0.3633 -0.5369  1.6503
  235MPD1    H6 3629   0.978   0.594   9.930 -1.0399 -0.1300  2.2977
  235MPD1    H7 3630   0.926   0.461  10.017  0.3321 -0.7990 -1.1365
  236MPD1     C 3631   4.367   2.668   9.595 -0.2319  0.5152 -0.0748
  236MPD1    C1 3632   4.410   2.582   9.698 -0.1137  0.2236 -0.7571
  236MPD1    C2 3633   4.468   2.639   9.811  0.5596  0.2029 -0.3101
  236MPD1    C3 3634   4.487   2.775   9.822 -0.7661 -0.0373  0.0088
  236MPD1    C4 3635   4.444   2.853   9.721 -0.6647  0.5031 -0.2310
  236MPD1    C5 3636   4.384   2.799   9.607  0.1680  0.1606 -0.8359
  236MPD1     H 3637   4.501   2.579   9.895 -0.6896 -0.8160 -0.5530
  236MPD1    H1 3638   4.448   2.961   9.721 -0.1762  0.4868 -2.0128
  236MPD1    H2 3639   4.310   2.641   9.507 -0.2784 -2.2482  0.7950
  236MPD1    H3 3640   4.342   2.864   9.532 -0.6357  0.6023 -0.0043
  236MPD1     N 3641   4.563   2.839   9.924  0.0989 -0.5888 -0.2941
  236MPD1    H5 3642   4.596   2.933   9.901  0.9042 -0.0478  3.0369
  236MPD1    N1 3643   4.406   2.444   9.688  0.7977  0.1590 -0.1663
  236MPD1    H6 3644   4.338   2.412   9.620 -0.4277  1.0416  0.6472
  236MPD1    H7 3645   4.390   2.397   9.777 -0.5111 -1.2058 -1.1306
  237MPD1     C 3646   0.274   0.563  15.627  0.2837  0.6451  0.6494
  237MPD1    C1 3647   0.313   0.660  15.541  0.2448 -1.0013 -0.2347
  237MPD1    C2 3648   0.222   0.751  15.490 -0.5596  0.7469  0.3445
  237MPD1    C3 3649   0.089   0.743  15.534  0.8334 -0.1187 -0.1468
  237MPD1    C4 3650   0.053   0.647  15.624  0.4563  0.2749 -0.0100
  237MPD1    C5 3651   0.143   0.554  15.662 -0.2256  0.0382  0.3201
  237MPD1     H 3652   0.267   0.833  15.436 -0.9219 -0.8388 -2.3571
  237MPD1    H1 3653   4.691   0.649  15.674 -0.7519 -1.1972 -2.3068
  237MPD1    H2 3654   0.349   0.499  15.670 -0.8312 -1.2943 -0.2989
  237MPD1    H3 3655   0.105   0.483  15.735 -0.8128 -0.3283 -0.3405
  237MPD1     N 3656   4.723   0.819  15.475  0.9189 -0.6716  0.1295
  237MPD1    H5 3657   4.629   0.781  15.482 -0.2771  2.1429 -0.5328
  237MPD1    N1 3658   0.445   0.661  15.492  0.5136 -0.3112 -0.7514
  237MPD1    H6 3659   0.506   0.640  15.570 -1.0216 -0.9269  0.2886
  237MPD1    H7 3660   0.475   0.752  15.456  0.2263 -0.6076 -1.7221
  238MPD1     C 3661   2.056   4.343  15.008 -0.1998 -0.0893  0.7108
  238MPD1    C1 3662   2.033   4.380  14.879 -0.1791 -0.0144 -0.3959
  238MPD1    C2 3663   1.904   4.358  14.833 -0.6910 -0.0680  0.5645
  238MPD1    C3 3664   1.820   4.269  14.895  0.0313  0.6110  0.1636
  238MPD1    C4 3665   1.843   4.242  15.024  0.6973  0.5490 -0.5805
  238MPD1    C5 3666   1.956   4.283  15.076  0.8453 -0.2262 -0.3104
  238MPD1     H 3667   1.886   4.378  14.728  0.5047 -0.4288  0.2859
  238MPD1    H1 3668   1.774   4.176  15.075 -1.5586  0.3617 -3.9029
  238MPD1    H2 3669   2.151   4.360  15.055 -0.3106  1.3430  0.4366
  238MPD1    H3 3670   1.981   4.251  15.176 -0.2340  0.5251  0.2112
  238MPD1     N 3671   1.700   4.216  14.834  0.0029 -0.8244  0.2029
  238MPD1    H5 3672   1.645   4.167  14.904 -3.0365  0.8886 -1.0394
  238MPD1    N1 3673   2.124   4.460  14.808  0.5774  0.5727 -0.4648
  238MPD1    H6 3674   2.219   4.423  14.805  0.7910  0.9825  1.4650
  238MPD1    H7 3675   2.086   4.468  14.714  2.7219  1.7214 -1.2363
  239MPD1     C 3676   1.786   4.691  14.779 -0.6259 -0.4093 -0.3099
  239MPD1    C1 3677   1.909   0.008  14.747 -0.1488 -0.2436  0.1240
  239MPD1    C2 3678   1.910   0.108  14.656  0.9085  0.1582 -0.2500
  239MPD1    C3 3679   1.791   0.156  14.593  1.5391  0.5003 -0.2924
  239MPD1    C4 3680   1.668   0.100  14.626  0.0633  0.3546 -0.3638
  239MPD1    C5 3681   1.671   0.001  14.720  0.9306 -0.8619  0.5714
  239MPD1     H 3682   2.004   0.150  14.622  1.7755 -0.7770  0.9653
  239MPD1    H1 3683   1.575   0.133  14.582 -1.2666  0.2056  2.3853
  239MPD1    H2 3684   1.764   4.616  14.854  4.0863 -0.3125  1.1641
  239MPD1    H3 3685   1.579   4.687  14.751 -0.1664 -0.2886 -1.8600
  239MPD1     N 3686   1.794   0.251  14.487  0.3478  0.0110  0.2504
  239MPD1    H5 3687   1.706   0.283  14.448  1.1359  1.5363 -0.2996
  239MPD1    N1 3688   2.016   4.715  14.827 -0.2032  0.5132 -0.0985
  239MPD1    H6 3689   2.028   4.615  14.840 -1.4976  0.4158  0.3850
  239MPD1    H7 3690   2.102   0.007  14.780  0.0067  2.7763  1.5325
  240MPD1     C 3691   1.126   0.242  13.968  0.4018  0.3759  0.1511
  240MPD1    C1 3692   1.230   0.153  13.987 -0.3028 -0.0593  0.4059
  240MPD1    C2 3693   1.217   0.064  14.095 -0.2081 -0.1359  0.2739
  240MPD1    C3 3694   1.093   0.042  14.148 -0.2890  0.2272  0.0617
  240MPD1    C4 3695   0.974   0.109  14.113 -0.9389  0.0003 -0.4155
  240MPD1    C5 3696   1.003   0.217  14.029 -0.6666 -0.5511  0.4011
  240MPD1     H 3697   1.300   0.008  14.136  1.4194  4.2782  3.0126
  240MPD1    H1 3698   0.871   0.090  14.140 -0.6787 -2.0797 -0.9512
  240MPD1    H2 3699   1.122   0.323  13.896  0.9140 -0.5039 -0.8554
  240MPD1    H3 3700   0.915   0.272  13.999  0.3249  0.6409 -0.3505
  240MPD1     N 3701   1.090   4.660  14.230 -0.5682  0.2381 -0.3640
  240MPD1    H5 3702   1.175   4.611  14.255 -0.3856  0.4149 -0.6330
  240MPD1    N1 3703   1.343   0.165  13.909  0.2046 -0.3623 -0.1462
  240MPD1    H6 3704   1.317   0.207  13.820 -0.7135 -0.5969  0.0124
  240MPD1    H7 3705   1.391   0.076  13.896  1.5908  0.3635  0.0554
  241MPD1     C 3706   1.205   4.231  15.108 -0.0160 -0.2743  0.0204
  241MPD1    C1 3707   1.251   4.330  15.028 -0.0400 -0.3111  0.0560
  241MPD1    C2 3708   1.215   4.330  14.895 -0.0892 -0.0420  0.5894
  241MPD1    C3 3709   1.105   4.258  14.854  0.3851  0.0528  1.2073
  241MPD1    C4 3710   1.053   4.156  14.940  0.0853  0.2198  0.1847
  241MPD1    C5 3711   1.107   4.146  15.066 -0.6024 -0.9504 -0.2002
  241MPD1     H 3712   1.261   4.410  14.838  1.5362 -1.0653  0.4466
  241MPD1    H1 3713   0.985   4.084  14.895  1.3465  0.7604 -2.5994
  241MPD1    H2 3714   1.244   4.215  15.208  1.8001 -0.0828 -0.6544
  241MPD1    H3 3715   1.064   4.077  15.138  1.1285 -0.7624  1.0309
  241MPD1     N 3716   1.066   4.251  14.715 -0.5554 -0.5964  0.2668
  241MPD1    H5 3717   0.993   4.188  14.684 -1.1299 -0.2504  0.9113
  241MPD1    N1 3718   1.366   4.399  15.074 -0.3028  0.1661  0.5712
  241MPD1    H6 3719   1.379   4.489  15.027 -0.7825  0.6651  1.3811
  241MPD1    H7 3720   1.373   4.425  15.173  1.4602  1.2477  0.1577
  242MPD1     C 3721   0.648   2.583  16.088  0.2426  0.4785 -0.8910
  242MPD1    C1 3722   0.566   2.563  15.980  0.5457 -0.3788  0.1273
  242MPD1    C2 3723   0.622   2.597  15.858 -0.3224 -0.0688 -0.1820
  242MPD1    C3 3724   0.741   2.668  15.842 -0.6037 -0.0634  0.3044
  242MPD1    C4 3725   0.816   2.683  15.955  0.1069  0.4318  0.8073
  242MPD1    C5 3726   0.773   2.642  16.079  0.3383  0.1942  0.1468
  242MPD1     H 3727   0.565   2.565  15.772  1.6604 -0.4340 -1.3514
  242MPD1    H1 3728   0.918   2.718  15.944  0.3103 -0.0986  0.9843
  242MPD1    H2 3729   0.612   2.546  16.184  2.5781  0.4484 -0.0199
  242MPD1    H3 3730   0.835   2.648  16.167 -0.9097  0.4731  0.9966
  242MPD1     N 3731   0.784   2.718  15.722 -0.2773 -0.4884  0.2963
  242MPD1    H5 3732   0.865   2.777  15.707 -0.0260 -0.4546  1.8648
  242MPD1    N1 3733   0.454   2.481  15.988 -1.0445  0.6813 -0.2641
  242MPD1    H6 3734   0.391   2.476  15.908 -1.0810  0.5168 -0.2249
  242MPD1    H7 3735   0.409   2.502  16.077  2.5634 -2.3496  2.2598
  243MPD1     C 3736   1.896   1.753  17.404  0.0665  0.2943  0.4360
  243MPD1    C1 3737   1.960   1.797  17.517 -0.2650 -0.0163 -0.3588
  243MPD1    C2 3738   2.094   1.817  17.504 -0.3891 -0.0730 -0.4712
  243MPD1    C3 3739   2.169   1.789  17.389  0.0835  0.2215  0.0423
  243MPD1    C4 3740   2.100   1.731  17.284  1.1980 -0.1185 -0.0222
  243MPD1    C5 3741   1.959   1.713  17.290  0.0426 -0.3169 -0.0775
  243MPD1     H 3742   2.149   1.862  17.587 -0.0472 -0.3716 -0.5339
  243MPD1    H1 3743   2.153   1.717  17.191 -1.3549 -0.8551 -1.3619
  243MPD1    H2 3744   1.787   1.754  17.409  0.0673 -0.6089  0.6887
  243MPD1    H3 3745   1.908   1.676  17.201  1.0467  0.0449 -0.8053
  243MPD1     N 3746   2.311   1.821  17.385  0.5504 -0.4709  0.0825
  243MPD1    H5 3747   2.361   1.853  17.467  0.0031  0.5768 -0.0047
  243MPD1    N1 3748   1.903   1.831  17.641  0.2568 -0.3483  0.1323
  243MPD1    H6 3749   1.967   1.854  17.716 -0.2415 -0.5886  0.6314
  243MPD1    H7 3750   1.830   1.772  17.681  1.2194 -0.9309  1.0362
  244MPD1     C 3751   2.981   1.839   0.289  0.2132 -0.2248  0.1979
  244MPD1    C1 3752   3.055   1.911   0.201  0.0849  0.3398 -0.8079
  244MPD1    C2 3753   3.005   1.916   0.069 -0.9372  0.0204 -0.6868
  244MPD1    C3 3754   2.905   1.831   0.032 -0.1189  0.6691 -0.1197
  244MPD1    C4 3755   2.849   1.742   0.120  0.1532 -0.0448  0.1899
  244MPD1    C5 3756   2.874   1.768   0.247 -0.4630  0.3810 -0.6414
  244MPD1     H 3757   3.043   1.989  17.734  0.9663 -0.9196 -0.6345
  244MPD1    H1 3758   2.777   1.663   0.101  0.0389  0.3123 -0.8555
  244MPD1    H2 3759   2.995   1.838   0.396 -0.6080 -0.6004  0.3046
  244MPD1    H3 3760   2.811   1.722   0.322  0.9873 -0.6607 -0.0709
  244MPD1     N 3761   2.865   1.837  17.635  0.2259  0.2084 -0.4349
  244MPD1    H5 3762   2.897   1.910  17.573 -0.1431 -0.7741 -1.7825
  244MPD1    N1 3763   3.145   2.010   0.254  0.1018 -0.1951 -0.4753
  244MPD1    H6 3764   3.210   2.052   0.187  0.0756 -0.7277 -0.8331
  244MPD1    H7 3765   3.205   1.978   0.330  0.0589  1.2242  0.1609
  245MPD1     C 3766   4.236   1.931  12.900  0.6592 -0.1329  0.5400
  245MPD1    C1 3767   4.224   2.065  12.871  0.9405 -0.4794 -0.8772
  245MPD1    C2 3768   4.236   2.159  12.972  0.4501  0.2186 -0.4372
  245MPD1    C3 3769   4.286   2.129  13.096 -0.6712  0.4392 -0.3742
  245MPD1    C4 3770   4.299   1.997  13.127 -0.3635  0.6315  0.4287
  245MPD1    C5 3771   4.271   1.902  13.031  0.5609 -0.6522 -0.2072
  245MPD1     H 3772   4.222   2.260  12.936 -0.5239  0.2506  0.0402
  245MPD1    H1 3773   4.335   1.966  13.225  2.9158  0.8591 -0.6999
  245MPD1    H2 3774   4.219   1.847  12.833  0.6228  1.1277 -1.0268
  245MPD1    H3 3775   4.290   1.798  13.054  0.3612 -0.4724  0.7641
  245MPD1     N 3776   4.301   2.239  13.179  0.1093 -0.2680  0.0200
  245MPD1    H5 3777   4.286   2.330  13.136 -1.6963 -0.1049  1.0226
  245MPD1    N1 3778   4.191   2.089  12.739 -0.3492 -0.2502  0.0218
  245MPD1    H6 3779   4.239   2.027  12.674 -0.0761  1.3958 -1.3410
  245MPD1    H7 3780   4.223   2.178  12.701  1.2773 -1.2201 -0.8731
  246MPD1     C 3781   2.847   3.017   8.998 -0.4196 -0.8494 -0.0297
  246MPD1    C1 3782   2.843   3.079   9.124 -0.5593  0.6363  0.2957
  246MPD1    C2 3783   2.947   3.162   9.155 -0.4350  0.1206 -1.0021
  246MPD1    C3 3784   3.059   3.177   9.070 -0.4581 -0.4878 -0.6633
  246MPD1    C4 3785   3.053   3.120   8.948  0.0293  0.5965  0.1199
  246MPD1    C5 3786   2.956   3.028   8.914 -0.1731 -0.3560  0.0036
  246MPD1     H 3787   2.947   3.221   9.246 -1.5391  0.1618 -1.0214
  246MPD1    H1 3788   3.138   3.130   8.882 -1.4454  0.7563 -1.7599
  246MPD1    H2 3789   2.762   2.959   8.964  0.6722 -1.9593 -0.8565
  246MPD1    H3 3790   2.955   2.975   8.820 -1.0572  0.0365 -0.2048
  246MPD1     N 3791   3.170   3.269   9.110 -0.5238 -0.3899 -0.4098
  246MPD1    H5 3792   3.168   3.306   9.204  0.1898 -0.0017 -0.5488
  246MPD1    N1 3793   2.723   3.078   9.203 -0.0355 -0.9225  0.1517
  246MPD1    H6 3794   2.673   2.992   9.185  0.6823 -1.3662  0.2768
  246MPD1    H7 3795   2.736   3.077   9.304 -1.4260  3.3239  0.3678
  247MPD1     C 3796   4.443   2.954  17.062  0.1219 -0.2099 -0.0459
  247MPD1    C1 3797   4.379   2.852  17.130 -0.6769  0.2177 -0.0190
  247MPD1    C2 3798   4.289   2.762  17.070 -0.3719  0.8029 -0.3608
  247MPD1    C3 3799   4.253   2.781  16.941  0.1556  0.2421  0.1465
  247MPD1    C4 3800   4.311   2.887  16.875  0.9076  0.1172  0.4515
  247MPD1    C5 3801   4.394   2.980  16.936  0.1117 -1.2902 -0.6720
  247MPD1     H 3802   4.250   2.670  17.112  2.0396  0.1745  0.5551
  247MPD1    H1 3803   4.297   2.897  16.768  1.1465 -0.4518  0.3629
  247MPD1    H2 3804   4.508   3.028  17.106 -1.1958  1.3775 -0.7803
  247MPD1    H3 3805   4.441   3.059  16.878 -2.2217  0.6075  0.0230
  247MPD1     N 3806   4.166   2.698  16.864 -0.4158 -0.0110 -0.1074
  247MPD1    H5 3807   4.155   2.723  16.766  0.9872 -0.9142 -0.4895
  247MPD1    N1 3808   4.425   2.819  17.254 -0.2384 -0.4500  0.5957
  247MPD1    H6 3809   4.348   2.781  17.309  0.3040 -0.9193  1.0288
  247MPD1    H7 3810   4.474   2.894  17.303  2.4950  0.1458 -3.1020
  248MPD1     C 3811   0.488   1.445   0.350  0.5569  1.3521 -0.2118
  248MPD1    C1 3812   0.417   1.558   0.321  1.3648 -0.1810  0.7727
  248MPD1    C2 3813   0.404   1.658   0.417 -0.3665 -0.2477  0.7210
  248MPD1    C3 3814   0.475   1.644   0.535 -1.0139  0.1965 -0.7192
  248MPD1    C4 3815   0.542   1.526   0.565  0.2085  0.2671  0.2204
  248MPD1    C5 3816   0.544   1.426   0.478 -0.0694  0.3592 -0.3605
  248MPD1     H 3817   0.345   1.746   0.396 -1.8224 -0.9752  1.7247
  248MPD1    H1 3818   0.599   1.516   0.656 -3.3067 -1.1674  2.2739
  248MPD1    H2 3819   0.493   1.359   0.284  2.1196  1.2652  0.0201
  248MPD1    H3 3820   0.578   1.328   0.507  1.8722  1.6754  1.7641
  248MPD1     N 3821   0.473   1.754   0.622 -0.2932  0.0366 -0.2608
  248MPD1    H5 3822   0.416   1.832   0.591 -0.0327 -0.2919 -1.5750
  248MPD1    N1 3823   0.334   1.551   0.204 -0.2676 -0.4011 -0.3626
  248MPD1    H6 3824   0.328   1.644   0.163  1.5805 -0.4085 -0.6707
  248MPD1    H7 3825   0.355   1.472   0.144  0.7067 -0.9971  0.7712
  249MPD1     C 3826   2.026   2.554  10.553 -0.0527 -0.6469  0.1544
  249MPD1    C1 3827   2.126   2.596  10.467 -0.1998  0.5927 -0.3574
  249MPD1    C2 3828   2.202   2.508  10.388  0.2495 -0.0339  0.5631
  249MPD1    C3 3829   2.190   2.375  10.408  0.3930  0.3215  0.5288
  249MPD1    C4 3830   2.092   2.332  10.502 -0.1955 -0.6918  0.0462
  249MPD1    C5 3831   2.012   2.416  10.575  0.0197  0.0291 -0.7392
  249MPD1     H 3832   2.257   2.543  10.301  1.8233 -1.0234  1.1518
  249MPD1    H1 3833   2.072   2.227  10.515 -0.5898 -0.7493 -1.0536
  249MPD1    H2 3834   1.960   2.621  10.608  0.3315  3.4576 -4.4224
  249MPD1    H3 3835   1.934   2.378  10.640 -1.2758  1.1064 -1.6695
  249MPD1     N 3836   2.275   2.285  10.337  0.1805  0.0262  0.3485
  249MPD1    H5 3837   2.341   2.316  10.267  0.6458 -0.6688  0.4853
  249MPD1    N1 3838   2.125   2.732  10.422  0.0554  0.4023  0.1697
  249MPD1    H6 3839   2.218   2.748  10.384  0.1855 -0.2332  0.2237
  249MPD1    H7 3840   2.099   2.785  10.505 -1.2473  0.5609 -0.3454
  250MPD2     C 3841   3.424   0.953  12.902  0.0907  0.1387  0.5373
  250MPD2    C1 3842   3.314   0.942  12.975  1.0079  0.2654 -0.1106
  250MPD2    C2 3843   3.209   0.862  12.928  1.2707  0.5610 -0.4207
  250MPD2    C3 3844   3.219   0.809  12.801  0.8540  0.0357  0.7079
  250MPD2    C4 3845   3.326   0.837  12.720  0.4798  0.8224 -0.7333
  250MPD2    C5 3846   3.431   0.904  12.768  0.5894 -0.4566 -0.4057
  250MPD2     H 3847   3.124   0.847  12.994  0.2033  0.6412 -1.7552
  250MPD2    H1 3848   3.338   0.800  12.619  2.2233 -0.7673  0.0591
  250MPD2    H2 3849   3.507   1.018  12.929  0.8883 -0.2950 -0.8347
  250MPD2    H3 3850   3.522   0.926  12.715 -0.1598  0.6306 -1.2396
  250MPD2     N 3851   3.121   0.713  12.759 -0.3119 -0.3653  0.2458
  250MPD2    H5 3852   3.124   0.687  12.661  1.6517  1.0942 -0.0952
  250MPD2    N1 3853   3.302   1.007  13.103 -0.0351  0.2559  0.3215
  250MPD2    H7 3854   3.379   1.067  13.131  0.3555 -0.3178  0.4688
  251TMC3    C1 3855   3.230   1.031  13.331  0.8105 -0.2209  0.0042
  251TMC3    C2 3856   3.116   1.067  13.401  0.3698 -0.3648  0.6738
  251TMC3    C3 3857   3.131   1.147  13.512  0.6377 -0.2811 -0.1656
  251TMC3    C4 3858   3.359   1.064  13.366  0.1880  0.6025  0.1709
  251TMC3    C5 3859   3.366   1.128  13.488  0.2948 -0.0353  0.3850
  251TMC3    C6 3860   3.259   1.178  13.553 -0.2079  0.1667 -0.5111
  251TMC3     C 3861   3.210   0.974  13.203  0.9304 -1.1320  0.6758
  251TMC3     O 3862   3.125   0.884  13.206  0.6669 -0.2005 -0.1603
  251TMC3     H 3863   3.023   1.036  13.355 -0.2537  1.2751  0.8303
  251TMC3    H1 3864   3.440   1.006  13.324  1.1724  0.9317  1.5957
  251TMC3    H2 3865   3.261   1.247  13.636 -0.5491  0.5781 -0.8455
  251TMC3    C7 3866   3.501   1.178  13.513  0.7992  0.4028  0.3282
  251TMC3    C8 3867   3.018   1.231  13.528 -0.2362 -0.5769  0.8146
  251TMC3    O1 3868   3.524   1.222  13.622 -0.5682 -1.0615  0.0920
  251TMC3    O2 3869   3.035   1.311  13.618 -0.1997  0.2812  0.3268
  252TMC3    C1 3870   3.558   2.538   8.830  0.7141  0.1133 -0.0588
  252TMC3    C2 3871   3.666   2.454   8.842  0.3905 -0.2135 -0.5921
  252TMC3    C3 3872   3.662   2.360   8.938  0.4379 -0.7959 -0.4055
  252TMC3    C4 3873   3.455   2.531   8.915 -0.0600 -0.1803  0.0969
  252TMC3    C5 3874   3.448   2.425   9.005  0.0203 -0.1018  0.6548
  252TMC3    C6 3875   3.551   2.338   9.020  0.6290  0.2252  0.4047
  252TMC3     C 3876   3.564   2.655   8.745  0.3240 -0.1326 -0.9640
  252TMC3     O 3877   3.604   2.623   8.634 -0.1442 -0.1876 -0.0090
  252TMC3     H 3878   3.750   2.473   8.777  0.3634 -1.2129 -0.9178
  252TMC3    H1 3879   3.363   2.583   8.889 -1.1255 -2.7663 -1.3402
  252TMC3    H2 3880   3.529   2.248   9.076 -1.6577 -0.3983 -1.4950
  252TMC3    C7 3881   3.337   2.441   9.104  0.4774  0.5793  0.3549
  252TMC3    C8 3882   3.785   2.283   8.941  0.4455  0.2085 -0.1568
  252TMC3    O1 3883   3.245   2.507   9.064  0.0810 -0.6264 -0.8662
  252TMC3    O2 3884   3.874   2.320   8.861 -0.3016  0.1587  0.1188
  253MPD2     C 3885   4.208   1.272  15.085 -0.0681 -0.7301 -0.0286
  253MPD2    C1 3886   4.123   1.324  15.176 -0.2446  0.1394  0.3601
  253MPD2    C2 3887   4.165   1.366  15.297  0.7344  0.2719  0.6652
  253MPD2    C3 3888   4.292   1.334  15.341  0.5139 -0.7063 -0.4702
  253MPD2    C4 3889   4.384   1.274  15.254 -0.0570  0.4966  0.6552
  253MPD2    C5 3890   4.337   1.255  15.125 -0.2212 -0.3561 -0.4954
  253MPD2     H 3891   4.092   1.400  15.370 -2.4609  0.9672 -2.8076
  253MPD2    H1 3892   4.487   1.252  15.282 -1.1872 -2.7560  2.2746
  253MPD2    H2 3893   4.182   1.236  14.986  2.9147 -2.1665 -0.3010
  253MPD2    H3 3894   4.413   1.218  15.057  2.0096  2.3880  0.5018
  253MPD2     N 3895   4.338   1.359  15.478  0.0735 -0.0891  0.0395
  253MPD2    H5 3896   4.417   1.306  15.512 -1.9664 -2.7451  0.7019
  253MPD2    N1 3897   3.994   1.348  15.128 -0.1422  0.2818  0.0284
  253MPD2    H7 3898   3.977   1.308  15.036  0.0416 -2.3740  1.1493
  254TMC3    C1 3899   4.306   1.424  15.698 -1.1763  0.1766  0.3800
  254TMC3    C2 3900   4.202   1.435  15.784 -0.6706 -0.4533 -1.1960
  254TMC3    C3 3901   4.196   1.361  15.900  0.2215 -0.0732 -0.1343
  254TMC3    C4 3902   4.412   1.345  15.733  0.1046  0.0868 -0.6964
  254TMC3    C5 3903   4.405   1.272  15.847  0.4740  0.0849 -0.0338
  254TMC3    C6 3904   4.298   1.276  15.931  0.8765 -0.2258 -0.3939
  254TMC3     C 3905   4.264   1.437  15.561 -0.6127  0.0495  0.2637
  254TMC3     O 3906   4.173   1.518  15.543  0.4424  0.3947 -0.2176
  254TMC3     H 3907   4.123   1.502  15.752 -1.3611 -1.0199 -0.6659
  254TMC3    H1 3908   4.490   1.331  15.659  0.3291 -0.9231 -0.2656
  254TMC3    H2 3909   4.290   1.205  16.013  2.3373 -0.6797 -0.6442
  254TMC3    C7 3910   4.487   1.158  15.865 -0.7422  0.2753 -0.0954
  254TMC3    C8 3911   4.062   1.339  15.954  0.1005  0.3618 -0.3397
  254TMC3    O1 3912   4.427   1.057  15.904 -0.4722  0.0918  0.2654
  254TMC3    O2 3913   4.059   1.267  16.055  0.1007  0.6150 -0.3227
  255MPD2     C 3914   3.032   3.826  10.625 -0.0062  0.1733  0.0180
  255MPD2    C1 3915   2.982   3.832  10.497 -0.0600 -0.6376  0.5748
  255MPD2    C2 3916   3.067   3.801  10.388  0.0264 -0.0868 -0.0047
  255MPD2    C3 3917   3.199   3.781  10.409  0.3043 -0.2269  0.2152
  255MPD2    C4 3918   3.253   3.799  10.537 -0.6147 -0.0162 -0.0823
  255MPD2    C5 3919   3.170   3.813  10.645 -0.1793 -0.0478  0.2756
  255MPD2     H 3920   3.031   3.809  10.286  0.5494  0.1056 -0.1793
  255MPD2    H1 3921   3.360   3.794  10.555 -0.6000 -1.2201 -0.5242
  255MPD2    H2 3922   2.973   3.855  10.711 -2.5834 -0.5717 -1.4901
  255MPD2    H3 3923   3.217   3.820  10.743  1.1173  2.4253 -0.5286
  255MPD2     N 3924   3.268   3.732  10.292  0.4219  0.0238  0.1065
  255MPD2    H5 3925   3.212   3.732  10.207  0.9648  0.8071 -0.2587
  255MPD2    N1 3926   2.840   3.861  10.482  0.4074 -0.4921 -0.4440
  255MPD2    H7 3927   2.781   3.842  10.563  1.3874 -0.1769  0.3372
  256TMC3    C1 3928   2.640   3.868  10.374  0.4756 -0.2269 -0.0091
  256TMC3    C2 3929   2.587   3.932  10.485 -0.2109 -0.4005  0.2467
  256TMC3    C3 3930   2.456   3.915  10.507  0.1218  0.0188 -0.0254
  256TMC3    C4 3931   2.567   3.774  10.302 -0.0987  0.6453 -0.2706
  256TMC3    C5 3932   2.438   3.744  10.345 -0.1211 -0.3082  0.0622
  256TMC3    C6 3933   2.378   3.821  10.440 -0.4576 -0.2139  0.0402
  256TMC3     C 3934   2.780   3.869  10.355  0.6796  1.2699  0.8000
  256TMC3     O 3935   2.820   3.847  10.244  0.8283  0.5313  0.3555
  256TMC3     H 3936   2.652   4.003  10.535  2.2192 -0.8619 -2.1836
  256TMC3    H1 3937   2.614   3.723  10.218 -0.3320  3.0844 -1.8998
  256TMC3    H2 3938   2.287   3.783  10.485 -0.2402  0.3260  0.9415
  256TMC3    C7 3939   2.382   3.625  10.297 -0.1604 -0.1046  0.0011
  256TMC3    C8 3940   2.375   4.029  10.545 -0.3504  0.3576 -0.1991
  256TMC3    O1 3941   2.457   3.544  10.251  0.1942 -0.3969 -0.5514
  256TMC3    O2 3942   2.264   4.013  10.600  0.3229  0.3223 -0.1122
  257MPD2     C 3943   1.137   1.153  13.132 -0.1149  0.4463  0.2312
  257MPD2    C1 3944   1.269   1.194  13.145 -0.2470 -0.1192  0.0627
  257MPD2    C2 3945   1.364   1.094  13.176  0.2634 -0.1410  0.1109
  257MPD2    C3 3946   1.319   0.968  13.210 -0.2990  0.8565 -0.1994
  257MPD2    C4 3947   1.182   0.934  13.206 -0.0157  0.4469  0.3044
  257MPD2    C5 3948   1.096   1.025  13.159  0.3847 -0.3525  0.0257
  257MPD2     H 3949   1.470   1.115  13.187  0.3222 -0.8398  0.8517
  257MPD2    H1 3950   1.134   0.842  13.237 -0.5414  0.3560 -0.7451
  257MPD2    H2 3951   1.056   1.222  13.107  0.4092  1.6588  1.8901
  257MPD2    H3 3952   0.994   0.991  13.151  0.6152 -0.5265 -2.4559
  257MPD2     N 3953   1.412   0.875  13.239 -0.1695  0.1345  0.5782
  257MPD2    H5 3954   1.509   0.897  13.222  0.2241 -1.5506  0.6401
  257MPD2    N1 3955   1.311   1.325  13.122 -0.5949 -0.2525  0.4734
  257MPD2    H7 3956   1.238   1.391  13.098  0.8860  0.6037 -1.7213
  258TMC3    C1 3957   1.496   0.671  13.323 -0.7514  0.0414  0.4003
  258TMC3    C2 3958   1.611   0.697  13.257 -0.1209 -0.0986  0.3184
  258TMC3    C3 3959   1.731   0.666  13.313 -0.2689 -0.3518 -0.1186
  258TMC3    C4 3960   1.498   0.592  13.430  0.1280 -0.8504 -0.2831
  258TMC3    C5 3961   1.619   0.553  13.481  0.2530 -0.3633 -0.0322
  258TMC3    C6 3962   1.739   0.596  13.432 -0.7531  0.6096 -0.7422
  258TMC3     C 3963   1.389   0.765  13.312 -0.6794  0.2841  0.2853
  258TMC3     O 3964   1.292   0.726  13.368  0.1781 -0.3562  0.3039
  258TMC3     H 3965   1.608   0.751  13.162  2.5519 -1.7940 -0.7313
  258TMC3    H1 3966   1.419   0.573  13.502  0.2609  0.8296  0.3129
  258TMC3    H2 3967   1.835   0.553  13.457 -1.4249 -0.8244 -0.6318
  258TMC3    C7 3968   1.615   0.470  13.605  0.5686 -0.2757 -0.3154
  258TMC3    C8 3969   1.849   0.732  13.259  0.1698  0.5996  0.0424
  258TMC3    O1 3970   1.508   0.433  13.645  0.2054  0.0662 -0.3713
  258TMC3    O2 3971   1.850   0.772  13.139  0.1376 -0.5664  0.0500
  259MPD2     C 3972   1.293   2.234   0.842 -0.0435  0.1473 -0.3922
  259MPD2    C1 3973   1.221   2.135   0.768  0.3018 -0.2095  0.5008
  259MPD2    C2 3974   1.134   2.183   0.672 -0.5991 -0.0748  0.0729
  259MPD2    C3 3975   1.115   2.321   0.654 -0.4337 -0.0486  0.1805
  259MPD2    C4 3976   1.189   2.417   0.726 -0.4841  0.5301  0.0865
  259MPD2    C5 3977   1.285   2.371   0.819 -0.2079 -0.1419 -0.2056
  259MPD2     H 3978   1.066   2.120   0.616  0.2030 -1.6855  0.9370
  259MPD2    H1 3979   1.194   2.524   0.713 -0.5895  0.1265 -3.1086
  259MPD2    H2 3980   1.352   2.210   0.929  0.6796 -0.9527 -1.1908
  259MPD2    H3 3981   1.335   2.444   0.882  2.3871 -3.0795  1.1221
  259MPD2     N 3982   1.024   2.359   0.550  0.3275  0.3441 -0.3884
  259MPD2    H5 3983   0.984   2.280   0.501  0.3966 -0.2460  0.5031
  259MPD2    N1 3984   1.233   2.000   0.806 -0.5700 -0.0607 -0.3876
  259MPD2    H7 3985   1.264   1.980   0.900  0.4001 -0.4769 -0.7955
  260TMC3    C1 3986   0.909   2.506   0.410 -0.5329 -0.5128  0.0141
  260TMC3    C2 3987   0.929   2.628   0.347  0.6054 -0.5709  0.6102
  260TMC3    C3 3988   0.936   2.634   0.213  0.2776 -0.1982 -0.2758
  260TMC3    C4 3989   0.867   2.401   0.331  0.0681  0.0175  0.2323
  260TMC3    C5 3990   0.875   2.408   0.193  0.4052 -0.0467 -0.2439
  260TMC3    C6 3991   0.928   2.517   0.134 -0.1961  0.2422  0.3379
  260TMC3     C 3992   0.990   2.488   0.528  0.1729 -0.0980  0.0476
  260TMC3     O 3993   1.028   2.589   0.587  0.3360 -0.4013 -0.0055
  260TMC3     H 3994   0.947   2.715   0.408  2.6387  0.0176 -0.8547
  260TMC3    H1 3995   0.833   2.312   0.382  3.1102 -3.5484 -3.9824
  260TMC3    H2 3996   0.917   2.520   0.026  2.2857 -0.4808  0.0858
  260TMC3    C7 3997   0.851   2.280   0.120  0.3392 -0.4531  0.6796
  260TMC3    C8 3998   1.037   2.732   0.170 -0.0761  0.1778  0.3452
  260TMC3    O1 3999   0.921   2.250   0.026 -0.3442  0.3667  0.1105
  260TMC3    O2 4000   1.039   2.842   0.220 -0.1142 -0.2277 -0.7216
  261MPD2     C 4001   2.745   0.482  12.166  0.5028 -0.9863 -0.5227
  261MPD2    C1 4002   2.779   0.588  12.246  0.6164 -0.0517 -0.2640
  261MPD2    C2 4003   2.736   0.715  12.216  0.2835  0.4389  0.1739
  261MPD2    C3 4004   2.660   0.741  12.102  0.5750  0.5040  0.1267
  261MPD2    C4 4005   2.615   0.635  12.026  0.0185  0.7424 -0.0854
  261MPD2    C5 4006   2.662   0.506  12.059 -0.3894  0.0261  0.2837
  261MPD2     H 4007   2.755   0.806  12.272  1.7186  0.3956 -0.2377
  261MPD2    H1 4008   2.561   0.635  11.932 -0.9016  2.8404  0.4430
  261MPD2    H2 4009   2.780   0.381  12.187  1.0236 -0.3000  1.9631
  261MPD2    H3 4010   2.614   0.423  12.008  1.0669  0.0328 -1.0886
  261MPD2     N 4011   2.625   0.872  12.060 -0.4672 -0.4010  0.7193
  261MPD2    H5 4012   2.676   0.948  12.104 -0.3324  0.5017 -0.9738
  261MPD2    N1 4013   2.841   0.569  12.376  0.0405  0.3643  0.3007
  261MPD2    H7 4014   2.843   0.651  12.437 -2.1534 -0.3034  1.2713
  262TMC3    C1 4015   2.535   1.046  11.946 -0.2944  0.1026  0.4771
  262TMC3    C2 4016   2.423   1.125  11.943 -0.1684  0.2201 -0.4320
  262TMC3    C3 4017   2.440   1.253  11.910  0.0256  0.3655 -0.5090
  262TMC3    C4 4018   2.663   1.093  11.920  0.0961  0.9791  0.0843
  262TMC3    C5 4019   2.678   1.227  11.890  0.1288  0.6818  0.1470
  262TMC3    C6 4020   2.566   1.302  11.884 -0.6177 -0.3006  0.3965
  262TMC3     C 4021   2.527   0.900  11.969 -0.4746 -0.0164 -0.2045
  262TMC3     O 4022   2.426   0.834  11.946  0.0211  0.5868 -0.1910
  262TMC3     H 4023   2.334   1.071  11.974 -0.9107  1.5418 -0.2493
  262TMC3    H1 4024   2.746   1.024  11.923 -0.3375  0.3840 -1.5845
  262TMC3    H2 4025   2.567   1.410  11.868 -1.7369 -0.3420  0.0333
  262TMC3    C7 4026   2.795   1.266  11.817 -0.0632  0.0642  0.5142
  262TMC3    C8 4027   2.333   1.349  11.926 -0.0509  0.2793  0.0551
  262TMC3    O1 4028   2.846   1.180  11.744 -0.3225  0.5251  0.3455
  262TMC3    O2 4029   2.374   1.466  11.943 -0.2565  0.1852 -0.4188
  263MPD2     C 4030   3.541   0.555  11.977 -0.1262 -0.4080 -0.5499
  263MPD2    C1 4031   3.645   0.531  11.893  0.3761 -0.1539  0.4366
  263MPD2    C2 4032   3.658   0.595  11.773  0.0212  0.0708  0.0717
  263MPD2    C3 4033   3.568   0.692  11.735  0.4611  0.1355 -0.7031
  263MPD2    C4 4034   3.471   0.724  11.823  0.5419 -0.0335  0.2670
  263MPD2    C5 4035   3.456   0.656  11.939 -0.2330 -0.3454 -0.1393
  263MPD2     H 4036   3.732   0.556  11.704 -1.6270 -3.0441  0.0682
  263MPD2    H1 4037   3.397   0.800  11.801  0.4363  0.3985  2.0905
  263MPD2    H2 4038   3.528   0.498  12.069 -3.9118 -0.0097 -0.8326
  263MPD2    H3 4039   3.381   0.693  12.008  0.5072 -1.0592  1.0528
  263MPD2     N 4040   3.582   0.748  11.606  0.4228 -0.2764  0.6743
  263MPD2    H5 4041   3.659   0.709  11.551 -0.5347 -1.9001  0.4861
  263MPD2    N1 4042   3.736   0.433  11.938  0.3585 -0.1246 -0.3319
  263MPD2    H7 4043   3.700   0.373  12.011 -0.5734 -0.9010 -1.4191
  264TMC3    C1 4044   3.537   0.889  11.410 -0.4978 -0.5084  0.0691
  264TMC3    C2 4045   3.437   0.941  11.329  0.5901  0.2958  0.4094
  264TMC3    C3 4046   3.470   0.980  11.205  0.4720 -0.5459  0.4079
  264TMC3    C4 4047   3.664   0.871  11.364 -0.5643 -0.1979 -0.4547
  264TMC3    C5 4048   3.694   0.918  11.242  0.1670  0.1959 -0.5666
  264TMC3    C6 4049   3.597   0.973  11.158  0.6682  0.1811 -0.1184
  264TMC3     C 4050   3.509   0.844  11.552  0.5042  0.2240  0.4191
  264TMC3     O 4051   3.403   0.888  11.593  0.5151  0.0464 -0.0633
  264TMC3     H 4052   3.334   0.930  11.360  1.0944  0.9719  2.3283
  264TMC3    H1 4053   3.742   0.829  11.426 -1.2137 -0.8461 -0.0730
  264TMC3    H2 4054   3.617   1.011  11.058  1.0915  3.1546  1.1192
  264TMC3    C7 4055   3.806   0.858  11.171  0.2091  0.5791 -0.3768
  264TMC3    C8 4056   3.362   1.021  11.123  0.0450 -0.4027 -0.4777
  264TMC3    O1 4057   3.781   0.825  11.057  0.0403 -0.2923  0.3687
  264TMC3    O2 4058   3.365   0.981  11.008 -0.0498  0.3007  0.4125
  265MPD2     C 4059   0.690   0.558  15.726 -0.5306  0.3535  0.3050
  265MPD2    C1 4060   0.729   0.666  15.649 -0.3982 -0.4764  0.1832
  265MPD2    C2 4061   0.792   0.651  15.529  0.1327  0.5599  0.2650
  265MPD2    C3 4062   0.811   0.522  15.484  1.1747  0.3535  0.2547
  265MPD2    C4 4063   0.765   0.412  15.559  0.4654  0.5178  0.2770
  265MPD2    C5 4064   0.715   0.428  15.684 -0.2772 -0.3315 -0.7039
  265MPD2     H 4065   0.826   0.738  15.473  3.1054 -1.9247 -1.7707
  265MPD2    H1 4066   0.773   0.319  15.505  2.5508 -0.0351  1.5516
  265MPD2    H2 4067   0.644   0.575  15.822 -0.8434 -4.5108  1.0178
  265MPD2    H3 4068   0.680   0.345  15.745  0.5292 -1.3712 -1.6620
  265MPD2     N 4069   0.873   0.494  15.357 -0.1578 -0.0542  0.1491
  265MPD2    H5 4070   0.866   0.394  15.338  0.1665 -0.1387  0.4742
  265MPD2    N1 4071   0.695   0.794  15.686  0.3007 -0.3323 -0.0228
  265MPD2    H7 4072   0.736   0.868  15.629 -1.7151  0.7343 -0.0710
  266TMC3    C1 4073   0.596   0.980  15.784 -0.7064 -0.1235 -0.0379
  266TMC3    C2 4074   0.604   1.035  15.911  0.2666 -0.4007 -0.4679
  266TMC3    C3 4075   0.583   1.171  15.921  0.3208 -0.2933 -0.2169
  266TMC3    C4 4076   0.571   1.050  15.670 -0.2057  0.0320  0.5170
  266TMC3    C5 4077   0.571   1.186  15.690 -0.4484 -0.5636  0.1849
  266TMC3    C6 4078   0.558   1.251  15.807 -0.2754 -0.7437 -0.2783
  266TMC3     C 4079   0.606   0.836  15.782 -0.5143 -0.1288  0.5390
  266TMC3     O 4080   0.530   0.774  15.858 -0.3301  0.3387 -0.6637
  266TMC3     H 4081   0.641   0.972  15.990 -0.1907 -2.3169 -1.7803
  266TMC3    H1 4082   0.580   1.000  15.575 -1.2579  0.3114  0.2679
  266TMC3    H2 4083   0.545   1.359  15.807 -0.5897 -0.7985 -3.0199
  266TMC3    C7 4084   0.525   1.264  15.578  0.0260 -0.3807  0.0632
  266TMC3    C8 4085   0.637   1.228  16.043 -0.4628 -0.4382  0.3392
  266TMC3    O1 4086   0.475   1.206  15.483  1.1383  0.5981 -0.0594
  266TMC3    O2 4087   0.683   1.145  16.119  0.1252 -0.3567 -0.8356
  267MPD2     C 4088   3.505   2.623  17.517  0.1849  0.7242  0.1863
  267MPD2    C1 4089   3.424   2.601  17.631  0.3523 -0.4716 -0.1013
  267MPD2    C2 4090   3.290   2.569  17.622  0.0932  0.1991 -0.1741
  267MPD2    C3 4091   3.226   2.565  17.500 -0.1025 -0.4718  0.0587
  267MPD2    C4 4092   3.301   2.584  17.386 -0.0144 -0.4417  0.4872
  267MPD2    C5 4093   3.427   2.616  17.398  0.0563  0.5256  0.4748
  267MPD2     H 4094   3.230   2.536  17.707  1.5248 -0.8084  0.4456
  267MPD2    H1 4095   3.246   2.605  17.295 -0.2003  0.9924  0.9326
  267MPD2    H2 4096   3.611   2.644  17.513  0.4557 -0.8217 -0.9113
  267MPD2    H3 4097   3.476   2.652  17.308 -1.8242 -0.7157 -1.0582
  267MPD2     N 4098   3.086   2.548  17.484 -0.1205  0.1666  0.2798
  267MPD2    H5 4099   3.052   2.543  17.389 -0.4436 -0.3309  0.4193
  267MPD2    N1 4100   3.475   2.620   0.023 -0.3631  0.2336  0.4841
  267MPD2    H7 4101   3.571   2.655   0.024 -0.1110 -0.4560  0.3384
  268TMC3    C1 4102   3.515   2.590   0.258  0.0587  0.1577 -1.0916
  268TMC3    C2 4103   3.625   2.666   0.236  0.1529  0.5871 -0.0853
  268TMC3    C3 4104   3.737   2.641   0.314 -0.4699  0.3005 -1.5472
  268TMC3    C4 4105   3.513   2.498   0.359  0.0626 -0.0862  0.3677
  268TMC3    C5 4106   3.629   2.483   0.440 -0.1116  0.7219  0.0490
  268TMC3    C6 4107   3.742   2.551   0.415  0.3643 -0.4687 -0.2780
  268TMC3     C 4108   3.424   2.574   0.144  0.0182 -0.1623  0.1473
  268TMC3     O 4109   3.315   2.526   0.173  0.1862 -0.6356  0.4307
  268TMC3     H 4110   3.610   2.750   0.170 -0.4303  0.6296  0.1086
  268TMC3    H1 4111   3.426   2.434   0.363  1.6416 -2.3518 -1.5430
  268TMC3    H2 4112   3.828   2.533   0.480  0.0318 -4.2928 -0.9022
  268TMC3    C7 4113   3.624   2.398   0.554 -0.4376 -0.4816  0.2035
  268TMC3    C8 4114   3.852   2.735   0.302  0.6788  0.3763 -0.1192
  268TMC3    O1 4115   3.729   2.355   0.601 -0.2128 -0.5533 -0.2967
  268TMC3    O2 4116   3.925   2.744   0.403 -0.7011 -0.3154  0.6417
  269MPD2     C 4117   2.941   1.587  15.917  0.0883 -0.4658 -0.0046
  269MPD2    C1 4118   2.875   1.569  15.804 -0.4950 -1.1836  0.6497
  269MPD2    C2 4119   2.846   1.679  15.731 -0.0901  0.1772 -0.1500
  269MPD2    C3 4120   2.896   1.808  15.749 -0.9819 -0.4817 -0.1948
  269MPD2    C4 4121   2.965   1.827  15.869 -0.1266 -0.4417 -0.7732
  269MPD2    C5 4122   2.985   1.712  15.948 -0.4828 -0.3146  0.7007
  269MPD2     H 4123   2.777   1.667  15.649  0.2454  0.9683 -0.5367
  269MPD2    H1 4124   3.001   1.921  15.907  1.0192 -1.3404  0.3749
  269MPD2    H2 4125   2.962   1.509  15.988  0.0180 -0.2388  0.2666
  269MPD2    H3 4126   3.037   1.726  16.042  0.8503 -1.1564  0.0783
  269MPD2     N 4127   2.876   1.916  15.654 -0.2085 -0.2604  0.2952
  269MPD2    H5 4128   2.813   1.901  15.575  2.2635 -0.5001 -1.6227
  269MPD2    N1 4129   2.809   1.445  15.788  0.4443 -0.0048 -1.2474
  269MPD2    H7 4130   2.841   1.372  15.851 -0.4721  1.1762  0.5848
  270TMC3    C1 4131   2.680   1.285  15.708 -0.2221  0.8636 -0.5482
  270TMC3    C2 4132   2.544   1.255  15.697  0.3693 -0.3203 -0.3049
  270TMC3    C3 4133   2.514   1.125  15.685 -0.4215 -0.6679 -1.1565
  270TMC3    C4 4134   2.782   1.192  15.710  0.1784  0.2534  0.5820
  270TMC3    C5 4135   2.746   1.056  15.708  0.1935 -0.3647 -0.5386
  270TMC3    C6 4136   2.609   1.025  15.704 -0.0250 -0.5958 -0.6097
  270TMC3     C 4137   2.712   1.422  15.697 -0.6021 -0.0125  0.0592
  270TMC3     O 4138   2.635   1.494  15.640 -0.8447 -0.0559 -0.1494
  270TMC3     H 4139   2.471   1.333  15.680  1.2979  0.3410 -1.2587
  270TMC3    H1 4140   2.887   1.220  15.708 -0.5349  2.8434  0.1853
  270TMC3    H2 4141   2.568   0.925  15.714  1.5979 -1.0771  1.3005
  270TMC3    C7 4142   2.840   0.957  15.658 -0.5822 -0.2674 -0.2404
  270TMC3    C8 4143   2.429   1.098  15.575  0.9448 -0.5774 -0.4116
  270TMC3    O1 4144   2.959   0.973  15.666  0.2028  0.0346  0.5096
  270TMC3    O2 4145   2.312   1.136  15.579 -0.3960 -0.8403  0.2318
  271MPD2     C 4146   2.180   1.272  14.023  0.1903  0.5392 -0.0450
  271MPD2    C1 4147   2.116   1.160  14.053 -0.7001 -0.2882 -0.8360
  271MPD2    C2 4148   1.982   1.137  14.016  0.4841 -0.3688  0.1850
  271MPD2    C3 4149   1.921   1.240  13.941  0.1270 -0.5614  0.1987
  271MPD2    C4 4150   1.989   1.353  13.914 -0.1728  0.3886 -0.4015
  271MPD2    C5 4151   2.113   1.371  13.967  0.0726  0.3303  0.4902
  271MPD2     H 4152   1.941   1.038  14.030 -0.8413  0.3020  1.0765
  271MPD2    H1 4153   1.949   1.440  13.862 -1.2051 -0.9261 -1.7841
  271MPD2    H2 4154   2.278   1.297  14.064  0.5312  0.4730 -0.8259
  271MPD2    H3 4155   2.166   1.465  13.953 -0.0087  0.0451 -1.7018
  271MPD2     N 4156   1.796   1.245  13.889 -0.2270 -0.0166 -0.3754
  271MPD2    H5 4157   1.773   1.331  13.841 -2.8023 -1.6659 -2.0791
  271MPD2    N1 4158   2.188   1.065  14.127  0.5379 -0.4644 -0.1121
  271MPD2    H7 4159   2.134   0.985  14.160 -0.1594  0.5325  1.1740
  272TMC3    C1 4160   2.358   0.935  14.227 -0.8454  0.0633 -0.7487
  272TMC3    C2 4161   2.496   0.908  14.244 -0.7321  0.3433 -0.6838
  272TMC3    C3 4162   2.527   0.820  14.344  0.5697  0.1413 -0.0243
  272TMC3    C4 4163   2.260   0.891  14.315  0.9217 -0.2148 -0.9469
  272TMC3    C5 4164   2.303   0.818  14.422 -0.5613 -0.3486 -0.1889
  272TMC3    C6 4165   2.434   0.777  14.436  0.0696 -0.1926  0.7387
  272TMC3     C 4166   2.326   1.053  14.142  0.3439  0.4857  0.6527
  272TMC3     O 4167   2.423   1.110  14.094 -0.1694 -0.9969  0.1526
  272TMC3     H 4168   2.572   0.955  14.182  0.1977  1.3291  1.1902
  272TMC3    H1 4169   2.157   0.926  14.317  0.7011 -0.9907  1.9191
  272TMC3    H2 4170   2.461   0.729  14.529 -1.8352 -2.2706  0.2085
  272TMC3    C7 4171   2.230   0.824  14.549 -0.7326  0.0023 -0.4494
  272TMC3    C8 4172   2.666   0.793  14.355 -0.7997 -0.8049 -0.1139
  272TMC3    O1 4173   2.109   0.794  14.551 -0.1240  0.4040 -0.7098
  272TMC3    O2 4174   2.740   0.854  14.277  0.5537 -0.4735 -0.0054
  273MPD2     C 4175   3.937   3.831  11.856 -0.2601 -0.0045 -0.0885
  273MPD2    C1 4176   3.986   3.940  11.790 -0.7457  0.0742  0.7137
  273MPD2    C2 4177   3.950   3.954  11.654  0.5337 -0.0199  0.5592
  273MPD2    C3 4178   3.863   3.866  11.589 -0.5896 -0.6938  0.4244
  273MPD2    C4 4179   3.813   3.762  11.660 -0.5300  0.1252 -0.4219
  273MPD2    C5 4180   3.856   3.742  11.788 -0.9648 -0.1156  0.4985
  273MPD2     H 4181   4.002   4.034  11.603 -0.9364 -0.0460 -0.9557
  273MPD2    H1 4182   3.753   3.690  11.606 -1.4328 -0.9992  2.1348
  273MPD2    H2 4183   3.967   3.813  11.958  0.9616 -1.7395 -0.7575
  273MPD2    H3 4184   3.805   3.663  11.842 -1.9900  0.0190 -0.2729
  273MPD2     N 4185   3.830   3.888  11.453 -0.2086  0.3879 -0.0281
  273MPD2    H5 4186   3.741   3.845  11.432 -1.1098  1.9788  0.4837
  273MPD2    N1 4187   4.057   4.037  11.854 -0.1668  0.3932  0.2750
  273MPD2    H7 4188   4.095   4.005  11.943  1.2320  1.0832 -0.0580
  274TMC3    C1 4189   3.848   4.081  11.333 -0.3338  1.2753 -0.1288
  274TMC3    C2 4190   3.714   4.074  11.318  0.0134  0.3786  0.2763
  274TMC3    C3 4191   3.634   4.189  11.343 -0.3601 -0.2717  0.0932
  274TMC3    C4 4192   3.901   4.201  11.385 -0.4125  0.0080 -0.0034
  274TMC3    C5 4193   3.822   4.308  11.412  0.7492  0.2664 -0.1621
  274TMC3    C6 4194   3.684   4.299  11.410 -0.6685 -0.2404  0.0611
  274TMC3     C 4195   3.917   3.959  11.367 -0.1057 -0.6918 -0.1726
  274TMC3     O 4196   4.037   3.963  11.377  0.3169 -0.2248 -0.1394
  274TMC3     H 4197   3.670   3.987  11.270  2.4725 -0.6666 -0.0671
  274TMC3    H1 4198   4.006   4.202  11.413 -0.2467 -0.9016 -0.5756
  274TMC3    H2 4199   3.625   4.386  11.434 -2.7190 -1.4639 -0.6096
  274TMC3    C7 4200   3.876   4.429  11.471  0.3804  0.1081  1.4353
  274TMC3    C8 4201   3.533   4.236  11.245  0.0209 -0.3900 -0.6639
  274TMC3    O1 4202   3.826   4.462  11.581 -0.0030 -0.1344 -0.0831
  274TMC3    O2 4203   3.471   4.338  11.265  0.5332  0.0148 -0.2771
  275MPD2     C 4204   3.358   2.425  14.666  0.0092  0.6993 -0.6550
  275MPD2    C1 4205   3.283   2.366  14.768  0.0939 -0.2678 -0.9009
  275MPD2    C2 4206   3.179   2.282  14.727 -0.4583 -0.3397 -0.1187
  275MPD2    C3 4207   3.166   2.253  14.588 -0.6530  0.1040  0.1855
  275MPD2    C4 4208   3.261   2.292  14.497  0.1760 -0.0375  0.1511
  275MPD2    C5 4209   3.356   2.383  14.539 -0.0005  0.2953 -0.5582
  275MPD2     H 4210   3.110   2.243  14.801 -2.7221  0.1768 -1.9265
  275MPD2    H1 4211   3.243   2.254  14.397 -0.1619  1.5742 -0.3969
  275MPD2    H2 4212   3.424   2.505  14.700  2.6195 -1.4502 -0.7068
  275MPD2    H3 4213   3.417   2.429  14.461 -2.0168  1.4095 -1.4740
  275MPD2     N 4214   3.063   2.166  14.538 -0.0216 -0.1281  0.0462
  275MPD2    H5 4215   3.060   2.160  14.437 -0.2569  3.5095 -0.1671
  275MPD2    N1 4216   3.298   2.395  14.902 -0.2356 -0.4141  0.2797
  275MPD2    H7 4217   3.229   2.353  14.964 -1.9382  2.7882  0.5595
  276TMC3    C1 4218   3.358   2.496  15.100 -0.7950  0.7950  0.5931
  276TMC3    C2 4219   3.312   2.383  15.169  0.8120  0.2077 -0.2579
  276TMC3    C3 4220   3.342   2.380  15.303 -0.2673  0.3160 -0.8184
  276TMC3    C4 4221   3.449   2.578  15.153  0.1673  0.4395  0.5031
  276TMC3    C5 4222   3.473   2.579  15.293 -0.0168  0.7368  0.7034
  276TMC3    C6 4223   3.420   2.473  15.370  0.3519  0.2305  0.3175
  276TMC3     C 4224   3.381   2.488  14.956  0.1941 -0.5179 -0.2705
  276TMC3     O 4225   3.472   2.550  14.904  0.0693 -0.3285 -0.0782
  276TMC3     H 4226   3.263   2.294  15.129  1.7021 -0.8962  1.0861
  276TMC3    H1 4227   3.489   2.656  15.090 -1.6567  1.3674  0.4925
  276TMC3    H2 4228   3.443   2.456  15.474 -0.5893 -0.2347  0.4489
  276TMC3    C7 4229   3.594   2.636  15.343 -0.3031 -0.4352 -0.0792
  276TMC3    C8 4230   3.326   2.257  15.378  0.2990 -0.0447  0.1471
  276TMC3    O1 4231   3.646   2.593  15.444 -0.4704  0.2103 -0.4366
  276TMC3    O2 4232   3.311   2.269  15.499 -0.0973 -0.3484  0.1918
  277MPD2     C 4233   0.873   1.329  12.840  0.5276 -0.7789  0.2904
  277MPD2    C1 4234   0.783   1.345  12.939 -0.1779 -0.4791  0.3369
  277MPD2    C2 4235   0.740   1.233  13.015  0.4225  0.2690  0.8327
  277MPD2    C3 4236   0.780   1.103  12.984 -0.2249  0.8167  0.3125
  277MPD2    C4 4237   0.869   1.085  12.881 -0.0269 -0.1427  0.1849
  277MPD2    C5 4238   0.914   1.200  12.820  0.0267  0.2526  0.1734
  277MPD2     H 4239   0.670   1.257  13.094 -0.1499 -3.1856  1.3683
  277MPD2    H1 4240   0.901   0.984  12.857 -0.3401 -0.3761  0.7321
  277MPD2    H2 4241   0.905   1.414  12.781  0.0580 -1.7745 -1.3935
  277MPD2    H3 4242   0.989   1.194  12.741 -0.2157 -0.8546  0.0297
  277MPD2     N 4243   0.728   1.000  13.058 -0.1948  0.1100 -0.1426
  277MPD2    H5 4244   0.663   1.033  13.128  1.2475 -0.7777  1.6112
  277MPD2    N1 4245   0.744   1.483  12.968 -0.0149  0.0300 -0.0358
  277MPD2    H7 4246   0.805   1.549  12.921  0.5161 -1.4549 -1.4216
  278TMC3    C1 4247   0.677   0.786  13.157 -0.7883 -1.0408  0.1457
  278TMC3    C2 4248   0.741   0.686  13.222  0.3491  0.8390  0.0135
  278TMC3    C3 4249   0.652   0.606  13.299 -0.3272  0.4601 -0.2144
  278TMC3    C4 4250   0.541   0.800  13.148 -0.1836 -0.3666  0.1489
  278TMC3    C5 4251   0.462   0.725  13.220  0.9393 -0.2879  0.1680
  278TMC3    C6 4252   0.517   0.624  13.301 -0.4798  0.1016 -0.0052
  278TMC3     C 4253   0.757   0.866  13.054  0.4933 -0.0606  0.0004
  278TMC3     O 4254   0.854   0.812  13.007 -0.2819 -0.0488 -0.2715
  278TMC3     H 4255   0.847   0.663  13.218  0.1677  0.1814 -1.0379
  278TMC3    H1 4256   0.500   0.884  13.094  0.3129 -1.6306 -2.2154
  278TMC3    H2 4257   0.453   0.558  13.358 -2.4296  0.9524 -1.2046
  278TMC3    C7 4258   0.316   0.726  13.190  0.9457 -0.1515  0.0931
  278TMC3    C8 4259   0.723   0.508  13.384 -0.5004 -0.3551  0.0736
  278TMC3    O1 4260   0.280   0.780  13.084 -0.3245 -0.2864  0.0444
  278TMC3    O2 4261   0.844   0.500  13.362 -0.1270  0.7104 -0.0246
  279MPD2     C 4262   4.442   0.624  17.353  0.4145 -0.1964  0.5922
  279MPD2    C1 4263   4.532   0.707  17.414  0.0226 -0.3812 -0.0776
  279MPD2    C2 4264   4.631   0.768  17.338  0.2934  0.1929  0.5297
  279MPD2    C3 4265   4.626   0.761  17.197  0.1347  0.8405  1.0561
  279MPD2    C4 4266   4.521   0.700  17.132 -0.5763  0.3633  0.3315
  279MPD2    C5 4267   4.437   0.627  17.211  0.3111 -0.0890 -0.3051
  279MPD2     H 4268   4.711   0.818  17.392  0.3234  2.5427 -1.7080
  279MPD2    H1 4269   4.513   0.688  17.024  0.0532 -1.2890  0.4615
  279MPD2    H2 4270   4.368   0.568  17.410 -1.1692 -1.5901 -2.8231
  279MPD2    H3 4271   4.350   0.578  17.170  0.6467 -3.2629  2.7423
  279MPD2     N 4272   4.731   0.813  17.118 -0.0454 -0.2707 -0.1707
  279MPD2    H5 4273   0.002   0.777  17.023  0.9201 -0.4436 -0.0482
  279MPD2    N1 4274   4.529   0.719  17.557 -0.1452 -0.6819  0.1013
  279MPD2    H7 4275   4.466   0.652  17.601 -1.5964 -1.9321 -3.8683
  280TMC3    C1 4276   4.583   0.795   0.049 -0.2271 -0.2087 -1.2162
  280TMC3    C2 4277   4.526   0.678   0.104 -0.5033 -0.1892  0.4394
  280TMC3    C3 4278   4.505   0.693   0.239  0.7855  0.5586 -0.4226
  280TMC3    C4 4279   4.623   0.908   0.125 -0.4705  0.3883  0.6986
  280TMC3    C5 4280   4.613   0.901   0.258  0.0584 -0.4509  0.2183
  280TMC3    C6 4281   4.542   0.801   0.315  1.5568  0.0957  0.0910
  280TMC3     C 4282   4.589   0.814  17.637  0.5831 -0.0850  0.1278
  280TMC3     O 4283   4.637   0.921  17.598 -0.2946  0.6166  0.7430
  280TMC3     H 4284   4.511   0.583   0.054  0.5582 -0.8156  1.3169
  280TMC3    H1 4285   4.674   0.988   0.073  1.0316 -1.9331 -1.4168
  280TMC3    H2 4286   4.520   0.809   0.421 -2.3563  1.3903 -0.8106
  280TMC3    C7 4287   4.597   1.032   0.324 -0.3834  0.1947 -0.0464
  280TMC3    C8 4288   4.437   0.585   0.310 -0.8467  0.1902  0.5997
  280TMC3    O1 4289   4.697   1.073   0.384 -0.3451 -0.5041  0.1939
  280TMC3    O2 4290   4.417   0.600   0.431  0.4575 -0.1949  0.6458
  281TMC3    C1 4291   4.087   1.477  13.861  0.3647 -0.3062  0.1946
  281TMC3    C2 4292   4.136   1.350  13.819  0.3212 -0.4226 -0.1784
  281TMC3    C3 4293   4.093   1.234  13.876 -0.3754 -0.7924 -0.4051
  281TMC3    C4 4294   4.007   1.480  13.964 -0.6880 -0.0308  0.4184
  281TMC3    C5 4295   3.975   1.369  14.029  0.4379  0.7999  0.1432
  281TMC3    C6 4296   4.016   1.245  13.984  0.3351  0.3806  0.2997
  281TMC3     C 4297   4.058   1.559  13.746  0.4214  0.1482 -0.5074
  281TMC3     O 4298   4.155   1.579  13.672 -0.6521  0.5295  0.4648
  281TMC3     H 4299   4.214   1.351  13.744 -1.1200  1.0969 -1.6652
  281TMC3    H1 4300   3.969   1.576  13.999 -2.8380 -0.6497 -0.1766
  281TMC3    H2 4301   3.992   1.151  14.033  0.5589  0.7339  1.1029
  281TMC3    C7 4302   3.841   1.368  14.081 -0.4997 -0.4030  0.8351
  281TMC3    C8 4303   3.997   1.169  13.784 -0.0860  0.0926  0.6161
  281TMC3    O1 4304   3.797   1.472  14.124 -0.0626  0.0183  0.4084
  281TMC3    O2 4305   3.897   1.112  13.837 -0.1588  0.0541  0.0200
  282MPD2     C 4306   4.608   2.851  14.794 -0.1413  0.1348  0.2102
  282MPD2    C1 4307   4.603   2.720  14.844 -0.2053 -0.7856 -1.1388
  282MPD2    C2 4308   4.600   2.618  14.758 -0.2808  0.3262  0.0402
  282MPD2    C3 4309   4.612   2.635  14.621  0.2034  0.2311  0.2711
  282MPD2    C4 4310   4.623   2.764  14.566  1.0121  0.3293 -0.1363
  282MPD2    C5 4311   4.614   2.872  14.656 -0.1797  0.2035  0.0883
  282MPD2     H 4312   4.618   2.524  14.808 -1.7481  0.0104 -0.0267
  282MPD2    H1 4313   4.616   2.786  14.460  2.8961  0.1479 -0.3049
  282MPD2    H2 4314   4.623   2.936  14.859  0.2044  0.1269  0.1404
  282MPD2    H3 4315   4.630   2.976  14.632 -2.6229  0.9483  1.7057
  282MPD2     N 4316   4.633   2.526  14.537 -0.3837 -0.4881  0.2492
  282MPD2    H5 4317   4.624   2.431  14.573  1.5686 -1.1674 -1.0578
  282MPD2    N1 4318   4.599   2.708  14.983 -0.4399  0.6179  0.5112
  282MPD2    H7 4319   4.619   2.794  15.033 -0.8730  2.0129 -1.7068
  283TMC3    C1 4320   4.573   2.632  15.196 -0.5687 -0.2991  0.1091
  283TMC3    C2 4321   4.670   2.708  15.242  0.0441  1.0125  0.1977
  283TMC3    C3 4322   4.667   2.739  15.376 -0.0258  0.0690  0.2402
  283TMC3    C4 4323   4.468   2.574  15.272  0.1929  0.1732  0.3774
  283TMC3    C5 4324   4.476   2.604  15.405 -0.0125  0.3776 -0.4027
  283TMC3    C6 4325   4.570   2.681  15.460 -0.3801  0.9094  0.2922
  283TMC3     C 4326   4.565   2.596  15.054  0.7653 -0.2219 -0.4056
  283TMC3     O 4327   4.512   2.495  15.014  0.0615  0.1891  0.1598
  283TMC3     H 4328   0.014   2.737  15.174  0.1280 -1.9835 -0.9922
  283TMC3    H1 4329   4.388   2.521  15.223  0.7804  1.0481 -1.5206
  283TMC3    H2 4330   4.554   2.722  15.559 -2.1070 -0.4470  0.5661
  283TMC3    C7 4331   4.391   2.537  15.493  0.2255  0.4983  0.2297
  283TMC3    C8 4332   0.051   2.789  15.439  0.2029 -0.1702  0.1557
  283TMC3    O1 4333   4.406   2.561  15.612 -0.1554 -0.3979  0.1916
  283TMC3    O2 4334   0.044   2.755  15.559  0.7552  0.2930  0.1488
  284MPD2     C 4335   3.279   1.858  11.910  0.1607  0.0119  0.6668
  284MPD2    C1 4336   3.321   1.797  11.796 -0.1969 -0.7577 -0.1033
  284MPD2    C2 4337   3.296   1.658  11.781 -0.1903 -0.0138  0.1999
  284MPD2    C3 4338   3.243   1.584  11.885  0.8349  0.0109  0.2281
  284MPD2    C4 4339   3.203   1.654  11.997 -0.1588 -0.7002  0.1346
  284MPD2    C5 4340   3.217   1.787  12.012 -0.0143  0.2587  0.0705
  284MPD2     H 4341   3.324   1.614  11.686  0.3636 -0.0463  0.3789
  284MPD2    H1 4342   3.148   1.608  12.079  1.2176  1.5685  2.3425
  284MPD2    H2 4343   3.304   1.961  11.933 -1.1150 -0.1540  2.7521
  284MPD2    H3 4344   3.198   1.837  12.106 -0.5710 -0.8579  0.5494
  284MPD2     N 4345   3.212   1.451  11.861  0.1191  0.3305 -0.3435
  284MPD2    H5 4346   3.240   1.415  11.770  0.7424  1.5432 -0.6263
  284MPD2    N1 4347   3.378   1.865  11.685 -0.8302  0.0472 -0.0044
  284MPD2    H7 4348   3.408   1.807  11.607 -0.0104 -0.5168  0.7271
  285TMC3    C1 4349   3.512   2.034  11.583  0.2983 -0.4618  0.1383
  285TMC3    C2 4350   3.506   1.962  11.467 -0.2641 -0.4180 -0.2993
  285TMC3    C3 4351   3.577   2.008  11.362  0.1792 -0.4467  0.4817
  285TMC3    C4 4352   3.590   2.153  11.598  0.3839  0.4384 -0.1279
  285TMC3    C5 4353   3.669   2.185  11.485 -0.4252  0.7397  0.1067
  285TMC3    C6 4354   3.658   2.115  11.364  0.4156 -0.5551  0.3968
  285TMC3     C 4355   3.433   1.987  11.699 -0.4373  0.3955 -0.1068
  285TMC3     O 4356   3.425   2.073  11.785 -0.3985 -0.0708 -0.0347
  285TMC3     H 4357   3.448   1.871  11.451  0.5206 -1.2858  1.7498
  285TMC3    H1 4358   3.604   2.197  11.696  1.8097 -0.5166  0.0965
  285TMC3    H2 4359   3.715   2.156  11.282  1.3857 -2.3583  0.1623
  285TMC3    C7 4360   3.690   2.329  11.458 -0.0725  0.0015 -0.1620
  285TMC3    C8 4361   3.562   1.924  11.240 -0.7878  0.6565 -0.2808
  285TMC3    O1 4362   3.741   2.383  11.362 -0.6420  0.0447  0.3434
  285TMC3    O2 4363   3.465   1.850  11.233  0.3545 -0.2817  1.0035
  286MPD2     C 4364   4.302   0.647   1.211  0.1275  0.0596  0.7005
  286MPD2    C1 4365   4.253   0.634   1.081 -0.8400  0.0632  0.4625
  286MPD2    C2 4366   4.274   0.510   1.024 -0.5937 -0.4679 -0.0234
  286MPD2    C3 4367   4.344   0.407   1.092  0.0813 -0.5101 -0.1626
  286MPD2    C4 4368   4.372   0.430   1.225  0.4349  0.2304 -0.6240
  286MPD2    C5 4369   4.363   0.552   1.276 -1.3161  0.5664  0.1831
  286MPD2     H 4370   4.233   0.488   0.926 -0.0727 -1.3278 -0.0547
  286MPD2    H1 4371   4.423   0.360   1.291  2.3554  2.6220  0.4604
  286MPD2    H2 4372   4.287   0.739   1.266 -2.8057 -0.1795  0.3009
  286MPD2    H3 4373   4.408   0.572   1.373 -0.8046 -0.7465  0.2068
  286MPD2     N 4374   4.362   0.272   1.045  0.1382  0.5675  0.0838
  286MPD2    H5 4375   4.393   0.208   1.118 -0.0212  1.0181  0.5466
  286MPD2    N1 4376   4.188   0.743   1.007  0.7094  0.3084 -0.2308
  286MPD2    H7 4377   4.159   0.727   0.911 -0.9305  1.3192  0.0872
  287TMC3    C1 4378   4.337   0.091   0.902 -0.9430  0.3765 -0.1427
  287TMC3    C2 4379   4.271   0.045   0.790 -0.9061 -0.7475 -0.2411
  287TMC3    C3 4380   4.326   4.673   0.722 -0.2086 -0.0216  0.1981
  287TMC3    C4 4381   4.455   0.032   0.951 -0.5580  0.0513  0.3716
  287TMC3    C5 4382   4.499   4.651   0.885 -0.1812  0.4255  0.1321
  287TMC3    C6 4383   4.437   4.606   0.773 -0.1402 -0.2794 -0.3833
  287TMC3     C 4384   4.316   0.229   0.918 -0.3953  0.1740  0.2050
  287TMC3     O 4385   4.237   0.290   0.844  0.2685  0.0889 -0.8787
  287TMC3     H 4386   4.171   0.080   0.769  0.5886  2.2189 -2.3874
  287TMC3    H1 4387   4.519   0.065   1.033 -1.3768  0.1312  0.9772
  287TMC3    H2 4388   4.471   4.515   0.726  0.6403  0.4604 -1.2466
  287TMC3    C7 4389   4.624   4.597   0.948  0.3556  0.7966 -0.2908
  287TMC3    C8 4390   4.248   4.622   0.608  0.6018  0.0437  0.2660
  287TMC3    O1 4391   4.633   4.597   1.075 -0.4371 -0.6444  0.2500
  287TMC3    O2 4392   4.128   4.664   0.602  0.3361  0.2340 -1.2307
  288TMC3    C1 4393   1.140   0.318  14.434 -0.2559  0.1541  0.1793
  288TMC3    C2 4394   1.045   0.349  14.523 -0.0626  0.3452  0.2259
  288TMC3    C3 4395   0.944   0.434  14.493 -0.3826  0.0560 -0.4708
  288TMC3    C4 4396   1.144   0.382  14.312 -0.1078 -0.0352  0.2056
  288TMC3    C5 4397   1.046   0.474  14.282  0.1820 -0.1226  0.0048
  288TMC3    C6 4398   0.944   0.506  14.376  0.5072  0.5290  0.1696
  288TMC3     C 4399   1.223   0.202  14.454  0.3652 -0.0054 -0.1864
  288TMC3     O 4400   1.205   0.147  14.560  0.1231  0.5496  0.4002
  288TMC3     H 4401   1.056   0.305  14.622 -1.8735  3.8720  2.0202
  288TMC3    H1 4402   1.211   0.349  14.234 -0.4048 -0.4588  0.1249
  288TMC3    H2 4403   0.868   0.577  14.347 -0.6361 -0.3305  1.0933
  288TMC3    C7 4404   1.050   0.520  14.145 -0.2348  0.5821 -0.0021
  288TMC3    C8 4405   0.842   0.473  14.593 -1.0436 -0.0548 -0.2676
  288TMC3    O1 4406   1.161   0.527  14.088  0.1483  0.6215 -0.0768
  288TMC3    O2 4407   0.798   0.586  14.579  0.2529 -0.0154  0.3530
  289MPD2     C 4408   0.639   3.872  14.505 -0.3452  0.9873  0.2144
  289MPD2    C1 4409   0.635   3.998  14.455 -0.0505 -0.1265 -0.7759
  289MPD2    C2 4410   0.510   4.057  14.438 -0.4284  0.5123 -0.0249
  289MPD2    C3 4411   0.393   3.986  14.454  0.3043  0.0169 -0.3798
  289MPD2    C4 4412   0.398   3.858  14.499 -0.4215 -0.6748  0.3839
  289MPD2    C5 4413   0.520   3.804  14.532  0.0871  0.0591 -0.4360
  289MPD2     H 4414   0.506   4.160  14.403 -1.3402 -0.2795 -2.2086
  289MPD2    H1 4415   0.312   3.793  14.509  1.4819 -3.2874 -0.0993
  289MPD2    H2 4416   0.731   3.814  14.500  0.3144  2.0494 -0.0000
  289MPD2    H3 4417   0.531   3.700  14.561 -0.1698  0.4768  1.1694
  289MPD2     N 4418   0.264   4.033  14.420 -0.2308 -0.5283  0.7573
  289MPD2    H5 4419   0.191   3.966  14.439 -1.3864  0.9168  1.3905
  289MPD2    N1 4420   0.760   4.061  14.425  0.3019  1.0624  0.1296
  289MPD2    H7 4421   0.850   4.024  14.456 -1.2284 -0.3869  2.8306
  290TMC3    C1 4422   0.101   4.173  14.316  0.6665  0.4267  0.1526
  290TMC3    C2 4423   0.079   4.303  14.279 -0.0817  0.0070 -1.1234
  290TMC3    C3 4424   0.030   4.316  14.153  0.0969 -0.6875  0.5794
  290TMC3    C4 4425   0.064   4.064  14.241 -0.4480  0.2760  0.1805
  290TMC3    C5 4426   0.001   4.087  14.118 -0.3121 -0.0256  0.2275
  290TMC3    C6 4427   4.717   4.218  14.076  0.2688 -0.1344  0.2048
  290TMC3     C 4428   0.232   4.162  14.381 -0.0697 -0.3524 -0.4557
  290TMC3     O 4429   0.304   4.260  14.366  0.3655 -0.4219 -0.0237
  290TMC3     H 4430   0.112   4.380  14.347  1.1934 -1.1215 -0.4591
  290TMC3    H1 4431   0.097   3.965  14.272  0.2992  0.5792  0.3391
  290TMC3    H2 4432   4.660   4.236  13.985  0.6279  0.8729  0.1824
  290TMC3    C7 4433   4.699   3.986  14.022  0.0058 -0.3348 -0.0235
  290TMC3    C8 4434   4.728   4.451  14.106  0.4204  0.3280  0.2481
  290TMC3    O1 4435   4.669   4.021  13.908 -0.1966  0.1056  0.3840
  290TMC3    O2 4436   4.658   4.466  14.005  0.1281 -0.1769 -0.2356
  291MPD2     C 4437   0.552   4.509   0.371 -0.4750 -0.3952  1.6130
  291MPD2    C1 4438   0.675   4.445   0.335 -0.5498  0.0753 -0.1842
  291MPD2    C2 4439   0.783   4.526   0.312 -0.3946 -0.5842  0.4385
  291MPD2    C3 4440   0.774   4.662   0.304 -0.0180  0.1983  0.1779
  291MPD2    C4 4441   0.649   4.719   0.343 -0.7934 -0.3182  0.4364
  291MPD2    C5 4442   0.542   4.645   0.390 -0.7504  0.0403  0.0531
  291MPD2     H 4443   0.878   4.477   0.294 -0.7065 -1.0709  0.1124
  291MPD2    H1 4444   0.632   0.090   0.331  1.5084 -0.3672 -3.4366
  291MPD2    H2 4445   0.460   4.456   0.393 -0.4290 -0.6303  1.2363
  291MPD2    H3 4446   0.459   4.699   0.434 -1.3323  0.1150 -1.1284
  291MPD2     N 4447   0.880   0.013   0.266  0.0572  0.2688  0.0581
  291MPD2    H5 4448   0.868   0.112   0.283 -0.1354  0.3198 -0.3757
  291MPD2    N1 4449   0.690   4.309   0.310  0.3416  0.4220 -0.6592
  291MPD2    H7 4450   0.784   4.272   0.299  0.6617  1.1334 -0.2960
  292TMC3    C1 4451   0.632   4.081   0.292 -0.1271  0.2942  0.5784
  292TMC3    C2 4452   0.756   4.049   0.356 -0.0688 -0.6944  1.0447
  292TMC3    C3 4453   0.807   3.929   0.341  0.9590  0.0071  0.3126
  292TMC3    C4 4454   0.559   3.994   0.220  0.7873 -0.0332  0.4907
  292TMC3    C5 4455   0.616   3.867   0.223 -0.1853  0.1677  0.2716
  292TMC3    C6 4456   0.737   3.838   0.280 -0.4343  0.0429  0.4218
  292TMC3     C 4457   0.583   4.217   0.307  0.2320  1.0541  0.3896
  292TMC3     O 4458   0.462   4.229   0.295  0.2034 -0.0275 -0.0542
  292TMC3     H 4459   0.815   4.125   0.405 -0.8727  0.6301 -0.0476
  292TMC3    H1 4460   0.463   4.019   0.177  0.6265  0.9788  1.4530
  292TMC3    H2 4461   0.770   3.736   0.267 -0.1101  0.4311 -1.8040
  292TMC3    C7 4462   0.528   3.755   0.250  0.3480  0.2166  0.7203
  292TMC3    C8 4463   0.869   3.879   0.457 -0.3520  0.2905  0.4033
  292TMC3    O1 4464   0.574   3.658   0.305 -0.3123  0.4011  0.2515
  292TMC3    O2 4465   0.983   3.839   0.458 -0.3997 -0.8450 -0.0193
  293MPD2     C 4466   2.036   1.089  12.703  0.3914  0.2360  0.9922
  293MPD2    C1 4467   1.931   1.156  12.764 -0.4806  1.1504  0.5258
  293MPD2    C2 4468   1.938   1.173  12.898  0.8389 -0.4626  0.2515
  293MPD2    C3 4469   2.043   1.125  12.968  0.2675  0.1859  0.4122
  293MPD2    C4 4470   2.147   1.062  12.905 -0.4225  0.1619  0.7719
  293MPD2    C5 4471   2.144   1.047  12.776  0.3318 -0.0629 -0.5080
  293MPD2     H 4472   1.860   1.222  12.956 -0.1735  0.3246 -1.7734
  293MPD2    H1 4473   2.227   1.009  12.956  0.5223  2.1882  1.3863
  293MPD2    H2 4474   2.036   1.074  12.596 -1.7766  1.5759  0.8057
  293MPD2    H3 4475   2.230   1.000  12.731  0.3355  2.6024 -3.2966
  293MPD2     N 4476   2.048   1.141  13.109  0.1339 -0.4247 -0.4334
  293MPD2    H5 4477   1.966   1.181  13.153  0.1511 -1.1231  0.2528
  293MPD2    N1 4478   1.831   1.201  12.678 -0.9367  0.6229 -0.4747
  293MPD2    H7 4479   1.837   1.166  12.583 -0.6663  0.0548 -0.2451
  294TMC3    C1 4480   1.630   1.296  12.583  0.2471  0.1781 -0.0814
  294TMC3    C2 4481   1.497   1.301  12.616  0.4140  0.1322 -0.5702
  294TMC3    C3 4482   1.402   1.283  12.521  0.1610  0.0861  0.2257
  294TMC3    C4 4483   1.677   1.293  12.453  0.2840  0.5521  0.4848
  294TMC3    C5 4484   1.574   1.273  12.360  0.6379 -1.0215 -0.8405
  294TMC3    C6 4485   1.440   1.272  12.391  0.2641 -0.2847 -0.3060
  294TMC3     C 4486   1.725   1.291  12.695  0.2617  0.1709 -0.8803
  294TMC3     O 4487   1.671   1.326  12.797 -0.0940  0.4782 -0.1741
  294TMC3     H 4488   1.457   1.300  12.716  0.7251 -0.7695 -0.4508
  294TMC3    H1 4489   1.782   1.312  12.431  0.2567  0.4879  0.2996
  294TMC3    H2 4490   1.368   1.247  12.314 -1.9666  2.7756  0.8204
  294TMC3    C7 4491   1.600   1.246  12.218  0.1216  0.1006 -0.6145
  294TMC3    C8 4492   1.300   1.194  12.565 -0.3664 -0.2431 -0.5172
  294TMC3    O1 4493   1.505   1.262  12.139 -0.3365  0.3805 -0.5769
  294TMC3    O2 4494   1.242   1.218  12.667  0.9377 -0.0995  0.1020
  295MPD2     C 4495   2.572   4.445   1.087 -0.0417  0.8904 -0.0435
  295MPD2    C1 4496   2.515   4.555   1.141 -0.0582  0.9408 -0.0999
  295MPD2    C2 4497   2.418   4.535   1.238  0.4698 -0.4475  0.3967
  295MPD2    C3 4498   2.383   4.410   1.289 -0.0013 -0.3703  0.0793
  295MPD2    C4 4499   2.432   4.302   1.227  0.4396 -0.2312 -0.1303
  295MPD2    C5 4500   2.523   4.323   1.126  1.2749  0.1300  0.0716
  295MPD2     H 4501   2.375   4.627   1.275  2.5876  1.0655 -0.9067
  295MPD2    H1 4502   2.399   4.201   1.250  2.3642 -0.2660  2.4837
  295MPD2    H2 4503   2.628   4.459   0.995 -0.2577  0.1148 -0.2911
  295MPD2    H3 4504   2.556   4.237   1.069 -0.3288 -1.6072  1.7457
  295MPD2     N 4505   2.303   4.399   1.410 -0.3813  0.3605  0.1695
  295MPD2    H5 4506   2.265   4.480   1.458  0.3425  0.1615  1.0846
  295MPD2    N1 4507   2.555   4.685   1.107 -0.0137 -0.2902 -0.4956
  295MPD2    H7 4508   2.498   0.018   1.156  0.4841  1.1145 -1.8544
  296TMC3    C1 4509   2.156   4.285   1.572 -0.1651  0.5608 -0.2109
  296TMC3    C2 4510   2.082   4.402   1.583 -0.5897 -0.0746 -0.9172
  296TMC3    C3 4511   1.986   4.408   1.681 -0.3431 -0.3033 -0.6294
  296TMC3    C4 4512   2.139   4.174   1.645 -0.3411  0.4622 -0.1408
  296TMC3    C5 4513   2.037   4.188   1.740  0.0235  0.3089  0.2867
  296TMC3    C6 4514   1.958   4.298   1.760  0.3925  0.6876  0.5292
  296TMC3     C 4515   2.263   4.278   1.469 -0.0381  0.3118  0.2915
  296TMC3     O 4516   2.313   4.168   1.447 -0.0895 -0.5929  0.2047
  296TMC3     H 4517   2.109   4.488   1.523  0.9271  1.1957  1.5513
  296TMC3    H1 4518   2.204   4.089   1.632  0.9094  1.3410  0.4177
  296TMC3    H2 4519   1.881   4.297   1.838  0.6724  2.5216  0.8370
  296TMC3    C7 4520   1.967   4.063   1.775  0.2825 -1.0151 -0.8693
  296TMC3    C8 4521   1.912   4.528   1.708  0.0735  0.0251  0.6295
  296TMC3    O1 4522   1.881   4.059   1.864 -0.4309 -0.1787  0.4388
  296TMC3    O2 4523   1.834   4.527   1.801 -0.4693 -0.0360  0.2788
  297MPD2     C 4524   4.278   1.382  16.242 -0.0630 -0.0795  0.5246
  297MPD2    C1 4525   4.273   1.523  16.226  0.7545 -0.3022  0.6895
  297MPD2    C2 4526   4.396   1.596  16.208  0.0319  0.8376  1.2137
  297MPD2    C3 4527   4.514   1.529  16.189  0.2608 -0.3102 -0.0668
  297MPD2    C4 4528   4.520   1.392  16.198  0.4390  0.7612 -0.5787
  297MPD2    C5 4529   4.403   1.320  16.229 -1.0251  0.1982  1.0164
  297MPD2     H 4530   4.395   1.703  16.196 -1.0878  0.7939  0.9437
  297MPD2    H1 4531   4.611   1.334  16.190  0.0294  0.3434 -2.2733
  297MPD2    H2 4532   4.190   1.320  16.258 -0.1572 -0.4381 -1.2783
  297MPD2    H3 4533   4.410   1.212  16.233  0.9566  0.3411  1.5227
  297MPD2     N 4534   4.633   1.607  16.172  0.1782  0.1654 -0.7115
  297MPD2    H5 4535   4.629   1.702  16.207  2.2630 -0.1406  0.3275
  297MPD2    N1 4536   4.148   1.596  16.226  0.4650 -0.4665 -0.5914
  297MPD2    H7 4537   4.155   1.696  16.208  2.1295 -0.4667  0.0038
  298TMC3    C1 4538   3.906   1.608  16.193  0.1878  0.2567  0.4174
  298TMC3    C2 4539   3.930   1.667  16.074  0.7279  0.4847 -0.2095
  298TMC3    C3 4540   3.827   1.726  16.012 -0.0725 -0.0202 -0.1287
  298TMC3    C4 4541   3.780   1.611  16.252 -0.1343 -0.0026  0.2955
  298TMC3    C5 4542   3.683   1.684  16.192  0.1722  0.2653  0.5122
  298TMC3    C6 4543   3.700   1.728  16.067  0.0064  0.0379 -0.0495
  298TMC3     C 4544   4.021   1.541  16.260  0.0422  0.2443 -0.0180
  298TMC3     O 4545   3.989   1.440  16.325 -0.0226 -1.0088  0.1750
  298TMC3     H 4546   4.026   1.654  16.024  0.5296 -0.4884 -0.3307
  298TMC3    H1 4547   3.772   1.566  16.351 -0.6610 -0.2833  0.1238
  298TMC3    H2 4548   3.612   1.753  16.008  0.9066  0.6072 -1.1525
  298TMC3    C7 4549   3.609   1.756  16.289 -0.2181  0.0766  0.1334
  298TMC3    C8 4550   3.844   1.755  15.870 -0.6458  0.0494  0.5182
  298TMC3    O1 4551   3.640   1.742  16.407 -0.1111 -0.5851 -0.3056
  298TMC3    O2 4552   3.950   1.720  15.818 -0.0695  0.6404  0.2437
  299MPD2     C 4553   4.604   1.108  11.145 -0.6990  0.4557  0.6328
  299MPD2    C1 4554   4.662   1.200  11.064  0.2759 -0.4106  0.6707
  299MPD2    C2 4555   4.619   1.205  10.933  0.2179 -0.0639 -0.3187
  299MPD2    C3 4556   4.531   1.120  10.879  0.3848  0.1859 -1.0375
  299MPD2    C4 4557   4.473   1.030  10.960 -0.7880  0.1778 -0.2139
  299MPD2    C5 4558   4.515   1.019  11.090  0.4436  0.1072 -0.3760
  299MPD2     H 4559   4.665   1.267  10.857 -1.2109 -0.6376 -1.6375
  299MPD2    H1 4560   4.396   0.964  10.921 -2.2556  0.8864  1.4862
  299MPD2    H2 4561   4.625   1.099  11.250 -0.9787  0.5241  0.6943
  299MPD2    H3 4562   4.466   0.949  11.156  2.9269 -0.3243  1.0134
  299MPD2     N 4563   4.504   1.129  10.741 -0.4226  0.0524 -0.6391
  299MPD2    H5 4564   4.562   1.196  10.692 -0.5526  0.2161 -0.5681
  299MPD2    N1 4565   0.029   1.280  11.121  0.5955  0.1984 -0.4280
  299MPD2    H7 4566   0.053   1.259  11.217  0.6974 -0.6287 -0.6353
  300TMC3    C1 4567   4.383   1.112  10.542  0.5498  0.1034 -0.0062
  300TMC3    C2 4568   4.467   1.206  10.489  0.3837 -0.4721  0.7101
  300TMC3    C3 4569   4.445   1.236  10.357  0.1910  0.5072  0.4485
  300TMC3    C4 4570   4.271   1.068  10.483  0.3869 -0.5219 -0.2639
  300TMC3    C5 4571   4.244   1.111  10.355 -0.5361  0.2469  0.2901
  300TMC3    C6 4572   4.335   1.191  10.290 -0.1017 -0.3706  0.5057
  300TMC3     C 4573   4.395   1.079  10.682 -0.1745 -0.9695  0.1687
  300TMC3     O 4574   4.296   1.025  10.729 -0.2944  0.7358 -0.2471
  300TMC3     H 4575   4.558   1.242  10.535 -0.8708  1.2352  1.8590
  300TMC3    H1 4576   4.208   0.988  10.520 -0.0301 -0.2255 -0.3436
  300TMC3    H2 4577   4.322   1.230  10.190  0.0095 -1.1744  0.1774
  300TMC3    C7 4578   4.116   1.069  10.294  0.3661 -0.6357 -0.5225
  300TMC3    C8 4579   4.531   1.342  10.297 -0.2854 -0.5534  0.4605
  300TMC3    O1 4580   4.114   1.048  10.169 -0.3020 -0.2010  0.3518
  300TMC3    O2 4581   4.550   1.339  10.177  0.1929 -0.4209 -0.8458
  301MPD2     C 4582   2.859   2.308   1.230 -0.7254 -0.7177  0.2316
  301MPD2    C1 4583   2.743   2.267   1.169  0.3285 -0.2232  0.3153
  301MPD2    C2 4584   2.706   2.135   1.152 -0.3805  0.3291  0.8198
  301MPD2    C3 4585   2.797   2.038   1.178 -0.4168 -0.1225 -0.6347
  301MPD2    C4 4586   2.921   2.076   1.228 -0.2299 -0.3407 -0.2840
  301MPD2    C5 4587   2.950   2.207   1.250 -0.3578 -0.0528 -0.0817
  301MPD2     H 4588   2.606   2.127   1.110 -0.7203 -0.3171  1.7436
  301MPD2    H1 4589   2.996   2.000   1.247 -1.4314 -2.1576 -2.7951
  301MPD2    H2 4590   2.893   2.408   1.253 -0.3146 -0.6385 -0.7166
  301MPD2    H3 4591   3.055   2.223   1.271 -0.3942  1.1812 -0.8404
  301MPD2     N 4592   2.778   1.900   1.149 -0.2225  0.1036 -1.0365
  301MPD2    H5 4593   2.854   1.838   1.176 -0.7899  0.3257  1.0749
  301MPD2    N1 4594   2.639   2.360   1.131  0.3104  0.0405 -0.3678
  301MPD2    H7 4595   2.548   2.322   1.108  0.9551 -1.6862 -0.0881
  302TMC3    C1 4596   2.672   1.725   1.022 -0.3808 -0.1348  0.0476
  302TMC3    C2 4597   2.737   1.622   1.087  0.1409  1.0302  0.6282
  302TMC3    C3 4598   2.749   1.500   1.026 -0.0613 -0.5087 -0.1225
  302TMC3    C4 4599   2.590   1.702   0.914  0.1812  0.3611  0.2139
  302TMC3    C5 4600   2.593   1.573   0.866  0.4598  0.0289 -0.0556
  302TMC3    C6 4601   2.677   1.472   0.916 -0.1847 -0.3369 -0.2377
  302TMC3     C 4602   2.670   1.864   1.069 -0.8487  0.2834 -0.7438
  302TMC3     O 4603   2.583   1.928   1.016 -0.8259  0.1165 -0.4512
  302TMC3     H 4604   2.785   1.644   1.182  0.6990  1.7602  0.1774
  302TMC3    H1 4605   2.554   1.785   0.854  3.3077  1.1488 -0.5659
  302TMC3    H2 4606   2.672   1.370   0.880 -2.1172  0.8049 -3.1899
  302TMC3    C7 4607   2.498   1.531   0.760 -0.4403 -0.2416 -0.0683
  302TMC3    C8 4608   2.832   1.400   1.081  0.3174  0.3885 -0.1038
  302TMC3    O1 4609   2.484   1.420   0.720  0.3256  0.1349 -0.3714
  302TMC3    O2 4610   2.882   1.326   1.001 -0.4395  0.4106  0.2450
  303MPD2     C 4611   1.815   1.732  11.034 -0.2304  0.8035  0.2824
  303MPD2    C1 4612   1.888   1.615  11.046 -0.5449  0.5228 -0.0916
  303MPD2    C2 4613   1.984   1.587  10.951  0.9276 -0.0803  0.1103
  303MPD2    C3 4614   2.027   1.680  10.858 -0.0091  0.7485  0.3584
  303MPD2    C4 4615   1.962   1.803  10.852 -0.2500  0.3082 -0.0691
  303MPD2    C5 4616   1.849   1.822  10.935 -0.1980 -1.0881  0.0166
  303MPD2     H 4617   2.036   1.493  10.965 -1.2181 -1.2264  0.2599
  303MPD2    H1 4618   1.986   1.885  10.786 -1.2744  0.7995  0.1579
  303MPD2    H2 4619   1.728   1.761  11.092 -0.9818  0.5028 -0.7182
  303MPD2    H3 4620   1.802   1.919  10.924  0.6728 -0.6706 -0.0377
  303MPD2     N 4621   2.130   1.655  10.761  0.2889  0.1740 -0.1749
  303MPD2    H5 4622   2.142   1.720  10.684  1.3215 -0.3102 -0.4228
  303MPD2    N1 4623   1.871   1.528  11.160  0.2294  0.2616 -0.2515
  303MPD2    H7 4624   1.803   1.563  11.228 -1.3258 -1.4781 -0.8963
  304TMC3    C1 4625   1.878   1.331  11.296  0.2544 -0.1628 -0.5331
  304TMC3    C2 4626   1.877   1.197  11.292  0.3336 -0.1718  0.2655
  304TMC3    C3 4627   1.893   1.123  11.407  0.1833 -0.3694  0.1050
  304TMC3    C4 4628   1.918   1.392  11.414 -0.5537 -0.6581  0.1491
  304TMC3    C5 4629   1.950   1.319  11.518  0.1841 -0.5115 -0.1008
  304TMC3    C6 4630   1.927   1.184  11.526 -0.3297 -0.9345  0.1006
  304TMC3     C 4631   1.924   1.399  11.176 -0.3582  0.3855  0.3436
  304TMC3     O 4632   2.001   1.326  11.111 -0.3583  0.4342 -0.1007
  304TMC3     H 4633   1.876   1.148  11.196  1.0941  1.0589 -0.3694
  304TMC3    H1 4634   1.933   1.498  11.426 -0.0523 -0.7553  0.3782
  304TMC3    H2 4635   1.929   1.129  11.619  1.7935 -0.9990  0.0062
  304TMC3    C7 4636   2.076   1.351  11.580  0.0044 -0.0263 -0.0678
  304TMC3    C8 4637   1.955   0.996  11.397 -0.2341  0.1779  0.1652
  304TMC3    O1 4638   2.112   1.470  11.596 -0.5844  0.0411  0.7071
  304TMC3    O2 4639   2.065   0.992  11.457  0.0465  0.0648  0.8511
  305MPD2     C 4640   0.284   2.532  13.988 -0.3127  0.1107  0.6636
  305MPD2    C1 4641   0.418   2.563  13.951 -0.1395  0.3562  0.2429
  305MPD2    C2 4642   0.447   2.571  13.816 -0.7413  0.5686  0.1105
  305MPD2    C3 4643   0.346   2.556  13.723 -0.0179  0.5879  0.0436
  305MPD2    C4 4644   0.222   2.520  13.765  0.9018  0.8173 -0.1891
  305MPD2    C5 4645   0.186   2.510  13.895 -0.2251  1.3102  0.4962
  305MPD2     H 4646   0.550   2.585  13.786 -0.7902 -0.7346 -0.6975
  305MPD2    H1 4647   0.144   2.506  13.691 -0.1687 -0.7570  1.2305
  305MPD2    H2 4648   0.254   2.522  14.092 -0.3189 -1.9491  0.4655
  305MPD2    H3 4649   0.080   2.501  13.916 -0.3721  0.7855 -0.4450
  305MPD2     N 4650   0.362   2.546  13.584 -0.0054 -0.5760  0.4094
  305MPD2    H5 4651   0.283   2.517  13.528  0.6014 -0.5035 -0.4891
  305MPD2    N1 4652   0.513   2.557  14.061  0.0462  0.6097  0.3785
  305MPD2    H7 4653   0.487   2.522  14.152  0.0976  1.2896  0.6525
  306TMC3    C1 4654   0.715   2.558  14.179  0.4450 -0.0761  0.5980
  306TMC3    C2 4655   0.850   2.566  14.169  1.2171 -0.3068 -0.1762
  306TMC3    C3 4656   0.924   2.529  14.273  0.0119 -0.0596 -0.1679
  306TMC3    C4 4657   0.654   2.528  14.300 -0.1441  0.0866 -0.0423
  306TMC3    C5 4658   0.734   2.519  14.410 -0.3740 -0.3282 -0.0150
  306TMC3    C6 4659   0.871   2.513  14.400  0.2341  0.3491 -0.6670
  306TMC3     C 4660   0.646   2.586  14.051 -0.4705 -0.1983  0.0260
  306TMC3     O 4661   0.710   2.643  13.966 -0.8213  0.5898 -0.0773
  306TMC3     H 4662   0.902   2.583  14.075 -1.5192  3.7470 -0.9371
  306TMC3    H1 4663   0.547   2.526  14.316 -0.3433 -2.1915 -1.6874
  306TMC3    H2 4664   0.932   2.498  14.488 -1.0237 -2.5620 -0.2792
  306TMC3    C7 4665   0.669   2.479  14.533  0.0009 -0.2382  0.5194
  306TMC3    C8 4666   1.063   2.559  14.261  0.7852  0.3052  0.2656
  306TMC3    O1 4667   0.570   2.404  14.522  0.1953  0.2536 -0.0400
  306TMC3    O2 4668   1.089   2.661  14.199  0.1190  0.7241  0.0424
  307MPD2     C 4669   3.791   1.877   0.546 -0.1338 -0.3700  0.0544
  307MPD2    C1 4670   3.665   1.917   0.510  0.3895  0.1828  0.8097
  307MPD2    C2 4671   3.556   1.847   0.566 -0.5856  0.0470  0.1803
  307MPD2    C3 4672   3.576   1.739   0.650  0.5585  0.0232 -0.2369
  307MPD2    C4 4673   3.708   1.713   0.684 -0.6091 -0.4160  0.3359
  307MPD2    C5 4674   3.811   1.777   0.635  0.3783 -0.1108 -0.0589
  307MPD2     H 4675   3.454   1.875   0.540 -0.8160 -0.5440  0.4566
  307MPD2    H1 4676   3.736   1.637   0.756 -1.5250  0.6168  1.7958
  307MPD2    H2 4677   3.877   1.918   0.495 -1.9351  1.6337 -1.3657
  307MPD2    H3 4678   3.905   1.741   0.675  0.5868  0.5266  0.0246
  307MPD2     N 4679   3.467   1.677   0.715  0.2476  0.4850  0.0528
  307MPD2    H5 4680   3.374   1.716   0.705  0.0986  0.2914  0.6583
  307MPD2    N1 4681   3.639   2.016   0.412  0.3987  0.3363  0.2875
  307MPD2    H7 4682   3.542   2.015   0.381  0.9977 -0.2961 -1.5599
  308TMC3    C1 4683   3.158   1.424   0.781  0.1629 -0.0750  0.6759
  308TMC3    C2 4684   3.074   1.526   0.816  0.2783  0.9093 -0.1944
  308TMC3    C3 4685   3.129   1.641   0.873  0.4354  0.6145 -0.4171
  308TMC3    C4 4686   3.291   1.425   0.792 -0.5544 -0.1413  0.4418
  308TMC3    C5 4687   3.346   1.540   0.840  0.7510 -0.1711 -0.1452
  308TMC3    C6 4688   3.270   1.646   0.881  0.4283 -0.9388 -0.2099
  308TMC3     C 4689   3.105   1.320   0.693 -0.2232 -0.1903 -0.2261
  308TMC3     O 4690   3.169   1.304   0.585 -0.1311 -0.5028  0.0984
  308TMC3     H 4691   2.967   1.506   0.822  0.9080 -2.4180 -0.0199
  308TMC3    H1 4692   3.349   1.345   0.747  0.0196 -0.2919  1.4425
  308TMC3    H2 4693   3.310   1.739   0.919 -1.8120 -0.2105  0.3015
  308TMC3    C7 4694   3.478   1.569   0.798 -0.5429 -0.6703 -0.2846
  308TMC3    C8 4695   3.047   1.759   0.881 -0.0942 -0.1490 -0.3084
  308TMC3    O1 4696   3.569   1.493   0.825 -0.2472 -0.0613 -0.0531
  308TMC3    O2 4697   3.109   1.847   0.937 -0.2115 -0.2251  0.3052
  309MPD2     C 4698   2.652   1.453  17.392  0.2301 -0.1189  0.3052
  309MPD2    C1 4699   2.600   1.466  17.270 -0.6734  0.7993  0.0288
  309MPD2    C2 4700   2.475   1.423  17.237 -0.4617  0.3759 -0.2815
  309MPD2    C3 4701   2.384   1.408  17.339  0.0261 -0.0522  0.1660
  309MPD2    C4 4702   2.430   1.413  17.470  0.4686 -0.2601 -0.6070
  309MPD2    C5 4703   2.565   1.426  17.493  0.1238 -0.1259 -0.1232
  309MPD2     H 4704   2.454   1.406  17.132 -1.9057 -2.1607  0.4100
  309MPD2    H1 4705   2.362   1.400  17.554  1.6634  1.8487  0.7007
  309MPD2    H2 4706   2.756   1.473  17.416  0.0158  0.7089  0.5574
  309MPD2    H3 4707   2.609   1.426  17.591  0.5844 -0.1448 -0.3307
  309MPD2     N 4708   2.252   1.381  17.314  0.6006  0.2675 -0.0794
  309MPD2    H5 4709   2.190   1.363  17.392 -1.5848 -0.0454 -1.8915
  309MPD2    N1 4710   2.674   1.519  17.154  0.6992  0.1002  0.0296
  309MPD2    H7 4711   2.617   1.525  17.070 -0.1449  0.8905  0.6564
  310TMC3    C1 4712   2.856   1.573  17.017 -0.4339 -0.4352 -0.3319
  310TMC3    C2 4713   2.772   1.595  16.909  0.6389 -0.2496 -0.5037
  310TMC3    C3 4714   2.817   1.564  16.781  0.2068 -0.6211  0.0397
  310TMC3    C4 4715   2.986   1.525  17.006 -0.4889 -1.1292 -0.6005
  310TMC3    C5 4716   3.030   1.496  16.877  0.4602 -0.3560  0.0695
  310TMC3    C6 4717   2.951   1.522  16.765  0.8014 -0.1893  0.3293
  310TMC3     C 4718   2.806   1.566  17.156  0.0208 -0.0294  0.3362
  310TMC3     O 4719   2.882   1.573  17.252  0.2855 -0.0296  0.3833
  310TMC3     H 4720   2.668   1.617  16.932  1.3503  1.7287  0.8223
  310TMC3    H1 4721   3.043   1.503  17.096  0.0635  0.3906 -0.5905
  310TMC3    H2 4722   2.990   1.505  16.665  3.0991  1.2345  0.9799
  310TMC3    C7 4723   3.151   1.422  16.862 -0.8092 -0.1275 -0.5956
  310TMC3    C8 4724   2.741   1.585  16.662  0.4740 -0.6905  0.1427
  310TMC3    O1 4725   3.214   1.395  16.963  0.7584 -0.5366 -0.0049
  310TMC3    O2 4726   2.622   1.569  16.679  0.4963  0.3087 -0.2875
  311MPD2     C 4727   3.999   3.057  12.215  0.5428 -0.7782 -0.0629
  311MPD2    C1 4728   4.115   2.991  12.258 -0.2240  0.2217  0.4522
  311MPD2    C2 4729   4.109   2.864  12.313  0.5293  0.3321  0.3665
  311MPD2    C3 4730   3.984   2.796  12.326 -0.3855  0.3818 -0.0141
  311MPD2    C4 4731   3.871   2.867  12.284 -0.5456  0.0852 -0.7715
  311MPD2    C5 4732   3.883   2.989  12.224  0.0723  0.0246  0.5279
  311MPD2     H 4733   4.207   2.825  12.339  0.1734 -1.5202 -1.0140
  311MPD2    H1 4734   3.771   2.827  12.281 -0.2806 -0.7275  1.2243
  311MPD2    H2 4735   4.002   3.158  12.174  0.1915 -1.0587 -0.7720
  311MPD2    H3 4736   3.797   3.046  12.190 -0.7911 -2.2459 -1.0786
  311MPD2     N 4737   3.971   2.663  12.390  0.6006  0.4553  0.1147
  311MPD2    H5 4738   4.051   2.614  12.430  0.6433  0.3752 -0.0665
  311MPD2    N1 4739   4.244   3.055  12.264 -0.2089 -0.3340  0.4043
  311MPD2    H7 4740   4.326   2.998  12.281 -1.7360 -2.5834  0.1840
  312TMC3    C1 4741   3.886   2.466  12.471  0.3842 -0.1802  1.0075
  312TMC3    C2 4742   3.804   2.355  12.451  1.0551  0.0357 -0.2923
  312TMC3    C3 4743   3.795   2.264  12.547  0.1722  0.9047 -0.0657
  312TMC3    C4 4744   3.956   2.477  12.588  0.0788 -0.3353  0.8721
  312TMC3    C5 4745   3.944   2.388  12.683  0.4798 -0.6386  1.3694
  312TMC3    C6 4746   3.870   2.275  12.663 -0.1327 -0.2629 -0.1373
  312TMC3     C 4747   3.856   2.589  12.401  0.1706  0.2566 -0.7933
  312TMC3     O 4748   3.747   2.587  12.339 -0.0381 -0.2627  0.2167
  312TMC3     H 4749   3.744   2.341  12.362 -0.5357 -1.7865  1.0386
  312TMC3    H1 4750   4.019   2.563  12.608 -1.5096  0.3432  3.0413
  312TMC3    H2 4751   3.859   2.206  12.746  0.2636 -0.7869 -0.5243
  312TMC3    C7 4752   3.989   2.432  12.824 -0.4254  0.8284 -0.5688
  312TMC3    C8 4753   3.661   2.209  12.576 -0.5127  0.8096  0.1100
  312TMC3    O1 4754   4.044   2.538  12.843  0.3725  0.1387  0.4757
  312TMC3    O2 4755   3.654   2.129  12.666  0.2941 -0.5727  0.3160
  313MPD2     C 4756   4.122   2.019  10.761  0.6998 -0.2484 -0.0483
  313MPD2    C1 4757   4.061   2.040  10.634  0.3050 -0.0998 -0.5168
  313MPD2    C2 4758   4.100   1.954  10.525  0.1705  0.1007 -0.8120
  313MPD2    C3 4759   4.200   1.854  10.547 -0.2566  0.5467 -0.2622
  313MPD2    C4 4760   4.266   1.838  10.674  0.5580  0.4944 -0.2875
  313MPD2    C5 4761   4.223   1.922  10.769  0.3396  0.1673  0.9744
  313MPD2     H 4762   4.054   1.953  10.427 -1.3217 -1.6340 -0.0851
  313MPD2    H1 4763   4.349   1.770  10.688 -0.2233 -0.8533 -2.0932
  313MPD2    H2 4764   4.089   2.059  10.857 -0.2658 -2.2452  0.4528
  313MPD2    H3 4765   4.277   1.913  10.862 -1.9160 -1.2642  2.1496
  313MPD2     N 4766   4.216   1.764  10.438  0.0876  0.9242 -0.7082
  313MPD2    H5 4767   4.169   1.780  10.349 -1.0614 -1.1132 -0.4881
  313MPD2    N1 4768   3.968   2.144  10.602 -0.4443 -0.3404 -0.4405
  313MPD2    H7 4769   3.951   2.154  10.502  0.1789 -2.8947 -0.8075
  314TMC3    C1 4770   3.840   2.334  10.656  0.7952  0.2206  0.3037
  314TMC3    C2 4771   3.810   2.431  10.752 -0.7236 -0.1389  0.0196
  314TMC3    C3 4772   3.719   2.529  10.727  0.2636 -0.0312  0.1880
  314TMC3    C4 4773   3.764   2.329  10.542 -1.1794  0.1986 -0.5612
  314TMC3    C5 4774   3.688   2.440  10.509  0.7621  0.4161  1.1834
  314TMC3    C6 4775   3.672   2.538  10.597 -0.4052  0.1895 -0.3283
  314TMC3     C 4776   3.906   2.219  10.702  0.0438  0.2988  0.3518
  314TMC3     O 4777   3.912   2.213  10.823  0.0047 -0.0231  0.3203
  314TMC3     H 4778   3.871   2.435  10.841 -0.9270  0.5937  0.1258
  314TMC3    H1 4779   3.759   2.237  10.486 -0.5102 -0.8719  1.1496
  314TMC3    H2 4780   3.614   2.629  10.592  0.9522  1.1016  0.6164
  314TMC3    C7 4781   3.612   2.441  10.388  0.3208  0.3655  0.5338
  314TMC3    C8 4782   3.731   2.657  10.800  1.2194  0.7119 -0.2788
  314TMC3    O1 4783   3.514   2.507  10.379  0.1781 -0.0263  0.1766
  314TMC3    O2 4784   3.734   2.759  10.726 -0.5606  0.5672  0.6742
  315MPD2     C 4785   3.597   0.956   0.049  0.1469  0.0198  0.3542
  315MPD2    C1 4786   3.676   1.007   0.158  0.3502  0.3190 -1.0058
  315MPD2    C2 4787   3.711   1.141   0.151  0.0595  0.6744  0.2331
  315MPD2    C3 4788   3.682   1.222   0.044  0.6074 -0.1365 -0.5911
  315MPD2    C4 4789   3.626   1.162  17.670 -0.0155  0.9627  0.5900
  315MPD2    C5 4790   3.578   1.036  17.678  0.6079  0.1166 -0.0583
  315MPD2     H 4791   3.784   1.187   0.217  0.3199  0.0171  0.4064
  315MPD2    H1 4792   3.599   1.218  17.581  1.9699 -1.6527 -1.6839
  315MPD2    H2 4793   3.557   0.856   0.036 -0.3714  0.3278 -0.3914
  315MPD2    H3 4794   3.519   1.011  17.591 -1.4416 -1.4350  1.7700
  315MPD2     N 4795   3.752   1.340   0.033 -0.7655 -0.1439  0.1054
  315MPD2    H5 4796   3.800   1.371   0.118  0.0755 -1.0814 -0.0286
  315MPD2    N1 4797   3.729   0.929   0.261  0.0474 -0.5102 -0.4032
  315MPD2    H7 4798   3.779   0.982   0.331 -0.5864 -1.3387  0.6822
  316TMC3    C1 4799   3.868   1.516  17.664 -0.2570  0.1394 -0.0002
  316TMC3    C2 4800   3.967   1.507   0.016  0.7807 -0.0769 -0.1039
  316TMC3    C3 4801   4.067   1.597   0.019  0.0578 -0.4756  0.1028
  316TMC3    C4 4802   3.879   1.592  17.552  0.3551  0.6000 -0.0413
  316TMC3    C5 4803   3.994   1.670  17.553  0.0829  0.1838 -0.2814
  316TMC3    C6 4804   4.085   1.681  17.652  0.4961 -0.2524 -0.4025
  316TMC3     C 4805   3.772   1.413  17.648  0.5871  0.5855 -0.5234
  316TMC3     O 4806   3.713   1.400  17.538 -0.1403  0.2293 -0.1478
  316TMC3     H 4807   3.968   1.420   0.081  0.4825 -0.0024  0.0011
  316TMC3    H1 4808   3.828   1.569  17.459 -3.2016  2.1598  1.4792
  316TMC3    H2 4809   4.160   1.759  17.645  0.1705  0.1867  1.0203
  316TMC3    C7 4810   4.017   1.738  17.428 -0.2159  0.3552  0.4375
  316TMC3    C8 4811   4.164   1.586   0.123 -0.4413 -0.9122  0.7918
  316TMC3    O1 4812   4.133   1.767  17.399 -0.4184 -1.0802  0.0579
  316TMC3    O2 4813   4.237   1.686   0.138 -0.0273 -0.0550 -0.0160
  317MPD2     C 4814   0.815   4.390  13.242 -0.3937 -0.4347 -0.3288
  317MPD2    C1 4815   0.930   4.386  13.171 -0.2815 -0.2807 -0.6402
  317MPD2    C2 4816   1.020   4.301  13.228 -0.0235  0.3416 -0.0906
  317MPD2    C3 4817   0.988   4.220  13.333 -0.5299 -0.1733  1.3955
  317MPD2    C4 4818   0.861   4.216  13.387  0.3131 -0.7743 -0.5320
  317MPD2    C5 4819   0.779   4.302  13.341 -0.1797  0.1695  0.5630
  317MPD2     H 4820   1.117   4.293  13.182  1.0678  1.7507  1.9860
  317MPD2    H1 4821   0.824   4.148  13.463  1.9036  0.1355  1.0698
  317MPD2    H2 4822   0.734   4.454  13.209  0.5181  1.1150  0.4458
  317MPD2    H3 4823   0.680   4.313  13.384 -0.0783 -0.8761  1.0563
  317MPD2     N 4824   1.085   4.119  13.365  0.3460  0.2994 -0.1166
  317MPD2    H5 4825   1.165   4.101  13.305 -0.8642  0.1443 -1.6961
  317MPD2    N1 4826   0.961   4.473  13.061 -0.0778 -0.4776  0.1290
  317MPD2    H7 4827   1.056   4.456  13.029  0.3128  0.2950  0.8405
  318TMC3    C1 4828   1.169   3.912  13.450  0.5067 -0.3337 -0.4592
  318TMC3    C2 4829   1.110   3.788  13.475 -0.5583 -0.0884 -0.0420
  318TMC3    C3 4830   1.175   3.680  13.412 -0.2942  0.6481  0.0509
  318TMC3    C4 4831   1.289   3.929  13.398 -0.9581 -0.2560 -0.5996
  318TMC3    C5 4832   1.361   3.816  13.364 -0.3373  0.8721  0.8413
  318TMC3    C6 4833   1.305   3.688  13.364 -0.7266 -0.0398  0.1915
  318TMC3     C 4834   1.075   4.022  13.466 -0.2953  0.1657  0.7190
  318TMC3     O 4835   0.995   4.012  13.558  0.3997 -0.1251 -0.0395
  318TMC3     H 4836   1.008   3.780  13.509 -0.7537  0.6978 -0.4263
  318TMC3    H1 4837   1.333   4.026  13.379  0.6739 -0.7184  0.8041
  318TMC3    H2 4838   1.366   3.603  13.335  0.6111  0.6845  0.8607
  318TMC3    C7 4839   1.500   3.832  13.322 -0.3794 -0.2197 -0.8657
  318TMC3    C8 4840   1.098   3.585  13.337 -0.0553 -0.1325  0.0860
  318TMC3    O1 4841   1.533   3.942  13.280 -0.3090 -0.1097 -0.4822
  318TMC3    O2 4842   1.169   3.491  13.298 -0.0443  0.4229 -0.5063
  319MPD2     C 4843   1.892   1.003  16.855 -0.6112  0.1968  0.8728
  319MPD2    C1 4844   1.852   0.889  16.928 -1.2831 -0.3917 -0.2184
  319MPD2    C2 4845   1.755   0.804  16.874 -0.4543  0.9196 -0.4094
  319MPD2    C3 4846   1.697   0.829  16.753 -0.4773  0.1181 -0.1087
  319MPD2    C4 4847   1.745   0.932  16.680  0.3778 -0.7122  0.1559
  319MPD2    C5 4848   1.838   1.018  16.730 -0.7677  0.3067 -0.3763
  319MPD2     H 4849   1.723   0.725  16.941 -1.8444  0.1475 -1.9812
  319MPD2    H1 4850   1.694   0.950  16.586  2.9810  2.5379 -0.6369
  319MPD2    H2 4851   1.972   1.063  16.896  0.5189 -1.0415  0.4833
  319MPD2    H3 4852   1.866   1.104  16.670 -0.3369  0.4931  0.0880
  319MPD2     N 4853   1.599   0.752  16.692 -0.5686 -0.2621  0.4643
  319MPD2    H5 4854   1.556   0.782  16.605  0.3288  1.2320  0.5146
  319MPD2    N1 4855   1.899   0.862  17.058  0.1538  0.5331  0.2020
  319MPD2    H7 4856   1.884   0.769  17.096  1.1087  1.4216  2.7337
  320TMC3    C1 4857   1.458   0.580  16.659 -0.0353  0.5039  0.0211
  320TMC3    C2 4858   1.396   0.651  16.560 -0.2525 -0.3152  0.4017
  320TMC3    C3 4859   1.307   0.581  16.489  0.5668 -0.4579 -0.0200
  320TMC3    C4 4860   1.429   0.450  16.678 -0.4281  0.3014  0.0698
  320TMC3    C5 4861   1.348   0.382  16.592  0.0539 -0.1596 -0.0817
  320TMC3    C6 4862   1.281   0.445  16.494  0.6094  0.0102 -0.3876
  320TMC3     C 4863   1.554   0.640  16.746  0.0489  0.7716  0.3005
  320TMC3     O 4864   1.591   0.577  16.846  0.0679 -0.3521  0.5333
  320TMC3     H 4865   1.407   0.757  16.538 -0.7099 -0.6616 -1.4971
  320TMC3    H1 4866   1.497   0.403  16.748  1.2478  1.0526 -1.0592
  320TMC3    H2 4867   1.216   0.398  16.420 -0.0756 -0.6829  0.6584
  320TMC3    C7 4868   1.359   0.241  16.576 -0.3507  0.0916  0.3789
  320TMC3    C8 4869   1.245   0.655  16.379 -0.4434 -0.4824 -0.5458
  320TMC3    O1 4870   1.299   0.202  16.478  0.0716  0.4858  0.5185
  320TMC3    O2 4871   1.309   0.754  16.346  0.7557  0.3339  0.1429
  321TMC3    C1 4872   2.028   0.869  17.256  0.7688 -0.1011  0.3574
  321TMC3    C2 4873   1.955   0.765  17.316 -0.0526  0.4400 -0.0243
  321TMC3    C3 4874   1.978   0.722  17.442 -0.0453  0.2316  0.0389
  321TMC3    C4 4875   2.125   0.937  17.329 -0.0319 -0.1428  0.2658
  321TMC3    C5 4876   2.146   0.891  17.456  0.5264 -0.1781 -0.5358
  321TMC3    C6 4877   2.073   0.789  17.518 -0.9542 -0.3498 -0.3855
  321TMC3     C 4878   1.976   0.942  17.132 -0.1779 -0.4743  0.1596
  321TMC3     O 4879   2.019   1.057  17.111  0.0475  0.0470 -0.7834
  321TMC3     H 4880   1.870   0.723  17.261  0.3245  1.3463 -1.2926
  321TMC3    H1 4881   2.169   1.030  17.296  3.3734 -1.4547  1.1418
  321TMC3    H2 4882   2.100   0.762  17.619 -0.6217 -0.8565 -0.6118
  321TMC3    C7 4883   2.284   0.901  17.507  0.2885 -0.3189  0.7876
  321TMC3    C8 4884   2.000   0.576  17.444  0.3071 -1.2012  0.3043
  321TMC3    O1 4885   2.309   0.819  17.597  0.0411 -0.3753  0.0212
  321TMC3    O2 4886   1.927   0.506  17.376 -0.1377  0.1691 -0.0949
  322MPD2     C 4887   0.174   1.906  13.812 -0.5668  0.0352  0.1251
  322MPD2    C1 4888   0.247   1.823  13.898 -0.2636 -0.0430  0.5262
  322MPD2    C2 4889   0.251   1.690  13.872 -0.5038 -0.3490  0.5509
  322MPD2    C3 4890   0.193   1.638  13.772 -0.3242  0.3882  0.0261
  322MPD2    C4 4891   0.132   1.711  13.673 -0.0065  0.3403  1.3102
  322MPD2    C5 4892   0.117   1.850  13.701  0.9218 -0.8094  0.1762
  322MPD2     H 4893   0.307   1.627  13.940 -0.7723 -0.1711  0.9416
  322MPD2    H1 4894   0.093   1.674  13.579 -0.2864 -1.2622  2.0650
  322MPD2    H2 4895   0.162   2.011  13.831 -0.5452  0.2430 -0.9912
  322MPD2    H3 4896   0.068   1.912  13.627 -1.0177 -3.0502 -0.4208
  322MPD2     N 4897   0.209   1.501  13.762 -0.0838  0.0793 -0.5775
  322MPD2    H5 4898   0.256   1.461  13.843  2.2389  1.2545 -1.3352
  322MPD2    N1 4899   0.314   1.887  14.005 -0.0067  0.4812  0.2292
  322MPD2    H7 4900   0.314   1.988  14.004 -1.3613  0.4607 -0.6963
  323TMC3    C1 4901   0.455   1.905  14.194  0.2845  0.5664 -0.4182
  323TMC3    C2 4902   0.503   2.023  14.141  0.4991 -0.8521  0.0466
  323TMC3    C3 4903   0.601   2.084  14.223  0.3378  0.0748 -0.1593
  323TMC3    C4 4904   0.502   1.845  14.310 -0.6093  0.8217  0.2573
  323TMC3    C5 4905   0.599   1.908  14.385 -0.2586 -0.0634 -0.7931
  323TMC3    C6 4906   0.642   2.034  14.349  0.1733 -0.1514  0.1342
  323TMC3     C 4907   0.371   1.824  14.110 -0.2929 -0.0958 -0.2203
  323TMC3     O 4908   0.353   1.707  14.149  0.2320  0.4615  0.6263
  323TMC3     H 4909   0.473   2.065  14.046  1.8085 -0.6225 -0.2657
  323TMC3    H1 4910   0.472   1.746  14.342  1.6187  1.5563  4.5990
  323TMC3    H2 4911   0.717   2.093  14.400 -0.4760  0.8428 -0.0586
  323TMC3    C7 4912   0.710   1.830  14.430 -0.0494  0.7114 -0.2998
  323TMC3    C8 4913   0.687   2.185  14.168 -0.6030 -0.4913  0.4514
  323TMC3    O1 4914   0.717   1.714  14.389 -0.1098 -0.3090 -0.0633
  323TMC3    O2 4915   0.794   2.194  14.225 -0.4361 -0.2726  0.0609
  324MPD2     C 4916   2.339   2.642  14.255 -0.3622  0.7017  0.4524
  324MPD2    C1 4917   2.359   2.778  14.239  0.4554 -0.4217 -0.2986
  324MPD2    C2 4918   2.251   2.851  14.182 -0.4204 -0.3634 -0.2223
  324MPD2    C3 4919   2.130   2.786  14.150  0.0374  0.0841 -0.3311
  324MPD2    C4 4920   2.113   2.657  14.202 -0.7305  0.4143 -0.1722
  324MPD2    C5 4921   2.215   2.589  14.249  0.1105  0.7226  0.0499
  324MPD2     H 4922   2.262   2.957  14.165  0.5840 -0.0998  2.1875
  324MPD2    H1 4923   2.022   2.599  14.207  0.8492 -1.9932  0.5233
  324MPD2    H2 4924   2.416   2.572  14.286 -1.0237  0.0320  0.5801
  324MPD2    H3 4925   2.194   2.491  14.292 -0.3657  0.6504 -0.3369
  324MPD2     N 4926   2.024   2.838  14.070 -0.0414  0.2971 -0.2303
  324MPD2    H5 4927   1.943   2.777  14.056  0.9422 -0.7484 -1.3840
  324MPD2    N1 4928   2.482   2.849  14.263  0.5910 -0.2756  0.2519
  324MPD2    H7 4929   2.490   2.947  14.237  2.9809 -0.4087  0.4906
  325TMC3    C1 4930   1.917   3.008  13.937  0.2164  0.3998 -0.1192
  325TMC3    C2 4931   1.796   2.946  13.951 -0.4307 -0.3882  0.0137
  325TMC3    C3 4932   1.695   3.005  13.879 -0.3528 -0.1892 -0.4949
  325TMC3    C4 4933   1.932   3.123  13.856  0.5297  0.1988 -0.2047
  325TMC3    C5 4934   1.832   3.176  13.783  0.2340 -0.6686 -0.0975
  325TMC3    C6 4935   1.705   3.119  13.806  0.6252  0.7039 -0.4673
  325TMC3     C 4936   2.034   2.959  14.006  0.1459  0.1043 -0.2096
  325TMC3     O 4937   2.129   3.034  14.005 -0.5229  0.3743  0.5783
  325TMC3     H 4938   1.785   2.847  13.994 -1.3896  0.4447  1.6853
  325TMC3    H1 4939   2.017   3.188  13.873 -1.9029  3.3313 -0.0100
  325TMC3    H2 4940   1.625   3.169  13.753  0.2886 -0.3568 -0.9424
  325TMC3    C7 4941   1.829   3.325  13.774  0.6652 -0.3979  0.2401
  325TMC3    C8 4942   1.560   2.951  13.902 -0.2523  0.2632  0.2396
  325TMC3    O1 4943   1.903   3.377  13.695 -0.0205  0.3011  0.3619
  325TMC3    O2 4944   1.538   2.888  14.003 -0.4511 -0.2494 -0.9737
  326MPD2     C 4945   3.001   0.025  11.451 -0.2372 -0.1630 -1.0552
  326MPD2    C1 4946   3.004   0.077  11.324 -0.0555 -0.5618  0.4954
  326MPD2    C2 4947   3.080   0.188  11.296 -0.4659  0.2885  0.1306
  326MPD2    C3 4948   3.158   0.250  11.393 -0.4448  0.8097 -0.2037
  326MPD2    C4 4949   3.148   0.204  11.521 -0.5276 -0.1562  0.6694
  326MPD2    C5 4950   3.067   0.096  11.546  0.1769  0.0478 -0.1444
  326MPD2     H 4951   3.072   0.222  11.193 -0.2374 -2.7534 -0.9069
  326MPD2    H1 4952   3.187   0.254  11.609  0.6893  1.7615 -0.9326
  326MPD2    H2 4953   2.960   4.663  11.481 -1.7956  0.8571  0.1444
  326MPD2    H3 4954   3.045   0.064  11.647 -0.2879 -1.8424 -0.8545
  326MPD2     N 4955   3.239   0.370  11.372 -0.1431 -0.8519 -0.3191
  326MPD2    H5 4956   3.269   0.416  11.457  0.1628  2.7699 -2.3812
  326MPD2    N1 4957   2.931   0.022  11.219 -0.5275  0.4148  0.1414
  326MPD2    H7 4958   2.922   0.082  11.138  0.0570 -1.0596 -1.0189
  327TMC3    C1 4959   2.842   4.593  11.071  0.0870  0.0237  0.3899
  327TMC3    C2 4960   2.800   4.692  10.982  0.1465 -0.4232  0.3313
  327TMC3    C3 4961   2.808   4.655  10.853 -0.6765 -0.5808  0.4160
  327TMC3    C4 4962   2.910   4.480  11.038  0.0857  0.4198  0.4654
  327TMC3    C5 4963   2.932   4.466  10.904  0.5705 -0.0204 -0.2544
  327TMC3    C6 4964   2.877   4.543  10.810 -0.0650  0.2368  0.3677
  327TMC3     C 4965   2.868   4.631  11.211 -0.2053 -0.4050 -0.6757
  327TMC3     O 4966   2.868   4.544  11.297  0.4901  0.1710 -0.1348
  327TMC3     H 4967   2.763   0.051  11.023  0.6323 -0.7246  1.4394
  327TMC3    H1 4968   2.949   4.410  11.112  1.5990  1.0844  0.2970
  327TMC3    H2 4969   2.902   4.527  10.705  0.8836 -0.1239  0.6436
  327TMC3    C7 4970   3.013   4.356  10.853 -0.0021 -0.3838  0.0231
  327TMC3    C8 4971   2.768   0.018  10.757 -0.1625  0.4193  0.6112
  327TMC3    O1 4972   2.998   4.307  10.741  0.1035  0.2963  0.4717
  327TMC3    O2 4973   2.810   0.030  10.642  0.3734  0.7307  0.4415
  328MPD2     C 4974   1.639   4.499  17.167  0.0605  0.1860  0.2054
  328MPD2    C1 4975   1.585   4.380  17.203 -0.1861 -0.4600 -0.0256
  328MPD2    C2 4976   1.471   4.327  17.140  0.0296 -0.1822 -0.2936
  328MPD2    C3 4977   1.409   4.397  17.037  0.2357 -0.8637  0.0773
  328MPD2    C4 4978   1.459   4.524  17.002  0.2082  0.1191 -0.1368
  328MPD2    C5 4979   1.567   4.570  17.071 -0.0673 -0.5312 -0.3309
  328MPD2     H 4980   1.424   4.240  17.185 -0.1367 -0.4535 -0.9928
  328MPD2    H1 4981   1.400   4.582  16.932 -1.5182 -0.5354  0.7719
  328MPD2    H2 4982   1.727   4.547  17.207  1.0970 -2.7741  1.5302
  328MPD2    H3 4983   1.612   4.666  17.050 -1.7578 -0.1586 -2.2080
  328MPD2     N 4984   1.282   4.359  16.986 -0.4297  0.2958 -0.1100
  328MPD2    H5 4985   1.231   4.420  16.924 -3.2775  0.3926  2.3164
  328MPD2    N1 4986   1.644   4.324  17.315  0.1107  0.1843 -0.3407
  328MPD2    H7 4987   1.718   4.380  17.356 -0.3250  0.5577 -0.0726
  329TMC3    C1 4988   1.694   4.157  17.480  0.1019  0.2649 -0.5919
  329TMC3    C2 4989   1.773   4.247  17.545  0.1193 -0.1198  0.4276
  329TMC3    C3 4990   1.830   4.216  17.666 -0.1913 -0.1647  0.1959
  329TMC3    C4 4991   1.668   4.037  17.546  0.4169  0.4995 -0.7682
  329TMC3    C5 4992   1.730   4.007  17.668  0.0340  0.5776  0.1514
  329TMC3    C6 4993   1.801   4.099  17.737 -0.4892 -0.3594  0.0615
  329TMC3     C 4994   1.609   4.200  17.370  0.2932  0.3815  0.2185
  329TMC3     O 4995   1.533   4.114  17.324 -0.3667 -0.0448 -0.2305
  329TMC3     H 4996   1.800   4.344  17.504 -1.3855  0.3895  0.6491
  329TMC3    H1 4997   1.608   3.963  17.496 -0.5380  0.3435  0.5886
  329TMC3    H2 4998   1.847   4.080   0.096  0.1357 -2.4740 -0.6684
  329TMC3    C7 4999   1.641   3.927   0.019 -0.3309 -0.0890 -0.3228
  329TMC3    C8 5000   1.865   4.337  17.734 -0.0390 -0.3891  0.2696
  329TMC3    O1 5001   1.681   3.920   0.136  0.3236 -0.3940 -0.8668
  329TMC3    O2 5002   1.985   4.367   0.002  0.6517 -0.0615 -0.3077
  330TMC3    C1 5003   4.018   3.896   9.809 -0.3488  1.1635  0.3944
  330TMC3    C2 5004   4.013   3.815   9.703  0.4366 -0.2284  0.3624
  330TMC3    C3 5005   4.078   3.694   9.706 -0.0095 -0.4980  0.1107
  330TMC3    C4 5006   4.100   3.861   9.920 -0.6848  0.2337  0.6525
  330TMC3    C5 5007   4.163   3.739   9.917  0.0122 -0.1204  0.1070
  330TMC3    C6 5008   4.155   3.655   9.810  0.2169  0.2030  0.6671
  330TMC3     C 5009   3.950   4.024   9.814 -0.7441 -0.1115  0.0212
  330TMC3     O 5010   3.982   4.106   9.901 -0.3957  0.8450 -0.3506
  330TMC3     H 5011   3.957   3.836   9.613  1.8504 -0.8415 -0.6555
  330TMC3    H1 5012   4.110   3.930  10.003 -0.5966  1.8771 -0.7320
  330TMC3    H2 5013   4.218   3.568   9.794 -0.7630 -0.5177  0.7374
  330TMC3    C7 5014   4.224   3.688  10.040 -0.0426 -0.2683 -0.7030
  330TMC3    C8 5015   4.041   3.591   9.615  0.1370  0.7362 -0.6027
  330TMC3    O1 5016   4.229   3.566  10.048  0.5787 -0.0491  0.3343
  330TMC3    O2 5017   4.008   3.638   9.506 -0.1917  0.7903 -0.1610
  331MPD2     C 5018   2.256   3.007  12.418 -0.3095  0.0922 -0.6834
  331MPD2    C1 5019   2.122   2.982  12.455 -0.7810 -0.3200 -0.9640
  331MPD2    C2 5020   2.085   2.860  12.508  0.0466 -0.1838 -0.5843
  331MPD2    C3 5021   2.176   2.759  12.524  0.5536 -0.1369  0.7125
  331MPD2    C4 5022   2.313   2.778  12.485  0.1484  0.8312  0.3227
  331MPD2    C5 5023   2.344   2.906  12.442 -0.0936  0.4706  0.5570
  331MPD2     H 5024   1.981   2.834  12.526 -0.0379 -0.9789 -2.2710
  331MPD2    H1 5025   2.388   2.706  12.514  1.0307  1.8073  0.4509
  331MPD2    H2 5026   2.293   3.100  12.376 -0.5394  0.9112  0.9474
  331MPD2    H3 5027   2.445   2.927  12.411  0.2913  0.7785  2.0200
  331MPD2     N 5028   2.127   2.635  12.572 -0.0972  0.4641  0.1092
  331MPD2    H5 5029   2.029   2.625  12.594 -0.1499  2.6938  0.9443
  331MPD2    N1 5030   2.028   3.069  12.401  0.6687  0.1497  0.3180
  331MPD2    H7 5031   2.059   3.133  12.329  1.7293 -0.4736  0.2227
  332TMC3    C1 5032   2.110   2.418  12.564 -0.1419 -0.3370 -0.0920
  332TMC3    C2 5033   2.003   2.424  12.479 -0.0391 -0.2240  0.0814
  332TMC3    C3 5034   1.914   2.321  12.474  0.8415 -0.2691 -0.3118
  332TMC3    C4 5035   2.135   2.311  12.640  0.4262  0.8362  0.6438
  332TMC3    C5 5036   2.039   2.213  12.647 -1.0062  0.5141  0.3968
  332TMC3    C6 5037   1.929   2.208  12.558  0.1511  0.3287 -0.4720
  332TMC3     C 5038   2.205   2.521  12.566 -0.4437 -0.4538  0.0792
  332TMC3     O 5039   2.324   2.495  12.580  0.1313  0.2381 -0.4954
  332TMC3     H 5040   2.005   2.500  12.402 -4.0238  0.8198  1.0287
  332TMC3    H1 5041   2.214   2.331  12.711  0.4470 -0.9885  1.1239
  332TMC3    H2 5042   1.855   2.129  12.565 -0.7911  1.1577 -1.0776
  332TMC3    C7 5043   2.069   2.101  12.738  0.3233 -0.4886 -0.2393
  332TMC3    C8 5044   1.831   2.328  12.357 -0.0910  0.2323  0.2715
  332TMC3    O1 5045   1.975   2.029  12.778  0.1023  0.0410  0.3649
  332TMC3    O2 5046   1.844   2.419  12.276 -0.3132  0.4881 -0.3658
  333MPD2     C 5047   1.679   3.033  10.676  0.0900  0.0635  0.0385
  333MPD2    C1 5048   1.804   2.977  10.689 -0.5089  1.2902  0.0215
  333MPD2    C2 5049   1.822   2.858  10.754 -0.5248 -0.3315  0.3066
  333MPD2    C3 5050   1.711   2.794  10.800  0.0855  0.1148  0.0960
  333MPD2    C4 5051   1.586   2.852  10.786 -1.2700 -0.1205 -0.0008
  333MPD2    C5 5052   1.570   2.969  10.721  0.3750 -0.0004  1.3478
  333MPD2     H 5053   1.920   2.812  10.763 -1.1386 -1.3603  1.7177
  333MPD2    H1 5054   1.497   2.803  10.824  0.4129 -1.1696  2.5681
  333MPD2    H2 5055   1.658   3.133  10.639  1.7054  1.2208  2.1725
  333MPD2    H3 5056   1.471   3.012  10.715  0.5735  0.1861 -0.6576
  333MPD2     N 5057   1.730   2.673  10.866  0.4291 -0.5160 -0.5741
  333MPD2    H5 5058   1.825   2.655  10.897 -0.2140  0.3929  1.9590
  333MPD2    N1 5059   1.914   3.054  10.626  0.2935 -0.0836  0.2698
  333MPD2    H7 5060   1.890   3.149  10.599 -0.0383 -0.2057  0.1414
  334TMC3    C1 5061   2.132   3.115  10.579 -0.7724 -0.7506  0.2428
  334TMC3    C2 5062   2.247   3.082  10.514  1.0833  0.9885 -0.1414
  334TMC3    C3 5063   2.335   3.172  10.464  0.0643  0.0025 -0.2683
  334TMC3    C4 5064   2.101   3.246  10.599 -0.8815  0.1822 -0.0076
  334TMC3    C5 5065   2.189   3.340  10.547  0.2861  0.1257  0.0580
  334TMC3    C6 5066   2.313   3.307  10.484 -0.1835 -1.1436 -0.8003
  334TMC3     C 5067   2.040   3.010  10.618  0.1371  0.3017 -0.5014
  334TMC3     O 5068   2.098   2.902  10.633 -0.0357 -0.3182  0.1314
  334TMC3     H 5069   2.272   2.981  10.484  1.9467  1.1392  0.0817
  334TMC3    H1 5070   2.016   3.273  10.662 -0.5581  1.0171  0.0693
  334TMC3    H2 5071   2.386   3.386  10.471 -0.1975 -1.0554 -0.3463
  334TMC3    C7 5072   2.166   3.478  10.590  0.2066  0.5899 -0.5629
  334TMC3    C8 5073   2.427   3.131  10.363  0.1911 -0.0132  0.3391
  334TMC3    O1 5074   2.257   3.554  10.611  0.0023 -0.0354  0.2009
  334TMC3    O2 5075   2.388   3.035  10.295 -0.2125 -0.1026 -0.3684
  335TMC3    C1 5076   2.223   4.170   0.040  0.5340  0.1345  0.7505
  335TMC3    C2 5077   2.159   4.091  17.687 -0.4640  0.0239 -0.2444
  335TMC3    C3 5078   2.227   4.050  17.577  1.0701 -0.3751 -0.3851
  335TMC3    C4 5079   2.358   4.202   0.025 -0.0709  0.3582  0.6854
  335TMC3    C5 5080   2.425   4.150  17.655 -0.1383  0.3834  0.0457
  335TMC3    C6 5081   2.358   4.081  17.554  0.1813 -0.7431 -0.1181
  335TMC3     C 5082   2.158   4.174   0.171 -0.2316 -0.1625 -0.5534
  335TMC3     O 5083   2.094   4.073   0.190 -0.1540 -0.0803  0.1726
  335TMC3     H 5084   2.052   4.079  17.701 -0.3502 -1.7123 -0.8570
  335TMC3    H1 5085   2.415   4.263   0.095  1.7768 -1.0189  0.3681
  335TMC3    H2 5086   2.415   4.053  17.466 -1.4241 -0.6030 -1.2025
  335TMC3    C7 5087   2.567   4.172  17.639  0.3935 -0.1907 -0.1303
  335TMC3    C8 5088   2.150   4.012  17.463 -0.1508  0.3296 -0.3132
  335TMC3    O1 5089   2.603   4.156  17.522 -0.3431  0.3781  0.1004
  335TMC3    O2 5090   2.202   4.050  17.358 -0.0456  0.1356  0.2834
  336MPD2     C 5091   1.718   1.910  16.238  0.9307  0.2718  0.2579
  336MPD2    C1 5092   1.658   1.818  16.149 -0.4765  0.5025 -0.0555
  336MPD2    C2 5093   1.658   1.684  16.173 -0.1286 -0.3371 -0.1679
  336MPD2    C3 5094   1.709   1.638  16.289  0.9036  0.2273  0.8604
  336MPD2    C4 5095   1.770   1.719  16.383 -0.2670 -0.4890 -0.1182
  336MPD2    C5 5096   1.783   1.853  16.348 -0.3043  0.6374  0.5113
  336MPD2     H 5097   1.626   1.611  16.099 -2.7655  1.2462 -0.5833
  336MPD2    H1 5098   1.813   1.684  16.476  1.0821  0.2361 -0.4618
  336MPD2    H2 5099   1.721   2.016  16.216 -2.3520  0.4286  0.4518
  336MPD2    H3 5100   1.830   1.916  16.423 -1.8998  1.0554  1.1574
  336MPD2     N 5101   1.701   1.500  16.317 -0.6286  0.5430  0.1765
  336MPD2    H5 5102   1.705   1.475  16.415  1.5463  0.4487  0.0547
  336MPD2    N1 5103   1.612   1.854  16.019 -0.0956 -0.3645 -0.6358
  336MPD2    H7 5104   1.593   1.788  15.944  4.3167 -2.6896  0.2785
  337TMC3    C1 5105   1.498   1.977  15.856 -0.2930 -0.5741 -0.1998
  337TMC3    C2 5106   1.454   1.862  15.798 -0.4255  0.9220  0.7013
  337TMC3    C3 5107   1.369   1.872  15.693 -0.1946 -0.0136  0.0435
  337TMC3    C4 5108   1.473   2.100  15.799  0.2917 -0.4454 -0.0041
  337TMC3    C5 5109   1.384   2.107  15.697 -0.0102 -0.3075 -1.1207
  337TMC3    C6 5110   1.337   1.993  15.632 -0.2249 -0.5100  0.3577
  337TMC3     C 5111   1.579   1.982  15.976 -0.3802  0.1066 -0.5689
  337TMC3     O 5112   1.590   2.090  16.038 -0.6108 -0.6043  0.4848
  337TMC3     H 5113   1.488   1.765  15.830  0.3356  1.0811  0.3679
  337TMC3    H1 5114   1.520   2.190  15.837 -0.6010  0.1661 -0.3198
  337TMC3    H2 5115   1.267   1.998  15.549  0.9437  1.7936 -0.4998
  337TMC3    C7 5116   1.368   2.240  15.641 -0.3252 -0.3563 -0.0103
  337TMC3    C8 5117   1.296   1.746  15.663 -0.3887 -0.2018  0.5103
  337TMC3    O1 5118   1.444   2.324  15.691 -0.4897  0.4150 -0.6468
  337TMC3    O2 5119   1.305   1.656  15.745 -0.0948  0.1641 -0.1337
  338MPD2     C 5120   1.838   1.171   0.984  0.3786  0.1277  0.3619
  338MPD2    C1 5121   1.826   1.258   0.878  0.1238  0.0187 -0.3918
  338MPD2    C2 5122   1.705   1.302   0.851  0.8832 -0.0119 -0.7304
  338MPD2    C3 5123   1.594   1.258   0.920  0.2372 -0.3108  0.0913
  338MPD2    C4 5124   1.603   1.157   1.022 -0.1044  0.1293 -0.6489
  338MPD2    C5 5125   1.732   1.125   1.059 -0.5359  0.5735 -0.8819
  338MPD2     H 5126   1.694   1.368   0.765  1.3983  1.0831  0.0410
  338MPD2    H1 5127   1.519   1.125   1.082 -0.0341 -2.4116 -1.8852
  338MPD2    H2 5128   1.931   1.131   1.024  0.9066 -0.8904 -1.9005
  338MPD2    H3 5129   1.755   1.046   1.130 -0.8113  2.5927  1.4354
  338MPD2     N 5130   1.463   1.298   0.884 -0.1984  0.5088  0.3217
  338MPD2    H5 5131   1.389   1.246   0.930  0.9015  0.4156  1.9962
  338MPD2    N1 5132   1.925   1.298   0.787  0.4535  0.4887 -0.4872
  338MPD2    H7 5133   1.901   1.349   0.703 -0.0506 -0.2012 -0.7594
  339TMC3    C1 5134   1.319   1.368   0.705 -0.0595  0.2877  0.1792
  339TMC3    C2 5135   1.292   1.236   0.672  0.7138 -0.4402 -0.2245
  339TMC3    C3 5136   1.262   1.206   0.539 -0.3182  0.2095  0.0575
  339TMC3    C4 5137   1.284   1.468   0.615  0.5813  0.2786  0.8087
  339TMC3    C5 5138   1.263   1.436   0.487  0.0841  0.2022  0.3966
  339TMC3    C6 5139   1.262   1.303   0.447  0.0176 -0.4032  0.3389
  339TMC3     C 5140   1.442   1.387   0.782 -0.4599 -0.1275 -0.4631
  339TMC3     O 5141   1.501   1.488   0.759  0.1743 -0.4832  0.4430
  339TMC3     H 5142   1.289   1.160   0.749  2.0200  0.5113  0.7589
  339TMC3    H1 5143   1.311   1.566   0.652 -0.3013  0.3493  1.2533
  339TMC3    H2 5144   1.262   1.277   0.342 -0.4827  1.8351 -0.2160
  339TMC3    C7 5145   1.300   1.542   0.397  0.0269 -0.2791  0.1827
  339TMC3    C8 5146   1.282   1.067   0.495 -0.8249  0.1126 -0.1038
  339TMC3    O1 5147   1.367   1.635   0.435  0.7288  0.0380 -0.2049
  339TMC3    O2 5148   1.319   1.047   0.382 -0.3067 -0.1780  0.0340
  340MPD2     C 5149   1.970   3.347  10.181 -0.2449  0.0676 -0.4114
  340MPD2    C1 5150   2.103   3.317  10.157 -0.2522  0.3192 -0.2582
  340MPD2    C2 5151   2.196   3.415  10.194 -0.4002  0.0217 -0.2451
  340MPD2    C3 5152   2.155   3.537  10.240  0.0735  0.1443  0.1700
  340MPD2    C4 5153   2.020   3.563  10.259  0.4077  0.0770 -0.3314
  340MPD2    C5 5154   1.928   3.465  10.225  0.3837  1.0813 -0.2634
  340MPD2     H 5155   2.300   3.391  10.176 -0.5435 -2.3987  2.1120
  340MPD2    H1 5156   1.986   3.657  10.300 -1.6382 -1.1737  0.8395
  340MPD2    H2 5157   1.901   3.265  10.163  1.3679 -1.6876  1.2902
  340MPD2    H3 5158   1.823   3.492  10.234 -0.1607  0.0199 -3.2937
  340MPD2     N 5159   2.247   3.634  10.289 -0.0362 -0.2548  0.8274
  340MPD2    H5 5160   2.218   3.720  10.334 -0.9756 -0.0566 -0.1388
  340MPD2    N1 5161   2.132   3.195  10.092  0.1453 -0.1973  0.2986
  340MPD2    H7 5162   2.056   3.128  10.086 -0.6506  0.6610  0.7769
  341TMC3    C1 5163   2.278   3.031   9.997 -0.7723  0.5643 -0.0157
  341TMC3    C2 5164   2.200   2.927  10.040  0.0439 -0.7165  0.2537
  341TMC3    C3 5165   2.227   2.800  10.006  0.4854  0.4861 -0.0200
  341TMC3    C4 5166   2.400   3.008   9.935  0.3195 -0.2774  0.0215
  341TMC3    C5 5167   2.417   2.876   9.906  0.0137  0.0894 -0.4553
  341TMC3    C6 5168   2.338   2.771   9.946  0.1829  0.5028  0.0610
  341TMC3     C 5169   2.250   3.172  10.028  0.2251  0.5994 -0.7009
  341TMC3     O 5170   2.340   3.251  10.000 -0.4347 -0.8016 -0.3368
  341TMC3     H 5171   2.109   2.940  10.098  0.5672 -0.2562  0.9650
  341TMC3    H1 5172   2.455   3.095   9.901  0.5615  0.4121  2.1513
  341TMC3    H2 5173   2.361   2.672   9.908 -1.5557 -0.1625  0.7688
  341TMC3    C7 5174   2.513   2.851   9.794  0.1796 -0.5690 -0.4616
  341TMC3    C8 5175   2.142   2.685  10.049  0.4582 -0.0418  0.0584
  341TMC3    O1 5176   2.576   2.948   9.755  0.1104 -0.5334 -0.3776
  341TMC3    O2 5177   2.198   2.577  10.032  0.0543 -0.5544  0.2147
  342MPD2     C 5178   4.573   2.383   0.029 -0.2416 -0.1031 -0.0865
  342MPD2    C1 5179   4.694   2.391  17.703  0.4080 -0.2873 -0.3861
  342MPD2    C2 5180   0.031   2.508  17.710  0.3604 -0.1684  0.3379
  342MPD2    C3 5181   4.712   2.618   0.038 -0.1116  0.4693  0.0561
  342MPD2    C4 5182   4.590   2.612   0.098  0.0472  0.0031 -0.6671
  342MPD2    C5 5183   4.524   2.496   0.093 -0.1443 -0.4083  0.2404
  342MPD2     H 5184   0.124   2.513  17.655 -0.2063 -2.1178 -0.7929
  342MPD2    H1 5185   4.549   2.702   0.141  2.3485  0.1541  1.1871
  342MPD2    H2 5186   4.504   2.299   0.031  0.1154 -0.3119  3.4277
  342MPD2    H3 5187   4.424   2.495   0.136  0.1874 -2.1299  0.9815
  342MPD2     N 5188   0.049   2.746   0.044 -0.4784  0.5087 -0.7343
  342MPD2    H5 5189   0.011   2.823   0.097 -0.9469 -1.1436  1.3371
  342MPD2    N1 5190   0.013   2.293  17.616  0.9406 -0.0297 -0.4010
  342MPD2    H7 5191   0.103   2.315  17.575  0.3800 -0.2241 -1.7423
  343TMC3    C1 5192   0.015   2.074  17.515  0.0328  0.6861  0.2318
  343TMC3    C2 5193   0.078   2.129  17.408 -0.3075  0.4851 -0.4686
  343TMC3    C3 5194   0.112   2.036  17.309  0.3664  0.4970 -0.1354
  343TMC3    C4 5195   4.701   1.943  17.512  0.2946 -0.4645  0.0247
  343TMC3    C5 5196   4.729   1.863  17.405  0.1451  0.5044 -0.0969
  343TMC3    C6 5197   0.066   1.909  17.301 -0.2291  0.0361 -0.6648
  343TMC3     C 5198   4.690   2.165  17.607 -0.2587  0.2023 -0.4420
  343TMC3     O 5199   4.586   2.132  17.666 -0.2079  0.0651 -0.3357
  343TMC3     H 5200   0.094   2.235  17.391  0.1605  0.3353 -0.9616
  343TMC3    H1 5201   4.643   1.907  17.596  1.2155  1.2499  1.3874
  343TMC3    H2 5202   0.092   1.840  17.221 -2.7409 -1.7585  0.0697
  343TMC3    C7 5203   4.709   1.718  17.421 -0.2241  0.5112 -0.4487
  343TMC3    C8 5204   0.210   2.093  17.220  0.3662 -0.4671 -0.0980
  343TMC3    O1 5205   0.019   1.642  17.336  0.5147 -0.0812 -0.4292
  343TMC3    O2 5206   0.266   2.196  17.260 -0.5122 -0.5869 -0.0854
  344MPD2     C 5207   0.182   2.080  11.296  0.3278 -0.6385  0.2545
  344MPD2    C1 5208   0.207   2.019  11.177 -0.1939 -1.0238 -0.3782
  344MPD2    C2 5209   0.226   2.098  11.064  0.0962 -0.5412 -0.5210
  344MPD2    C3 5210   0.228   2.235  11.077 -0.2972 -0.1741  0.1554
  344MPD2    C4 5211   0.202   2.296  11.201  0.1363  0.8116 -1.3520
  344MPD2    C5 5212   0.178   2.216  11.307 -0.3067  0.3932  0.2641
  344MPD2     H 5213   0.232   2.050  10.967  1.8069 -1.7893  0.2173
  344MPD2    H1 5214   0.190   2.403  11.212 -1.9025  0.2908  1.5619
  344MPD2    H2 5215   0.160   2.023  11.386  1.7261 -1.5985 -0.0227
  344MPD2    H3 5216   0.148   2.259  11.402 -1.1979  0.6537 -0.1339
  344MPD2     N 5217   0.246   2.332  10.978  0.0561 -0.0481 -0.5039
  344MPD2    H5 5218   0.258   2.425  11.015 -0.3182  0.1210 -0.8126
  344MPD2    N1 5219   0.213   1.872  11.174  0.1358  0.3781 -0.5350
  344MPD2    H7 5220   0.221   1.823  11.085 -0.4142 -1.9119  0.6500
  345TMC3    C1 5221   0.336   2.426  10.775 -0.1719  0.2284 -0.1123
  345TMC3    C2 5222   0.403   2.518  10.850  0.9340 -0.4441  0.2813
  345TMC3    C3 5223   0.410   2.644  10.806  0.4569  0.5619 -0.2261
  345TMC3    C4 5224   0.283   2.455  10.652 -0.2209  0.4205 -0.2485
  345TMC3    C5 5225   0.284   2.587  10.613 -0.0068 -0.2836 -0.2254
  345TMC3    C6 5226   0.350   2.684  10.690 -0.6678  0.5312  0.3009
  345TMC3     C 5227   0.277   2.308  10.844 -0.0056  0.3031 -0.3090
  345TMC3     O 5228   0.250   2.208  10.785  0.0787 -0.8111 -0.4005
  345TMC3     H 5229   0.451   2.487  10.942  0.8828 -0.4980  0.2896
  345TMC3    H1 5230   0.228   2.382  10.593  0.6972  1.4821 -2.4298
  345TMC3    H2 5231   0.361   2.784  10.650 -2.1623 -0.0520 -1.6037
  345TMC3    C7 5232   0.291   2.626  10.471  0.0102 -0.1440  0.5492
  345TMC3    C8 5233   0.501   2.734  10.870 -0.3295 -0.3932 -0.2525
  345TMC3    O1 5234   0.348   2.732  10.442  0.3387  0.0243 -0.4390
  345TMC3    O2 5235   0.552   2.702  10.974 -0.0292 -0.7461 -0.6000
  346MPD2     C 5236   1.007   3.232  14.193 -0.3309  0.2199 -0.2745
  346MPD2    C1 5237   1.097   3.284  14.110 -0.3789  0.8635 -0.4569
  346MPD2    C2 5238   1.178   3.381  14.156  1.0798 -0.1742  0.0915
  346MPD2    C3 5239   1.152   3.439  14.282 -0.5589 -0.3168  0.1096
  346MPD2    C4 5240   1.041   3.398  14.358 -0.1838  0.1913 -0.4441
  346MPD2    C5 5241   0.964   3.291  14.309  0.0214 -0.3239 -0.2725
  346MPD2     H 5242   1.265   3.412  14.100  0.7380 -0.9262 -0.8675
  346MPD2    H1 5243   1.021   3.433  14.458  1.3278  0.5938 -0.2743
  346MPD2    H2 5244   0.958   3.138  14.171 -3.0670  1.6820 -0.4879
  346MPD2    H3 5245   0.873   3.260  14.359  0.8565  2.3736  2.9136
  346MPD2     N 5246   1.233   3.544  14.325  0.0777 -0.0749  0.1123
  346MPD2    H5 5247   1.303   3.577  14.259  0.0557 -0.7999 -0.2738
  346MPD2    N1 5248   1.131   3.233  13.981 -0.4903 -0.5246  0.1426
  346MPD2    H7 5249   1.216   3.276  13.945 -1.5160  2.2025  0.9865
  347TMC3    C1 5250   1.327   3.709  14.462 -0.3998 -0.0782 -0.0215
  347TMC3    C2 5251   1.393   3.755  14.352  0.4487  0.3803  0.1601
  347TMC3    C3 5252   1.518   3.807  14.373 -0.0136 -0.6656  0.0797
  347TMC3    C4 5253   1.383   3.724  14.585  0.4962 -0.4927  0.3923
  347TMC3    C5 5254   1.509   3.779  14.601 -0.1631  0.2418 -0.1624
  347TMC3    C6 5255   1.576   3.832  14.491  0.8271  0.3551 -0.0353
  347TMC3     C 5256   1.221   3.612  14.447 -0.5106  1.2480  0.8216
  347TMC3     O 5257   1.154   3.588  14.550 -0.3073 -0.4679  0.2648
  347TMC3     H 5258   1.350   3.748  14.252 -0.0516  0.8239  0.3430
  347TMC3    H1 5259   1.328   3.674  14.664 -0.8449 -1.1921 -0.9948
  347TMC3    H2 5260   1.676   3.874  14.487  0.3680  1.5211  0.7062
  347TMC3    C7 5261   1.593   3.761  14.717  0.6378  0.3000 -0.3501
  347TMC3    C8 5262   1.600   3.824  14.253  0.4952  0.4664 -0.2731
  347TMC3    O1 5263   1.692   3.835  14.732 -0.2437  0.0367  0.2952
  347TMC3    O2 5264   1.642   3.935  14.231 -0.2369 -0.0875 -0.2006
  348MPD2     C 5265   4.390   3.857  11.863 -0.6356 -0.4710 -0.2047
  348MPD2    C1 5266   4.305   3.805  11.759 -0.6077  0.5560  0.6787
  348MPD2    C2 5267   4.279   3.879  11.648 -0.3145  0.4545  0.2631
  348MPD2    C3 5268   4.326   4.005  11.636  0.3484 -0.4082 -0.2444
  348MPD2    C4 5269   4.398   4.065  11.743  0.3520  0.5809 -0.4990
  348MPD2    C5 5270   4.426   3.989  11.857  0.2703  0.3198  1.1111
  348MPD2     H 5271   4.224   3.838  11.565  0.2922  2.2936 -1.0336
  348MPD2    H1 5272   4.426   4.170  11.745 -1.4742  1.0481  1.5256
  348MPD2    H2 5273   4.415   3.797  11.950 -1.3303  0.2658  0.5110
  348MPD2    H3 5274   4.480   4.039  11.936  2.6439  0.4489 -0.5864
  348MPD2     N 5275   4.309   4.067  11.510 -0.2351  0.1061 -0.2777
  348MPD2    H5 5276   4.272   4.011  11.434 -0.4921  1.9280 -1.4974
  348MPD2    N1 5277   4.247   3.679  11.765  0.4364 -0.8962 -0.0217
  348MPD2    H7 5278   4.197   3.653  11.681 -1.5399  0.3188  0.7719
  349TMC3    C1 5279   4.184   3.463  11.833  0.1989 -0.1268  0.0360
  349TMC3    C2 5280   4.253   3.355  11.875  0.3697 -0.3033  0.9456
  349TMC3    C3 5281   4.238   3.244  11.802  0.4909 -0.2950  0.2598
  349TMC3    C4 5282   4.086   3.461  11.738  0.3590 -0.4122  0.2473
  349TMC3    C5 5283   4.060   3.336  11.689 -0.7638 -0.1780  0.3153
  349TMC3    C6 5284   4.142   3.231  11.704  0.2104  0.8934  0.1554
  349TMC3     C 5285   4.249   3.589  11.869  0.4136 -0.1374  0.0969
  349TMC3     O 5286   4.315   3.597  11.975  0.1232  0.2008  0.0181
  349TMC3     H 5287   4.334   3.351  11.947 -0.0524  0.9519  1.4878
  349TMC3    H1 5288   4.025   3.550  11.735  1.5978  0.3733 -1.7595
  349TMC3    H2 5289   4.132   3.134  11.656  0.7094 -0.1918  2.2115
  349TMC3    C7 5290   3.965   3.321  11.588 -0.0703  0.2500 -0.5165
  349TMC3    C8 5291   4.329   3.132  11.821  0.1876 -1.3585 -0.2557
  349TMC3    O1 5292   3.910   3.211  11.579  0.1066  0.0857 -0.0541
  349TMC3    O2 5293   4.402   3.133  11.921 -0.0786 -0.1633 -0.3644
  350MPD2     C 5294   3.552   1.888  10.308  0.3503 -0.9771  0.1866
  350MPD2    C1 5295   3.527   1.767  10.255 -0.1583  0.0688 -0.4569
  350MPD2    C2 5296   3.628   1.700  10.190  0.4024  0.1386 -0.0796
  350MPD2    C3 5297   3.751   1.752  10.180 -0.6204 -0.0941  0.0625
  350MPD2    C4 5298   3.772   1.881  10.231 -0.0909  0.5224  0.4629
  350MPD2    C5 5299   3.675   1.946  10.299  0.3652  0.0538 -0.1925
  350MPD2     H 5300   3.608   1.597  10.165 -0.3309  0.2528  0.0175
  350MPD2    H1 5301   3.867   1.932  10.243  1.1425 -0.9398 -2.9469
  350MPD2    H2 5302   3.472   1.944  10.355  1.2209  0.0347  0.4508
  350MPD2    H3 5303   3.685   2.045  10.343  0.9261  1.8601 -4.3400
  350MPD2     N 5304   3.859   1.670  10.137 -0.0122  0.4997  0.0628
  350MPD2    H5 5305   3.830   1.582  10.096 -0.7138 -0.1207  1.8691
  350MPD2    N1 5306   3.398   1.704  10.246 -0.5942 -0.6043  0.4936
  350MPD2    H7 5307   3.390   1.611  10.205  1.0444 -0.5199 -0.0253
  351TMC3    C1 5308   3.185   1.633  10.295 -0.4504  0.1559  0.6178
  351TMC3    C2 5309   3.199   1.510  10.225 -0.2186  0.3946  0.1139
  351TMC3    C3 5310   3.115   1.405  10.253  0.0002 -0.0098 -0.4289
  351TMC3    C4 5311   3.071   1.650  10.367 -0.7194  0.0180  0.6417
  351TMC3    C5 5312   2.987   1.539  10.391 -0.0492  0.0026  0.7475
  351TMC3    C6 5313   3.014   1.412  10.347  0.0600  0.6709 -0.8349
  351TMC3     C 5314   3.286   1.736  10.319 -0.0387  0.1491 -0.3893
  351TMC3     O 5315   3.247   1.844  10.371 -0.3405  0.1012  0.1166
  351TMC3     H 5316   3.287   1.492  10.164  1.0638 -2.9834  3.0080
  351TMC3    H1 5317   3.056   1.750  10.406  1.6347  1.2133 -1.5408
  351TMC3    H2 5318   2.961   1.322  10.377 -1.9108  2.0605 -0.1568
  351TMC3    C7 5319   2.901   1.541  10.506 -0.1418 -0.3264  0.8533
  351TMC3    C8 5320   3.166   1.277  10.206  0.1283 -0.4601 -0.3464
  351TMC3    O1 5321   2.808   1.458  10.513 -0.8408 -0.1657 -0.4902
  351TMC3    O2 5322   3.224   1.271  10.098  0.9024  0.1865 -0.1396
  352MPD2     C 5323   2.337   3.314   0.917  0.2838 -0.8419 -0.2462
  352MPD2    C1 5324   2.237   3.250   0.986  0.9704 -0.2991  0.5473
  352MPD2    C2 5325   2.255   3.119   1.026 -0.1974  0.0603 -0.5688
  352MPD2    C3 5326   2.368   3.046   0.989  0.7077  0.9688  0.4245
  352MPD2    C4 5327   2.465   3.109   0.920 -0.5272 -0.7234 -0.0851
  352MPD2    C5 5328   2.448   3.237   0.873 -0.1769  0.2248  0.1615
  352MPD2     H 5329   2.180   3.061   1.080  0.6725  0.5322  1.1566
  352MPD2    H1 5330   2.556   3.057   0.895  0.8131  2.7054 -2.5104
  352MPD2    H2 5331   2.337   3.416   0.881 -0.8478  0.2415  2.8349
  352MPD2    H3 5332   2.512   3.287   0.801  0.1592  1.5937  1.4002
  352MPD2     N 5333   2.390   2.914   1.038 -0.0165 -0.3373 -0.0641
  352MPD2    H5 5334   2.476   2.869   1.007  1.3144  2.2775 -0.1385
  352MPD2    N1 5335   2.127   3.325   1.028 -0.1336 -0.5715  0.6407
  352MPD2    H7 5336   2.123   3.413   0.977  2.5778  0.0577  1.5080
  353TMC3    C1 5337   2.355   2.698   1.109  0.3071 -0.2156  0.4605
  353TMC3    C2 5338   2.489   2.677   1.094 -0.3736 -0.1588 -0.1131
  353TMC3    C3 5339   2.523   2.548   1.060 -0.6027 -0.1151  0.2100
  353TMC3    C4 5340   2.258   2.608   1.087  0.1822 -0.1466  0.8340
  353TMC3    C5 5341   2.297   2.484   1.050 -0.6146 -0.2267  0.2484
  353TMC3    C6 5342   2.426   2.456   1.018 -0.3457 -0.1968 -0.4713
  353TMC3     C 5343   2.307   2.835   1.107  0.6925 -0.5785  0.0731
  353TMC3     O 5344   2.201   2.866   1.161 -0.0118 -0.0821  0.3468
  353TMC3     H 5345   2.559   2.757   1.113  1.6556 -3.1014  4.7601
  353TMC3    H1 5346   2.153   2.636   1.096 -0.0330 -0.8211  0.4382
  353TMC3    H2 5347   2.449   2.355   0.987 -2.1580 -0.3075 -1.4603
  353TMC3    C7 5348   2.203   2.371   1.032  0.6016 -0.3708 -0.4447
  353TMC3    C8 5349   2.656   2.496   1.098  0.0841  0.3281 -0.2026
  353TMC3    O1 5350   2.227   2.277   0.958  0.0261 -0.0031 -0.4867
  353TMC3    O2 5351   2.750   2.575   1.118  0.1086 -0.3674 -0.1817
  354TMC3    C1 5352   3.790   3.920  13.426  0.3843 -0.4394 -0.1637
  354TMC3    C2 5353   3.690   4.013  13.405  0.7933 -0.1358  0.3257
  354TMC3    C3 5354   3.676   4.078  13.283 -0.3512  0.2576  0.3221
  354TMC3    C4 5355   3.896   3.908  13.331  0.6450 -0.2402 -0.2937
  354TMC3    C5 5356   3.883   3.983  13.218  0.0245  0.5416 -0.0308
  354TMC3    C6 5357   3.767   4.050  13.191  0.3881 -0.7083 -0.6174
  354TMC3     C 5358   3.765   3.820  13.526  0.2164  0.9682 -0.0275
  354TMC3     O 5359   3.650   3.820  13.570 -0.2390  0.3828 -0.4783
  354TMC3     H 5360   3.614   4.035  13.478 -0.1094  0.0264 -0.6533
  354TMC3    H1 5361   3.988   3.853  13.349  0.3715 -0.0304  1.7020
  354TMC3    H2 5362   3.763   4.089  13.089  2.0393 -3.6881 -1.8124
  354TMC3    C7 5363   4.000   4.032  13.158  0.2840 -0.3403  0.1152
  354TMC3    C8 5364   3.657   4.221  13.289 -0.3843 -0.2099 -0.2014
  354TMC3    O1 5365   4.099   3.963  13.163  0.1940 -0.1325  0.5893
  354TMC3    O2 5366   3.738   4.280  13.216  0.1074  0.0819 -0.3153
  355MPD2     C 5367   4.157   0.311  12.432 -1.0924  0.0769 -0.7075
  355MPD2    C1 5368   4.215   0.315  12.304  0.0445  0.1308  0.2554
  355MPD2    C2 5369   4.282   0.204  12.255 -0.8323 -0.5314  0.2442
  355MPD2    C3 5370   4.294   0.089  12.340  0.5534  0.2993  1.1687
  355MPD2    C4 5371   4.221   0.087  12.458  0.0668 -0.9741 -0.2200
  355MPD2    C5 5372   4.170   0.202  12.512  0.4848  0.3834  0.0121
  355MPD2     H 5373   4.328   0.185  12.159  0.1612  0.3690  0.5506
  355MPD2    H1 5374   4.228   4.734  12.521  0.4977 -0.5808  0.2779
  355MPD2    H2 5375   4.107   0.396  12.475 -0.9884 -0.8853  1.2982
  355MPD2    H3 5376   4.127   0.213  12.610 -0.5413  1.6460 -0.5807
  355MPD2     N 5377   4.382   4.707  12.314 -0.0159  0.6413  0.0343
  355MPD2    H5 5378   4.352   4.622  12.360  1.3665  0.3257  0.3351
  355MPD2    N1 5379   4.219   0.436  12.231  0.6820  0.3329  0.0068
  355MPD2    H7 5380   4.182   0.521  12.274 -0.3023 -0.2580  0.3161
  356TMC3    C1 5381   4.560   0.101  12.221 -0.0309  0.3065  0.4524
  356TMC3    C2 5382   4.576   0.156  12.095  0.4746 -1.1195 -0.1624
  356TMC3    C3 5383   4.618   0.293  12.090  0.4436  0.4188  0.0603
  356TMC3    C4 5384   4.576   0.172  12.335 -0.3879 -0.5671 -0.2721
  356TMC3    C5 5385   4.628   0.301  12.331 -0.3515  0.1756 -0.4995
  356TMC3    C6 5386   4.645   0.360  12.206 -0.3589  0.6982  0.5861
  356TMC3     C 5387   4.489   4.705  12.227  1.4697  0.3131  0.2789
  356TMC3     O 5388   4.557   4.606  12.198 -0.5790 -0.4735 -0.1957
  356TMC3     H 5389   4.533   0.107  12.009  1.4606 -0.4642 -1.0193
  356TMC3    H1 5390   4.559   0.119  12.428 -0.3745 -0.3226 -0.1302
  356TMC3    H2 5391   4.680   0.462  12.199  1.6791  0.1067  2.0317
  356TMC3    C7 5392   4.616   0.382  12.447 -0.8512  0.1607  0.6928
  356TMC3    C8 5393   4.640   0.353  11.961 -0.4312  1.1075  0.4306
  356TMC3    O1 5394   4.608   0.333  12.558 -0.3211 -0.1017  0.5486
  356TMC3    O2 5395   4.597   0.299  11.861 -0.4815  0.5222 -0.2797
  357MPD2     C 5396   2.897   0.043   1.300 -0.8374  0.2578  0.5644
  357MPD2    C1 5397   2.961   4.658   1.282 -0.6157 -0.4592  0.6549
  357MPD2    C2 5398   2.905   4.540   1.327 -0.0691  0.3559 -0.0575
  357MPD2    C3 5399   2.780   4.539   1.395 -0.0270 -0.4235  0.2779
  357MPD2    C4 5400   2.715   4.655   1.401  0.0676  0.8990  1.4904
  357MPD2    C5 5401   2.771   0.038   1.359 -0.5973  0.0814 -0.7548
  357MPD2     H 5402   2.963   4.452   1.302 -2.4518 -1.7132  1.6302
  357MPD2    H1 5403   2.617   4.668   1.444 -0.5239 -1.0790  0.7351
  357MPD2    H2 5404   2.943   0.136   1.267 -1.1492 -0.2489 -1.3254
  357MPD2    H3 5405   2.721   0.134   1.372 -1.3750 -0.3463 -0.5828
  357MPD2     N 5406   2.705   4.424   1.428  0.2726 -0.8270  0.2787
  357MPD2    H5 5407   2.639   4.439   1.504  0.9739  0.1069  0.7064
  357MPD2    N1 5408   3.088   4.655   1.207  0.5233 -0.3950 -0.1038
  357MPD2    H7 5409   3.116   0.008   1.165 -0.6579 -0.6668 -1.4475
  358TMC3    C1 5410   3.285   4.567   1.124 -0.4758  0.5887 -0.9901
  358TMC3    C2 5411   3.250   4.630   0.998 -0.6050  0.7258  0.4393
  358TMC3    C3 5412   3.345   4.626   0.905 -0.5569  0.7804  0.1824
  358TMC3    C4 5413   3.408   4.515   1.150 -0.3287 -0.6305 -0.1363
  358TMC3    C5 5414   3.499   4.528   1.048 -0.4704 -0.0775  0.0654
  358TMC3    C6 5415   3.472   4.573   0.923  0.5982  0.0979  0.2764
  358TMC3     C 5416   3.175   4.546   1.215  0.2159 -0.7278 -0.8460
  358TMC3     O 5417   3.185   4.453   1.295  0.0785 -0.1061 -0.4990
  358TMC3     H 5418   3.156   4.671   0.963 -0.3479  0.8539 -0.1060
  358TMC3    H1 5419   3.431   4.478   1.250 -0.0832  1.0306  0.4292
  358TMC3    H2 5420   3.539   4.593   0.841  1.7599 -1.8762  0.7331
  358TMC3    C7 5421   3.635   4.501   1.086 -0.4228  0.4893  0.0031
  358TMC3    C8 5422   3.311   4.650   0.764  0.1551 -0.3675  0.0427
  358TMC3    O1 5423   3.663   4.524   1.202  0.1521  0.4613  0.0889
  358TMC3    O2 5424   3.398   4.665   0.677  0.0035 -0.1401 -0.3526
  359MPD2     C 5425   4.280   4.214  12.543 -0.7198  0.0118 -0.5488
  359MPD2    C1 5426   4.257   4.126  12.432  0.8604 -0.0419  0.4427
  359MPD2    C2 5427   4.228   3.992  12.456 -0.4004 -0.2869  0.2362
  359MPD2    C3 5428   4.226   3.945  12.588 -0.0101  0.6320  0.4850
  359MPD2    C4 5429   4.251   4.029  12.691 -0.2907  0.5442  0.1172
  359MPD2    C5 5430   4.276   4.165  12.668  0.8528  0.4227 -0.1777
  359MPD2     H 5431   4.208   3.923  12.375  0.2904 -2.2700  1.7289
  359MPD2    H1 5432   4.263   3.995  12.793  2.6626 -2.3094 -1.1949
  359MPD2    H2 5433   4.310   4.318  12.531 -1.6241  0.2536 -0.7120
  359MPD2    H3 5434   4.308   4.229  12.750  1.3554  0.1789 -0.1826
  359MPD2     N 5435   4.196   3.810  12.622  0.5710 -0.0927  0.2095
  359MPD2    H5 5436   4.194   3.795  12.723 -1.0471 -1.1738  0.0130
  359MPD2    N1 5437   4.260   4.179  12.298 -0.0705 -0.2131  0.5525
  359MPD2    H7 5438   4.255   4.116  12.219  1.2849 -1.3994  1.4051
  360TMC3    C1 5439   4.238   4.321  12.109 -0.5561  0.6458 -0.5543
  360TMC3    C2 5440   4.296   4.426  12.049  0.2102 -0.1548  0.1228
  360TMC3    C3 5441   4.294   4.438  11.911  0.7345 -0.5685  0.1435
  360TMC3    C4 5442   4.163   4.231  12.041 -0.1990 -0.0632 -0.4203
  360TMC3    C5 5443   4.159   4.244  11.905  0.1603 -0.5882  0.2665
  360TMC3    C6 5444   4.220   4.346  11.836 -0.9905 -0.4371 -0.1894
  360TMC3     C 5445   4.264   4.311  12.251  0.5160  0.2917 -0.3019
  360TMC3     O 5446   4.294   4.409  12.320 -0.3260 -0.6621  0.0724
  360TMC3     H 5447   4.366   4.482  12.110  0.1804  0.9628 -0.8639
  360TMC3    H1 5448   4.099   4.159  12.091 -1.5354  1.1508 -0.4195
  360TMC3    H2 5449   4.220   4.357  11.728  1.3701 -1.0266 -0.2478
  360TMC3    C7 5450   4.073   4.166  11.819  0.5133 -0.3268  0.1675
  360TMC3    C8 5451   4.376   4.535  11.853  0.0221 -0.1543  0.0473
  360TMC3    O1 5452   4.009   4.225  11.736  0.2305 -0.0614 -0.1438
  360TMC3    O2 5453   4.415   4.620  11.929  0.2698  0.3459 -0.4678
  361MPD2     C 5454   1.476   2.909  16.439 -0.0507  0.3420 -0.1633
  361MPD2    C1 5455   1.437   2.935  16.563  0.3264  0.1639  0.1889
  361MPD2    C2 5456   1.500   2.861  16.666 -0.2540  0.0709 -0.5373
  361MPD2    C3 5457   1.579   2.751  16.633  0.1227  0.4885 -0.2198
  361MPD2    C4 5458   1.612   2.719  16.501 -0.4510  0.0199 -0.2002
  361MPD2    C5 5459   1.567   2.810  16.412 -0.1906  0.5651  0.2602
  361MPD2     H 5460   1.477   2.889  16.769 -0.0674 -0.7693 -0.2656
  361MPD2    H1 5461   1.663   2.630  16.465 -0.9353  0.7675 -2.6925
  361MPD2    H2 5462   1.434   2.963  16.355  1.5826 -1.5439 -2.1893
  361MPD2    H3 5463   1.600   2.785  16.312  0.9255 -0.2156  0.8186
  361MPD2     N 5464   1.608   2.651  16.730  0.0057  0.0494  0.5702
  361MPD2    H5 5465   1.656   2.568  16.697 -2.8898 -1.6581  0.6667
  361MPD2    N1 5466   1.334   3.021  16.598 -0.0410 -0.0992 -0.1712
  361MPD2    H7 5467   1.305   3.021  16.695  0.0992  3.1806 -0.1362
  362TMC3    C1 5468   1.150   3.153  16.592  0.3085  0.7549 -0.5280
  362TMC3    C2 5469   1.186   3.185  16.724  0.0727 -0.2065 -0.2950
  362TMC3    C3 5470   1.091   3.251  16.797 -0.2120 -0.5081 -0.1161
  362TMC3    C4 5471   1.022   3.155  16.539 -0.2501 -0.5746  0.7514
  362TMC3    C5 5472   0.928   3.205  16.631  0.6794 -0.6261  0.0597
  362TMC3    C6 5473   0.963   3.263  16.752 -0.2704  0.1155  0.0586
  362TMC3     C 5474   1.251   3.090  16.514  0.5854 -0.2830  0.7260
  362TMC3     O 5475   1.259   3.097  16.389  0.7237 -0.3327  0.1590
  362TMC3     H 5476   1.285   3.191  16.766 -0.9301 -1.1107  2.1719
  362TMC3    H1 5477   1.012   3.122  16.436  2.3128  1.8568 -0.2877
  362TMC3    H2 5478   0.892   3.327  16.801 -0.7234  0.5831 -1.2282
  362TMC3    C7 5479   0.784   3.220  16.587 -0.1111 -0.2923 -0.0679
  362TMC3    C8 5480   1.096   3.234  16.934  0.3841  0.3537 -0.1900
  362TMC3    O1 5481   0.712   3.275  16.662  0.0514 -0.1179 -0.0039
  362TMC3    O2 5482   1.207   3.238  16.983 -0.1886  0.2523  0.5683
  363TMC3    C1 5483   3.769   1.281   9.444 -0.1847  0.1698  1.2400
  363TMC3    C2 5484   3.758   1.186   9.537 -0.1233 -0.2720 -0.1579
  363TMC3    C3 5485   3.647   1.183   9.623 -0.2464 -0.1518  0.0637
  363TMC3    C4 5486   3.668   1.371   9.425  0.3962  0.4923 -0.6230
  363TMC3    C5 5487   3.556   1.363   9.507 -0.3302 -0.4924 -0.2749
  363TMC3    C6 5488   3.552   1.272   9.612 -0.1553 -1.4153  0.1415
  363TMC3     C 5489   3.903   1.308   9.394  0.1292  0.0604  0.6467
  363TMC3     O 5490   3.926   1.420   9.354  0.1832  0.1004 -0.1236
  363TMC3     H 5491   3.850   1.132   9.559  1.3868  1.8379 -1.2655
  363TMC3    H1 5492   3.688   1.448   9.351  0.5213 -0.2808 -1.3831
  363TMC3    H2 5493   3.482   1.278   9.694 -1.9974  2.8680 -1.7748
  363TMC3    C7 5494   3.456   1.466   9.497 -0.3390 -0.3442 -0.1738
  363TMC3    C8 5495   3.637   1.082   9.723  0.3001  0.5355 -0.0022
  363TMC3    O1 5496   3.472   1.554   9.414 -0.0648  0.2256  0.5249
  363TMC3    O2 5497   3.550   1.093   9.811  0.4399 -0.2518 -0.5053
  364MPD2     C 5498   2.436   0.393  10.651  0.0494 -0.1666  0.0494
  364MPD2    C1 5499   2.556   0.361  10.590 -0.8439  0.1520  0.9809
  364MPD2    C2 5500   2.624   0.255  10.637  0.1545 -0.1200  0.1282
  364MPD2    C3 5501   2.571   0.180  10.736  0.1983  0.0863  0.1202
  364MPD2    C4 5502   2.443   0.213  10.793 -0.7886  0.1906  0.0631
  364MPD2    C5 5503   2.370   0.322  10.746 -0.0053 -0.0291  0.3430
  364MPD2     H 5504   2.717   0.225  10.590  0.0837  1.6721 -1.1364
  364MPD2    H1 5505   2.395   0.151  10.868  0.6576 -1.4355 -0.3553
  364MPD2    H2 5506   2.399   0.489  10.617 -1.5702 -1.2313 -1.2276
  364MPD2    H3 5507   2.274   0.349  10.789  0.7266 -0.1429  2.0445
  364MPD2     N 5508   2.640   0.073  10.795  0.6099  0.4229  0.0559
  364MPD2    H5 5509   2.593   0.038  10.878 -0.5858 -1.5299 -1.4503
  364MPD2    N1 5510   2.608   0.452  10.499 -0.4789 -0.0189 -0.6695
  364MPD2    H7 5511   2.551   0.534  10.479  0.0196 -0.0968 -2.3220
  365TMC3    C1 5512   2.758   0.575  10.382  0.0756 -0.6281  0.1551
  365TMC3    C2 5513   2.828   0.577  10.259 -0.2932  0.0426 -0.0243
  365TMC3    C3 5514   2.908   0.690  10.241  0.4321  0.2799 -0.9945
  365TMC3    C4 5515   2.781   0.668  10.475  0.1508 -0.1729 -0.3912
  365TMC3    C5 5516   2.844   0.787  10.445 -0.2294 -0.2382  0.3988
  365TMC3    C6 5517   2.904   0.806  10.322 -0.2298  0.0845  0.4623
  365TMC3     C 5518   2.731   0.446  10.440 -0.8400 -0.4837 -0.0177
  365TMC3     O 5519   2.821   0.361  10.433  0.6560  0.6179 -0.4810
  365TMC3     H 5520   2.825   0.497  10.186 -0.9507 -0.0304  0.0843
  365TMC3    H1 5521   2.732   0.665  10.571  0.0317  0.3925 -0.4339
  365TMC3    H2 5522   2.972   0.889  10.306 -0.8620  0.7477  1.2503
  365TMC3    C7 5523   2.905   0.870  10.553 -0.1498 -0.4584 -0.9527
  365TMC3    C8 5524   2.967   0.701  10.103  0.4649  0.8477  1.1614
  365TMC3    O1 5525   2.908   0.990  10.533 -0.1743  0.7614  0.0808
  365TMC3    O2 5526   2.942   0.805  10.040  0.1261  0.5444  1.0655
  366MPD2     C 5527   1.177   1.424  15.116 -0.6490  0.0592 -0.0756
  366MPD2    C1 5528   1.301   1.422  15.177  0.4213 -0.0665 -0.6314
  366MPD2    C2 5529   1.345   1.307  15.230  0.5284  0.2298 -0.0537
  366MPD2    C3 5530   1.269   1.190  15.224  0.2287  0.2032 -0.2009
  366MPD2    C4 5531   1.145   1.190  15.165  0.5251 -0.6441  0.4694
  366MPD2    C5 5532   1.098   1.309  15.117 -0.3312 -0.0578  0.1018
  366MPD2     H 5533   1.435   1.306  15.291  1.6807  0.9272 -1.7691
  366MPD2    H1 5534   1.080   1.103  15.168  0.8039 -0.8861 -0.3708
  366MPD2    H2 5535   1.123   1.506  15.072 -0.2884  1.7150  2.5386
  366MPD2    H3 5536   1.000   1.311  15.070 -0.4059  1.7743  0.3338
  366MPD2     N 5537   1.328   1.069  15.277  0.1602  0.1373 -0.0221
  366MPD2    H5 5538   1.410   1.086  15.333 -0.4640  1.1281  0.6015
  366MPD2    N1 5539   1.388   1.537  15.187  0.3246  0.5967  0.2006
  366MPD2    H7 5540   1.481   1.528  15.227 -0.2857 -1.0296  1.2573
  367TMC3    C1 5541   1.460   1.759  15.157 -0.7064  0.7615  0.1797
  367TMC3    C2 5542   1.536   1.740  15.270 -0.1605  0.4871  0.0312
  367TMC3    C3 5543   1.555   1.850  15.353 -0.2537 -0.1234 -0.0156
  367TMC3    C4 5544   1.412   1.886  15.123  0.1185  0.6971 -0.0872
  367TMC3    C5 5545   1.413   1.981  15.220  0.3287  1.3222 -0.0818
  367TMC3    C6 5546   1.488   1.964  15.328 -0.6706  0.5214 -0.3393
  367TMC3     C 5547   1.354   1.662  15.130 -0.3919  0.7464  0.4636
  367TMC3     O 5548   1.247   1.702  15.090 -0.1771 -0.7784  0.2348
  367TMC3     H 5549   1.580   1.647  15.305 -0.7657 -0.1690 -0.9648
  367TMC3    H1 5550   1.343   1.900  15.040  0.4646 -2.2555 -0.8659
  367TMC3    H2 5551   1.491   2.049  15.395  1.2670 -0.7878  1.2474
  367TMC3    C7 5552   1.295   2.063  15.230 -1.2826 -0.6126  0.4902
  367TMC3    C8 5553   1.658   1.847  15.456 -0.3987  0.3409  0.2552
  367TMC3    O1 5554   1.222   2.034  15.331  0.0364  0.2020  0.1021
  367TMC3    O2 5555   1.691   1.733  15.480  0.2981  0.1297 -0.7232
  368MPD2     C 5556   2.633   2.698  12.895 -0.5010 -0.1778  0.3868
  368MPD2    C1 5557   2.618   2.814  12.829  0.5164 -0.3756 -0.2944
  368MPD2    C2 5558   2.732   2.883  12.790  0.1833 -0.3076 -0.8303
  368MPD2    C3 5559   2.857   2.835  12.834 -0.5001 -0.1991  0.0229
  368MPD2    C4 5560   2.867   2.726  12.914  0.3330 -0.2149 -1.1237
  368MPD2    C5 5561   2.756   2.658  12.938  0.7089  0.2611  0.2217
  368MPD2     H 5562   2.730   2.971  12.728  0.0528  0.0044 -0.3841
  368MPD2    H1 5563   2.955   2.681  12.958  0.4571  2.3599  1.2770
  368MPD2    H2 5564   2.553   2.625  12.900 -0.9974  0.3852  0.6312
  368MPD2    H3 5565   2.769   2.561  12.986 -0.8109 -1.2051 -2.3690
  368MPD2     N 5566   2.975   2.905  12.806 -0.2149 -0.1203  0.2540
  368MPD2    H5 5567   3.054   2.866  12.856  0.8406  1.3712 -0.2272
  368MPD2    N1 5568   2.485   2.848  12.805 -0.1845 -0.8994  0.2833
  368MPD2    H7 5569   2.419   2.780  12.840 -1.2210 -0.0023  0.0712
  369TMC3    C1 5570   2.313   3.003  12.764 -0.8102  0.0958  0.7147
  369TMC3    C2 5571   2.280   3.139  12.736 -0.3199  0.1789  0.3171
  369TMC3    C3 5572   2.157   3.179  12.770  0.4387 -0.8668  0.9337
  369TMC3    C4 5573   2.223   2.914  12.816  0.4453 -0.3132 -0.0860
  369TMC3    C5 5574   2.093   2.962  12.836  0.7583 -0.4461  0.8506
  369TMC3    C6 5575   2.059   3.092  12.809  0.2703 -0.1567  0.6825
  369TMC3     C 5576   2.450   2.967  12.740 -0.3052 -0.1147  0.2728
  369TMC3     O 5577   2.529   3.036  12.679 -0.2774 -0.6793 -0.3969
  369TMC3     H 5578   2.363   3.207  12.720 -0.4676  0.9625  2.7744
  369TMC3    H1 5579   2.246   2.809  12.806 -0.2783 -0.5551  0.8564
  369TMC3    H2 5580   1.961   3.136  12.827  0.8502 -0.1341  3.8680
  369TMC3    C7 5581   1.995   2.862  12.871 -0.3185  0.7488 -0.6690
  369TMC3    C8 5582   2.142   3.310  12.828 -0.2627 -0.0725 -0.0248
  369TMC3    O1 5583   2.028   2.755  12.923 -0.4386  0.6053 -0.6117
  369TMC3    O2 5584   2.057   3.324  12.916  0.8785 -0.0903  0.2059
  370TMC3    C1 5585   2.170   3.885  16.415  0.0262  0.0139 -0.0639
  370TMC3    C2 5586   2.112   3.821  16.527  1.0627 -0.3688 -0.0246
  370TMC3    C3 5587   1.999   3.742  16.496  0.0939  0.2199  0.4157
  370TMC3    C4 5588   2.126   3.875  16.290  0.3025 -0.0962 -0.3284
  370TMC3    C5 5589   2.017   3.788  16.263  0.3010  0.0237 -0.1355
  370TMC3    C6 5590   1.959   3.723  16.365 -0.6465 -0.0772 -0.3884
  370TMC3     C 5591   2.264   3.996  16.438 -0.2551 -0.5083  0.0602
  370TMC3     O 5592   2.273   4.073  16.343  0.1170 -0.1339 -0.1648
  370TMC3     H 5593   2.155   3.827  16.626  3.3752 -2.0195 -0.9242
  370TMC3    H1 5594   2.178   3.924  16.208  0.1187  1.0043  0.2140
  370TMC3    H2 5595   1.867   3.667  16.352 -1.6153  1.4939 -0.3268
  370TMC3    C7 5596   2.037   3.710  16.140  0.1026  0.4383  0.1411
  370TMC3    C8 5597   1.998   3.620  16.575 -0.0363  0.3782  0.6700
  370TMC3    O1 5598   2.141   3.722  16.084 -0.1053 -0.2541  0.4103
  370TMC3    O2 5599   1.973   3.509  16.528 -0.2757  0.0696  0.0710
  371TMC3    C1 5600   2.893   2.126  15.564 -0.2289 -0.1419  0.2250
  371TMC3    C2 5601   2.767   2.117  15.519 -0.3132  0.3781  0.5504
  371TMC3    C3 5602   2.729   2.210  15.426  0.4524  0.7553 -0.3817
  371TMC3    C4 5603   2.983   2.219  15.518 -0.1833 -0.1808 -0.3180
  371TMC3    C5 5604   2.934   2.310  15.429  0.3226  0.4250 -0.0983
  371TMC3    C6 5605   2.813   2.299  15.376  0.9468  0.3046 -0.4822
  371TMC3     C 5606   2.945   2.031  15.658 -0.6140  0.0678  0.4313
  371TMC3     O 5607   3.047   2.058  15.727 -0.2129  0.4627 -0.2959
  371TMC3     H 5608   2.683   2.059  15.557 -0.1815 -0.2768 -0.1618
  371TMC3    H1 5609   3.078   2.230  15.569 -0.0088 -1.1212 -0.4406
  371TMC3    H2 5610   2.783   2.382  15.313 -1.4114  1.2702  1.9087
  371TMC3    C7 5611   2.993   2.441  15.415  0.0906 -0.0476  0.1854
  371TMC3    C8 5612   2.584   2.239  15.417 -0.9110 -0.1819 -0.2151
  371TMC3    O1 5613   2.954   2.511  15.320  0.2578 -0.2554 -0.2303
  371TMC3    O2 5614   2.502   2.174  15.347  0.6014 -0.7274  0.0972
  372MPD2     C 5615   2.247   2.789  13.176 -0.5027  0.3602 -0.6149
  372MPD2    C1 5616   2.373   2.763  13.226 -0.3307  0.5118  0.3521
  372MPD2    C2 5617   2.393   2.655  13.317 -0.3450 -0.6148 -0.1111
  372MPD2    C3 5618   2.287   2.580  13.370  0.1553  0.6348  0.2019
  372MPD2    C4 5619   2.164   2.626  13.323 -0.5228 -0.0781  0.0338
  372MPD2    C5 5620   2.139   2.725  13.231 -0.1343 -0.3166  0.5554
  372MPD2     H 5621   2.494   2.633  13.350 -0.0840  0.7561  0.0053
  372MPD2    H1 5622   2.075   2.576  13.360  0.2317 -1.4287  0.0431
  372MPD2    H2 5623   2.224   2.875  13.114 -0.4862  0.8152  0.0105
  372MPD2    H3 5624   2.040   2.753  13.197 -0.4602 -0.5809  1.3078
  372MPD2     N 5625   2.319   2.474  13.453 -0.1814  0.1096  0.4639
  372MPD2    H5 5626   2.416   2.475  13.482 -0.6982  1.3584  2.1664
  372MPD2    N1 5627   2.487   2.840  13.200  0.0937  0.0914 -0.2412
  372MPD2    H7 5628   2.572   2.815  13.249  0.7178  4.1255  0.7597
  373TMC3    C1 5629   2.273   2.293  13.593 -0.0874 -0.4077  0.4794
  373TMC3    C2 5630   2.188   2.260  13.691 -1.2346 -0.3857 -0.5367
  373TMC3    C3 5631   2.226   2.165  13.778  0.0583 -0.1711 -0.0717
  373TMC3    C4 5632   2.394   2.239  13.578 -0.4277 -0.2893 -0.0553
  373TMC3    C5 5633   2.424   2.131  13.665  0.3780  0.0935  0.2007
  373TMC3    C6 5634   2.340   2.093  13.768  0.0006  0.2386  0.0668
  373TMC3     C 5635   2.223   2.390  13.500 -0.2242 -0.8001 -0.4196
  373TMC3     O 5636   2.105   2.381  13.468 -0.8706  0.3283  0.6569
  373TMC3     H 5637   2.091   2.308  13.684 -1.1132 -0.0431  0.1109
  373TMC3    H1 5638   2.453   2.251  13.489  1.7734 -1.1388  1.3033
  373TMC3    H2 5639   2.355   2.003  13.826  1.0844  0.6958  0.4970
  373TMC3    C7 5640   2.557   2.079  13.675 -0.0681 -0.3060 -0.5921
  373TMC3    C8 5641   2.111   2.116  13.848 -0.0855  0.6065 -0.4342
  373TMC3    O1 5642   2.568   1.979  13.741  0.2247  0.0295  0.1844
  373TMC3    O2 5643   2.008   2.121  13.781 -0.0921  0.3999  0.1465
  374TMC3    C1 5644   3.697   3.093   9.599 -0.9252  0.2644 -0.1911
  374TMC3    C2 5645   3.711   3.229   9.615 -0.0334  0.6191 -0.1264
  374TMC3    C3 5646   3.686   3.314   9.509 -0.1638 -0.1252  0.8191
  374TMC3    C4 5647   3.665   3.045   9.476 -0.3711 -0.4163 -0.2257
  374TMC3    C5 5648   3.649   3.126   9.368 -0.0175  0.1539  0.1327
  374TMC3    C6 5649   3.661   3.263   9.383  0.6617 -0.2649  0.1698
  374TMC3     C 5650   3.757   3.004   9.699  0.2799 -0.0524 -0.1286
  374TMC3     O 5651   3.759   2.884   9.669  0.3623 -0.9723 -0.2317
  374TMC3     H 5652   3.717   3.266   9.717  1.0260 -3.8539  1.4102
  374TMC3    H1 5653   3.640   2.940   9.476  0.9198 -0.7219  0.8403
  374TMC3    H2 5654   3.655   3.321   9.292  0.3600  2.3088  1.8203
  374TMC3    C7 5655   3.700   3.073   9.240  0.4218 -0.2433 -0.6803
  374TMC3    C8 5656   3.657   3.453   9.522 -0.1985 -0.3302 -0.1754
  374TMC3    O1 5657   3.716   3.155   9.150 -0.1069  0.0097 -0.5681
  374TMC3    O2 5658   3.583   3.494   9.435 -0.1426  0.2605  0.5984
  375MPD2     C 5659   3.856   4.557  17.263 -0.7511  0.3185 -0.2292
  375MPD2    C1 5660   3.773   4.514  17.170  0.7665 -0.2007 -0.1310
  375MPD2    C2 5661   3.809   4.500  17.036  0.2252 -0.9304 -0.0562
  375MPD2    C3 5662   3.944   4.512  17.003  0.1758  0.0043 -0.2988
  375MPD2    C4 5663   4.027   4.562  17.104  0.3076 -0.1162 -0.2128
  375MPD2    C5 5664   3.983   4.586  17.232  0.1388 -1.2647  0.2478
  375MPD2     H 5665   3.736   4.464  16.965  0.3305  0.0701 -0.6761
  375MPD2    H1 5666   4.135   4.567  17.090  0.4544 -2.1039  0.1427
  375MPD2    H2 5667   3.816   4.584  17.360 -1.0992 -0.8196 -0.0576
  375MPD2    H3 5668   4.046   4.622  17.313 -1.6964  1.8877  0.2763
  375MPD2     N 5669   4.001   4.476  16.883 -0.2530 -0.8708  0.0396
  375MPD2    H5 5670   4.100   4.491  16.866 -0.1625  0.0994  1.3730
  375MPD2    N1 5671   3.636   4.488  17.191  0.6363 -0.4128 -0.1924
  375MPD2    H7 5672   3.576   4.476  17.110  2.1793  1.3765 -1.5854
  376TMC3    C1 5673   3.999   4.356  16.678  0.1130  0.1074  0.6913
  376TMC3    C2 5674   4.115   4.292  16.710  1.1228  0.1226 -0.2820
  376TMC3    C3 5675   4.163   4.206  16.619  0.5418 -0.8129  0.2832
  376TMC3    C4 5676   3.931   4.336  16.553  0.1821  0.1741  0.4718
  376TMC3    C5 5677   3.980   4.245  16.470  0.0496 -0.4680  0.1667
  376TMC3    C6 5678   4.097   4.178  16.500  0.6156  0.1797  0.3640
  376TMC3     C 5679   3.924   4.419  16.782  0.0707 -0.4908 -0.7394
  376TMC3     O 5680   3.803   4.419  16.763  0.0298 -0.5817 -0.2574
  376TMC3     H 5681   4.167   4.304  16.804  0.8942  0.7325 -0.2305
  376TMC3    H1 5682   3.840   4.393  16.537 -0.1771 -0.7636 -0.7936
  376TMC3    H2 5683   4.141   4.123  16.418 -0.6315  1.5331 -1.2096
  376TMC3    C7 5684   3.910   4.228  16.348 -0.0996 -0.0715 -0.9225
  376TMC3    C8 5685   4.303   4.210  16.594 -0.0910  0.2186  0.1556
  376TMC3    O1 5686   3.819   4.308  16.329 -0.0186 -0.5039 -0.0733
  376TMC3    O2 5687   4.348   4.134  16.511  0.6268  0.0407 -0.4185
  377MPD2     C 5688   1.711   3.343  12.682 -0.1194 -0.1508 -0.3593
  377MPD2    C1 5689   1.629   3.402  12.587 -0.0032  0.1728  0.0996
  377MPD2    C2 5690   1.491   3.403  12.615  0.0488 -0.1365  0.8448
  377MPD2    C3 5691   1.439   3.344  12.727 -0.3657 -0.2616 -0.6094
  377MPD2    C4 5692   1.523   3.274  12.812 -0.0403 -0.7227  0.0534
  377MPD2    C5 5693   1.656   3.285  12.795 -0.1101  0.2750 -0.9462
  377MPD2     H 5694   1.415   3.431  12.542  0.2864  1.8957  1.3710
  377MPD2    H1 5695   1.483   3.229  12.902 -0.5969 -1.1237 -0.3887
  377MPD2    H2 5696   1.818   3.333  12.670  0.0278  1.4793 -0.3212
  377MPD2    H3 5697   1.724   3.233  12.862 -0.7106 -0.4033 -0.8766
  377MPD2     N 5698   1.300   3.335  12.754 -0.3572  0.5516 -0.1596
  377MPD2    H5 5699   1.265   3.274  12.827 -0.2441  0.0798 -0.5019
  377MPD2    N1 5700   1.691   3.460  12.474  0.0598  0.2145  0.1320
  377MPD2    H7 5701   1.792   3.465  12.467  0.1166  0.5465  1.2125
  378TMC3    C1 5702   1.696   3.779  12.143  0.6655 -0.5013  0.5230
  378TMC3    C2 5703   1.626   3.704  12.231  0.4902 -0.5252  0.1735
  378TMC3    C3 5704   1.688   3.591  12.279 -0.0709 -1.0500 -0.8227
  378TMC3    C4 5705   1.816   3.727  12.103 -0.1434  0.1870 -0.2160
  378TMC3    C5 5706   1.861   3.605  12.142  0.6882 -0.1400 -0.2916
  378TMC3    C6 5707   1.804   3.534  12.239 -0.4823  0.0205  0.4669
  378TMC3     C 5708   1.619   3.839  12.039 -0.2073  0.3085 -0.0672
  378TMC3     O 5709   1.675   3.845  11.927  0.9061 -0.0217  0.1605
  378TMC3     H 5710   1.537   3.743  12.279  0.1582 -0.7531 -0.2544
  378TMC3    H1 5711   1.879   3.789  12.040  1.7634 -0.0087  1.5158
  378TMC3    H2 5712   1.827   3.437  12.282 -2.2705 -0.6666 -0.1353
  378TMC3    C7 5713   1.908   3.528  12.029  0.1011  0.2849 -0.2606
  378TMC3    C8 5714   1.615   3.533  12.385  0.3706  0.3792 -0.1358
  378TMC3    O1 5715   1.962   3.416  12.039  0.5905  0.4498  0.2535
  378TMC3    O2 5716   1.498   3.567  12.388 -0.1783  0.1798  0.1662
  379MPD2     C 5717   2.650   1.748  16.184 -0.1042 -0.3296  0.0649
  379MPD2    C1 5718   2.567   1.680  16.268  1.0384  0.1962  1.0443
  379MPD2    C2 5719   2.613   1.653  16.390 -0.0296 -0.1549  0.2575
  379MPD2    C3 5720   2.751   1.674  16.426  0.1706  0.4991  0.3665
  379MPD2    C4 5721   2.828   1.738  16.331 -0.2716 -0.1107 -0.2354
  379MPD2    C5 5722   2.781   1.769  16.209 -0.3083  0.6826  0.5901
  379MPD2     H 5723   2.552   1.610  16.469  0.3429  1.0579  1.2054
  379MPD2    H1 5724   2.929   1.767  16.360  0.0950  0.5185 -2.1802
  379MPD2    H2 5725   2.613   1.784  16.089  2.0863  1.9455  0.0707
  379MPD2    H3 5726   2.842   1.823  16.137 -0.7049  2.9809  1.9832
  379MPD2     N 5727   2.811   1.636  16.549 -0.0809  0.2646  0.0752
  379MPD2    H5 5728   2.911   1.652  16.558 -0.2782  1.4696  0.1207
  379MPD2    N1 5729   2.428   1.662  16.230 -0.0953 -0.0093  0.1313
  379MPD2    H7 5730   2.414   1.691  16.134 -1.3855  1.8909  0.9061
  380TMC3    C1 5731   2.204   1.586  16.233  0.4667  0.0024 -0.1635
  380TMC3    C2 5732   2.165   1.463  16.189  0.6309  0.0855 -0.3631
  380TMC3    C3 5733   2.056   1.465  16.117 -0.3020  0.9768 -0.3359
  380TMC3    C4 5734   2.148   1.704  16.189  1.0739 -0.2622  0.1422
  380TMC3    C5 5735   2.039   1.695  16.101  0.4433 -0.2661  0.1254
  380TMC3    C6 5736   1.996   1.575  16.064 -0.5922  0.0609  0.3249
  380TMC3     C 5737   2.333   1.597  16.304  0.4610 -0.1312  1.6054
  380TMC3     O 5738   2.347   1.521  16.400 -0.3320  0.1310  0.2840
  380TMC3     H 5739   2.209   1.365  16.209 -1.4387 -0.7444  0.1096
  380TMC3    H1 5740   2.184   1.799  16.227  2.4139 -0.5912 -0.3032
  380TMC3    H2 5741   1.900   1.555  16.019 -0.6935  0.0073  0.5662
  380TMC3    C7 5742   2.018   1.804  16.004 -0.5409 -0.6091 -0.3851
  380TMC3    C8 5743   2.010   1.332  16.079 -0.5148 -0.6957 -0.4516
  380TMC3    O1 5744   2.096   1.897  16.019  0.3072  0.0474  0.7994
  380TMC3    O2 5745   2.019   1.251  16.168 -0.0615 -0.0664  0.2824
  381TMC3    C1 5746   1.746   3.225  16.415  0.3165 -0.1540  0.6076
  381TMC3    C2 5747   1.842   3.253  16.318 -0.0989  0.1200  0.0383
  381TMC3    C3 5748   1.956   3.180  16.327  0.0402  0.7396 -0.6731
  381TMC3    C4 5749   1.764   3.132  16.517  0.2737 -0.1463  0.4251
  381TMC3    C5 5750   1.884   3.070  16.523  0.0938  0.2351 -0.5450
  381TMC3    C6 5751   1.987   3.098  16.435  0.0470  0.5719  0.8700
  381TMC3     C 5752   1.621   3.299  16.409  0.1020 -0.0160  0.2249
  381TMC3     O 5753   1.585   3.359  16.308  0.7529  0.6292  0.0744
  381TMC3     H 5754   1.825   3.299  16.221  0.7341  1.7640  0.6643
  381TMC3    H1 5755   1.681   3.105  16.581 -1.0352  0.7067 -0.9348
  381TMC3    H2 5756   2.090   3.065  16.447 -0.1053 -0.8116 -1.7103
  381TMC3    C7 5757   1.915   2.992  16.640  0.0023  0.8124  0.9316
  381TMC3    C8 5758   2.080   3.244  16.273  0.2643  0.0351 -0.0516
  381TMC3    O1 5759   1.985   2.896  16.616 -0.2962 -0.5495  0.2844
  381TMC3    O2 5760   2.164   3.176  16.215  0.3597  0.0191  0.1019
  382MPD2     C 5761   1.196   0.600  16.890 -0.4617  0.2761 -0.5595
  382MPD2    C1 5762   1.278   0.615  16.995  0.6353 -0.2597  0.5170
  382MPD2    C2 5763   1.307   0.498  17.066  0.1737 -0.8620  0.3287
  382MPD2    C3 5764   1.246   0.377  17.034  0.4336 -0.2935  0.5182
  382MPD2    C4 5765   1.163   0.372  16.926 -0.4156  0.3326 -0.8679
  382MPD2    C5 5766   1.145   0.482  16.852  0.4726  0.4682  0.7262
  382MPD2     H 5767   1.389   0.503  17.137 -1.9883  2.8434  2.5462
  382MPD2    H1 5768   1.119   0.280  16.889 -1.6727  0.6914 -0.2739
  382MPD2    H2 5769   1.179   0.683  16.823 -1.1930 -0.9721 -1.9261
  382MPD2    H3 5770   1.085   0.474  16.762  0.9533 -2.5323  0.6919
  382MPD2     N 5771   1.263   0.258  17.109 -0.1249 -0.3087  0.2059
  382MPD2    H5 5772   1.222   0.173  17.074 -0.3079  0.2387 -0.9265
  382MPD2    N1 5773   1.352   0.727  17.029  0.5927 -0.4170  0.0121
  382MPD2    H7 5774   1.425   0.716  17.098 -1.1689  2.3251  2.2882
  383TMC3    C1 5775   1.362   0.106  17.266 -0.9129 -0.2908 -0.7210
  383TMC3    C2 5776   1.265   0.009  17.253  0.4527 -0.4595 -0.2865
  383TMC3    C3 5777   1.270   4.633  17.331 -0.0147 -0.4545 -0.3723
  383TMC3    C4 5778   1.468   0.093  17.352  0.8956  0.1003 -0.2935
  383TMC3    C5 5779   1.468   4.711  17.419 -0.7911  0.0792 -0.6143
  383TMC3    C6 5780   1.370   4.615  17.419  0.0994  0.3393  0.1180
  383TMC3     C 5781   1.345   0.239  17.216  0.3008  0.6722  0.2091
  383TMC3     O 5782   1.412   0.325  17.266  0.2544  0.4514  0.5342
  383TMC3     H 5783   1.174   0.025  17.196 -0.7951 -1.2571  1.4631
  383TMC3    H1 5784   1.542   0.171  17.369 -0.9551  1.8217 -0.1528
  383TMC3    H2 5785   1.379   4.530  17.485  0.2157 -1.3505 -2.0571
  383TMC3    C7 5786   1.604   4.667  17.460 -0.0757  0.5515  0.5817
  383TMC3    C8 5787   1.157   4.543  17.311  0.8555  0.4045  0.7853
  383TMC3    O1 5788   1.613   4.548  17.488 -0.0614 -0.4263 -0.1886
  383TMC3    O2 5789   1.069   4.564  17.224 -0.0847 -0.2333 -0.0873
  384MPD2     C 5790   2.598   1.545  12.256  0.8835 -0.2798 -0.4325
  384MPD2    C1 5791   2.574   1.409  12.274 -0.4368  0.2813  0.1392
  384MPD2    C2 5792   2.671   1.312  12.230 -0.1985 -0.5218 -0.7194
  384MPD2    C3 5793   2.789   1.354  12.169 -0.2598 -0.1406  0.4557
  384MPD2    C4 5794   2.815   1.490  12.159  0.1034  0.2204  0.5711
  384MPD2    C5 5795   2.728   1.585  12.222  0.3839 -0.2803  0.5514
  384MPD2     H 5796   2.666   1.210  12.264  0.1636 -0.9153 -1.8331
  384MPD2    H1 5797   2.904   1.538  12.119 -0.7023  0.5423 -0.8214
  384MPD2    H2 5798   2.525   1.616  12.291  3.2657  0.4877  2.9487
  384MPD2    H3 5799   2.737   1.690  12.199  0.1129 -0.1945  0.8435
  384MPD2     N 5800   2.903   1.270  12.146  0.5535  0.3797  0.0342
  384MPD2    H5 5801   2.989   1.321  12.129  1.6024 -0.8327  1.7744
  384MPD2    N1 5802   2.461   1.366  12.350  0.7976 -0.0223 -0.4458
  384MPD2    H7 5803   2.400   1.439  12.384 -0.0062 -0.9458  0.0971
  385TMC3    C1 5804   3.034   1.082  12.202  0.1815  0.5199 -0.5997
  385TMC3    C2 5805   3.046   0.950  12.148 -0.2121  0.0406 -0.0411
  385TMC3    C3 5806   3.106   0.854  12.227  0.1126 -0.3646 -0.1506
  385TMC3    C4 5807   3.081   1.119  12.325  0.2693  0.0276 -0.6052
  385TMC3    C5 5808   3.137   1.019  12.403  0.3830  0.6433 -0.7045
  385TMC3    C6 5809   3.141   0.888  12.357  0.4651 -0.1326 -0.1016
  385TMC3     C 5810   2.903   1.139  12.168 -0.2779  0.0788  0.2796
  385TMC3     O 5811   2.811   1.060  12.172  0.2306 -0.6351  0.1768
  385TMC3     H 5812   2.996   0.925  12.055 -0.6201 -1.1217  0.4753
  385TMC3    H1 5813   3.043   1.210  12.369 -0.0620 -0.4510  0.0953
  385TMC3    H2 5814   3.177   0.822  12.434 -1.0773 -0.6781  0.1666
  385TMC3    C7 5815   3.080   1.005  12.534  0.3325  0.0631 -0.0702
  385TMC3    C8 5816   3.125   0.716  12.192  0.3555  0.8389 -0.1994
  385TMC3    O1 5817   2.993   0.920  12.549  0.3496  0.4595  0.0175
  385TMC3    O2 5818   3.148   0.643  12.284  1.1680  0.3990  0.7530
  386TMC3    C1 5819   2.786   3.483  11.580 -0.0936  0.6892 -0.2961
  386TMC3    C2 5820   2.768   3.540  11.455  0.9915 -0.1643  0.3866
  386TMC3    C3 5821   2.665   3.632  11.440  0.1225  0.1786 -0.5442
  386TMC3    C4 5822   2.712   3.526  11.688  0.2818  0.2816 -0.3596
  386TMC3    C5 5823   2.614   3.622  11.666  0.1085 -0.4235 -0.4940
  386TMC3    C6 5824   2.587   3.676  11.544  0.8146 -0.1586  0.1743
  386TMC3     C 5825   2.883   3.381  11.605 -0.9885  0.3658 -0.3889
  386TMC3     O 5826   2.904   3.357  11.721  0.1048 -0.0340 -0.3266
  386TMC3     H 5827   2.814   3.487  11.373 -0.9918  0.2264 -0.9686
  386TMC3    H1 5828   2.705   3.473  11.782  0.1391 -2.3751 -1.8658
  386TMC3    H2 5829   2.517   3.757  11.528 -0.4276 -0.4614  4.0940
  386TMC3    C7 5830   2.614   3.716  11.776  0.2754  0.0361 -0.4095
  386TMC3    C8 5831   2.629   3.686  11.316 -0.0353  0.3758 -0.1180
  386TMC3    O1 5832   2.681   3.685  11.872 -0.4220 -0.3289 -0.0387
  386TMC3    O2 5833   2.514   3.707  11.281  0.0510  0.1157 -0.0751
  387MPD2     C 5834   0.245   3.826   9.676  0.2477 -0.0274  0.4494
  387MPD2    C1 5835   0.380   3.792   9.683  0.3258  0.3003 -0.3227
  387MPD2    C2 5836   0.409   3.657   9.680  0.1423  0.0779  0.6294
  387MPD2    C3 5837   0.317   3.561   9.650  0.1413 -0.0788 -0.2092
  387MPD2    C4 5838   0.190   3.602   9.638  0.2172 -0.6016 -0.6637
  387MPD2    C5 5839   0.152   3.732   9.652  0.2559  0.1892 -0.6789
  387MPD2     H 5840   0.512   3.623   9.677  0.1909  0.0582  2.6792
  387MPD2    H1 5841   0.111   3.529   9.626 -0.6615  0.5007 -1.5774
  387MPD2    H2 5842   0.219   3.928   9.704  0.3972 -0.4420  2.1094
  387MPD2    H3 5843   0.047   3.757   9.650  0.7489  2.5695  2.2957
  387MPD2     N 5844   0.357   3.423   9.664 -0.2567 -0.0456  0.1327
  387MPD2    H5 5845   0.455   3.403   9.675 -0.5567 -2.8789 -2.3164
  387MPD2    N1 5846   0.484   3.882   9.728 -0.0312  0.3246  0.6817
  387MPD2    H7 5847   0.575   3.838   9.737  0.9772  1.6574 -3.0482
  388TMC3    C1 5848   0.558   4.025   9.896 -0.6338 -0.7509  0.1113
  388TMC3    C2 5849   0.576   4.159   9.926 -0.7666  0.2582  0.9932
  388TMC3    C3 5850   0.676   4.188  10.017  0.5650  0.2337  0.1830
  388TMC3    C4 5851   0.624   3.926   9.959  0.2577  0.1894  0.2165
  388TMC3    C5 5852   0.731   3.967  10.033  0.2782  0.7286 -0.6396
  388TMC3    C6 5853   0.755   4.098  10.070 -0.3565 -0.0956  0.6253
  388TMC3     C 5854   0.460   3.998   9.797 -0.1302  0.8125  0.7174
  388TMC3     O 5855   0.375   4.080   9.771  0.1513 -0.4643  0.1841
  388TMC3     H 5856   0.510   4.232   9.882 -0.0475 -0.6917 -1.6568
  388TMC3    H1 5857   0.600   3.821   9.947  0.1631  0.1737  0.5497
  388TMC3    H2 5858   0.831   4.117  10.145  0.4516  0.4389 -0.3398
  388TMC3    C7 5859   0.814   3.864  10.085  0.3542  0.5744  0.5798
  388TMC3    C8 5860   0.711   4.325  10.043 -0.6259 -0.1744 -0.4979
  388TMC3    O1 5861   0.879   3.882  10.189 -0.6829  0.3156  0.0146
  388TMC3    O2 5862   0.824   4.347  10.082  0.3056  0.1506  0.4313
  389MPD2     C 5863   4.186   2.163  11.169 -0.1054  0.0995  1.0682
  389MPD2    C1 5864   4.291   2.072  11.188 -0.3140  0.3597  0.5689
  389MPD2    C2 5865   4.275   1.977  11.284  0.0743 -0.6097  0.3807
  389MPD2    C3 5866   4.151   1.962  11.352 -0.0343 -0.1799  0.4788
  389MPD2    C4 5867   4.048   2.050  11.332  0.2376  0.0082 -0.4194
  389MPD2    C5 5868   4.062   2.146  11.233 -0.3600  0.4923  0.2515
  389MPD2     H 5869   4.355   1.906  11.305  2.2231  1.7048  0.0392
  389MPD2    H1 5870   3.951   2.038  11.379  0.1582  3.5253  0.2813
  389MPD2    H2 5871   4.211   2.243  11.100  0.9013 -1.1002  0.0477
  389MPD2    H3 5872   3.970   2.198  11.211  0.1021  0.6520 -1.3539
  389MPD2     N 5873   4.134   1.859  11.448 -0.6296  0.1384  0.1715
  389MPD2    H5 5874   4.039   1.838  11.474  0.1700 -0.6005  2.5484
  389MPD2    N1 5875   4.417   2.080  11.111 -0.2207  0.1080  0.1254
  389MPD2    H7 5876   4.428   2.160  11.050 -1.7261  0.2531  0.0396
  390TMC3    C1 5877   4.211   1.677  11.585  0.5589 -0.6090 -0.4870
  390TMC3    C2 5878   4.316   1.612  11.646  0.3957 -0.5004 -0.6360
  390TMC3    C3 5879   4.320   1.474  11.638 -0.3279 -0.5215 -0.5508
  390TMC3    C4 5880   4.109   1.601  11.519 -0.2607  0.2404  0.2984
  390TMC3    C5 5881   4.119   1.463  11.525  0.4494 -0.0701 -0.1438
  390TMC3    C6 5882   4.223   1.400  11.575 -0.1555  0.4434  0.4012
  390TMC3     C 5883   4.244   1.804  11.521 -0.4323 -0.1360  0.4262
  390TMC3     O 5884   4.360   1.844  11.531  0.4119  0.0962 -0.3104
  390TMC3     H 5885   4.398   1.672  11.684  1.3845 -2.0588 -0.3139
  390TMC3    H1 5886   4.025   1.646  11.469  0.5073 -0.2433 -1.4127
  390TMC3    H2 5887   4.228   1.293  11.558 -0.8098  0.3575  0.7453
  390TMC3    C7 5888   4.008   1.384  11.506 -0.0006  0.4757 -0.3789
  390TMC3    C8 5889   4.428   1.390  11.677 -0.3270  0.1849 -0.7034
  390TMC3    O1 5890   4.000   1.270  11.548  0.1385 -0.9844 -0.6451
  390TMC3    O2 5891   4.446   1.288  11.610 -0.1165 -0.3606 -0.1175
  391MPD2     C 5892   4.088   3.702  11.046 -0.1072  0.4256 -0.4224
  391MPD2    C1 5893   4.129   3.820  10.986  0.0554 -0.5839 -0.3233
  391MPD2    C2 5894   4.106   3.833  10.846  0.4583 -0.5401  0.1093
  391MPD2    C3 5895   4.044   3.730  10.774  0.0965 -0.5596  0.1446
  391MPD2    C4 5896   4.004   3.613  10.833  0.7088 -0.2214  0.4655
  391MPD2    C5 5897   4.034   3.603  10.965 -0.3920  0.5629 -0.6912
  391MPD2     H 5898   4.130   3.926  10.795 -0.2382  0.3721  1.4547
  391MPD2    H1 5899   3.958   3.535  10.775  1.4230 -1.3511  1.4196
  391MPD2    H2 5900   4.094   3.692  11.154  0.4469  2.0604 -0.2918
  391MPD2    H3 5901   3.994   3.515  11.014 -0.0087 -0.0017 -1.3890
  391MPD2     N 5902   4.023   3.772  10.641  0.0599  0.6462 -0.0612
  391MPD2    H5 5903   4.069   3.860  10.619 -1.5229  1.3359 -0.6423
  391MPD2    N1 5904   4.174   3.925  11.066  0.0168 -0.7921  0.1105
  391MPD2    H7 5905   4.185   3.903  11.164 -0.2932  1.7248  0.7169
  392TMC3    C1 5906   3.959   3.776  10.414 -1.0761  0.6284 -0.3052
  392TMC3    C2 5907   3.864   3.737  10.317  0.2942 -0.0544 -0.2922
  392TMC3    C3 5908   3.847   3.822  10.208  0.5152 -0.1216  0.1774
  392TMC3    C4 5909   4.006   3.907  10.411 -0.1194 -0.1364  0.2753
  392TMC3    C5 5910   3.973   3.992  10.307  0.5067 -0.5344  0.1928
  392TMC3    C6 5911   3.897   3.949  10.203 -0.3409 -0.7784  0.7209
  392TMC3     C 5912   3.953   3.703  10.543 -0.4139 -0.3681  0.1131
  392TMC3     O 5913   3.867   3.622  10.568 -0.0532  0.7209 -0.5007
  392TMC3     H 5914   3.844   3.631  10.304  1.8084 -0.0886 -2.4668
  392TMC3    H1 5915   4.087   3.934  10.477  0.6227  0.7800 -1.0079
  392TMC3    H2 5916   3.888   4.013  10.116 -1.5653  0.9643  2.1398
  392TMC3    C7 5917   4.041   4.125  10.291 -0.2040 -0.0983  0.1116
  392TMC3    C8 5918   3.800   3.750  10.091  0.9917 -0.0134  0.8154
  392TMC3    O1 5919   4.150   4.134  10.346 -0.3445 -0.3911 -0.4853
  392TMC3    O2 5920   3.827   3.630  10.075  0.0007  0.9888 -0.2286
  393TMC3    C1 5921   3.513   2.029  10.764 -0.1763 -0.6994  0.1478
  393TMC3    C2 5922   3.451   2.038  10.886  0.0844 -0.0459  0.1916
  393TMC3    C3 5923   3.366   1.933  10.924 -0.5084  0.3965  0.1093
  393TMC3    C4 5924   3.492   1.923  10.681 -0.2922  0.4523  0.3628
  393TMC3    C5 5925   3.391   1.831  10.720 -0.3274 -0.3028 -0.2943
  393TMC3    C6 5926   3.314   1.844  10.835 -0.6847 -0.5171  0.3746
  393TMC3     C 5927   3.517   2.153  10.691 -0.1947 -0.6225  0.1879
  393TMC3     O 5928   3.531   2.158  10.571 -0.5923 -0.1054 -0.5707
  393TMC3     H 5929   3.477   2.114  10.958  2.4970 -1.3905  0.7456
  393TMC3    H1 5930   3.553   1.908  10.592  1.7485 -1.1974  2.0311
  393TMC3    H2 5931   3.239   1.769  10.857  0.1821 -1.1207  1.2811
  393TMC3    C7 5932   3.381   1.710  10.643  0.5261  0.3565  0.0358
  393TMC3    C8 5933   3.276   1.984  11.028  0.0887 -0.1924  0.3010
  393TMC3    O1 5934   3.268   1.661  10.650 -0.5554 -0.5471 -0.1965
  393TMC3    O2 5935   3.290   2.096  11.070 -0.5011  0.2646  0.1338
  394TMC3    C1 5936   4.630   2.022  11.017  0.2303 -0.1623  0.0018
  394TMC3    C2 5937   4.678   1.914  10.947  0.2010  0.3998 -0.5904
  394TMC3    C3 5938   4.706   1.920  10.811  0.3830  0.4629  0.0955
  394TMC3    C4 5939   4.634   2.145  10.964 -0.5007 -0.5985 -0.2543
  394TMC3    C5 5940   4.670   2.148  10.832  0.3657  0.2125 -0.4408
  394TMC3    C6 5941   4.691   2.042  10.751  0.4645  0.4814 -0.0831
  394TMC3     C 5942   4.518   1.987  11.106 -0.1476  0.3875  0.0905
  394TMC3     O 5943   4.520   1.882  11.170 -0.3606 -0.5315  0.0318
  394TMC3     H 5944   4.699   1.824  11.003  0.3770 -0.1560 -1.5485
  394TMC3    H1 5945   4.608   2.232  11.023  1.4875 -0.2352  0.0965
  394TMC3    H2 5946   4.703   2.048  10.643  2.4473  1.4923  0.1893
  394TMC3    C7 5947   4.661   2.268  10.758 -0.5692 -0.1533 -0.7473
  394TMC3    C8 5948   4.691   1.803  10.733  0.4419 -0.0578 -0.0394
  394TMC3    O1 5949   4.624   2.266  10.642  0.2151  0.3014 -0.0241
  394TMC3    O2 5950   4.626   1.712  10.782 -0.3680  0.2129 -0.4257
  395TMC3    C1 5951   4.281   4.163  15.347  0.2580 -0.0018  0.0039
  395TMC3    C2 5952   4.262   4.115  15.220  0.4990  0.0557  0.0291
  395TMC3    C3 5953   4.310   4.188  15.110 -0.1460  0.5931  0.6586
  395TMC3    C4 5954   4.359   4.277  15.369 -0.1697  0.1506 -0.3493
  395TMC3    C5 5955   4.399   4.345  15.255  0.2248  0.1761  0.0117
  395TMC3    C6 5956   4.380   4.303  15.126 -0.1583 -0.0743  0.0112
  395TMC3     C 5957   4.279   4.079  15.471 -0.0220  0.0802  0.0764
  395TMC3     O 5958   4.324   4.127  15.576  0.2007  0.5387 -0.1643
  395TMC3     H 5959   4.192   4.035  15.198  1.3497 -0.7629  0.2568
  395TMC3    H1 5960   4.401   4.312  15.463  0.0933  1.5517 -0.9870
  395TMC3    H2 5961   4.437   4.352  15.047  0.5383  0.6142  0.9482
  395TMC3    C7 5962   4.491   4.457  15.284  0.3536 -0.2842 -0.6005
  395TMC3    C8 5963   4.324   4.124  14.979  0.1289 -0.3988 -0.0655
  395TMC3    O1 5964   4.543   4.461  15.394 -0.3344 -0.0313  0.5357
  395TMC3    O2 5965   4.342   4.202  14.891  0.4192  0.2513  0.0211
  396MPD2     C 5966   4.050   0.273  16.485  0.0206 -0.3933  0.0844
  396MPD2    C1 5967   4.151   0.334  16.559  0.4626 -0.4458 -0.5299
  396MPD2    C2 5968   4.273   0.362  16.500 -0.5466  0.2683  0.1125
  396MPD2    C3 5969   4.302   0.312  16.373  0.1326  0.0135  0.6716
  396MPD2    C4 5970   4.204   0.254  16.302 -0.7846 -0.2798 -0.4183
  396MPD2    C5 5971   4.080   0.240  16.354  0.5369 -0.3994  0.1566
  396MPD2     H 5972   4.359   0.388  16.561  1.1886  0.0640 -2.2371
  396MPD2    H1 5973   4.228   0.213  16.204  0.6857 -0.4723  0.0321
  396MPD2    H2 5974   3.953   0.252  16.529 -1.4462  2.3451 -1.8836
  396MPD2    H3 5975   4.005   0.187  16.298 -1.6864 -1.4556  4.1501
  396MPD2     N 5976   4.434   0.337  16.321 -0.1685  0.2532 -0.6678
  396MPD2    H5 5977   4.492   0.394  16.382 -1.6643  0.6268  0.3759
  396MPD2    N1 5978   4.133   0.368  16.698 -0.0935  0.2132 -0.2610
  396MPD2    H7 5979   4.043   0.347  16.739  0.9556 -4.2576 -0.1953
  397TMC3    C1 5980   4.196   0.440  16.926  0.1478  0.5112  0.1084
  397TMC3    C2 5981   4.295   0.370  16.995  1.0496  0.2674 -0.3375
  397TMC3    C3 5982   4.260   0.244  17.038 -0.7128 -0.0044 -0.0066
  397TMC3    C4 5983   4.072   0.405  16.953  0.1331 -0.8502 -0.3567
  397TMC3    C5 5984   4.039   0.302  17.041  0.3262 -0.1305  0.1733
  397TMC3    C6 5985   4.133   0.215  17.075 -0.3641 -0.3176  0.5725
  397TMC3     C 5986   4.227   0.432  16.779 -1.2460 -0.0140 -0.1024
  397TMC3     O 5987   4.341   0.470  16.757 -0.0441 -0.3842 -0.4550
  397TMC3     H 5988   4.395   0.389  16.959  0.8807  1.0631 -0.3690
  397TMC3    H1 5989   3.985   0.456  16.913  1.8921  0.1719 -2.8854
  397TMC3    H2 5990   4.110   0.119  17.119  0.1876 -0.7859 -0.1471
  397TMC3    C7 5991   3.906   0.304  17.100 -0.2735  0.1469  0.4034
  397TMC3    C8 5992   4.310   0.136  16.958 -0.1543  0.6167  0.6531
  397TMC3    O1 5993   3.833   0.394  17.063 -0.4243  0.2671  0.9319
  397TMC3    O2 5994   4.230   0.047  16.936 -0.0512 -0.2519 -0.0083
  398MPD2     C 5995   2.284   1.421   0.047 -0.4681 -0.4638 -0.0075
  398MPD2    C1 5996   2.412   1.428   0.095  0.8532  0.2235  0.0140
  398MPD2    C2 5997   2.472   1.545   0.134 -0.2306 -0.0075  0.4447
  398MPD2    C3 5998   2.405   1.661   0.089 -0.4945  0.0585 -0.2091
  398MPD2    C4 5999   2.274   1.652   0.048 -0.2940 -0.6435  0.1134
  398MPD2    C5 6000   2.211   1.536   0.025  0.2726  0.3665  0.0380
  398MPD2     H 6001   2.577   1.553   0.159 -0.3191 -0.5829  1.0076
  398MPD2    H1 6002   2.227   1.748   0.031  0.3113 -0.1450  1.2638
  398MPD2    H2 6003   2.225   1.332   0.025 -2.0462  1.3670 -3.1575
  398MPD2    H3 6004   2.115   1.537  17.714  0.2288  1.5761  0.1662
  398MPD2     N 6005   2.483   1.780   0.103  0.0660 -0.6224 -0.2294
  398MPD2    H5 6006   2.573   1.761   0.147 -0.4583  0.7449  1.4065
  398MPD2    N1 6007   2.488   1.310   0.109  0.3790  0.1742 -0.0621
  398MPD2    H7 6008   2.578   1.319   0.156  0.8754 -0.7277 -0.8264
  399TMC3    C1 6009   2.555   1.087   0.071 -0.6017 -0.4726  0.0509
  399TMC3    C2 6010   2.688   1.121   0.058 -0.2155  0.4133  0.2992
  399TMC3    C3 6011   2.777   1.020   0.061  0.0629  0.1531  0.0346
  399TMC3    C4 6012   2.509   0.963   0.085  0.8247 -0.4184  1.1091
  399TMC3    C5 6013   2.603   0.862   0.093 -0.2302 -0.3003  0.2420
  399TMC3    C6 6014   2.738   0.886   0.078  0.7890  0.1632  0.2816
  399TMC3     C 6015   2.462   1.188   0.054  0.0717 -0.1467  0.2120
  399TMC3     O 6016   2.371   1.154  17.717 -0.0299 -0.4700 -0.7356
  399TMC3     H 6017   2.726   1.221   0.035  0.9972  0.0947  0.8943
  399TMC3    H1 6018   2.403   0.949   0.067  1.3427 -0.1894 -2.0464
  399TMC3    H2 6019   2.817   0.813   0.079  0.5428 -0.0651  2.5412
  399TMC3    C7 6020   2.575   0.721   0.091 -0.0635  0.0433 -0.6403
  399TMC3    C8 6021   2.910   1.056   0.093 -0.1233  0.1155  0.4007
  399TMC3    O1 6022   2.675   0.650   0.076  1.1867 -0.2205 -0.1306
  399TMC3    O2 6023   2.933   1.173   0.125  0.3556  0.5312  0.4744
  400TMC3    C1 6024   1.090   4.229  16.975 -0.3956 -0.0467  0.4453
  400TMC3    C2 6025   1.030   4.105  16.960 -0.3268 -0.3792 -0.7127
  400TMC3    C3 6026   0.894   4.109  16.964 -0.5182  0.0930  0.2245
  400TMC3    C4 6027   1.022   4.347  16.986  0.3285 -0.5783  0.2570
  400TMC3    C5 6028   0.885   4.346  16.978 -0.4928  0.1968  0.0459
  400TMC3    C6 6029   0.819   4.229  16.959 -0.0941  0.3244 -0.4767
  400TMC3     C 6030   1.228   4.231  17.006  0.6259 -0.6176  0.0231
  400TMC3     O 6031   1.292   4.131  17.036  0.9737 -0.1268 -0.5134
  400TMC3     H 6032   1.088   4.014  16.966 -2.3804 -1.7873 -2.1989
  400TMC3    H1 6033   1.069   4.442  17.010 -2.0565  0.3314  1.2865
  400TMC3    H2 6034   0.711   4.226  16.948  0.0786 -0.0997 -2.0478
  400TMC3    C7 6035   0.810   4.469  16.940  0.3639  1.0140 -0.6785
  400TMC3    C8 6036   0.812   3.998  16.915 -0.1792  0.6284 -0.0331
  400TMC3    O1 6037   0.729   4.450  16.853 -0.3980  0.1417 -0.3054
  400TMC3    O2 6038   0.694   4.005  16.938 -0.6993  0.0346 -0.3290
  401MPD2     C 6039   4.502   3.451   0.795  0.1215 -0.1348  0.0793
  401MPD2    C1 6040   4.597   3.393   0.877 -0.1869  0.9179 -0.0401
  401MPD2    C2 6041   4.607   3.258   0.885 -0.2668 -0.0104 -0.2211
  401MPD2    C3 6042   4.512   3.177   0.825  0.1679 -0.7396  0.1442
  401MPD2    C4 6043   4.417   3.236   0.751  0.3014 -0.8242 -0.8255
  401MPD2    C5 6044   4.412   3.366   0.730  0.0663 -0.9478  0.0718
  401MPD2     H 6045   4.692   3.212   0.934 -1.2127  0.8109  2.1900
  401MPD2    H1 6046   4.332   3.176   0.723 -0.1514  0.2354 -1.7051
  401MPD2    H2 6047   4.492   3.559   0.782 -0.3460 -0.2925 -0.8605
  401MPD2    H3 6048   4.334   3.416   0.674  0.3525  0.6003  1.0525
  401MPD2     N 6049   4.514   3.036   0.854 -0.0903  0.1619  0.5763
  401MPD2    H5 6050   4.597   3.006   0.905 -0.0242 -0.6928 -0.0210
  401MPD2    N1 6051   4.700   3.458   0.940  0.2572 -0.1496  0.2268
  401MPD2    H7 6052   0.035   3.399   0.985  1.0227  0.4219 -0.1868
  402TMC3    C1 6053   4.453   2.817   0.882 -0.4655  0.1528 -0.1560
  402TMC3    C2 6054   4.531   2.810   0.999 -0.3753 -0.2809  0.7717
  402TMC3    C3 6055   4.526   2.696   1.066 -0.6355  0.1471  0.0559
  402TMC3    C4 6056   4.389   2.711   0.828 -0.2992 -0.1003 -0.3345
  402TMC3    C5 6057   4.405   2.593   0.887 -0.0963 -0.5588  0.3175
  402TMC3    C6 6058   4.470   2.585   1.004 -0.4806  0.2139  0.7151
  402TMC3     C 6059   4.432   2.940   0.808  0.1105 -0.3395  0.6693
  402TMC3     O 6060   4.355   2.944   0.709  0.2850  0.1001  0.2633
  402TMC3     H 6061   4.565   2.900   1.049 -0.6226 -0.4014  1.1521
  402TMC3    H1 6062   4.321   2.714   0.744  0.7476 -0.8585 -1.2085
  402TMC3    H2 6063   4.474   2.486   1.049 -2.1466 -1.6955 -3.3334
  402TMC3    C7 6064   4.406   2.474   0.804 -0.2367 -0.1672  0.0981
  402TMC3    C8 6065   4.622   2.662   1.166 -1.0246 -1.3180  0.8876
  402TMC3    O1 6066   4.303   2.443   0.749 -0.5720 -0.8390  0.1457
  402TMC3    O2 6067   4.633   2.545   1.194 -0.1880  0.2056 -0.3830
  403MPD2     C 6068   2.628   1.033  13.503 -0.7098 -0.2526  0.2918
  403MPD2    C1 6069   2.563   1.132  13.575 -0.0754 -0.2938 -0.2775
  403MPD2    C2 6070   2.617   1.172  13.704  0.3145  0.4076  0.1220
  403MPD2    C3 6071   2.714   1.092  13.765 -0.0258  0.6037  0.3841
  403MPD2    C4 6072   2.760   0.985  13.694 -0.1582  0.3056 -0.0550
  403MPD2    C5 6073   2.727   0.962  13.568 -0.7816 -0.8799  0.0659
  403MPD2     H 6074   2.572   1.251  13.763  0.4573  0.0618  0.6936
  403MPD2    H1 6075   2.843   0.925  13.733 -0.0915  0.1688 -0.4103
  403MPD2    H2 6076   2.605   1.002  13.402 -1.4721 -0.7838  0.6312
  403MPD2    H3 6077   2.767   0.882  13.508  0.7417 -0.4661  0.5281
  403MPD2     N 6078   2.748   1.128  13.893  0.0006  0.4270  0.2298
  403MPD2    H5 6079   2.714   1.218  13.927 -0.3181  0.4324 -0.1029
  403MPD2    N1 6080   2.450   1.185  13.518  0.1780 -0.0479 -0.0034
  403MPD2    H7 6081   2.423   1.139  13.432 -0.6903  1.1470 -0.3743
  404TMC3    C1 6082   2.252   1.300  13.490 -0.5534 -0.0591 -0.2448
  404TMC3    C2 6083   2.137   1.285  13.562  0.1981 -0.2238  0.5520
  404TMC3    C3 6084   2.042   1.203  13.516  0.5962  0.2825  0.3859
  404TMC3    C4 6085   2.271   1.246  13.367  0.2766 -0.6186  0.9198
  404TMC3    C5 6086   2.157   1.193  13.314  0.2906  0.7639 -0.2436
  404TMC3    C6 6087   2.045   1.166  13.384  0.0641 -0.0733  1.1252
  404TMC3     C 6088   2.365   1.280  13.577  0.1425 -0.0662  0.8899
  404TMC3     O 6089   2.343   1.295  13.696 -0.5803  0.1096 -0.5248
  404TMC3     H 6090   2.126   1.334  13.658  1.1622 -0.3585  0.7381
  404TMC3    H1 6091   2.354   1.290  13.312  0.7717 -1.0548  1.3130
  404TMC3    H2 6092   1.981   1.085  13.350 -0.4055  0.2502  1.2411
  404TMC3    C7 6093   2.169   1.156  13.176  0.1683  0.2702  0.0231
  404TMC3    C8 6094   2.010   1.092  13.610 -0.6593 -0.6858  0.2628
  404TMC3    O1 6095   2.284   1.154  13.138  0.1928 -0.1289  1.0252
  404TMC3    O2 6096   1.914   1.021  13.588  0.1930 -0.1758  0.2708
  405MPD2     C 6097   2.106   2.412  15.089 -0.3783  0.4228 -0.5596
  405MPD2    C1 6098   2.090   2.354  14.968  0.1592 -0.4799 -0.3554
  405MPD2    C2 6099   1.984   2.400  14.881 -0.0689  0.5169  0.3063
  405MPD2    C3 6100   1.907   2.511  14.910  0.4217 -0.7895  0.1403
  405MPD2    C4 6101   1.924   2.564  15.035  0.3629 -0.0437  0.1877
  405MPD2    C5 6102   2.021   2.517  15.119 -0.2082 -0.3704  0.0644
  405MPD2     H 6103   1.965   2.336  14.795 -0.9528 -0.0647  0.9329
  405MPD2    H1 6104   1.862   2.643  15.074 -2.5787 -1.5688 -1.3758
  405MPD2    H2 6105   2.169   2.373  15.169 -0.8852 -2.9219 -1.7929
  405MPD2    H3 6106   2.018   2.559  15.219 -0.8328  3.4729 -1.5826
  405MPD2     N 6107   1.809   2.557  14.817 -0.7217 -0.2045 -0.5276
  405MPD2    H5 6108   1.814   2.501  14.732  2.3951 -0.9987  0.1837
  405MPD2    N1 6109   2.164   2.233  14.949  0.1147 -0.5721  0.2685
  405MPD2    H7 6110   2.205   2.192  15.033 -0.0235  2.5808  1.8585
  406TMC3    C1 6111   1.376   2.673  14.670 -0.6665  0.7858 -0.0823
  406TMC3    C2 6112   1.346   2.544  14.656  0.2539  0.9587 -0.8040
  406TMC3    C3 6113   1.437   2.447  14.693  0.5387 -0.2348  0.5930
  406TMC3    C4 6114   1.500   2.712  14.721  0.6099 -0.2909  0.8728
  406TMC3    C5 6115   1.589   2.618  14.760  0.1136  0.0351  0.2525
  406TMC3    C6 6116   1.558   2.485  14.748  0.7482 -0.4610  0.5201
  406TMC3     C 6117   1.306   2.774  14.604  0.5611 -0.2615 -0.7608
  406TMC3     O 6118   1.189   2.746  14.583  0.1457 -0.3688 -0.5113
  406TMC3     H 6119   1.252   2.508  14.616  0.4962 -1.4153  0.7621
  406TMC3    H1 6120   1.528   2.811  14.753 -1.9538  0.5954  0.4236
  406TMC3    H2 6121   1.634   2.418  14.785  0.1837 -2.3131 -1.6987
  406TMC3    C7 6122   1.708   2.650  14.841  0.0491  0.9592 -0.6600
  406TMC3    C8 6123   1.405   2.313  14.668 -0.0572 -0.5303  0.8278
  406TMC3    O1 6124   1.689   2.724  14.940 -0.6032 -0.1397  0.5529
  406TMC3    O2 6125   1.290   2.272  14.663 -0.2131 -0.0442  0.0013
  407MPD2     C 6126   4.524   3.510   9.827  0.2051 -0.8836  0.1386
  407MPD2    C1 6127   4.532   3.629   9.761 -0.5424 -0.5550  0.1410
  407MPD2    C2 6128   4.565   3.746   9.831 -0.0034  0.2565  0.4068
  407MPD2    C3 6129   4.581   3.742   9.967 -0.5214 -0.0839  0.1286
  407MPD2    C4 6130   4.563   3.621  10.035  0.2949  0.3390  0.0948
  407MPD2    C5 6131   4.520   3.512   9.964 -0.0786  0.3477 -0.5505
  407MPD2     H 6132   4.550   3.845   9.789 -0.6839  0.3667  0.8960
  407MPD2    H1 6133   4.574   3.628  10.143 -0.3025 -1.1036  0.2526
  407MPD2    H2 6134   4.498   3.415   9.782  1.8296 -0.8674 -0.8361
  407MPD2    H3 6135   4.502   3.421  10.020  0.8504  1.1772  1.1158
  407MPD2     N 6136   4.624   3.854  10.042 -0.1623 -0.3249 -0.4438
  407MPD2    H5 6137   4.634   3.850  10.143  1.1488 -1.0979 -0.6031
  407MPD2    N1 6138   4.513   3.639   9.621 -0.1454 -0.2326 -0.0163
  407MPD2    H7 6139   4.552   3.722   9.576  1.5535 -0.6766  0.6406
  408TMC3    C1 6140   4.431   3.601   9.414 -0.3105  0.3324  0.6239
  408TMC3    C2 6141   4.527   3.690   9.372 -0.4392  0.6007  0.1999
  408TMC3    C3 6142   4.491   3.765   9.259  0.0819  0.6310 -0.1439
  408TMC3    C4 6143   4.320   3.575   9.348 -0.0434 -0.2152 -0.1539
  408TMC3    C5 6144   4.301   3.646   9.231 -0.4980  0.1264 -0.6768
  408TMC3    C6 6145   4.378   3.740   9.182 -0.3866 -0.5204 -0.2408
  408TMC3     C 6146   4.443   3.553   9.547 -0.0174  0.0761  0.0808
  408TMC3     O 6147   4.381   3.450   9.574 -0.6432 -0.4447 -0.3108
  408TMC3     H 6148   4.622   3.704   9.421 -1.1963  1.3567  1.4508
  408TMC3    H1 6149   4.240   3.521   9.396 -0.9572  1.6099  0.3832
  408TMC3    H2 6150   4.363   3.791   9.087  1.0778 -2.3950 -1.4748
  408TMC3    C7 6151   4.180   3.600   9.159  1.1078 -0.4557 -0.9034
  408TMC3    C8 6152   4.608   3.817   9.192  0.2507  0.0838  0.0550
  408TMC3    O1 6153   4.108   3.681   9.101  0.8229 -0.7314 -0.4424
  408TMC3    O2 6154   4.615   3.806   9.070  0.2085 -0.6370 -0.0494
  409MPD2     C 6155   4.728   3.562  17.186 -0.5424 -0.6192 -0.1654
  409MPD2    C1 6156   0.093   3.594  17.280  0.6198  0.2864  0.4943
  409MPD2    C2 6157   0.141   3.723  17.278 -0.6518  0.3932 -0.1350
  409MPD2    C3 6158   0.102   3.822  17.185  0.1273  0.8442 -0.2242
  409MPD2    C4 6159   0.009   3.788  17.091 -0.1429 -0.6770  1.0164
  409MPD2    C5 6160   4.685   3.662  17.097 -0.1287  0.1566 -0.2362
  409MPD2     H 6161   0.208   3.745  17.360 -2.5252  0.8782  1.2437
  409MPD2    H1 6162   4.731   3.853  17.006  1.4041 -1.1433  0.4251
  409MPD2    H2 6163   4.683   3.464  17.187  1.4082 -1.4673  3.1234
  409MPD2    H3 6164   4.622   3.637  17.012 -1.6641 -0.4294  1.0866
  409MPD2     N 6165   0.167   3.943  17.181 -0.1507 -0.0062 -1.1217
  409MPD2    H5 6166   0.114   4.018  17.138  0.0906  0.3924 -0.7187
  409MPD2    N1 6167   0.139   3.510  17.376  0.3850 -0.5976 -0.6758
  409MPD2    H7 6168   0.217   3.556  17.422  0.8703 -1.5296 -0.5606
  410TMC3    C1 6169   0.338   4.096  17.235  0.0388  0.0707 -0.2084
  410TMC3    C2 6170   0.470   4.113  17.258  0.1514  0.4305  0.2278
  410TMC3    C3 6171   0.515   4.243  17.244  0.4826 -0.1969 -0.2332
  410TMC3    C4 6172   0.253   4.193  17.196  0.2828 -0.1238  0.0884
  410TMC3    C5 6173   0.308   4.318  17.177  0.0036 -0.3860 -0.3682
  410TMC3    C6 6174   0.437   4.340  17.206  0.1191  0.4603 -0.4322
  410TMC3     C 6175   0.291   3.962  17.238  0.2524  0.0365 -0.4372
  410TMC3     O 6176   0.375   3.873  17.258  0.1660  0.1478  0.4549
  410TMC3     H 6177   0.544   4.038  17.284 -1.3458 -1.7062 -1.6786
  410TMC3    H1 6178   0.147   4.191  17.218  0.1882  1.8961 -0.1394
  410TMC3    H2 6179   0.478   4.440  17.200  1.6329 -0.0944  0.8009
  410TMC3    C7 6180   0.215   4.428  17.164  0.0227 -1.0656  0.0992
  410TMC3    C8 6181   0.655   4.285  17.268  0.6532  0.3301  0.7353
  410TMC3    O1 6182   0.108   4.422  17.217 -0.1235 -0.6561 -0.3087
  410TMC3    O2 6183   0.683   4.405  17.265  0.9300 -0.5156  0.3112
  411MPD2     C 6184   4.615   4.373  14.561  0.4055  0.4081 -0.0236
  411MPD2    C1 6185   4.525   4.415  14.463 -0.4615  0.5974 -0.0722
  411MPD2    C2 6186   4.462   4.320  14.384  0.8801 -0.0379 -0.3484
  411MPD2    C3 6187   4.500   4.189  14.399 -0.7708 -0.2220  0.3764
  411MPD2    C4 6188   4.580   4.147  14.504  0.5669  0.2468 -0.5076
  411MPD2    C5 6189   4.638   4.237  14.584  0.0480 -0.0093  0.4152
  411MPD2     H 6190   4.382   4.350  14.318 -0.8051 -2.5599  0.5405
  411MPD2    H1 6191   4.618   4.046  14.512 -2.8869 -0.8961  1.5951
  411MPD2    H2 6192   4.671   4.447  14.618  0.7560  0.0687  0.0685
  411MPD2    H3 6193   4.713   4.202  14.655  0.3746  1.3938  0.7589
  411MPD2     N 6194   4.455   4.077  14.316 -0.0041 -0.1181 -0.0529
  411MPD2    H5 6195   4.503   3.991  14.341  0.0216 -0.6424 -1.9020
  411MPD2    N1 6196   4.504   4.556  14.451 -0.0919 -0.6064 -0.5511
  411MPD2    H7 6197   4.549   4.614  14.520 -1.9146  2.0822 -1.6097
  412TMC3    C1 6198   4.327   3.957  14.163  0.6304 -1.1132  0.3649
  412TMC3    C2 6199   4.259   3.878  14.256  0.2012  0.0115 -0.1294
  412TMC3    C3 6200   4.144   3.814  14.220 -0.3931 -0.2749 -0.5338
  412TMC3    C4 6201   4.280   3.960  14.034  0.0956 -0.9942  0.0656
  412TMC3    C5 6202   4.182   3.871  13.999 -0.6364 -0.3694 -0.0390
  412TMC3    C6 6203   4.112   3.803  14.090 -0.2058 -0.3908  0.2885
  412TMC3     C 6204   4.367   4.082  14.215  0.3206  0.0538 -0.0314
  412TMC3     O 6205   4.322   4.176  14.156  0.0445 -0.0729  0.1112
  412TMC3     H 6206   4.266   3.899  14.363 -0.0079  0.0427 -0.1210
  412TMC3    H1 6207   4.347   4.012  13.967  0.3406 -0.8474  0.4288
  412TMC3    H2 6208   4.046   3.721  14.061 -1.2926  0.5647  0.0472
  412TMC3    C7 6209   4.091   3.917  13.894 -0.5708  0.2656 -0.3751
  412TMC3    C8 6210   4.038   3.845  14.309 -0.9676  0.2386 -0.4832
  412TMC3    O1 6211   3.976   3.908  13.929 -0.0277  0.3107 -0.2371
  412TMC3    O2 6212   4.035   3.825  14.431 -0.2446  0.0147 -0.3365
  413MPD2     C 6213   1.169   3.175  15.697 -0.3254  0.1428 -0.0863
  413MPD2    C1 6214   1.187   3.091  15.586  0.3587  0.8437 -0.4727
  413MPD2    C2 6215   1.318   3.082  15.543 -0.4620  0.3801 -0.3625
  413MPD2    C3 6216   1.422   3.136  15.617 -0.0725 -0.3329  0.1070
  413MPD2    C4 6217   1.397   3.209  15.730 -0.0364  0.3934  0.3370
  413MPD2    C5 6218   1.267   3.238  15.765  0.0032  0.0487 -0.2164
  413MPD2     H 6219   1.344   3.025  15.454  2.2024  2.6093 -1.0124
  413MPD2    H1 6220   1.479   3.251  15.788  0.8157  0.1191 -0.6536
  413MPD2    H2 6221   1.071   3.184  15.744  1.5623  2.5131  3.3936
  413MPD2    H3 6222   1.245   3.304  15.848 -0.4922  2.5866 -2.3417
  413MPD2     N 6223   1.554   3.100  15.570 -0.8378  0.1725  0.5357
  413MPD2    H5 6224   1.556   3.048  15.483  1.2549  0.9704  0.1093
  413MPD2    N1 6225   1.076   3.035  15.530  0.4949 -0.1587 -0.2920
  413MPD2    H7 6226   0.989   3.028  15.582  0.6539 -0.4873 -0.0733
  414TMC3    C1 6227   1.762   3.045  15.556  0.1494  0.3642  0.0247
  414TMC3    C2 6228   1.838   2.948  15.608 -0.5258 -0.1342 -1.0451
  414TMC3    C3 6229   1.905   2.863  15.517  0.3695  0.2058 -0.0647
  414TMC3    C4 6230   1.754   3.074  15.422 -0.6332 -0.0072  0.2750
  414TMC3    C5 6231   1.826   2.992  15.336  0.8507 -1.0514  0.3733
  414TMC3    C6 6232   1.899   2.885  15.382  0.6597 -0.1629  0.2137
  414TMC3     C 6233   1.661   3.097  15.643 -0.0783  0.1859  0.0209
  414TMC3     O 6234   1.679   3.081  15.761  0.5814  0.1958  0.0200
  414TMC3     H 6235   1.835   2.913  15.711  1.5766 -3.4599 -2.1149
  414TMC3    H1 6236   1.695   3.156  15.385  0.7902  1.5740  1.4819
  414TMC3    H2 6237   1.965   2.825  15.322 -1.3712 -0.6626 -1.5233
  414TMC3    C7 6238   1.848   3.028  15.197 -0.3112  0.4381 -0.3403
  414TMC3    C8 6239   1.994   2.749  15.565  0.5333  0.1313  0.3369
  414TMC3    O1 6240   1.899   2.940  15.126 -0.3311  0.0350 -0.5899
  414TMC3    O2 6241   1.994   2.660  15.481 -0.4148  0.3175 -0.5401
  415TMC3    C1 6242   2.275   1.525  10.628 -1.0093 -0.3469  0.7668
  415TMC3    C2 6243   2.329   1.638  10.582 -0.1772 -0.1457  0.0568
  415TMC3    C3 6244   2.449   1.622  10.511  0.0817 -0.1130 -0.4062
  415TMC3    C4 6245   2.326   1.406  10.602  0.1056  0.9300  0.2068
  415TMC3    C5 6246   2.426   1.394  10.514 -0.6296 -0.2536  0.1741
  415TMC3    C6 6247   2.491   1.503  10.468 -0.1402  1.2504 -0.5881
  415TMC3     C 6248   2.187   1.530  10.738 -0.4811  0.3610  0.9114
  415TMC3     O 6249   2.181   1.432  10.808  0.2098  0.0424  0.7768
  415TMC3     H 6250   2.291   1.737  10.600 -1.4976 -0.9936  1.9761
  415TMC3    H1 6251   2.263   1.319  10.620  0.5020  0.2588 -1.6405
  415TMC3    H2 6252   2.582   1.493  10.410 -0.4601 -1.1050 -0.6714
  415TMC3    C7 6253   2.491   1.271  10.508 -0.6532 -0.2070  0.0184
  415TMC3    C8 6254   2.529   1.747  10.497 -0.2888 -0.0307  0.1862
  415TMC3    O1 6255   2.506   1.233  10.391  0.4260  0.0038 -0.3901
  415TMC3    O2 6256   2.476   1.854  10.534 -0.4620  0.5059  0.7065
  416MPD2     C 6257   4.223   0.067  11.486  0.3310 -0.2116  0.4602
  416MPD2    C1 6258   4.141   0.005  11.579  0.0436 -0.2844 -0.7183
  416MPD2    C2 6259   4.056   4.637  11.549 -0.1483  0.0711  0.5787
  416MPD2    C3 6260   4.049   4.592  11.426 -0.2397 -0.9729 -0.3643
  416MPD2    C4 6261   4.136   4.641  11.332 -0.2050  0.0674 -0.7069
  416MPD2    C5 6262   4.213   0.020  11.360  0.1832  0.1261  0.0478
  416MPD2     H 6263   3.995   4.588  11.625  0.0624 -0.6611  0.2768
  416MPD2    H1 6264   4.127   4.601  11.231 -0.0655  0.4379 -0.8647
  416MPD2    H2 6265   4.276   0.160  11.502 -2.9816  2.0194 -1.4566
  416MPD2    H3 6266   4.270   0.076  11.287 -0.0168 -0.3595 -0.4807
  416MPD2     N 6267   3.965   4.489  11.387 -0.4259 -0.0006  1.0134
  416MPD2    H5 6268   3.973   4.452  11.293 -1.5072  0.1726  0.8495
  416MPD2    N1 6269   4.125   0.068  11.701 -0.4208 -0.5118  0.0996
  416MPD2    H7 6270   4.187   0.147  11.715  0.5520 -0.7595 -2.9291
  417TMC3    C1 6271   4.073   0.110  11.924 -0.3738 -0.2490  0.5916
  417TMC3    C2 6272   4.026   0.062  12.039  0.0141 -0.1434 -0.5243
  417TMC3    C3 6273   3.925   0.130  12.101 -0.2681 -0.1060  0.0882
  417TMC3    C4 6274   4.027   0.234  11.880  0.4517  0.1267 -0.1892
  417TMC3    C5 6275   3.917   0.294  11.941 -0.8013  0.5707 -0.0205
  417TMC3    C6 6276   3.873   0.248  12.063  0.0703  0.2769 -0.3504
  417TMC3     C 6277   4.077   0.012  11.815  0.5758 -0.5347  0.0865
  417TMC3     O 6278   4.050   4.631  11.844  0.0438  0.1207 -0.1548
  417TMC3     H 6279   4.065   4.701  12.072  1.0444  0.5019  0.0986
  417TMC3    H1 6280   4.043   0.267  11.778 -1.3634 -0.3316 -0.6195
  417TMC3    H2 6281   3.812   0.303  12.134  0.6680 -1.5714  1.5889
  417TMC3    C7 6282   3.861   0.411  11.879  0.0266  0.8758  0.0103
  417TMC3    C8 6283   3.899   0.088  12.234  0.2246 -0.4818  0.2393
  417TMC3    O1 6284   3.930   0.474  11.799  0.0400 -0.1183 -0.5036
  417TMC3    O2 6285   3.832   0.160  12.306  0.4468 -0.0933  0.2761
  418TMC3    C1 6286   2.709   2.162  17.727 -0.3008  0.7676 -0.3235
  418TMC3    C2 6287   2.607   2.082  17.697  0.2254 -0.4317 -0.3637
  418TMC3    C3 6288   2.564   1.991   0.052 -0.1669  0.0383 -0.0839
  418TMC3    C4 6289   2.765   2.173   0.111  0.2024 -0.1290 -0.4715
  418TMC3    C5 6290   2.710   2.097   0.208 -0.2055 -0.9622 -0.1179
  418TMC3    C6 6291   2.618   1.996   0.183  0.2741  0.6038 -0.8323
  418TMC3     C 6292   2.801   2.180  17.619 -0.1052  0.7914  0.9692
  418TMC3     O 6293   2.758   2.159  17.508 -0.2111 -0.4118 -0.5182
  418TMC3     H 6294   2.568   2.079  17.596 -1.4487  0.1903  0.2691
  418TMC3    H1 6295   2.847   2.242   0.128  0.6819 -0.4326 -1.4950
  418TMC3    H2 6296   2.558   1.950   0.261 -0.1576  1.2630 -0.7753
  418TMC3    C7 6297   2.759   2.116   0.340  0.1501 -0.9205  0.1998
  418TMC3    C8 6298   2.470   1.889   0.015 -0.7276  0.3172 -0.2170
  418TMC3    O1 6299   2.821   2.216   0.357 -0.4407  0.6462 -0.0683
  418TMC3    O2 6300   2.394   1.902  17.655 -0.3734  0.4918 -0.5743
  419MPD2     C 6301   1.553   0.016  12.731  0.1796  0.5036  0.6444
  419MPD2    C1 6302   1.471   0.119  12.709 -1.0337 -0.2306  0.0878
  419MPD2    C2 6303   1.381   0.158  12.806  0.1902  0.5317  0.1074
  419MPD2    C3 6304   1.379   0.097  12.930 -0.1786 -0.2423 -0.4911
  419MPD2    C4 6305   1.476   0.010  12.965  0.1450 -0.0088 -0.3101
  419MPD2    C5 6306   1.557   4.702  12.861  0.5033  0.0673  0.0282
  419MPD2     H 6307   1.306   0.231  12.778  0.8256  1.0467 -0.2548
  419MPD2    H1 6308   1.488   4.702  13.064 -0.4471  0.0728 -0.1992
  419MPD2    H2 6309   1.615   4.703  12.655  0.0607 -1.1757  1.5871
  419MPD2    H3 6310   1.618   4.616  12.886  0.7084 -0.2003 -1.4243
  419MPD2     N 6311   1.269   0.125  13.007  0.7398  0.2882  0.1041
  419MPD2    H5 6312   1.214   0.204  12.973  0.2961 -0.6176 -1.2558
  419MPD2    N1 6313   1.476   0.189  12.594  0.0841  0.4110  0.5547
  419MPD2    H7 6314   1.414   0.269  12.587 -1.1513 -0.6585 -0.5526
  420TMC3    C1 6315   1.098   0.105  13.163 -0.1234 -0.6623  0.1431
  420TMC3    C2 6316   1.040   0.211  13.109 -0.6595  0.2847 -0.2438
  420TMC3    C3 6317   0.922   0.237  13.157  0.4168 -0.1658 -0.6319
  420TMC3    C4 6318   1.045   0.023  13.266  0.0594  0.0854 -0.1657
  420TMC3    C5 6319   0.919   0.056  13.311  1.0452  0.0582 -0.1306
  420TMC3    C6 6320   0.859   0.169  13.260 -0.1445 -0.3306  0.5856
  420TMC3     C 6321   1.225   0.060  13.112 -0.6509  0.3721  0.0644
  420TMC3     O 6322   1.280   4.700  13.167 -0.2326 -0.0817  0.4144
  420TMC3     H 6323   1.081   0.275  13.031 -0.5207  0.5054  0.0114
  420TMC3    H1 6324   1.095   4.666  13.295  1.1186  1.3881  2.1551
  420TMC3    H2 6325   0.774   0.214  13.310  0.9334  3.5914 -1.0886
  420TMC3    C7 6326   0.857   4.699  13.407 -0.1682 -0.2896 -0.2658
  420TMC3    C8 6327   0.840   0.328  13.082  0.3544 -0.5285  0.2910
  420TMC3    O1 6328   0.935   4.613  13.450 -0.0830  0.3168 -0.2319
  420TMC3    O2 6329   0.897   0.399  13.002 -0.1350 -0.1031  0.6229
  421TMC3    C1 6330   2.856   1.120  14.113 -0.0699  0.3211 -0.3703
  421TMC3    C2 6331   2.855   1.257  14.105 -0.3319 -0.2156 -0.2865
  421TMC3    C3 6332   2.927   1.338  14.186  0.0740 -0.6626 -0.0399
  421TMC3    C4 6333   2.957   1.059  14.179 -0.7231 -0.2409 -0.2977
  421TMC3    C5 6334   3.041   1.138  14.255 -1.0928  0.8664 -0.1068
  421TMC3    C6 6335   3.023   1.275  14.265  0.2966  0.5678  0.2643
  421TMC3     C 6336   2.814   1.052  13.990 -0.6131 -0.6622 -0.0886
  421TMC3     O 6337   2.870   0.943  13.973  0.1331  0.1430  0.0324
  421TMC3     H 6338   2.779   1.310  14.049 -0.9063 -0.1047  0.6061
  421TMC3    H1 6339   2.951   0.951  14.185 -0.5441 -0.2274  0.1417
  421TMC3    H2 6340   3.109   1.327  14.305  0.9649 -3.1767  3.6380
  421TMC3    C7 6341   3.151   1.079  14.322 -0.0918  0.3614  0.6597
  421TMC3    C8 6342   2.929   1.485  14.168 -0.0839 -0.1822  0.4000
  421TMC3    O1 6343   3.186   1.131  14.429 -0.1265 -0.5611  0.4394
  421TMC3    O2 6344   2.873   1.526  14.067  0.2044  0.0740  0.1352
  422TMC3    C1 6345   4.609   3.103  12.267 -0.4144  0.5683  0.7138
  422TMC3    C2 6346   4.662   3.206  12.335  0.1525 -0.7113  0.2917
  422TMC3    C3 6347   4.589   3.313  12.359  1.0439  0.3123 -0.0719
  422TMC3    C4 6348   4.484   3.111  12.217  0.0827  0.0694 -0.3162
  422TMC3    C5 6349   4.409   3.215  12.242  0.2670  0.0063 -0.2161
  422TMC3    C6 6350   4.455   3.317  12.324 -0.7403 -1.2189  0.4236
  422TMC3     C 6351   4.700   3.009  12.207  0.4282  0.2781  0.7767
  422TMC3     O 6352   4.668   2.947  12.106 -0.4810 -0.2046 -0.3560
  422TMC3     H 6353   0.032   3.216  12.363  0.1452  2.7427 -0.8923
  422TMC3    H1 6354   4.456   3.040  12.140  1.3557 -3.2757  2.3048
  422TMC3    H2 6355   4.393   3.398  12.361  0.9008  0.7639 -1.2623
  422TMC3    C7 6356   4.271   3.193  12.242  0.0607  0.8057 -0.5301
  422TMC3    C8 6357   4.642   3.404  12.447 -0.1111 -0.6569  0.5350
  422TMC3    O1 6358   4.194   3.290  12.233  0.0933 -0.0804  0.1253
  422TMC3    O2 6359   4.719   3.363  12.531  0.0014 -0.3697 -0.3505
  423MPD2     C 6360   1.647   3.609   0.583 -0.2426  0.5654  0.3923
  423MPD2    C1 6361   1.724   3.502   0.619  0.3554 -0.3374 -0.8008
  423MPD2    C2 6362   1.756   3.410   0.527 -0.1063 -0.0900  0.6338
  423MPD2    C3 6363   1.718   3.431   0.396 -0.2771 -0.1401  0.1447
  423MPD2    C4 6364   1.642   3.539   0.365 -0.3522  0.1554  0.0563
  423MPD2    C5 6365   1.605   3.630   0.456  0.1895 -0.0362  0.1226
  423MPD2     H 6366   1.815   3.321   0.545  0.2624 -0.0413 -0.3588
  423MPD2    H1 6367   1.613   3.564   0.263  0.3601  0.6447 -0.0303
  423MPD2    H2 6368   1.613   3.686   0.652 -0.8220 -0.2249  0.9921
  423MPD2    H3 6369   1.550   3.721   0.438 -0.7931 -0.6882 -0.2035
  423MPD2     N 6370   1.761   3.344   0.288 -0.4769  0.1501 -0.5337
  423MPD2    H5 6371   1.734   3.371   0.194  1.8944  0.9999 -0.9518
  423MPD2    N1 6372   1.761   3.479   0.750 -0.4664 -0.5968 -0.1045
  423MPD2    H7 6373   1.814   3.395   0.767 -0.3653 -0.5575 -0.2188
  424TMC3    C1 6374   1.758   3.493   0.979 -0.0217 -0.2199  0.4283
  424TMC3    C2 6375   1.877   3.432   0.992 -0.5130  0.3272  0.6957
  424TMC3    C3 6376   1.905   3.362   1.100  0.3239  0.7514 -0.1980
  424TMC3    C4 6377   1.675   3.516   1.088 -0.0592 -0.3164 -0.0464
  424TMC3    C5 6378   1.705   3.440   1.199  0.2873 -0.1123  0.7821
  424TMC3    C6 6379   1.817   3.358   1.206  0.0621 -0.1788  1.0435
  424TMC3     C 6380   1.730   3.560   0.858  0.5173  0.1739 -0.1682
  424TMC3     O 6381   1.684   3.667   0.869  0.2219 -0.0170  0.0597
  424TMC3     H 6382   1.952   3.444   0.914 -0.4108  1.7705  1.0024
  424TMC3    H1 6383   1.577   3.560   1.073  1.3170  2.5394 -0.6739
  424TMC3    H2 6384   1.825   3.305   1.301 -1.3813  2.0192  2.3942
  424TMC3    C7 6385   1.620   3.459   1.325 -0.3914  0.0026  0.5005
  424TMC3    C8 6386   2.030   3.288   1.115  0.1031 -0.1629 -0.0609
  424TMC3    O1 6387   1.622   3.356   1.393  0.4265  0.4319  0.0955
  424TMC3    O2 6388   2.033   3.205   1.199  0.3522  0.3710  0.1164
  425MPD2     C 6389   0.963   2.689  17.512 -0.1568 -0.2358 -0.0532
  425MPD2    C1 6390   0.853   2.604  17.535 -0.0399  0.0668 -0.2737
  425MPD2    C2 6391   0.737   2.661  17.591 -0.0877  0.1796 -0.1134
  425MPD2    C3 6392   0.740   2.795  17.617  0.1378 -0.1260 -0.2182
  425MPD2    C4 6393   0.851   2.872  17.613 -0.1476 -0.3172 -0.1424
  425MPD2    C5 6394   0.968   2.820  17.562 -0.4038  0.1965  0.3000
  425MPD2     H 6395   0.643   2.609  17.604 -1.0651  1.2660 -3.0425
  425MPD2    H1 6396   0.856   2.972  17.656 -1.3976  0.2153 -1.2517
  425MPD2    H2 6397   1.057   2.653  17.472 -0.1487 -0.6036  0.2867
  425MPD2    H3 6398   1.056   2.884  17.560  0.6165 -1.1779  1.3682
  425MPD2     N 6399   0.621   2.849  17.679  0.2925  0.4609  0.2105
  425MPD2    H5 6400   0.548   2.781  17.698  1.4089 -0.1816  2.1895
  425MPD2    N1 6401   0.869   2.466  17.507  0.5843  0.1390 -0.2213
  425MPD2    H7 6402   0.950   2.437  17.454  0.0474  1.0538 -1.5609
  426TMC3    C1 6403   0.769   2.259  17.443 -0.7145  0.1330 -0.0750
  426TMC3    C2 6404   0.820   2.264  17.315  0.3304 -0.1201  0.4278
  426TMC3    C3 6405   0.791   2.162  17.225 -0.8394 -0.6031 -0.1617
  426TMC3    C4 6406   0.689   2.155  17.478 -0.5716 -0.6237 -0.7424
  426TMC3    C5 6407   0.666   2.052  17.383 -0.3074  0.7049  0.1848
  426TMC3    C6 6408   0.713   2.056  17.255 -0.2689  0.0801 -0.0756
  426TMC3     C 6409   0.770   2.377  17.532 -0.3250 -0.5036 -0.4617
  426TMC3     O 6410   0.674   2.384  17.607 -0.1355  0.8815  0.2287
  426TMC3     H 6411   0.884   2.345  17.282 -0.4771 -0.4106 -1.8278
  426TMC3    H1 6412   0.650   2.148  17.578 -0.8837  1.2065 -0.7346
  426TMC3    H2 6413   0.674   1.987  17.181  0.9947  1.1987 -1.7674
  426TMC3    C7 6414   0.551   1.958  17.407  0.7556 -0.6744  0.1432
  426TMC3    C8 6415   0.810   2.175  17.078  0.9312 -0.2200 -0.0270
  426TMC3    O1 6416   0.539   1.851  17.346 -0.3365 -0.1614  0.3879
  426TMC3    O2 6417   0.808   2.071  17.019  0.2819 -0.4958 -0.2049
  427MPD2     C 6418   3.466   4.410  15.085 -0.3677 -0.8892  0.5995
  427MPD2    C1 6419   3.525   4.530  15.097  0.1881 -0.6544 -0.3904
  427MPD2    C2 6420   3.467   4.640  15.042  0.2180 -0.6044 -0.0720
  427MPD2    C3 6421   3.352   4.625  14.973  0.2586  0.0480 -0.1813
  427MPD2    C4 6422   3.289   4.502  14.953  0.2659  0.0994 -0.0201
  427MPD2    C5 6423   3.352   4.395  15.012 -0.0846 -0.2958  0.2988
  427MPD2     H 6424   3.525   4.732  15.045 -0.0115 -0.3793 -2.2074
  427MPD2    H1 6425   3.197   4.493  14.897  1.2895  0.6543 -1.7752
  427MPD2    H2 6426   3.502   4.323  15.139 -0.2068 -0.4616  1.1827
  427MPD2    H3 6427   3.308   4.296  15.010  1.0116 -0.7429 -1.7607
  427MPD2     N 6428   3.284   0.013  14.924  0.0043 -0.1276 -0.0144
  427MPD2    H5 6429   3.193   4.721  14.888  1.3120 -0.3625 -3.1738
  427MPD2    N1 6430   3.650   4.551  15.162  0.5242 -0.0255  0.3814
  427MPD2    H7 6431   3.703   4.637  15.150  0.8309 -0.2460  0.1442
  428TMC3    C1 6432   3.842   4.513  15.277 -0.1311  0.1072  0.7151
  428TMC3    C2 6433   3.890   4.469  15.397 -0.0634 -0.0821 -0.0853
  428TMC3    C3 6434   4.023   4.495  15.425  0.2206 -0.4550 -0.0455
  428TMC3    C4 6435   3.914   4.577  15.183  0.0794  0.5941  0.7216
  428TMC3    C5 6436   4.051   4.594  15.209  0.2898  0.3439 -0.4487
  428TMC3    C6 6437   4.101   4.566  15.330  0.5394 -0.3294  0.1807
  428TMC3     C 6438   3.712   4.463  15.245  0.3827 -0.5798 -0.4395
  428TMC3     O 6439   3.674   4.359  15.297  0.0067 -0.2073 -0.8906
  428TMC3     H 6440   3.824   4.420  15.467  0.8603 -3.6967 -1.7586
  428TMC3    H1 6441   3.872   4.582  15.083  0.6447 -1.9499  0.3345
  428TMC3    H2 6442   4.204   4.598  15.342  0.3298  1.0852 -1.7663
  428TMC3    C7 6443   4.128   4.690  15.141 -0.1806  0.1259  0.5049
  428TMC3    C8 6444   4.080   4.442  15.553  0.5207  0.1353 -0.2679
  428TMC3    O1 6445   4.247   4.685  15.158  0.6049  0.3788  0.0166
  428TMC3    O2 6446   4.026   4.350  15.611  0.0100 -0.2432 -0.1181
  429MPD2     C 6447   0.475   0.116   0.045  0.0760  0.5149 -1.1457
  429MPD2    C1 6448   0.598   0.084  17.726 -0.0393  0.7132  0.0491
  429MPD2    C2 6449   0.667   0.182  17.662 -0.4647 -0.1524  0.8489
  429MPD2    C3 6450   0.615   0.305  17.643 -0.1380 -0.1608 -0.3276
  429MPD2    C4 6451   0.501   0.344  17.701  0.0167 -0.1507 -0.5240
  429MPD2    C5 6452   0.426   0.249   0.029  0.2600 -0.0530  0.3601
  429MPD2     H 6453   0.762   0.158  17.616  0.3196  0.6146  2.0978
  429MPD2    H1 6454   0.460   0.444  17.701  0.0270 -0.1499 -2.5365
  429MPD2    H2 6455   0.409   0.049   0.100 -0.5801  0.9517 -1.4015
  429MPD2    H3 6456   0.335   0.278   0.081 -1.3319 -0.3532 -2.2566
  429MPD2     N 6457   0.699   0.385  17.558  0.6081  0.3640  0.6796
  429MPD2    H5 6458   0.780   0.343  17.514  0.4696 -0.0726  0.8353
  429MPD2    N1 6459   0.646   4.686  17.716 -0.8994  0.5759  0.9912
  429MPD2    H7 6460   0.740   4.673  17.682 -0.7251 -2.1698  2.4955
  430TMC3    C1 6461   0.765   0.539  17.399  0.1457  0.1370  0.6075
  430TMC3    C2 6462   0.726   0.617  17.295  0.7580 -0.0790 -0.3603
  430TMC3    C3 6463   0.814   0.628  17.185 -0.1711 -0.2459 -0.8263
  430TMC3    C4 6464   0.877   0.465  17.387  0.5366  0.1021 -0.8069
  430TMC3    C5 6465   0.954   0.460  17.267  0.3198  0.8187 -0.3228
  430TMC3    C6 6466   0.926   0.552  17.174 -0.8938 -0.5869  0.0258
  430TMC3     C 6467   0.670   0.507  17.497 -0.0296  0.3831 -0.2696
  430TMC3     O 6468   0.575   0.581  17.497 -0.1577  0.2970  0.2394
  430TMC3     H 6469   0.627   0.662  17.295  0.9526  0.3437  0.5178
  430TMC3    H1 6470   0.917   0.407  17.470 -0.2083 -0.4706 -0.8458
  430TMC3    H2 6471   0.982   0.557  17.081  0.5661 -0.7819  0.9019
  430TMC3    C7 6472   0.961   0.332  17.205  0.0251 -0.0070 -0.4317
  430TMC3    C8 6473   0.741   0.647  17.060  0.2540  0.0617 -0.0758
  430TMC3    O1 6474   1.006   0.235  17.263  0.2104 -0.0940  1.0515
  430TMC3    O2 6475   0.645   0.576  17.052  0.0447 -0.4474 -0.2609
  431MPD2     C 6476   1.146   0.942  12.628 -0.2463 -0.6798  0.5222
  431MPD2    C1 6477   1.240   0.953  12.534  0.3726 -0.3342 -0.2936
  431MPD2    C2 6478   1.283   0.843  12.461  0.4289 -0.0505  0.4513
  431MPD2    C3 6479   1.228   0.715  12.486 -0.4006 -0.0569 -0.9377
  431MPD2    C4 6480   1.134   0.702  12.582 -0.0965 -0.3359 -0.0847
  431MPD2    C5 6481   1.094   0.813  12.655 -0.2323  0.6055 -0.2026
  431MPD2     H 6482   1.352   0.869  12.381  0.3308 -0.6567  0.1754
  431MPD2    H1 6483   1.089   0.605  12.595 -2.0539  0.5925  0.0117
  431MPD2    H2 6484   1.106   1.027  12.682  0.1537  0.4546 -0.9722
  431MPD2    H3 6485   1.014   0.805  12.728 -0.3380 -0.0402 -0.3845
  431MPD2     N 6486   1.271   0.600  12.413 -0.4818  0.4484  0.2389
  431MPD2    H5 6487   1.225   0.510  12.425 -1.0870  0.9890  1.9569
  431MPD2    N1 6488   1.303   1.080  12.492 -0.1982  0.2056 -0.6048
  431MPD2    H7 6489   1.366   1.072  12.412  0.6509 -0.2261  0.1016
  432TMC3    C1 6490   1.417   0.458  12.305 -1.2324 -0.4637  0.0670
  432TMC3    C2 6491   1.477   0.440  12.189  0.0029  0.6943  0.1194
  432TMC3    C3 6492   1.555   0.338  12.163  0.0390  1.0566  0.1672
  432TMC3    C4 6493   1.455   0.376  12.406  0.4748 -0.5683  0.1421
  432TMC3    C5 6494   1.533   0.267  12.377 -0.5340 -0.5765  0.2560
  432TMC3    C6 6495   1.598   0.245  12.257 -0.2653  0.3242 -0.2549
  432TMC3     C 6496   1.375   0.593  12.327  0.0310  0.4233 -0.5255
  432TMC3     O 6497   1.420   0.683  12.261  0.3221  0.6979 -0.0149
  432TMC3     H 6498   1.438   0.508  12.114 -1.9828  1.2546  1.6446
  432TMC3    H1 6499   1.415   0.396  12.505 -3.5782 -1.7176 -1.2362
  432TMC3    H2 6500   1.649   0.151  12.239  1.5303  1.3057 -0.3232
  432TMC3    C7 6501   1.553   0.166  12.482  0.6570 -0.3010  0.1573
  432TMC3    C8 6502   1.653   0.372  12.067  0.3470 -0.4324  0.0300
  432TMC3    O1 6503   1.636   0.077  12.461  0.3034  0.0351  0.3485
  432TMC3    O2 6504   1.629   0.440  11.972 -0.0741 -0.5982 -0.2226
  433MPD2     C 6505   0.027   4.037  10.414 -0.5172 -0.8510  0.1645
  433MPD2    C1 6506   0.089   3.951  10.506  0.0574 -0.3602  0.1845
  433MPD2    C2 6507   0.114   3.996  10.636  0.9215  0.7544  0.0347
  433MPD2    C3 6508   0.093   4.130  10.668 -0.4780  0.2125 -0.1579
  433MPD2    C4 6509   0.058   4.220  10.569  0.0371 -0.2637  0.4372
  433MPD2    C5 6510   0.021   4.169  10.442 -0.2475 -0.2292  0.0357
  433MPD2     H 6511   0.150   3.939  10.721  1.0917 -0.8614 -1.1121
  433MPD2    H1 6512   0.047   4.327  10.587  0.2402 -0.3921  1.2949
  433MPD2    H2 6513   4.718   4.003  10.321 -1.4227 -2.3768  1.1559
  433MPD2    H3 6514   4.713   4.240  10.372 -1.9473  0.7910  2.0757
  433MPD2     N 6515   0.124   4.161  10.802 -0.4487  0.0938 -0.7055
  433MPD2    H5 6516   0.166   4.092  10.863 -1.0177  0.6035  0.2679
  433MPD2    N1 6517   0.121   3.813  10.489  0.4291 -0.2211  0.1670
  433MPD2    H7 6518   0.156   3.774  10.576  3.2948  1.7035 -0.1140
  434TMC3    C1 6519   0.110   3.599  10.416  0.3394 -0.2191  0.4076
  434TMC3    C2 6520   0.158   3.558  10.538  0.0333 -0.0355 -0.1517
  434TMC3    C3 6521   0.126   3.433  10.586 -0.3145  1.0576 -0.2513
  434TMC3    C4 6522   0.036   3.508  10.346 -0.3671  0.1522 -0.1266
  434TMC3    C5 6523   0.008   3.387  10.400  0.2782  0.2151  0.3074
  434TMC3    C6 6524   0.046   3.340  10.520  0.3681 -0.3234  0.7388
  434TMC3     C 6525   0.097   3.734  10.384 -0.0691 -0.0159 -0.2709
  434TMC3     O 6526   0.046   3.778  10.279  0.0560  0.2233  0.4775
  434TMC3     H 6527   0.203   3.628  10.607  0.3476 -1.1426  0.7845
  434TMC3    H1 6528   4.722   3.541  10.255 -3.0401 -2.8897  0.1689
  434TMC3    H2 6529   0.018   3.242  10.557 -1.8179  0.0595  0.0964
  434TMC3    C7 6530   4.640   3.315  10.325  0.2142  0.7283 -0.0306
  434TMC3    C8 6531   0.193   3.398  10.714 -0.0490  0.4342  0.0667
  434TMC3    O1 6532   4.630   3.351  10.206 -0.1099  0.4412  0.2922
  434TMC3    O2 6533   0.234   3.487  10.784  0.3726 -0.8408  0.8042
  435MPD2     C 6534   2.083   3.330  15.363 -0.3874 -0.0288  0.5238
  435MPD2    C1 6535   2.065   3.377  15.492 -0.1802  0.4048 -0.3866
  435MPD2    C2 6536   2.177   3.411  15.562 -0.1778 -0.5613 -0.3399
  435MPD2    C3 6537   2.305   3.392  15.509  0.0160  0.4330 -1.2542
  435MPD2    C4 6538   2.325   3.341  15.387  0.6765  0.3144 -0.0796
  435MPD2    C5 6539   2.207   3.312  15.317  0.1593  0.4759  0.1955
  435MPD2     H 6540   2.169   3.451  15.663 -1.7100 -1.6784 -0.0272
  435MPD2    H1 6541   2.424   3.333  15.345 -0.2296 -0.4311 -2.0484
  435MPD2    H2 6542   2.000   3.303  15.299 -1.6277  4.4159  0.2127
  435MPD2    H3 6543   2.225   3.279  15.216  0.5279  2.3133 -0.3340
  435MPD2     N 6544   2.411   3.438  15.591  0.1794 -0.4103  0.5463
  435MPD2    H5 6545   2.398   3.458  15.689 -2.7167 -2.0200  0.4865
  435MPD2    N1 6546   1.937   3.406  15.549  0.1085  0.3277  0.0239
  435MPD2    H7 6547   1.944   3.443  15.643  1.8653 -2.1971  0.8854
  436TMC3    C1 6548   1.727   3.696  15.707  0.0199  0.6778 -0.3329
  436TMC3    C2 6549   1.799   3.598  15.644  0.8758 -0.5937 -0.4368
  436TMC3    C3 6550   1.737   3.492  15.582 -0.2082  0.0599  0.4354
  436TMC3    C4 6551   1.589   3.699  15.700  0.0444 -0.4065  0.0649
  436TMC3    C5 6552   1.530   3.593  15.632  0.3836 -0.0169  0.3384
  436TMC3    C6 6553   1.601   3.489  15.570  0.4661  0.1421  0.2560
  436TMC3     C 6554   1.805   3.788  15.793  0.2532 -0.0245  0.6080
  436TMC3     O 6555   1.921   3.795  15.762 -0.1416 -0.4197  0.0055
  436TMC3     H 6556   1.907   3.608  15.646  0.8302 -0.1981  0.1136
  436TMC3    H1 6557   1.530   3.770  15.758  0.5120 -1.3307  1.6663
  436TMC3    H2 6558   1.552   3.410  15.514 -1.3105  0.7057  1.0269
  436TMC3    C7 6559   1.389   3.585  15.620 -0.2191  0.4314  0.3800
  436TMC3    C8 6560   1.815   3.428  15.482 -0.1620 -0.3956 -0.4720
  436TMC3    O1 6561   1.349   3.518  15.525  0.2555 -0.2730 -0.0403
  436TMC3    O2 6562   1.769   3.377  15.384 -0.0559  0.4207 -0.2479
  437TMC3    C1 6563   0.903   1.835  12.153 -0.3377 -0.1774 -0.0599
  437TMC3    C2 6564   0.862   1.845  12.023 -0.1896  0.1252  0.1411
  437TMC3    C3 6565   0.956   1.818  11.928 -0.0911  0.3916 -0.0858
  437TMC3    C4 6566   1.029   1.798  12.186  0.2887 -0.0723 -0.3914
  437TMC3    C5 6567   1.121   1.776  12.085 -0.0576  0.4954 -0.1930
  437TMC3    C6 6568   1.090   1.783  11.952 -0.1561  0.0870  0.7328
  437TMC3     C 6569   0.796   1.845  12.252 -0.2775 -0.1445  0.5865
  437TMC3     O 6570   0.702   1.912  12.213 -0.2185 -0.7683 -0.4977
  437TMC3     H 6571   0.757   1.855  11.999 -0.5170  1.6759  2.2125
  437TMC3    H1 6572   1.061   1.804  12.290 -0.9651  1.9905 -0.1313
  437TMC3    H2 6573   1.163   1.784  11.872 -0.0993 -1.2680  0.7678
  437TMC3    C7 6574   1.259   1.742  12.111  0.5584  0.4008 -1.1495
  437TMC3    C8 6575   0.908   1.787  11.799 -0.1706 -0.5853  0.0792
  437TMC3    O1 6576   1.330   1.714  12.017 -0.8826 -0.4142  0.5773
  437TMC3    O2 6577   0.972   1.711  11.726 -0.2029 -0.6540  0.1936
  438MPD2     C 6578   3.239   1.776  16.701  0.5357  0.6247 -0.0498
  438MPD2    C1 6579   3.324   1.702  16.779  0.4081  0.3163  0.6091
  438MPD2    C2 6580   3.322   1.720  16.918  0.3346  0.0570 -0.5844
  438MPD2    C3 6581   3.227   1.802  16.979 -0.4397 -0.3114 -0.9373
  438MPD2    C4 6582   3.141   1.868  16.898 -0.1500 -0.0265 -0.0527
  438MPD2    C5 6583   3.145   1.861  16.759  0.5984  0.2534  0.6114
  438MPD2     H 6584   3.398   1.672  16.978  0.0228 -2.1415 -1.9427
  438MPD2    H1 6585   3.073   1.933  16.951 -1.0109 -2.3535  1.6901
  438MPD2    H2 6586   3.242   1.768  16.592 -0.1295 -0.7344  0.0308
  438MPD2    H3 6587   3.072   1.920  16.704 -0.1969 -1.8494 -0.5809
  438MPD2     N 6588   3.217   1.828  17.117 -0.3483  0.2127 -0.2629
  438MPD2    H5 6589   3.141   1.887  17.150 -0.3138  0.0555  0.0950
  438MPD2    N1 6590   3.424   1.611  16.722 -0.1895 -0.0459  1.0749
  438MPD2    H7 6591   3.491   1.573  16.788  0.9906 -0.5717 -0.4381
  439TMC3    C1 6592   3.542   1.476  16.558 -0.0296 -0.3795  0.2706
  439TMC3    C2 6593   3.534   1.401  16.443  0.1730 -0.2782  0.2565
  439TMC3    C3 6594   3.621   1.300  16.420 -0.1571 -0.4032 -0.1562
  439TMC3    C4 6595   3.641   1.447  16.652 -0.7697  0.2793 -0.7270
  439TMC3    C5 6596   3.730   1.350  16.618  0.1383 -0.6074 -0.3317
  439TMC3    C6 6597   3.718   1.267  16.505  0.1446  0.1189 -0.5852
  439TMC3     C 6598   3.427   1.569  16.592 -0.8762 -0.5898  0.4372
  439TMC3     O 6599   3.356   1.597  16.496  0.3522  0.3951 -0.5370
  439TMC3     H 6600   3.449   1.417  16.377 -0.1080 -1.8040  0.2530
  439TMC3    H1 6601   3.667   1.503  16.742 -0.4444 -0.2242 -0.5060
  439TMC3    H2 6602   3.787   1.186  16.487 -0.3986  0.1841 -2.9888
  439TMC3    C7 6603   3.838   1.319  16.704 -0.3100 -0.5601 -0.2036
  439TMC3    C8 6604   3.649   1.267  16.284  0.1795  0.1782  0.4610
  439TMC3    O1 6605   3.818   1.332  16.826 -0.1913  0.0871 -0.4913
  439TMC3    O2 6606   3.735   1.186  16.254 -0.7025 -0.5052  0.0079
  440MPD2     C 6607   1.705   2.064  15.039 -0.0657 -0.4195  0.3211
  440MPD2    C1 6608   1.738   2.164  15.123 -0.2060 -0.2108 -0.1157
  440MPD2    C2 6609   1.851   2.142  15.210 -0.0046 -0.3980 -0.1726
  440MPD2    C3 6610   1.910   2.021  15.216 -0.2135  0.1255  0.6222
  440MPD2    C4 6611   1.867   1.919  15.133  0.0975 -0.0004 -0.1732
  440MPD2    C5 6612   1.776   1.944  15.039 -0.1381  0.9827 -0.1110
  440MPD2     H 6613   1.885   2.220  15.277  0.0019 -1.8429  1.5125
  440MPD2    H1 6614   1.917   1.823  15.135  0.3566  0.1036 -2.3855
  440MPD2    H2 6615   1.623   2.074  14.969 -1.0589  0.2079  1.5702
  440MPD2    H3 6616   1.744   1.864  14.973 -1.1422  0.1068  1.4414
  440MPD2     N 6617   2.013   1.994  15.314 -1.1083  0.1682 -0.1451
  440MPD2    H5 6618   2.049   1.900  15.307  2.0967  1.2370  1.9414
  440MPD2    N1 6619   1.683   2.296  15.134  0.2433  0.4401 -0.1427
  440MPD2    H7 6620   1.732   2.355  15.201 -0.1694 -0.4711  0.9498
  441TMC3    C1 6621   2.169   2.016  15.480 -0.7539 -0.5222  0.0830
  441TMC3    C2 6622   2.244   2.105  15.545 -0.2444 -0.2997 -0.1433
  441TMC3    C3 6623   2.282   2.076  15.669  0.3741  0.2993 -0.0149
  441TMC3    C4 6624   2.149   1.884  15.522  0.2104 -0.3866  0.4010
  441TMC3    C5 6625   2.195   1.855  15.645 -0.9144  0.0998 -0.0625
  441TMC3    C6 6626   2.262   1.951  15.718  0.0570  0.9847  0.6292
  441TMC3     C 6627   2.071   2.086  15.400  0.1006 -0.3447 -0.2858
  441TMC3     O 6628   2.024   2.198  15.430  0.5507  0.0874  0.3297
  441TMC3     H 6629   2.261   2.199  15.493  0.0645 -0.7907 -0.9352
  441TMC3    H1 6630   2.082   1.821  15.465  0.5241  1.2973 -1.8428
  441TMC3    H2 6631   2.289   1.935  15.822  1.1788 -1.9286 -0.0972
  441TMC3    C7 6632   2.177   1.721  15.700 -0.4677  0.3029  0.2138
  441TMC3    C8 6633   2.263   2.183  15.767 -0.0052 -0.7850 -0.2978
  441TMC3    O1 6634   2.234   1.694  15.803  0.5625  0.3373 -0.5056
  441TMC3    O2 6635   2.311   2.178  15.882  0.7538  0.2263  0.2576
  442MPD2     C 6636   0.446   2.381  16.532 -0.0589  0.3473 -0.0123
  442MPD2    C1 6637   0.340   2.299  16.580 -0.0281 -0.2114 -0.7612
  442MPD2    C2 6638   0.300   2.181  16.512  0.0354 -0.2547 -0.8841
  442MPD2    C3 6639   0.376   2.145  16.395 -0.0116 -0.1274  0.0561
  442MPD2    C4 6640   0.493   2.220  16.363  0.0381 -0.9388 -0.2207
  442MPD2    C5 6641   0.529   2.330  16.438 -0.6606 -0.2653 -0.2770
  442MPD2     H 6642   0.211   2.127  16.542 -0.3789  1.2502  0.6139
  442MPD2    H1 6643   0.559   2.188  16.284 -1.1216  0.0224 -1.5721
  442MPD2    H2 6644   0.471   2.474  16.582  1.4984 -0.2406  0.2807
  442MPD2    H3 6645   0.617   2.390  16.412  0.3581 -2.0120 -0.8710
  442MPD2     N 6646   0.351   2.036  16.306  0.7268  0.2516  0.1800
  442MPD2    H5 6647   0.399   2.029  16.217  0.8472  0.7668  0.2043
  442MPD2    N1 6648   0.266   2.327  16.701 -0.1707 -0.1159  0.2822
  442MPD2    H7 6649   0.204   2.253  16.731 -2.2228  0.8439 -1.5871
  443TMC3    C1 6650   0.147   2.473  16.859  1.3140  0.3489 -0.3034
  443TMC3    C2 6651   0.066   2.582  16.836  1.3297 -0.4242  0.5495
  443TMC3    C3 6652   4.688   2.603  16.912 -0.2045  0.2370  0.0538
  443TMC3    C4 6653   0.109   2.385  16.957  0.5323  0.2363 -0.1034
  443TMC3    C5 6654   4.734   2.410  17.034  0.2421 -0.0239  0.4914
  443TMC3    C6 6655   4.651   2.518  17.012 -0.0662 -0.2506 -0.6591
  443TMC3     C 6656   0.261   2.448  16.765  0.1414  0.1993  0.6262
  443TMC3     O 6657   0.322   2.549  16.733 -0.2406 -0.2821 -0.0172
  443TMC3     H 6658   0.086   2.645  16.750 -0.2680  0.8751  1.1303
  443TMC3    H1 6659   0.163   2.294  16.980 -1.7151 -1.3453 -1.0680
  443TMC3    H2 6660   4.558   2.539  17.064 -0.3867 -3.3188  0.0409
  443TMC3    C7 6661   4.674   2.288  17.106 -0.1346  1.4194 -0.3270
  443TMC3    C8 6662   4.573   2.607  16.822 -0.0054 -0.6916 -0.6157
  443TMC3    O1 6663   4.715   2.182  17.059  0.0129  0.1772  0.5720
  443TMC3    O2 6664   4.497   2.514  16.831  0.0148 -0.2475  0.2840
  444MPD2     C 6665   0.415   2.159  17.025 -0.4021 -0.7458 -0.1019
  444MPD2    C1 6666   0.347   2.036  17.022 -0.1522  0.4191  0.3755
  444MPD2    C2 6667   0.366   1.949  16.920  0.0318  0.2621  0.3703
  444MPD2    C3 6668   0.461   1.990  16.820  0.6380  0.3449  0.7948
  444MPD2    C4 6669   0.514   2.117  16.820 -0.5956 -0.7067 -0.0463
  444MPD2    C5 6670   0.497   2.197  16.925  0.2158 -0.6762  0.3989
  444MPD2     H 6671   0.305   1.862  16.895 -0.2487  0.6887 -0.4508
  444MPD2    H1 6672   0.575   2.154  16.738 -0.3728 -3.7697 -1.2686
  444MPD2    H2 6673   0.402   2.235  17.101  0.4742 -0.3090 -0.3883
  444MPD2    H3 6674   0.550   2.289  16.947  0.1171 -0.2971 -0.9727
  444MPD2     N 6675   0.498   1.889  16.725  0.2320 -0.2742  0.0798
  444MPD2    H5 6676   0.469   1.792  16.735  0.3866 -0.2884  0.3910
  444MPD2    N1 6677   0.249   2.009  17.117 -0.3434 -0.0010  0.1251
  444MPD2    H7 6678   0.200   1.920  17.118 -0.0496 -0.2048 -2.0440
  445TMC3    C1 6679   0.615   1.768  16.557  0.2926  0.3661  0.6871
  445TMC3    C2 6680   0.509   1.683  16.523  0.0819 -0.8968 -0.0482
  445TMC3    C3 6681   0.534   1.552  16.487  0.8244  0.3717 -0.2876
  445TMC3    C4 6682   0.743   1.722  16.550  0.4478  0.0013  0.2636
  445TMC3    C5 6683   0.763   1.590  16.513  0.1813  0.3482  0.3190
  445TMC3    C6 6684   0.662   1.502  16.484 -0.0874  0.9998 -0.2474
  445TMC3     C 6685   0.601   1.894  16.627 -0.5570  0.1577  1.0293
  445TMC3     O 6686   0.675   1.990  16.604 -0.3993  0.3017 -0.3270
  445TMC3     H 6687   0.413   1.730  16.503  0.3855 -0.3798 -0.2798
  445TMC3    H1 6688   0.820   1.793  16.578 -0.0614  0.7531 -0.2216
  445TMC3    H2 6689   0.685   1.414  16.424  1.2595  2.3369 -1.6780
  445TMC3    C7 6690   0.895   1.523  16.535  0.0861 -0.0668 -0.0442
  445TMC3    C8 6691   0.434   1.487  16.395  0.3215 -0.2203  0.5203
  445TMC3    O1 6692   0.997   1.595  16.541  0.8117 -0.2331 -0.1706
  445TMC3    O2 6693   0.345   1.549  16.340 -0.0684 -0.0222 -0.1659
  446MPD2     C 6694   4.608   3.515  11.293  0.3222 -0.3620  0.1889
  446MPD2    C1 6695   4.607   3.499  11.157  0.1539 -0.5030 -0.4053
  446MPD2    C2 6696   4.725   3.505  11.080  0.5987  0.3793  0.1400
  446MPD2    C3 6697   0.103   3.549  11.142  0.2145 -0.0973  0.1954
  446MPD2    C4 6698   0.103   3.572  11.275 -0.0544 -0.2801  0.7635
  446MPD2    C5 6699   4.727   3.553  11.353  0.3888  0.2523  0.1899
  446MPD2     H 6700   0.001   3.492  10.973  1.3601 -0.8460  0.3685
  446MPD2    H1 6701   0.186   3.611  11.334 -0.8106  0.5821  1.2677
  446MPD2    H2 6702   4.516   3.498  11.348  1.2258  0.8387  2.0991
  446MPD2    H3 6703   4.729   3.568  11.460  1.1825  1.6710 -0.0218
  446MPD2     N 6704   0.220   3.572  11.060 -0.4214 -0.2023 -0.4166
  446MPD2    H5 6705   0.217   3.562  10.959  1.6109 -2.6150 -0.2135
  446MPD2    N1 6706   4.490   3.465  11.077 -0.6943 -0.4957  0.1227
  446MPD2    H7 6707   4.505   3.461  10.977 -1.6988  0.3221 -0.0555
  447TMC3    C1 6708   0.441   3.638  11.020  0.8053  0.1960  0.5582
  447TMC3    C2 6709   0.401   3.700  10.909  0.4114  0.1372  0.3856
  447TMC3    C3 6710   0.502   3.744  10.832  0.4903  0.4639  0.2306
  447TMC3    C4 6711   0.572   3.613  11.064  0.2055  0.0581 -0.1189
  447TMC3    C5 6712   0.670   3.658  10.978 -0.2521 -0.3788 -0.2683
  447TMC3    C6 6713   0.640   3.717  10.862  0.2780 -0.6174  0.0309
  447TMC3     C 6714   0.345   3.574  11.112  0.4408  0.6035  0.7574
  447TMC3     O 6715   0.388   3.531  11.215  0.4299  0.5598 -0.2565
  447TMC3     H 6716   0.296   3.714  10.887  0.7592 -0.5373 -1.6903
  447TMC3    H1 6717   0.581   3.533  11.137 -0.0197  1.8232  1.8269
  447TMC3    H2 6718   0.719   3.742  10.792  0.2415 -0.8836 -0.1049
  447TMC3    C7 6719   0.792   3.580  10.981  0.0908 -0.0972 -0.2502
  447TMC3    C8 6720   0.469   3.822  10.711 -0.0337 -0.2807 -0.5987
  447TMC3    O1 6721   0.826   3.527  10.879  0.4565  0.6608 -0.2653
  447TMC3    O2 6722   0.353   3.811  10.670  0.3368 -0.1386  0.3185
  448TMC3    C1 6723   4.107   3.142  17.101 -0.1432  0.5487 -0.5747
  448TMC3    C2 6724   4.011   3.058  17.049  0.0593  0.1844  0.6963
  448TMC3    C3 6725   3.971   2.949  17.124  0.2288 -0.0005 -0.7553
  448TMC3    C4 6726   4.163   3.126  17.219 -0.2001 -0.4836  0.8940
  448TMC3    C5 6727   4.107   3.023  17.290 -0.7275 -0.2584 -0.0538
  448TMC3    C6 6728   4.018   2.925  17.251  0.7270 -0.7923  0.5930
  448TMC3     C 6729   4.165   3.247  17.021 -0.7692  0.1580  0.6669
  448TMC3     O 6730   4.278   3.282  17.059  0.2545  0.8377 -0.6133
  448TMC3     H 6731   3.974   3.073  16.948  0.5866 -3.3099  0.0001
  448TMC3    H1 6732   4.223   3.200  17.269 -1.6478  2.5812 -1.9322
  448TMC3    H2 6733   3.987   2.838  17.306 -0.0734 -0.6721  0.3229
  448TMC3    C7 6734   4.127   3.039  17.440 -0.0595  0.1349 -0.6563
  448TMC3    C8 6735   3.845   2.880  17.101 -0.5430  0.7578 -0.6200
  448TMC3    O1 6736   4.184   3.139  17.481 -0.2688 -0.8126  0.0662
  448TMC3    O2 6737   3.810   2.780  17.165  0.4665 -0.3628 -0.2784
  449MPD2     C 6738   4.492   1.045  13.887 -0.5719 -0.1744 -0.3418
  449MPD2    C1 6739   4.452   1.167  13.935  0.0998 -0.7731 -0.6163
  449MPD2    C2 6740   4.356   1.168  14.036  0.2240  0.2201 -0.2727
  449MPD2    C3 6741   4.318   1.049  14.103  0.0298 -0.7355 -0.2412
  449MPD2    C4 6742   4.367   0.929  14.052  0.0378  0.3650  0.1408
  449MPD2    C5 6743   4.451   0.929  13.949  0.0625 -0.3476 -0.2159
  449MPD2     H 6744   4.320   1.265  14.068  1.7007  0.1528  1.6041
  449MPD2    H1 6745   4.347   0.837  14.105  0.6499 -1.1515 -2.2915
  449MPD2    H2 6746   4.564   1.032  13.807 -0.5532 -1.7372 -0.0764
  449MPD2    H3 6747   4.475   0.833  13.905  0.8820 -0.2890  0.1066
  449MPD2     N 6748   4.233   1.070  14.210  0.1764  0.0812 -0.3448
  449MPD2    H5 6749   4.208   1.166  14.232 -0.1466 -0.1906  0.4563
  449MPD2    N1 6750   4.504   1.286  13.887 -0.0668  0.4288 -0.6092
  449MPD2    H7 6751   4.466   1.360  13.945 -1.4409  0.1501 -1.1636
  450TMC3    C1 6752   4.606   1.456  13.762 -0.0693  0.5593 -0.7327
  450TMC3    C2 6753   4.556   1.498  13.635 -0.4090  0.1989  0.3943
  450TMC3    C3 6754   4.473   1.612  13.630  0.7284  0.4581  0.2511
  450TMC3    C4 6755   4.576   1.525  13.876  0.3925  0.0651 -0.1261
  450TMC3    C5 6756   4.489   1.636  13.870  0.6062 -0.6207  0.4702
  450TMC3    C6 6757   4.434   1.671  13.748 -0.3213 -0.4073  0.2349
  450TMC3     C 6758   4.580   1.313  13.777  0.7732  0.3523 -0.6193
  450TMC3     O 6759   4.600   1.244  13.678 -0.0345  0.3264  0.5433
  450TMC3     H 6760   4.566   1.432  13.550 -2.6175 -3.4787  2.9690
  450TMC3    H1 6761   4.608   1.484  13.971 -0.5227  2.2221  1.0941
  450TMC3    H2 6762   4.369   1.757  13.733 -0.7470 -0.9143 -0.8399
  450TMC3    C7 6763   4.398   1.619  13.980 -0.4579 -0.2621  0.2374
  450TMC3    C8 6764   4.475   1.688  13.515 -0.2023 -0.3939 -0.1287
  450TMC3    O1 6765   4.388   1.500  14.015  0.6139  0.4348  0.2228
  450TMC3    O2 6766   4.380   1.768  13.498 -0.7162 -0.3442 -0.3909
  451MPD2     C 6767   1.170   4.176   1.259 -0.2215 -0.2600 -0.3622
  451MPD2    C1 6768   1.224   4.238   1.148  0.1134  0.3931 -0.5294
  451MPD2    C2 6769   1.359   4.229   1.127 -0.7308 -0.4334  0.3155
  451MPD2    C3 6770   1.441   4.143   1.200  0.1348  0.3257 -0.4208
  451MPD2    C4 6771   1.384   4.072   1.306  0.5094  0.1374 -0.2137
  451MPD2    C5 6772   1.251   4.090   1.333  0.0384  0.1998 -0.4905
  451MPD2     H 6773   1.407   4.277   1.043 -0.3720  0.3972  0.9917
  451MPD2    H1 6774   1.440   3.995   1.359  1.1260 -1.2078 -2.8170
  451MPD2    H2 6775   1.066   4.187   1.286 -0.4478  1.0204 -1.7329
  451MPD2    H3 6776   1.201   4.032   1.409  1.9531 -1.2673 -0.3491
  451MPD2     N 6777   1.583   4.123   1.170  0.6141  0.6985 -0.5366
  451MPD2    H5 6778   1.625   4.044   1.218  2.5899  0.3598 -2.8368
  451MPD2    N1 6779   1.146   4.322   1.072 -0.6603  0.2338 -0.0994
  451MPD2    H7 6780   1.048   4.327   1.097 -0.9535 -1.2980 -0.8824
  452TMC3    C1 6781   1.796   4.131   1.074 -0.0035  0.4474  0.2539
  452TMC3    C2 6782   1.815   3.997   1.051 -0.4101  0.5175 -0.1261
  452TMC3    C3 6783   1.947   3.952   1.031 -0.2811  0.1084 -1.3480
  452TMC3    C4 6784   1.898   4.218   1.086  0.4444 -0.0394  0.8456
  452TMC3    C5 6785   2.029   4.169   1.071  0.1969  0.1829  0.1017
  452TMC3    C6 6786   2.061   4.033   1.056  0.9008 -0.4787 -0.3493
  452TMC3     C 6787   1.664   4.191   1.084  0.4656 -0.8174  0.9011
  452TMC3     O 6788   1.644   4.303   1.040 -0.2154 -0.5583  0.1410
  452TMC3     H 6789   1.730   3.931   1.041  0.4219 -0.3861 -1.1919
  452TMC3    H1 6790   1.876   4.324   1.089 -0.9249 -0.2778 -0.6377
  452TMC3    H2 6791   2.166   4.008   1.042  1.1405 -0.2309  0.9528
  452TMC3    C7 6792   2.122   4.266   1.004  0.1922  0.5158 -0.3768
  452TMC3    C8 6793   1.963   3.885   0.904  0.8357  0.3775 -0.1932
  452TMC3    O1 6794   2.208   4.228   0.927  0.2746  0.0082 -0.4026
  452TMC3    O2 6795   2.078   3.852   0.871  0.1797 -0.0262 -0.6435
  453TMC3    C1 6796   2.070   2.044  12.189  0.2602  0.1391 -0.6743
  453TMC3    C2 6797   2.013   1.924  12.166 -0.7248  0.4404  0.5529
  453TMC3    C3 6798   1.961   1.901  12.041 -0.6103 -0.2167 -0.0273
  453TMC3    C4 6799   2.079   2.145  12.096  0.2831  0.3472  0.3233
  453TMC3    C5 6800   2.021   2.120  11.974 -0.1133  0.3445  0.1204
  453TMC3    C6 6801   1.962   2.003  11.948 -0.0319  0.5532  1.0195
  453TMC3     C 6802   2.170   2.037  12.294 -0.5878 -0.5595  0.8506
  453TMC3     O 6803   2.272   2.095  12.278  0.6501 -0.3174 -0.1724
  453TMC3     H 6804   2.025   1.838  12.232  0.4224 -1.2455 -1.8495
  453TMC3    H1 6805   2.136   2.235  12.117 -0.9128  0.7933  1.5994
  453TMC3    H2 6806   1.928   1.970  11.851  1.1438  2.1826  0.0559
  453TMC3    C7 6807   2.079   2.172  11.847 -0.5256  0.3700 -0.4253
  453TMC3    C8 6808   1.899   1.781  12.004  0.1305  0.5755 -0.4262
  453TMC3    O1 6809   2.088   2.094  11.750 -0.1086  0.0009 -0.4012
  453TMC3    O2 6810   1.824   1.777  11.908 -0.0095 -0.5246  0.0976
  454MPD2     C 6811   1.359   1.548  16.249  0.1977  0.3666  0.3273
  454MPD2    C1 6812   1.305   1.600  16.135 -0.2686 -0.2613  0.3497
  454MPD2    C2 6813   1.292   1.734  16.122  0.0467  0.0917  0.1368
  454MPD2    C3 6814   1.298   1.816  16.226 -0.0938 -0.4519 -0.1030
  454MPD2    C4 6815   1.340   1.767  16.346 -0.3263  0.0370  0.5156
  454MPD2    C5 6816   1.375   1.635  16.358  0.6706  0.5696  0.1081
  454MPD2     H 6817   1.269   1.761  16.020 -1.9623  1.4678  0.9495
  454MPD2    H1 6818   1.339   1.834  16.431 -1.5787  1.3024 -0.5017
  454MPD2    H2 6819   1.396   1.447  16.263  1.4330  0.9894  1.5063
  454MPD2    H3 6820   1.414   1.596  16.451  1.3645 -2.7649 -1.5897
  454MPD2     N 6821   1.237   1.941  16.225  0.5642  0.8482 -1.0735
  454MPD2    H5 6822   1.221   1.983  16.317 -1.3300 -1.4400 -0.3689
  454MPD2    N1 6823   1.272   1.520  16.023  0.8789 -0.0358 -0.2228
  454MPD2    H7 6824   1.255   1.562  15.932  1.6829 -1.9464 -1.2522
  455TMC3    C1 6825   1.060   2.071  16.152  0.1641  0.1884 -0.3366
  455TMC3    C2 6826   1.048   2.155  16.259  0.6201  0.1340  0.0479
  455TMC3    C3 6827   0.932   2.150  16.334  0.0573  0.5138  0.0512
  455TMC3    C4 6828   0.952   1.994  16.116  0.3521  0.1667 -0.3457
  455TMC3    C5 6829   0.839   1.993  16.189  0.2162 -0.3764 -0.2527
  455TMC3    C6 6830   0.824   2.066  16.305  0.1052  0.5457  0.4456
  455TMC3     C 6831   1.177   1.999  16.115 -1.4898  0.1267  0.2634
  455TMC3     O 6832   1.198   1.967  15.997 -0.3261 -0.1544  0.6804
  455TMC3     H 6833   1.129   2.221  16.291 -1.1569  1.1190  2.5400
  455TMC3    H1 6834   0.970   1.914  16.045 -0.0869 -0.1797 -0.0578
  455TMC3    H2 6835   0.735   2.064  16.368 -0.9166 -0.8001 -1.0543
  455TMC3    C7 6836   0.780   1.863  16.191  0.3048 -0.6062 -0.7100
  455TMC3    C8 6837   0.907   2.255  16.430 -0.2259 -1.0765  0.2537
  455TMC3    O1 6838   0.660   1.845  16.194  0.7454 -0.2125  0.6626
  455TMC3    O2 6839   0.975   2.354  16.406 -0.2570 -0.7786  0.3998
  456MPD2     C 6840   3.309   1.979  16.230 -0.2352  0.2324  0.6228
  456MPD2    C1 6841   3.412   1.915  16.300  0.4291  0.4329 -0.2261
  456MPD2    C2 6842   3.425   1.940  16.434  0.1410 -1.4899  0.0363
  456MPD2    C3 6843   3.347   2.034  16.500  0.7992 -0.1445  0.8314
  456MPD2    C4 6844   3.241   2.085  16.429 -0.3174 -0.0600 -0.1933
  456MPD2    C5 6845   3.216   2.055  16.296  0.3740 -0.5264 -0.0988
  456MPD2     H 6846   3.503   1.901  16.498  0.2086 -0.8172  0.3649
  456MPD2    H1 6847   3.168   2.139  16.487  0.3498 -1.3592  1.8697
  456MPD2    H2 6848   3.283   1.965  16.126  0.7705  0.0483  0.3948
  456MPD2    H3 6849   3.134   2.099  16.240  0.2036 -1.5319 -0.6266
  456MPD2     N 6850   3.378   2.076  16.628 -0.5447 -0.8140  0.3959
  456MPD2    H5 6851   3.462   2.037  16.668 -0.5491 -2.0591 -0.8205
  456MPD2    N1 6852   3.509   1.835  16.232  0.2925  0.3062  0.2605
  456MPD2    H7 6853   3.488   1.822  16.134 -4.5763  2.8877  0.9647
  457TMC3    C1 6854   3.359   2.203  16.826 -0.3665  0.5859 -0.7061
  457TMC3    C2 6855   3.361   2.334  16.872 -0.1933 -0.0938 -0.2010
  457TMC3    C3 6856   3.391   2.358  17.000  0.0910  0.2129  0.0650
  457TMC3    C4 6857   3.410   2.103  16.905  0.3267  0.2066  0.5029
  457TMC3    C5 6858   3.447   2.137  17.035 -0.3710 -0.2996 -0.2275
  457TMC3    C6 6859   3.425   2.261  17.091 -0.7611  0.2772  0.8460
  457TMC3     C 6860   3.316   2.183  16.689  0.4125  0.2247 -0.4032
  457TMC3     O 6861   3.263   2.279  16.635 -0.6035  0.1505 -0.2102
  457TMC3     H 6862   3.313   2.404  16.804 -0.5991 -0.4839 -0.3202
  457TMC3    H1 6863   3.427   2.002  16.869 -0.8550  0.1693  0.0379
  457TMC3    H2 6864   3.461   2.283  17.191 -2.6971 -0.7703  1.7623
  457TMC3    C7 6865   3.534   2.050  17.109 -0.4300  0.0634  0.0214
  457TMC3    C8 6866   3.463   2.488  17.015  0.5873 -0.3095 -0.5972
  457TMC3    O1 6867   3.537   2.058  17.236  0.4852 -0.0183 -0.1819
  457TMC3    O2 6868   3.556   2.488  17.096  0.1862  0.4508  0.1757
  458MPD2     C 6869   1.605   1.607  12.459  0.3264 -0.1300 -0.4761
  458MPD2    C1 6870   1.490   1.635  12.522  0.6697  0.0071 -0.1579
  458MPD2    C2 6871   1.376   1.658  12.446 -0.2322  0.4453  0.2830
  458MPD2    C3 6872   1.388   1.656  12.310 -0.5117 -0.1287  0.1978
  458MPD2    C4 6873   1.504   1.644  12.247 -0.6112 -0.6071  0.3848
  458MPD2    C5 6874   1.617   1.618  12.322 -0.0762 -0.9316  0.0858
  458MPD2     H 6875   1.282   1.677  12.497 -0.4441  0.6066 -0.1635
  458MPD2    H1 6876   1.512   1.652  12.139 -1.3739  1.4977  0.4780
  458MPD2    H2 6877   1.688   1.577  12.522  0.9400 -0.2033 -1.3153
  458MPD2    H3 6878   1.709   1.592  12.272  0.3060  0.6545 -0.0263
  458MPD2     N 6879   1.271   1.699  12.240 -0.1654 -0.0301  1.0094
  458MPD2    H5 6880   1.181   1.704  12.288 -0.3820  1.5836  0.4472
  458MPD2    N1 6881   1.498   1.630  12.661  0.1296 -0.0705 -1.4482
  458MPD2    H7 6882   1.591   1.625  12.701 -0.7202  0.9678  0.6528
  459TMC3    C1 6883   1.452   1.615  12.884 -0.0670 -0.6254  0.5706
  459TMC3    C2 6884   1.576   1.668  12.908  0.4636 -0.3863 -0.5048
  459TMC3    C3 6885   1.638   1.626  13.017 -0.1660  0.7525 -0.1168
  459TMC3    C4 6886   1.389   1.536  12.978 -1.2876 -0.7939 -0.8381
  459TMC3    C5 6887   1.453   1.503  13.093  0.1311  0.2939 -0.4310
  459TMC3    C6 6888   1.580   1.553  13.114  0.2629 -0.1074 -0.7422
  459TMC3     C 6889   1.398   1.628  12.755 -0.2159 -0.1114 -0.5452
  459TMC3     O 6890   1.277   1.611  12.741 -0.2001  0.2223 -0.0012
  459TMC3     H 6891   1.628   1.738  12.844  1.5235 -0.9850 -0.2887
  459TMC3    H1 6892   1.292   1.500  12.949 -1.3043 -0.9914 -0.5408
  459TMC3    H2 6893   1.637   1.533  13.204 -0.0671  2.0354 -0.0652
  459TMC3    C7 6894   1.441   1.375  13.152 -0.0700  0.7890  0.2975
  459TMC3    C8 6895   1.781   1.601  12.998 -0.2524  0.2682  0.3180
  459TMC3    O1 6896   1.543   1.331  13.206 -0.5743 -0.5019 -0.0783
  459TMC3    O2 6897   1.823   1.620  12.883  0.5491  0.2689  0.1365
  460MPD2     C 6898   0.670   4.082  10.538 -0.2134 -0.3911 -0.0488
  460MPD2    C1 6899   0.559   4.000  10.565  0.2430  0.5191  0.1920
  460MPD2    C2 6900   0.457   3.990  10.465  0.1059  0.1677 -0.3769
  460MPD2    C3 6901   0.459   4.078  10.361 -0.7710 -0.1108 -0.2281
  460MPD2    C4 6902   0.564   4.162  10.353  0.2302  0.1708 -0.3025
  460MPD2    C5 6903   0.674   4.162  10.437  0.1191 -1.1658  0.2044
  460MPD2     H 6904   0.379   3.915  10.467 -0.1139  0.3653 -1.5659
  460MPD2    H1 6905   0.568   4.238  10.276 -0.4793  0.2783 -0.2325
  460MPD2    H2 6906   0.758   4.070  10.600  1.3827  0.9568 -2.0523
  460MPD2    H3 6907   0.763   4.221  10.417 -0.6845 -0.1267 -0.3314
  460MPD2     N 6908   0.348   4.078  10.273  0.6547  0.1622  0.3018
  460MPD2    H5 6909   0.274   4.010  10.290  0.7487  0.2784  1.1657
  460MPD2    N1 6910   0.572   3.906  10.670 -0.0627 -0.4084 -0.3927
  460MPD2    H7 6911   0.656   3.905  10.727 -0.0126  2.3130 -0.4446
  461TMC3    C1 6912   0.200   4.164  10.103 -0.2671  0.7927  0.8553
  461TMC3    C2 6913   0.110   4.052  10.106  0.5034  0.0323  0.2109
  461TMC3    C3 6914   4.713   4.073  10.079  0.2548  0.2382  0.1982
  461TMC3    C4 6915   0.151   4.292  10.079  0.5281 -0.5266  0.0141
  461TMC3    C5 6916   0.021   4.304  10.050 -0.0342  0.5495  0.7422
  461TMC3    C6 6917   4.666   4.198  10.048  0.7817 -0.0109 -0.2877
  461TMC3     C 6918   0.330   4.164  10.167 -0.7610  0.6553 -0.8580
  461TMC3     O 6919   0.400   4.255  10.134 -0.2499 -0.2386 -0.1807
  461TMC3     H 6920   0.155   3.956  10.132 -1.4535 -0.3392  2.2401
  461TMC3    H1 6921   0.218   4.376  10.090  0.8137 -0.8452  0.7072
  461TMC3    H2 6922   4.559   4.212  10.039  0.5700 -0.2555  2.0160
  461TMC3    C7 6923   4.695   4.432  10.012 -0.0207  0.7310 -0.0389
  461TMC3    C8 6924   4.663   3.973   9.982 -0.5214 -0.0752  0.4483
  461TMC3    O1 6925   4.577   4.447  10.020 -0.0642  0.1083 -0.0757
  461TMC3    O2 6926   4.655   4.006   9.865 -0.5983  0.3498 -0.0047
  462TMC3    C1 6927   1.093   0.316   0.100 -0.8625  0.4071 -0.2855
  462TMC3    C2 6928   1.229   0.296   0.077  0.0797  0.6443 -0.5421
  462TMC3    C3 6929   1.281   0.181   0.121  0.1360 -0.1347  0.0244
  462TMC3    C4 6930   1.016   0.214   0.149 -0.6113  0.5689  0.2319
  462TMC3    C5 6931   1.080   0.102   0.201  0.1235 -0.3357 -0.1337
  462TMC3    C6 6932   1.213   0.081   0.184 -0.1898  0.3802  0.4433
  462TMC3     C 6933   1.030   0.433   0.041  0.2237  0.3486 -0.4576
  462TMC3     O 6934   0.913   0.449   0.070  0.6033  1.0491  0.0488
  462TMC3     H 6935   1.300   0.367   0.036 -1.1902  1.6929 -0.9233
  462TMC3    H1 6936   0.909   0.219   0.134 -0.6553  0.4026  0.4867
  462TMC3    H2 6937   1.267   0.010   0.246 -1.2387 -1.3343 -0.5936
  462TMC3    C7 6938   1.005   4.715   0.232 -0.4538  0.6192  0.5530
  462TMC3    C8 6939   1.425   0.174   0.111 -0.6700  0.1301  0.2708
  462TMC3    O1 6940   1.056   4.607   0.208 -0.0682 -0.1633 -0.7555
  462TMC3    O2 6941   1.484   0.282   0.108  0.3268  0.2807 -0.4619
  463MPD2     C 6942   2.514   2.532   1.449 -0.0767  0.3912  0.5334
  463MPD2    C1 6943   2.377   2.562   1.448  0.2755  0.7275  0.6193
  463MPD2    C2 6944   2.340   2.698   1.468 -0.6429  0.1920 -1.0619
  463MPD2    C3 6945   2.431   2.803   1.453  0.5966  0.2467 -0.7264
  463MPD2    C4 6946   2.563   2.765   1.455 -0.7716  0.4454 -0.1111
  463MPD2    C5 6947   2.605   2.632   1.455 -0.2979  0.2298  0.1252
  463MPD2     H 6948   2.238   2.711   1.501 -0.4823  0.1746 -0.5628
  463MPD2    H1 6949   2.645   2.836   1.449 -1.0153  0.6744 -0.7545
  463MPD2    H2 6950   2.553   2.431   1.439 -0.1506  0.4559 -0.3798
  463MPD2    H3 6951   2.707   2.599   1.446 -0.4137  0.3607 -1.6979
  463MPD2     N 6952   2.400   2.940   1.451 -0.4564  0.0616  0.0752
  463MPD2    H5 6953   2.467   3.014   1.473  0.2842 -1.2220  2.1739
  463MPD2    N1 6954   2.275   2.472   1.414 -0.2609 -0.5726  0.1885
  463MPD2    H7 6955   2.182   2.513   1.404 -0.3636 -0.5009  1.3728
  464TMC3    C1 6956   2.174   2.279   1.374 -0.0191 -0.4343 -0.4177
  464TMC3    C2 6957   2.058   2.320   1.445 -0.1530  0.4672  0.3814
  464TMC3    C3 6958   1.951   2.240   1.434 -0.2049  0.0769  0.4044
  464TMC3    C4 6959   2.179   2.155   1.308  0.1498 -0.3577  0.1018
  464TMC3    C5 6960   2.063   2.087   1.297 -0.3860  0.5319  0.2148
  464TMC3    C6 6961   1.948   2.127   1.357 -0.3317  0.1852 -0.1818
  464TMC3     C 6962   2.301   2.346   1.392  0.1600  0.0025  0.6181
  464TMC3     O 6963   2.407   2.288   1.368  0.2458  0.4646 -0.4738
  464TMC3     H 6964   2.055   2.409   1.507 -0.4484 -0.1038  1.1861
  464TMC3    H1 6965   2.269   2.121   1.257 -0.2630  1.9152 -2.1511
  464TMC3    H2 6966   1.857   2.069   1.350 -0.0813 -0.3445  0.9309
  464TMC3    C7 6967   2.069   1.978   1.199  0.1793 -0.5709  0.0594
  464TMC3    C8 6968   1.840   2.293   1.507 -0.1062 -0.3891 -0.9515
  464TMC3    O1 6969   2.169   1.960   1.130 -0.4895 -0.7468  0.2232
  464TMC3    O2 6970   1.839   2.413   1.525 -0.3690 -0.4378  0.6450
  465MPD2     C 6971   2.955   2.152  16.966  0.7916 -0.1360 -1.1859
  465MPD2    C1 6972   2.853   2.064  16.933  0.0193 -0.6075  0.3608
  465MPD2    C2 6973   2.801   2.064  16.801  0.7422  0.4346 -0.5005
  465MPD2    C3 6974   2.854   2.147  16.704  0.3831 -0.1979 -0.2429
  465MPD2    C4 6975   2.954   2.234  16.743  0.2216  1.2349 -0.6501
  465MPD2    C5 6976   3.002   2.233  16.868 -0.2667  0.2895  0.1863
  465MPD2     H 6977   2.716   2.003  16.774  0.7896 -0.2813  0.9807
  465MPD2    H1 6978   2.995   2.300  16.667  1.0608  0.3568 -0.9512
  465MPD2    H2 6979   3.010   2.166  17.059 -0.0101  0.4291 -0.8018
  465MPD2    H3 6980   3.073   2.310  16.894  0.5208 -0.8523  1.4316
  465MPD2     N 6981   2.805   2.136  16.573  0.2955 -0.7942 -0.4335
  465MPD2    H5 6982   2.725   2.076  16.556  0.1194 -0.3393 -1.2041
  465MPD2    N1 6983   2.792   1.972  17.025  0.0837 -0.4843 -0.4558
  465MPD2    H7 6984   2.704   1.929  17.000 -2.9946  4.4391  1.8512
  466TMC3    C1 6985   2.570   2.074  16.250 -0.5826 -0.1303 -0.6355
  466TMC3    C2 6986   2.558   2.171  16.155 -0.9368  0.6066  0.0971
  466TMC3    C3 6987   2.644   2.272  16.152  0.3892 -0.2910 -0.3777
  466TMC3    C4 6988   2.669   2.081  16.342  0.2252 -0.3413 -0.3177
  466TMC3    C5 6989   2.747   2.191  16.351 -0.1189 -0.3538 -0.1557
  466TMC3    C6 6990   2.740   2.285  16.252  0.5215 -0.3461  0.3527
  466TMC3     C 6991   2.444   2.027  16.311  0.2018 -0.4044  0.4588
  466TMC3     O 6992   2.444   2.015  16.431  0.2323  0.0965 -0.1295
  466TMC3     H 6993   2.477   2.174  16.083  1.1304 -0.9321 -2.2966
  466TMC3    H1 6994   2.680   1.989  16.399  2.0643 -1.3925 -2.3866
  466TMC3    H2 6995   2.799   2.375  16.251 -1.5304  0.9988  0.4032
  466TMC3    C7 6996   2.834   2.219  16.466 -0.3295  0.1450 -0.1143
  466TMC3    C8 6997   2.580   2.391  16.110  0.1053 -1.2311 -0.4760
  466TMC3    O1 6998   2.902   2.320  16.457 -0.3054 -0.3205  0.6101
  466TMC3    O2 6999   2.536   2.398  15.995 -0.1368 -0.1967  0.2689
  467TMC3    C1 7000   3.365   0.781  13.585 -0.1347 -0.2266 -0.2091
  467TMC3    C2 7001   3.377   0.851  13.703 -0.0842  0.1263  0.2105
  467TMC3    C3 7002   3.262   0.881  13.776  0.3914  0.9944  0.1247
  467TMC3    C4 7003   3.245   0.745  13.537 -0.2454  0.5490 -0.6447
  467TMC3    C5 7004   3.140   0.778  13.613  0.1747 -0.4272 -0.0097
  467TMC3    C6 7005   3.144   0.850  13.724  0.3014 -0.0862 -0.2263
  467TMC3     C 7006   3.475   0.760  13.502  0.0869 -0.5409  0.4228
  467TMC3     O 7007   3.465   0.766  13.379 -0.4974  0.2327 -0.1302
  467TMC3     H 7008   3.480   0.869  13.731 -0.5409  1.8611  0.7218
  467TMC3    H1 7009   3.248   0.704  13.436  0.0833 -2.6342  0.6346
  467TMC3    H2 7010   3.052   0.882  13.772  0.5143 -2.6028  1.8059
  467TMC3    C7 7011   3.018   0.717  13.561  0.4359 -0.5567 -0.1590
  467TMC3    C8 7012   3.268   0.963  13.890  0.2144 -1.1261  0.1362
  467TMC3    O1 7013   3.019   0.685  13.444  0.5034 -0.1009 -0.0944
  467TMC3    O2 7014   3.173   1.033  13.922  0.1959 -0.1734 -0.2641
  468MPD2     C 7015   1.865   3.861  10.790 -0.0444 -0.6009  0.6278
  468MPD2    C1 7016   2.002   3.845  10.782 -0.1877 -0.8303  0.1861
  468MPD2    C2 7017   2.054   3.734  10.723 -0.0107 -0.2326 -0.0072
  468MPD2    C3 7018   1.979   3.621  10.684  0.1403 -0.4780 -0.1950
  468MPD2    C4 7019   1.843   3.635  10.710  0.2662  1.1644  0.1649
  468MPD2    C5 7020   1.787   3.754  10.749  0.0227  0.2197 -0.1042
  468MPD2     H 7021   2.162   3.738  10.715 -0.0879  2.3828  0.2430
  468MPD2    H1 7022   1.776   3.559  10.672 -0.9117  1.1636  2.2260
  468MPD2    H2 7023   1.821   3.954  10.823 -1.0251  0.3599 -3.3353
  468MPD2    H3 7024   1.680   3.762  10.761  0.0691 -1.6224  1.4987
  468MPD2     N 7025   2.032   3.504  10.624  0.0096 -0.1938 -0.2075
  468MPD2    H5 7026   1.971   3.425  10.604 -0.4473  0.5426 -1.7359
  468MPD2    N1 7027   2.088   3.946  10.826  0.8756  0.3925 -0.6341
  468MPD2    H7 7028   2.176   3.945  10.776  1.4966 -2.3691  0.5268
  469TMC3    C1 7029   2.159   4.140  10.938  0.0432  0.0949  0.1328
  469TMC3    C2 7030   2.286   4.104  10.897  0.0250 -0.6807 -0.3859
  469TMC3    C3 7031   2.376   4.205  10.892 -0.1819  0.0379  0.1843
  469TMC3    C4 7032   2.125   4.264  10.989 -0.1067 -0.6834 -0.1282
  469TMC3    C5 7033   2.226   4.360  10.985 -0.1428 -0.0574 -0.1169
  469TMC3    C6 7034   2.349   4.334  10.943 -0.2773 -0.6995 -0.4023
  469TMC3     C 7035   2.048   4.051  10.908  0.0514 -0.2320 -0.7391
  469TMC3     O 7036   1.950   4.058  10.981  0.2355  0.0347 -0.0692
  469TMC3     H 7037   2.312   4.005  10.860  0.2004 -1.1431  0.9602
  469TMC3    H1 7038   2.024   4.287  11.019 -0.6759 -2.5799 -0.5653
  469TMC3    H2 7039   2.422   4.410  10.967  0.6598 -1.0889 -1.9628
  469TMC3    C7 7040   2.210   4.489  11.055  0.2679  0.2613  0.3043
  469TMC3    C8 7041   2.524   4.172  10.895  0.2341  0.0257  0.3311
  469TMC3    O1 7042   2.247   4.590  10.997 -0.6374 -1.0581 -0.4014
  469TMC3    O2 7043   2.605   4.222  10.825 -0.0346  0.0511 -0.2095
  470TMC3    C1 7044   0.184   4.610  17.621 -0.2544  0.1519 -0.3034
  470TMC3    C2 7045   0.139   4.728  17.668 -0.3010 -0.4984  0.0937
  470TMC3    C3 7046   0.030   4.719   0.009 -0.2959 -0.0873  0.0843
  470TMC3    C4 7047   0.128   4.488  17.651 -0.3566 -0.4025 -0.4319
  470TMC3    C5 7048   0.031   4.480   0.004 -0.3390 -0.6743  0.8214
  470TMC3    C6 7049   4.713   4.601   0.054  0.2049  0.7243 -0.3401
  470TMC3     C 7050   0.275   4.599  17.513  0.0077 -0.2716  0.4102
  470TMC3     O 7051   0.311   4.490  17.467  0.1064  0.0735  0.6075
  470TMC3     H 7052   0.199   0.083  17.667  0.6844 -1.1285  2.3308
  470TMC3    H1 7053   0.168   4.396  17.610  1.3930  0.1036  0.1312
  470TMC3    H2 7054   4.627   4.602   0.120  0.1018 -1.3632 -0.4552
  470TMC3    C7 7055   4.696   4.357   0.031  0.3662 -0.9410  0.7704
  470TMC3    C8 7056   4.730   0.093   0.095  0.0610  0.1488  0.3328
  470TMC3    O1 7057   4.705   4.268  17.682 -0.7451  0.1733 -0.2256
  470TMC3    O2 7058   4.654   0.066   0.186 -0.0589 -0.6949  0.0071
  471MPD2     C 7059   0.813   0.607  16.554  0.1536  0.2558 -0.2229
  471MPD2    C1 7060   0.716   0.546  16.635 -0.4532 -0.0456  0.0619
  471MPD2    C2 7061   0.715   0.580  16.771  0.2031  0.4581 -0.0016
  471MPD2    C3 7062   0.806   0.667  16.824  0.2724  0.0677  0.8257
  471MPD2    C4 7063   0.892   0.732  16.739  0.7205 -0.2223 -0.0609
  471MPD2    C5 7064   0.903   0.694  16.609 -0.0077  0.2809 -0.0118
  471MPD2     H 7065   0.641   0.529  16.831 -0.4013  1.0040 -0.2747
  471MPD2    H1 7066   0.958   0.808  16.778 -0.9039  0.2116  1.8592
  471MPD2    H2 7067   0.817   0.571  16.451 -1.9223  1.0631 -0.5813
  471MPD2    H3 7068   0.982   0.735  16.547  0.8271 -1.8542 -0.3531
  471MPD2     N 7069   0.817   0.696  16.957  0.3519  0.2183  0.7857
  471MPD2    H5 7070   0.906   0.740  16.979  1.2817  0.6424 -3.6481
  471MPD2    N1 7071   0.630   0.443  16.590 -0.6447  0.3965  0.0987
  471MPD2    H7 7072   0.556   0.426  16.657 -0.1066  0.5953  0.7366
  472TMC3    C1 7073   0.513   0.297  16.462 -0.4475 -0.3370  0.6850
  472TMC3    C2 7074   0.489   0.233  16.336 -0.2335 -0.5965 -0.9089
  472TMC3    C3 7075   0.386   0.148  16.322  0.2509  0.8469  0.8257
  472TMC3    C4 7076   0.449   0.256  16.572  0.1047  0.7312  0.0184
  472TMC3    C5 7077   0.351   0.162  16.559 -0.2812 -0.4048  0.2937
  472TMC3    C6 7078   0.327   0.104  16.441 -0.4046  0.6532 -0.8657
  472TMC3     C 7079   0.635   0.372  16.472 -0.3927  0.3425  0.6838
  472TMC3     O 7080   0.721   0.368  16.380  0.0882  0.1927 -0.9153
  472TMC3     H 7081   0.553   0.252  16.251  1.9668 -1.7396  0.5221
  472TMC3    H1 7082   0.475   0.282  16.674  2.1579 -0.1432 -0.2920
  472TMC3    H2 7083   0.246   0.032  16.443 -0.6603  0.9621 -0.1122
  472TMC3    C7 7084   0.330   0.076  16.674  0.1019 -0.3237 -0.1473
  472TMC3    C8 7085   0.303   0.180  16.216 -0.6659 -0.5506  0.2180
  472TMC3    O1 7086   0.338   4.693  16.655 -0.3708  0.0409 -0.7063
  472TMC3    O2 7087   0.343   0.260  16.133 -0.2484 -0.0306 -0.2476
  473MPD2     C 7088   4.304   2.534  14.016  0.3634 -0.6015 -0.7994
  473MPD2    C1 7089   4.395   2.582  13.925  0.2720 -0.4212  0.3165
  473MPD2    C2 7090   4.487   2.680  13.971 -0.8180  0.4261 -0.2198
  473MPD2    C3 7091   4.481   2.719  14.105 -0.2054  0.0905  0.0159
  473MPD2    C4 7092   4.402   2.659  14.201  0.0168 -0.3264 -0.1984
  473MPD2    C5 7093   4.312   2.565  14.154 -0.0845 -0.3128 -0.0571
  473MPD2     H 7094   4.545   2.728  13.893  2.3033 -0.7121  1.3811
  473MPD2    H1 7095   4.401   2.681  14.307  0.1969  1.0115 -0.4771
  473MPD2    H2 7096   4.227   2.461  13.998  1.5564 -2.0301 -0.0524
  473MPD2    H3 7097   4.245   2.508  14.217 -1.5056  1.0361 -0.3540
  473MPD2     N 7098   4.583   2.809  14.144  0.0585 -0.3468 -0.6141
  473MPD2    H5 7099   4.615   2.797  14.240 -0.6361 -0.5210 -0.4063
  473MPD2    N1 7100   4.397   2.549  13.791 -0.2583 -0.1680  0.1854
  473MPD2    H7 7101   4.467   2.601  13.739  1.1770 -2.5860 -0.2790
  474TMC3    C1 7102   4.714   2.991  14.159  0.1980 -0.5516 -0.6382
  474TMC3    C2 7103   4.688   3.124  14.138 -0.1312 -0.1492 -0.0879
  474TMC3    C3 7104   0.021   3.207  14.230  0.3083 -0.2262  0.4461
  474TMC3    C4 7105   0.046   2.932  14.263  0.0326  0.2183 -0.3609
  474TMC3    C5 7106   0.124   3.018  14.345 -0.2866  0.0885 -0.5240
  474TMC3    C6 7107   0.111   3.160  14.325 -0.2626  0.6949 -0.5986
  474TMC3     C 7108   4.641   2.903  14.067 -0.0799  0.2866 -0.3903
  474TMC3     O 7109   4.601   2.943  13.961  0.2433 -0.1981 -0.3577
  474TMC3     H 7110   4.617   3.154  14.062 -1.0100  0.7213  1.0839
  474TMC3    H1 7111   0.063   2.825  14.269  1.1143  0.4459  0.6900
  474TMC3    H2 7112   0.166   3.232  14.385  1.9074 -0.1804 -1.5238
  474TMC3    C7 7113   0.257   2.979  14.385  0.1702  0.0832  0.1616
  474TMC3    C8 7114   0.016   3.352  14.198 -0.1154 -0.0334 -0.4378
  474TMC3    O1 7115   0.309   2.873  14.342  0.1011 -0.7441  0.4227
  474TMC3    O2 7116   0.043   3.428  14.290  0.2556 -0.0539 -0.3200
  475MPD2     C 7117   3.567   1.327  10.365 -0.0064  0.0915 -0.1052
  475MPD2    C1 7118   3.676   1.401  10.407  0.1964 -0.2072 -0.1084
  475MPD2    C2 7119   3.654   1.498  10.501 -0.4258  0.5723 -0.7569
  475MPD2    C3 7120   3.525   1.537  10.536 -0.0653  1.1267 -0.0295
  475MPD2    C4 7121   3.416   1.463  10.492 -0.0199  0.0564  0.3678
  475MPD2    C5 7122   3.436   1.357  10.403 -0.0392 -0.1014 -0.4675
  475MPD2     H 7123   3.727   1.571  10.534 -0.0271  0.2464 -0.9279
  475MPD2    H1 7124   3.315   1.487  10.521  0.5113  1.8812  0.6911
  475MPD2    H2 7125   3.582   1.251  10.289 -0.9848 -0.3843  0.1675
  475MPD2    H3 7126   3.348   1.301  10.370 -0.8318  1.1288 -0.4483
  475MPD2     N 7127   3.503   1.661  10.603  0.1466 -0.0148 -0.0639
  475MPD2    H5 7128   3.591   1.703  10.629  2.2077 -4.0499 -0.4869
  475MPD2    N1 7129   3.809   1.374  10.357 -0.6515  0.1159  0.3286
  475MPD2    H7 7130   3.808   1.316  10.274  2.5209 -0.4213  0.6496
  476TMC3    C1 7131   4.033   1.421  10.321  0.7921 -0.4642  1.2026
  476TMC3    C2 7132   4.007   1.475  10.203  0.0443  0.6763  0.5533
  476TMC3    C3 7133   4.077   1.577  10.155 -0.1261 -0.6708  0.5941
  476TMC3    C4 7134   4.143   1.455  10.390  0.3045  0.2692 -0.1749
  476TMC3    C5 7135   4.218   1.556  10.340  0.0491 -0.9479  0.0535
  476TMC3    C6 7136   4.186   1.616  10.226 -0.0156  0.2293 -0.3539
  476TMC3     C 7137   3.929   1.424  10.409  0.6225 -0.2494  0.7027
  476TMC3     O 7138   3.948   1.491  10.511  0.0717  0.3202 -0.0235
  476TMC3     H 7139   3.924   1.435  10.146  0.4650 -0.3130  0.6430
  476TMC3    H1 7140   4.168   1.415  10.488  1.1186 -0.2472 -0.5898
  476TMC3    H2 7141   4.250   1.693  10.185  0.3791  0.0306 -0.1047
  476TMC3    C7 7142   4.278   1.640  10.442  0.1523  0.4145 -0.7622
  476TMC3    C8 7143   3.993   1.697  10.150 -0.5151 -0.3592 -0.3983
  476TMC3    O1 7144   4.325   1.577  10.537  0.1851  0.8101 -0.4323
  476TMC3    O2 7145   4.044   1.792  10.202 -0.5006 -0.5566 -0.0995
  477MPD2     C 7146   1.043   3.333  11.817  0.2119 -0.5132 -0.0572
  477MPD2    C1 7147   1.004   3.227  11.735 -0.4344  0.8835 -1.1084
  477MPD2    C2 7148   1.049   3.100  11.765 -0.6016  0.2505 -0.0934
  477MPD2    C3 7149   1.135   3.085  11.877  0.3942  0.2580  0.7220
  477MPD2    C4 7150   1.168   3.185  11.955 -1.0111 -0.2027  0.7478
  477MPD2    C5 7151   1.130   3.314  11.919  0.0841 -0.0745  0.4176
  477MPD2     H 7152   1.014   3.012  11.714 -2.8080  2.1252 -1.8056
  477MPD2    H1 7153   1.246   3.184  12.030  2.5291 -2.6988 -2.9353
  477MPD2    H2 7154   1.020   3.436  11.791  2.2935 -0.1138 -0.2606
  477MPD2    H3 7155   1.157   3.402  11.976 -0.4483  0.4449 -0.1362
  477MPD2     N 7156   1.192   2.961  11.917 -0.7061 -0.0770  0.1328
  477MPD2    H5 7157   1.247   2.953  12.003 -2.4063 -0.9285  1.1433
  477MPD2    N1 7158   0.914   3.255  11.629  0.0531 -0.5909 -0.4974
  477MPD2    H7 7159   0.867   3.344  11.640 -0.8533 -1.3048  1.4573
  478TMC3    C1 7160   0.768   3.255  11.456 -0.1065 -0.9592 -0.5272
  478TMC3    C2 7161   0.731   3.376  11.505  0.5256  0.1495  0.3124
  478TMC3    C3 7162   0.608   3.424  11.462 -0.1976  0.2904  0.3647
  478TMC3    C4 7163   0.685   3.172  11.380  0.3423  0.5207  0.0450
  478TMC3    C5 7164   0.566   3.229  11.344  0.0928 -0.2957 -0.8444
  478TMC3    C6 7165   0.524   3.349  11.390 -0.0779  0.4406  0.4463
  478TMC3     C 7166   0.873   3.182  11.529 -0.2884 -0.2583 -0.0765
  478TMC3     O 7167   0.902   3.066  11.507  0.4263 -0.5479 -0.2916
  478TMC3     H 7168   0.796   3.448  11.554 -1.4949  0.5722  2.3570
  478TMC3    H1 7169   0.710   3.068  11.360  0.8596  0.4647  0.9569
  478TMC3    H2 7170   0.421   3.380  11.372 -0.5623  0.6386  3.6000
  478TMC3    C7 7171   0.482   3.147  11.252  0.0077  0.2267 -0.4193
  478TMC3    C8 7172   0.555   3.533  11.541  0.2659  0.4786  0.1096
  478TMC3    O1 7173   0.485   3.027  11.274  0.3869  0.2830  0.2954
  478TMC3    O2 7174   0.625   3.565  11.639  0.0048 -0.1351 -0.5806
  479MPD2     C 7175   4.045   0.256  14.956  1.1939  0.3712 -0.5256
  479MPD2    C1 7176   4.124   0.180  15.040  0.2700 -1.0831 -0.5990
  479MPD2    C2 7177   4.244   0.238  15.081 -0.0345 -0.1697 -0.4247
  479MPD2    C3 7178   4.279   0.369  15.041  0.2224 -0.5133  0.2820
  479MPD2    C4 7179   4.197   0.443  14.962 -0.4718  0.7231  0.7710
  479MPD2    C5 7180   4.079   0.382  14.924 -0.8675 -1.0155  0.0447
  479MPD2     H 7181   4.311   0.182  15.146  0.9538  1.9497  0.3785
  479MPD2    H1 7182   4.222   0.546  14.936 -2.3594  0.7332 -1.0046
  479MPD2    H2 7183   3.956   0.217  14.907  0.9925 -0.1356  0.2498
  479MPD2    H3 7184   4.002   0.439  14.873 -0.5905 -0.3807  0.3418
  479MPD2     N 7185   4.387   0.443  15.103 -0.2050  0.3009  0.0212
  479MPD2    H5 7186   4.405   0.536  15.068 -1.2439 -0.5007 -2.6465
  479MPD2    N1 7187   4.058   0.062  15.088 -0.1705 -0.2417  0.3902
  479MPD2    H7 7188   3.959   0.049  15.073  0.4705 -0.5924 -3.3534
  480TMC3    C1 7189   0.042   0.401  15.323 -0.8788 -0.4249 -0.0657
  480TMC3    C2 7190   0.112   0.418  15.208  0.1480  0.0250  0.3158
  480TMC3    C3 7191   0.048   0.482  15.102  0.9895  1.1808 -0.9216
  480TMC3    C4 7192   4.647   0.444  15.334  0.7212 -0.5088 -0.3836
  480TMC3    C5 7193   4.582   0.494  15.224  0.6024 -0.3199  0.1292
  480TMC3    C6 7194   4.652   0.523  15.110 -0.0036  0.0104 -0.2590
  480TMC3     C 7195   0.087   0.308  15.424  0.0686 -0.8473  0.5329
  480TMC3     O 7196   4.732   0.259  15.483  0.1940  0.1062  0.2342
  480TMC3     H 7197   0.209   0.370  15.199  1.2071  2.3753 -0.8056
  480TMC3    H1 7198   4.599   0.426  15.429  0.5835  1.5819 -0.0574
  480TMC3    H2 7199   4.608   0.565  15.020  0.8337 -1.1524 -1.2283
  480TMC3    C7 7200   4.473   0.400  15.198  0.6688 -0.5679 -0.2236
  480TMC3    C8 7201   0.097   0.469  14.969 -0.2283 -0.0945  0.2724
  480TMC3    O1 7202   4.467   0.302  15.269 -0.8570  0.1375  0.0289
  480TMC3    O2 7203   0.112   0.351  14.932 -0.5947  0.2068  0.0707
  481MPD2     C 7204   1.153   4.385  13.964 -0.2423 -0.2744  0.1157
  481MPD2    C1 7205   1.111   4.264  14.019 -0.6387  0.1516 -0.5760
  481MPD2    C2 7206   1.169   4.214  14.136 -0.3077 -0.3012  0.5572
  481MPD2    C3 7207   1.265   4.282  14.199 -0.3668  0.0990  0.8882
  481MPD2    C4 7208   1.306   4.403  14.148  0.4601 -0.4389 -0.6428
  481MPD2    C5 7209   1.251   4.455  14.030 -0.0982 -0.4624 -0.5304
  481MPD2     H 7210   1.135   4.118  14.173 -0.1469 -1.2905 -1.8659
  481MPD2    H1 7211   1.383   4.459  14.201  0.3348  0.0717 -0.9997
  481MPD2    H2 7212   1.092   4.431  13.887  0.1957  2.6072  1.4861
  481MPD2    H3 7213   1.292   4.548  13.993  0.1761  0.0197  0.9663
  481MPD2     N 7214   1.323   4.245  14.329 -0.2236  0.4271  0.0370
  481MPD2    H5 7215   1.387   4.312  14.368  0.6849 -1.5810  2.0116
  481MPD2    N1 7216   1.000   4.200  13.959  0.1450  0.9304 -0.0146
  481MPD2    H7 7217   0.958   4.252  13.882  1.6093  1.5828 -0.3805
  482TMC3    C1 7218   0.827   4.048  13.926 -0.5886 -0.5169 -0.1584
  482TMC3    C2 7219   0.804   3.915  13.911  0.3341  0.4919  0.3391
  482TMC3    C3 7220   0.712   3.871  13.819  0.3707 -0.2413 -0.2311
  482TMC3    C4 7221   0.760   4.142  13.851  0.4922  1.0230  0.1704
  482TMC3    C5 7222   0.654   4.097  13.773 -0.5743 -0.5625 -0.0812
  482TMC3    C6 7223   0.641   3.964  13.749 -0.3627 -0.1170  0.1242
  482TMC3     C 7224   0.946   4.082  13.995  0.0361  0.2737 -0.3470
  482TMC3     O 7225   0.995   3.990  14.061 -0.1015 -0.2387  0.4216
  482TMC3     H 7226   0.867   3.837  13.952  0.1725  0.4783  0.5551
  482TMC3    H1 7227   0.766   4.243  13.891 -1.9679  1.8105 -1.4537
  482TMC3    H2 7228   0.568   3.928  13.678  0.6370 -0.6681 -0.6300
  482TMC3    C7 7229   0.578   4.186  13.684  0.4339  1.0142  0.0924
  482TMC3    C8 7230   0.727   3.734  13.762  0.2508  0.2172  0.4699
  482TMC3    O1 7231   0.506   4.134  13.603  0.5295  0.1939  0.3108
  482TMC3    O2 7232   0.825   3.668  13.800 -0.3762 -0.7267  0.3728
  483TMC3    C1 7233   0.105   3.620   1.038 -0.6723 -0.3815 -0.3828
  483TMC3    C2 7234   0.199   3.702   0.984  0.2533  1.0760  0.3216
  483TMC3    C3 7235   0.327   3.699   1.029  0.5308 -0.0483  0.1559
  483TMC3    C4 7236   0.130   3.543   1.147  0.0157  0.1850 -0.5957
  483TMC3    C5 7237   0.256   3.551   1.201 -0.4374  0.4958  0.2544
  483TMC3    C6 7238   0.359   3.616   1.137  0.9552  0.5564  0.3185
  483TMC3     C 7239   4.728   3.589   0.952  0.3228  1.1342 -0.0445
  483TMC3     O 7240   4.677   3.682   0.887 -0.1476 -0.3302 -0.3789
  483TMC3     H 7241   0.178   3.745   0.887  0.1692  3.6674  1.4897
  483TMC3    H1 7242   0.052   3.489   1.199 -0.0820 -0.0853 -1.0226
  483TMC3    H2 7243   0.459   3.618   1.178  1.5936  2.8076 -1.3169
  483TMC3    C7 7244   0.283   3.470   1.316 -0.4905  0.7434 -0.4072
  483TMC3    C8 7245   0.430   3.748   0.933  0.3107 -0.1327  0.0550
  483TMC3    O1 7246   0.193   3.466   1.401 -0.2610  0.5336 -0.9202
  483TMC3    O2 7247   0.386   3.818   0.842 -0.3823 -0.3723  0.6016
  484MPD2     C 7248   2.058   1.544  13.236  0.3884 -0.1507 -1.5819
  484MPD2    C1 7249   1.991   1.538  13.113  0.6271  0.2189 -0.2860
  484MPD2    C2 7250   2.069   1.507  13.004  0.3328  0.5293 -0.4167
  484MPD2    C3 7251   2.209   1.492  13.021  0.3608 -0.4038 -0.1311
  484MPD2    C4 7252   2.278   1.505  13.142 -0.2686  0.3163 -0.0432
  484MPD2    C5 7253   2.193   1.529  13.247 -0.2652  0.0770 -0.0801
  484MPD2     H 7254   2.021   1.494  12.907 -1.7682  0.8031  0.5796
  484MPD2    H1 7255   2.385   1.510  13.157 -0.2802 -0.7497  0.3838
  484MPD2    H2 7256   1.998   1.568  13.323  2.0049 -2.2682  0.0830
  484MPD2    H3 7257   2.245   1.543  13.341 -1.3241  1.0662  0.3601
  484MPD2     N 7258   2.290   1.435  12.916 -0.3552 -0.0737 -0.2798
  484MPD2    H5 7259   2.388   1.419  12.939 -0.3801 -1.3294 -1.0550
  484MPD2    N1 7260   1.857   1.585  13.109 -0.3400 -0.5478 -0.0066
  484MPD2    H7 7261   1.809   1.599  13.196 -2.7180 -0.5995 -1.3186
  485TMC3    C1 7262   2.355   1.319  12.722 -0.1420  0.2912 -0.3775
  485TMC3    C2 7263   2.439   1.230  12.784  0.2033  0.1507 -0.0885
  485TMC3    C3 7264   2.503   1.143  12.708  0.2098 -0.2192 -0.6073
  485TMC3    C4 7265   2.337   1.315  12.585 -0.1144 -0.2152 -0.3540
  485TMC3    C5 7266   2.393   1.209  12.512  0.2846  0.2533  0.1824
  485TMC3    C6 7267   2.486   1.127  12.572 -0.2560 -0.6920  0.3050
  485TMC3     C 7268   2.251   1.397  12.792 -0.4689 -0.4271  0.1134
  485TMC3     O 7269   2.147   1.419  12.730 -0.2927  0.1443 -0.1836
  485TMC3     H 7270   2.477   1.241  12.885  2.5346 -0.6615 -0.8737
  485TMC3    H1 7271   2.263   1.370  12.528  1.9710  0.9846 -1.9295
  485TMC3    H2 7272   2.553   1.063  12.516 -1.0230 -2.5315  1.4636
  485TMC3    C7 7273   2.432   1.231  12.376  0.0723  0.3755  0.1814
  485TMC3    C8 7274   2.636   1.109  12.749 -0.0219 -0.4427 -0.0426
  485TMC3    O1 7275   2.460   1.135  12.308 -0.5046  0.6025  0.2114
  485TMC3    O2 7276   2.671   0.995  12.711  0.1091  0.3353 -0.4431
  486MPD2     C 7277   4.261   0.807  13.225 -0.2548  1.0987  0.3995
  486MPD2    C1 7278   4.213   0.727  13.119  0.1686  0.5485  0.6627
  486MPD2    C2 7279   4.194   0.788  13.001 -0.1924  0.0339 -0.2074
  486MPD2    C3 7280   4.201   0.930  12.985  0.4885  0.0855  0.1140
  486MPD2    C4 7281   4.235   1.006  13.092  0.0180 -0.1841  0.8175
  486MPD2    C5 7282   4.274   0.945  13.210  0.1052  0.0209 -0.5690
  486MPD2     H 7283   4.162   0.724  12.920 -1.8613  0.3589  0.1866
  486MPD2    H1 7284   4.245   1.114  13.090 -0.3031 -0.1629  0.1417
  486MPD2    H2 7285   4.292   0.766  13.320  0.3672 -1.5472 -0.9186
  486MPD2    H3 7286   4.301   1.011  13.292  1.1701  0.5288 -1.3380
  486MPD2     N 7287   4.163   0.987  12.865  0.1419  0.3047 -0.7769
  486MPD2    H5 7288   4.148   0.926  12.786  0.4375 -0.0979 -0.5220
  486MPD2    N1 7289   4.188   0.590  13.145  0.3822 -0.4957 -0.3094
  486MPD2    H7 7290   4.212   0.557  13.238  0.3977 -0.6908 -0.3831
  487TMC3    C1 7291   4.114   0.359  13.111  0.1230 -0.6589 -0.5993
  487TMC3    C2 7292   4.172   0.249  13.047  0.5116  0.2621  0.4000
  487TMC3    C3 7293   4.145   0.129  13.107  0.5712 -0.1831 -0.2829
  487TMC3    C4 7294   4.042   0.350  13.226  0.0745 -0.3550  0.5668
  487TMC3    C5 7295   4.049   0.233  13.289  0.5933 -0.1789 -0.1411
  487TMC3    C6 7296   4.103   0.125  13.233  0.4681 -0.7464  0.1796
  487TMC3     C 7297   4.134   0.494  13.052  0.4040 -0.4818 -0.1975
  487TMC3     O 7298   4.123   0.490  12.931  0.6560 -0.1292 -0.7101
  487TMC3     H 7299   4.209   0.253  12.945  2.7134  2.6501  1.3083
  487TMC3    H1 7300   4.003   0.447  13.256 -0.5516  0.4595 -2.8894
  487TMC3    H2 7301   4.071   0.030  13.276  1.0361  0.1137  2.5110
  487TMC3    C7 7302   3.972   0.209  13.410 -0.6320  0.1360  0.1813
  487TMC3    C8 7303   4.172   0.004  13.032 -0.1044 -0.0764 -0.1171
  487TMC3    O1 7304   4.005   0.111  13.479  0.1410  0.2219  0.0614
  487TMC3    O2 7305   4.255   0.009  12.943 -0.0269  0.1953  0.1200
  488MPD2     C 7306   3.986   1.773  16.472 -0.1636 -0.5104  0.5908
  488MPD2    C1 7307   4.117   1.812  16.488 -0.2076 -0.1815 -0.5899
  488MPD2    C2 7308   4.185   1.780  16.601 -0.0400 -0.1613  0.1421
  488MPD2    C3 7309   4.124   1.697  16.698  0.1905  0.0661 -0.3780
  488MPD2    C4 7310   3.988   1.672  16.691  0.4887 -0.5883 -0.6251
  488MPD2    C5 7311   3.916   1.717  16.581  0.6879 -0.1589 -0.2186
  488MPD2     H 7312   4.288   1.812  16.616  0.0644  0.6178 -2.3195
  488MPD2    H1 7313   3.936   1.617  16.768  2.7494 -1.6008  0.1657
  488MPD2    H2 7314   3.937   1.796  16.378 -0.8921 -0.2504  1.0452
  488MPD2    H3 7315   3.815   1.684  16.564  0.4976 -0.1293  0.8481
  488MPD2     N 7316   4.204   1.657  16.805 -0.1005 -0.4290 -0.2691
  488MPD2    H5 7317   4.303   1.677  16.793 -0.7328  1.1931 -2.6483
  488MPD2    N1 7318   4.182   1.900  16.397 -0.4902 -0.3514 -0.1088
  488MPD2    H7 7319   4.265   1.946  16.434  0.3088 -0.4273 -1.7787
  489TMC3    C1 7320   4.254   1.582  17.024 -0.1900 -1.2579 -0.1011
  489TMC3    C2 7321   4.347   1.683  17.046 -0.3031 -0.1772  0.4867
  489TMC3    C3 7322   4.407   1.691  17.164 -0.7206 -0.3146 -0.0642
  489TMC3    C4 7323   4.222   1.498  17.128  0.1442  0.5569 -0.1594
  489TMC3    C5 7324   4.278   1.513  17.252  0.8424 -0.9818 -0.3197
  489TMC3    C6 7325   4.379   1.609  17.270 -0.4087  0.3467  0.3311
  489TMC3     C 7326   4.158   1.586  16.919 -0.3760 -0.1866  0.0720
  489TMC3     O 7327   4.049   1.549  16.952  0.1268 -0.5050 -0.1797
  489TMC3     H 7328   4.363   1.763  16.975  0.0876 -0.2587  0.4794
  489TMC3    H1 7329   4.149   1.419  17.111  1.1110 -0.7400  1.6514
  489TMC3    H2 7330   4.421   1.629  17.368 -0.5653  1.1344  0.2359
  489TMC3    C7 7331   4.248   1.440  17.371  0.5439  0.6721 -0.7926
  489TMC3    C8 7332   4.472   1.814  17.184  0.4394 -0.0685  1.3290
  489TMC3    O1 7333   4.291   1.483  17.479  0.4003  0.0893  0.6196
  489TMC3    O2 7334   4.570   1.841  17.119  0.3881 -0.2324  0.0620
  490MPD2     C 7335   0.252   1.462  17.072 -0.5256  0.0918  0.0416
  490MPD2    C1 7336   0.359   1.370  17.083  0.3000 -0.3814  0.0924
  490MPD2    C2 7337   0.478   1.413  17.137 -0.3499 -0.0919  0.3811
  490MPD2    C3 7338   0.496   1.548  17.169 -0.3310 -0.4126  0.3972
  490MPD2    C4 7339   0.392   1.635  17.151 -1.2558  0.5566 -0.4610
  490MPD2    C5 7340   0.269   1.587  17.121 -0.5961 -0.4175  1.0725
  490MPD2     H 7341   0.533   1.325  17.166 -0.7481  0.0571  1.5851
  490MPD2    H1 7342   0.405   1.739  17.177 -1.3395  0.6046 -0.6102
  490MPD2    H2 7343   0.161   1.427  17.024  0.0133 -1.0848 -0.1332
  490MPD2    H3 7344   0.185   1.656  17.122  0.3365  0.7695 -4.7421
  490MPD2     N 7345   0.617   1.602  17.215 -0.3007 -0.3338 -0.1916
  490MPD2    H5 7346   0.623   1.699  17.246 -0.4884 -0.5679  0.5973
  490MPD2    N1 7347   0.338   1.236  17.041 -0.4141  0.2353  0.1495
  490MPD2    H7 7348   0.244   1.206  17.017  0.7949 -1.3507 -2.6329
  491TMC3    C1 7349   0.392   1.021  17.005  0.0622 -0.4014  0.7344
  491TMC3    C2 7350   0.299   0.999  17.096 -0.3472 -0.4733 -0.3078
  491TMC3    C3 7351   0.217   0.887  17.078 -0.1180 -0.0625 -0.1879
  491TMC3    C4 7352   0.413   0.939  16.897  0.1280  0.2624 -0.4310
  491TMC3    C5 7353   0.329   0.827  16.883  0.3906 -0.8365  0.3519
  491TMC3    C6 7354   0.228   0.802  16.975 -0.1266  0.5893 -0.7136
  491TMC3     C 7355   0.443   1.155  17.003  0.6736  0.1248  0.0604
  491TMC3     O 7356   0.556   1.186  16.970  0.2673 -0.3308  0.0798
  491TMC3     H 7357   0.289   1.065  17.181  0.8121  0.2902 -0.7600
  491TMC3    H1 7358   0.488   0.962  16.822  3.2279 -2.3774  1.8499
  491TMC3    H2 7359   0.159   0.720  16.957  1.1817 -1.4371  3.6597
  491TMC3    C7 7360   0.332   0.747  16.761  0.8118  0.8317 -0.0111
  491TMC3    C8 7361   0.100   0.884  17.164  0.5701  0.2350 -0.4697
  491TMC3    O1 7362   0.243   0.661  16.750 -0.6526 -0.2627  0.1934
  491TMC3    O2 7363   0.106   0.956  17.266  0.5735 -0.0676 -0.2573
  492MPD2     C 7364   0.662   1.472  11.675 -0.2667 -0.0274  0.5052
  492MPD2    C1 7365   0.558   1.396  11.622 -0.2815  0.5209  0.4694
  492MPD2    C2 7366   0.526   1.278  11.684  0.0315 -0.0157  0.2714
  492MPD2    C3 7367   0.582   1.243  11.805  0.3553  0.0649  0.1247
  492MPD2    C4 7368   0.673   1.321  11.859  0.1382  0.3413  0.3023
  492MPD2    C5 7369   0.708   1.435  11.798 -0.0383 -0.3552  0.3654
  492MPD2     H 7370   0.450   1.220  11.632  0.2694  1.7750 -2.0689
  492MPD2    H1 7371   0.724   1.294  11.951 -0.5961 -0.3766  0.4998
  492MPD2    H2 7372   0.706   1.554  11.619 -1.7055  1.2187  1.1757
  492MPD2    H3 7373   0.788   1.488  11.848  0.0184 -0.0381 -0.0546
  492MPD2     N 7374   0.553   1.125  11.873  0.0828 -0.6029  0.1945
  492MPD2    H5 7375   0.604   1.098  11.957  2.0829 -3.3531 -1.8905
  492MPD2    N1 7376   0.507   1.434  11.497  0.2713  0.0981 -0.2168
  492MPD2    H7 7377   0.539   1.521  11.456 -1.3300  0.6505 -0.2660
  493TMC3    C1 7378   0.361   1.449  11.311 -0.8110  0.1794 -0.7026
  493TMC3    C2 7379   0.344   1.580  11.328  0.2754 -0.0121  0.5123
  493TMC3    C3 7380   0.271   1.655  11.242 -0.3439 -0.6107 -0.2443
  493TMC3    C4 7381   0.283   1.389  11.217  0.7423 -0.4319  0.5999
  493TMC3    C5 7382   0.187   1.459  11.150 -0.1217  0.7664 -0.5217
  493TMC3    C6 7383   0.176   1.597  11.158 -0.0787 -0.3214  0.2739
  493TMC3     C 7384   0.403   1.373  11.425 -0.7268 -0.5899  0.7452
  493TMC3     O 7385   0.354   1.262  11.437 -0.1670 -0.4348 -0.5964
  493TMC3     H 7386   0.401   1.630  11.405  0.3556 -0.6031  0.8379
  493TMC3    H1 7387   0.297   1.283  11.200  2.2229  0.1073 -1.5010
  493TMC3    H2 7388   0.112   1.656  11.093 -0.2106  0.3229  0.9847
  493TMC3    C7 7389   0.085   1.387  11.068  0.4022 -0.2266  0.1631
  493TMC3    C8 7390   0.256   1.795  11.281 -0.7485 -0.0643  0.2801
  493TMC3    O1 7391   0.052   1.445  10.966 -0.2057  0.2075  0.5339
  493TMC3    O2 7392   0.289   1.822  11.396 -0.0836 -0.5104  0.3900
  494TMC3    C1 7393   1.358   2.901   0.800  0.4069 -0.3114  0.5444
  494TMC3    C2 7394   1.408   2.779   0.766  0.6833 -0.7749 -0.6966
  494TMC3    C3 7395   1.473   2.766   0.643 -0.8209 -0.0611 -0.5837
  494TMC3    C4 7396   1.381   3.014   0.723  0.7771 -0.6516  0.3852
  494TMC3    C5 7397   1.433   2.995   0.600 -0.7849 -0.6796 -0.0903
  494TMC3    C6 7398   1.494   2.875   0.561 -1.2953  0.6654  0.0654
  494TMC3     C 7399   1.271   2.905   0.923  0.9114  0.3541 -0.3054
  494TMC3     O 7400   1.289   2.807   0.994 -0.0865  0.0390 -0.0596
  494TMC3     H 7401   1.408   2.693   0.833  0.8043 -1.2754 -1.3422
  494TMC3    H1 7402   1.339   3.106   0.764 -1.2909 -0.9127 -1.1914
  494TMC3    H2 7403   1.522   2.853   0.458  1.2400  0.7598  0.7354
  494TMC3    C7 7404   1.464   3.108   0.524  0.1228  0.4187  0.4092
  494TMC3    C8 7405   1.478   2.631   0.585 -0.5163 -0.3901 -0.0750
  494TMC3    O1 7406   1.573   3.106   0.466 -0.2122  0.2235 -0.0496
  494TMC3    O2 7407   1.486   2.547   0.674  0.1647  0.1409  0.0153
  495TMC3    C1 7408   4.449   0.025  14.347  0.0748 -0.3466 -0.5672
  495TMC3    C2 7409   4.365   0.095  14.267  0.4605  0.5558 -0.4180
  495TMC3    C3 7410   4.379   0.222  14.260 -0.7353  0.5092  0.0025
  495TMC3    C4 7411   4.547   0.090  14.420  0.4206  1.1795 -0.1842
  495TMC3    C5 7412   4.557   0.232  14.403 -0.1995  0.2257  0.2075
  495TMC3    C6 7413   4.475   0.294  14.322 -0.1511  0.1187  0.5451
  495TMC3     C 7414   4.428   4.614  14.353  0.8103  0.3884  0.7526
  495TMC3     O 7415   4.350   4.560  14.273  0.4984 -0.6461 -0.8495
  495TMC3     H 7416   4.283   0.046  14.216  0.9266  0.9846 -1.5979
  495TMC3    H1 7417   4.624   0.032  14.470  0.6255 -0.5294 -2.5060
  495TMC3    H2 7418   4.464   0.401  14.311  1.5716  0.3628  1.2425
  495TMC3    C7 7419   4.632   0.304  14.496 -0.2534 -0.0105 -0.6746
  495TMC3    C8 7420   4.267   0.301  14.221 -1.2494 -0.4989  0.7931
  495TMC3    O1 7421   4.664   0.238  14.595  0.4102  0.4745  0.2447
  495TMC3    O2 7422   4.240   0.394  14.295 -0.0140 -0.4309 -0.8098
  496MPD2     C 7423   1.315   4.708  15.272  1.3703  0.0208 -0.0500
  496MPD2    C1 7424   1.354   0.103  15.247 -0.1471 -0.3314 -0.4523
  496MPD2    C2 7425   1.299   0.217  15.313  0.0903 -0.5282  0.1367
  496MPD2    C3 7426   1.202   0.201  15.412  0.2767 -0.7039  0.5791
  496MPD2    C4 7427   1.158   0.067  15.428 -0.3518 -0.0607 -0.6039
  496MPD2    C5 7428   1.213   4.696  15.366 -0.3567 -0.2422  0.6151
  496MPD2     H 7429   1.342   0.316  15.297 -0.1886 -0.3361  0.6046
  496MPD2    H1 7430   1.083   0.055  15.505  0.6772  0.6439  0.5052
  496MPD2    H2 7431   1.372   4.628  15.226  1.0307  0.0790 -0.5653
  496MPD2    H3 7432   1.177   4.600  15.401 -0.7375  0.1571  1.3188
  496MPD2     N 7433   1.156   0.288  15.511 -0.2827 -0.3191 -0.1451
  496MPD2    H5 7434   1.102   0.251  15.588  0.9467 -0.9320  0.4285
  496MPD2    N1 7435   1.461   0.114  15.159  0.2559 -0.4473  0.3279
  496MPD2    H7 7436   1.512   0.028  15.140  0.0637 -0.7727  1.2821
  497TMC3    C1 7437   1.155   0.493  15.627  1.2157  0.0107  0.3019
  497TMC3    C2 7438   1.148   0.629  15.614  0.1472 -0.3072  0.2221
  497TMC3    C3 7439   1.190   0.707  15.718  0.5942 -0.3470  0.1493
  497TMC3    C4 7440   1.204   0.429  15.735  0.0115 -0.5138  0.1201
  497TMC3    C5 7441   1.255   0.513  15.831  0.1144  0.4525 -0.4369
  497TMC3    C6 7442   1.251   0.652  15.822  0.3479  0.2540  0.0026
  497TMC3     C 7443   1.190   0.422  15.515  0.3937 -0.0244 -0.0449
  497TMC3     O 7444   1.233   0.489  15.428 -0.5786  0.1419  0.1410
  497TMC3     H 7445   1.106   0.667  15.521  0.4790  1.8914  0.9918
  497TMC3    H1 7446   1.212   0.321  15.740  0.2772 -0.4874  0.2672
  497TMC3    H2 7447   1.272   0.715  15.908 -2.2186  0.7446  0.2728
  497TMC3    C7 7448   1.323   0.444  15.937  0.1891 -0.5563  0.7361
  497TMC3    C8 7449   1.207   0.853  15.697 -0.1803  0.0504  0.4697
  497TMC3    O1 7450   1.319   0.325  15.927  0.4706 -0.6272  0.2224
  497TMC3    O2 7451   1.147   0.896  15.601  0.1029 -0.3411 -0.0991
  498MPD2     C 7452   2.915   2.000  10.266 -0.0951  0.4603  0.8034
  498MPD2    C1 7453   2.902   1.875  10.205 -0.7499 -0.0929  0.1321
  498MPD2    C2 7454   2.805   1.789  10.253  0.0702  0.6157  0.2414
  498MPD2    C3 7455   2.724   1.819  10.361  0.2978  0.8046 -0.2882
  498MPD2    C4 7456   2.738   1.939  10.423  0.1715 -0.9568 -0.4067
  498MPD2    C5 7457   2.832   2.035  10.368  0.6351 -0.5728  0.3221
  498MPD2     H 7458   2.785   1.698  10.198  0.2923 -0.8896  2.6694
  498MPD2    H1 7459   2.679   1.965  10.510  2.3391 -1.2263  1.1412
  498MPD2    H2 7460   2.989   2.071  10.232  1.6389 -2.2469 -1.0751
  498MPD2    H3 7461   2.844   2.130  10.419 -0.2386  0.2695 -1.0500
  498MPD2     N 7462   2.633   1.724  10.414 -0.2544 -0.1232  0.0476
  498MPD2    H5 7463   2.631   1.633  10.368  1.8125 -0.1426  0.0073
  498MPD2    N1 7464   2.980   1.831  10.094 -0.2572  0.4682 -0.1727
  498MPD2    H7 7465   2.962   1.735  10.065  0.6232  0.3203 -0.2292
  499TMC3    C1 7466   3.118   1.848   9.908  0.1652  0.6493  0.2472
  499TMC3    C2 7467   3.216   1.754   9.931 -0.4980  0.5864 -0.3933
  499TMC3    C3 7468   3.337   1.752   9.862  0.1629  0.0669  0.2632
  499TMC3    C4 7469   3.138   1.933   9.800 -0.5846  0.6469  0.1703
  499TMC3    C5 7470   3.257   1.933   9.733 -0.8835  0.3978  0.1243
  499TMC3    C6 7471   3.354   1.836   9.752 -0.2041  0.3400  0.5701
  499TMC3     C 7472   3.049   1.916  10.010  0.6969 -0.2187 -0.0500
  499TMC3     O 7473   3.061   2.040  10.013 -0.6313  0.1019 -0.1054
  499TMC3     H 7474   3.185   1.685  10.008  1.6056 -1.4150 -1.3304
  499TMC3    H1 7475   3.058   2.003   9.783  0.4082  1.5314 -0.8161
  499TMC3    H2 7476   3.455   1.848   9.714 -0.5899  0.8245 -0.2973
  499TMC3    C7 7477   3.279   2.018   9.612 -0.4383 -0.5603 -0.5256
  499TMC3    C8 7478   3.427   1.648   9.899  0.1055 -0.7098  0.1913
  499TMC3    O1 7479   3.374   1.989   9.541 -0.2717 -0.5430 -0.1342
  499TMC3    O2 7480   3.383   1.558   9.969  0.0914 -0.1514  0.0073
  500MPD2     C 7481   4.523   2.000  10.365 -1.0662 -0.4277  0.0180
  500MPD2    C1 7482   4.426   2.096  10.337  0.2165  0.8854 -0.6538
  500MPD2    C2 7483   4.347   2.080  10.223 -0.2169 -0.3397 -0.0931
  500MPD2    C3 7484   4.359   1.974  10.138 -0.2501 -0.2648  0.1294
  500MPD2    C4 7485   4.476   1.897  10.159  0.1982 -0.1474  0.0001
  500MPD2    C5 7486   4.555   1.910  10.271  0.5698 -0.5330  0.0574
  500MPD2     H 7487   4.269   2.149  10.192 -0.6950 -1.2273 -0.8503
  500MPD2    H1 7488   4.486   1.828  10.077 -0.5814 -0.9383  0.5683
  500MPD2    H2 7489   4.583   2.006  10.455 -1.6754  2.0326  0.2640
  500MPD2    H3 7490   4.631   1.834  10.286 -3.2904 -4.6539 -1.0488
  500MPD2     N 7491   4.277   1.949  10.024  0.3097  0.3136  0.0677
  500MPD2    H5 7492   4.309   1.871   9.967  0.3204 -0.9123  1.7486
  500MPD2    N1 7493   4.401   2.203  10.426 -0.0794  0.3150  0.4495
  500MPD2    H7 7494   4.466   2.219  10.502  0.7885  1.8758 -0.6157
  501TMC3    C1 7495   4.305   2.388  10.530 -0.1303 -0.4163 -0.0250
  501TMC3    C2 7496   4.304   2.518  10.484 -0.1463  0.8307  0.0536
  501TMC3    C3 7497   4.310   2.624  10.573  0.4187  0.6657 -0.0741
  501TMC3    C4 7498   4.313   2.360  10.660 -0.4230 -0.3970 -0.1618
  501TMC3    C5 7499   4.317   2.472  10.745  0.1879  0.1735 -0.1677
  501TMC3    C6 7500   4.322   2.600  10.705 -0.3615 -0.7313 -0.2453
  501TMC3     C 7501   4.296   2.289  10.424  0.8891 -0.2367 -0.2261
  501TMC3     O 7502   4.193   2.287  10.355  0.2991 -0.3168 -0.1559
  501TMC3     H 7503   4.295   2.535  10.378 -0.8649  1.3631  0.1943
  501TMC3    H1 7504   4.305   2.263  10.708 -0.1089 -0.6266 -0.5734
  501TMC3    H2 7505   4.338   2.683  10.772  0.4722 -1.4373  0.4363
  501TMC3    C7 7506   4.341   2.442  10.886  0.4901 -0.6994 -0.2137
  501TMC3    C8 7507   4.333   2.766  10.542  0.7296  0.2182 -0.2682
  501TMC3    O1 7508   4.392   2.337  10.922 -0.0881  0.1532  0.3460
  501TMC3    O2 7509   4.321   2.848  10.631  0.0103 -0.7682 -0.7084
  502TMC3    C1 7510   3.790   1.429  15.101 -0.0855 -0.5966 -0.2250
  502TMC3    C2 7511   3.752   1.561  15.086  0.2327  0.3210 -0.1290
  502TMC3    C3 7512   3.620   1.582  15.068  0.0007 -0.2233  0.0764
  502TMC3    C4 7513   3.714   1.318  15.105  0.3247  0.3568  0.1263
  502TMC3    C5 7514   3.578   1.344  15.091  0.3192 -0.6340  0.6384
  502TMC3    C6 7515   3.532   1.474  15.072  0.0230 -0.8104  0.1453
  502TMC3     C 7516   3.897   1.419  15.187  0.4600  0.0152 -0.5729
  502TMC3     O 7517   3.904   1.508  15.274 -0.0106 -0.6474 -0.1851
  502TMC3     H 7518   3.820   1.643  15.103  1.5516 -0.1005 -3.2704
  502TMC3    H1 7519   3.752   1.220  15.130 -0.4488  0.5343  2.0499
  502TMC3    H2 7520   3.437   1.492  15.023 -0.0163 -1.9890 -0.2025
  502TMC3    C7 7521   3.486   1.240  15.101  0.2802 -0.8678 -0.1398
  502TMC3    C8 7522   3.575   1.705  15.130  0.0382 -0.1565 -0.3331
  502TMC3    O1 7523   3.537   1.132  15.081  0.1552 -0.5026  0.7611
  502TMC3    O2 7524   3.642   1.806  15.115 -0.2843  0.1524  0.0043
  503MPD2     C 7525   1.585   1.919  16.755  0.2845 -0.3430  0.4679
  503MPD2    C1 7526   1.575   1.947  16.889 -0.1508  0.0646  0.2519
  503MPD2    C2 7527   1.621   1.850  16.974 -0.8165  0.1897  0.3053
  503MPD2    C3 7528   1.669   1.732  16.931 -0.3954 -0.5445 -0.3084
  503MPD2    C4 7529   1.666   1.706  16.796 -0.4838 -0.0614 -0.6014
  503MPD2    C5 7530   1.625   1.799  16.704  0.3637  0.2305  0.0660
  503MPD2     H 7531   1.628   1.870  17.081  0.9084  0.7896  0.0793
  503MPD2    H1 7532   1.688   1.608  16.755  1.3594  0.6768 -1.3908
  503MPD2    H2 7533   1.562   1.998  16.684 -0.8727  0.4112  1.6920
  503MPD2    H3 7534   1.622   1.778  16.597  2.2419  2.0915 -0.3470
  503MPD2     N 7535   1.723   1.645  17.029  0.1617  0.2371 -0.0682
  503MPD2    H5 7536   1.713   1.658  17.129  0.0154 -2.1047  0.2195
  503MPD2    N1 7537   1.543   2.072  16.952 -0.3386 -0.0401  0.7722
  503MPD2    H7 7538   1.563   2.075  17.052  0.3510 -2.1705  0.7130
  504TMC3    C1 7539   1.846   1.449  17.099  0.9116  0.4767  0.9992
  504TMC3    C2 7540   1.780   1.444  17.220  0.8369 -0.8747 -0.0772
  504TMC3    C3 7541   1.848   1.392  17.334 -0.0301 -0.2901 -0.9625
  504TMC3    C4 7542   1.974   1.419  17.084 -0.0524  0.0356  0.0288
  504TMC3    C5 7543   2.045   1.389  17.201 -0.2605  0.0115 -0.0341
  504TMC3    C6 7544   1.986   1.387  17.333  0.4908 -0.5617 -0.4227
  504TMC3     C 7545   1.803   1.539  16.994  0.2690 -0.3653 -0.6437
  504TMC3     O 7546   1.866   1.520  16.889 -0.2808  0.3477 -0.0981
  504TMC3     H 7547   1.674   1.466  17.220  1.0377  0.0967  0.6758
  504TMC3    H1 7548   2.027   1.445  16.993 -1.6406 -1.1502 -1.2320
  504TMC3    H2 7549   2.041   1.355  17.421  1.7120  2.0297 -0.2488
  504TMC3    C7 7550   2.195   1.391  17.186  0.8476 -0.1865 -0.6422
  504TMC3    C8 7551   1.778   1.410  17.457  0.5562  0.3065 -0.4631
  504TMC3    O1 7552   2.246   1.431  17.079  0.0529  0.4117 -0.1603
  504TMC3    O2 7553   1.675   1.475  17.450  0.6593 -0.3506 -0.3100
  505MPD2     C 7554   2.050   0.562  11.173 -0.1326 -0.6603 -0.1779
  505MPD2    C1 7555   2.130   0.627  11.266  0.1060 -0.5839 -0.3956
  505MPD2    C2 7556   2.083   0.744  11.312  0.4955  0.2803  0.1380
  505MPD2    C3 7557   1.959   0.791  11.266 -0.2021  0.0235  0.5328
  505MPD2    C4 7558   1.881   0.722  11.186  0.0014 -0.2230 -0.5824
  505MPD2    C5 7559   1.925   0.601  11.136 -0.6921  0.4517  0.1664
  505MPD2     H 7560   2.145   0.803  11.379  0.8112 -1.9402  1.8114
  505MPD2    H1 7561   1.779   0.752  11.165 -0.8896 -1.3233  2.2013
  505MPD2    H2 7562   2.091   0.478  11.119 -1.9453 -2.4595  1.2264
  505MPD2    H3 7563   1.872   0.550  11.057  0.8632 -0.9258  0.0085
  505MPD2     N 7564   1.913   0.918  11.298 -0.2694  0.0918  0.1738
  505MPD2    H5 7565   1.834   0.946  11.241  0.0979 -1.3960 -1.0481
  505MPD2    N1 7566   2.268   0.595  11.291  0.0680  0.3739 -0.0894
  505MPD2    H7 7567   2.307   0.517  11.239 -0.1314 -1.4104  2.4423
  506TMC3    C1 7568   2.498   0.637  11.320  0.1203  0.9283 -0.0437
  506TMC3    C2 7569   2.507   0.635  11.186  0.0604 -0.5494  0.3098
  506TMC3    C3 7570   2.595   0.715  11.121 -0.0293 -0.4112  0.1106
  506TMC3    C4 7571   2.568   0.728  11.391 -0.3744  0.0370  0.4823
  506TMC3    C5 7572   2.657   0.815  11.331  0.1696  0.3000 -0.0874
  506TMC3    C6 7573   2.669   0.806  11.193  0.3808 -0.2478  0.5064
  506TMC3     C 7574   2.362   0.661  11.366  0.4092 -1.1189  0.6786
  506TMC3     O 7575   2.347   0.745  11.457  1.1367  0.4246  1.0387
  506TMC3     H 7576   2.456   0.561  11.126 -1.2390 -0.9942  1.9476
  506TMC3    H1 7577   2.568   0.721  11.499  0.7425  1.4574  0.5727
  506TMC3    H2 7578   2.735   0.869  11.136 -0.7268  1.3752  1.0141
  506TMC3    C7 7579   2.641   0.950  11.378  0.4272  0.0451  0.0372
  506TMC3    C8 7580   2.575   0.724  10.976 -1.0224 -0.0471 -0.2341
  506TMC3    O1 7581   2.718   1.027  11.324  0.6354 -0.0980  0.0675
  506TMC3    O2 7582   2.551   0.618  10.922  0.5633 -0.1645 -0.2369
  507TMC3    C1 7583   2.189   1.827  14.955  0.0538  1.0473  0.3212
  507TMC3    C2 7584   2.108   1.760  14.871  0.0007  0.0606  0.2796
  507TMC3    C3 7585   2.072   1.827  14.758  0.0491  0.1146  0.2777
  507TMC3    C4 7586   2.226   1.958  14.930 -0.4305  0.1233  0.6478
  507TMC3    C5 7587   2.184   2.020  14.821 -0.2748 -0.3444 -0.1769
  507TMC3    C6 7588   2.117   1.956  14.724  0.0527  0.4622  0.0878
  507TMC3     C 7589   2.205   1.776  15.095  0.1985 -0.3754 -0.0005
  507TMC3     O 7590   2.259   1.860  15.170  0.0853 -0.4961 -0.3194
  507TMC3     H 7591   2.058   1.668  14.898  0.4993 -0.4656 -0.6216
  507TMC3    H1 7592   2.301   2.014  14.985 -0.3681 -0.2377  0.9309
  507TMC3    H2 7593   2.091   2.009  14.633  0.7348 -1.3444 -1.1444
  507TMC3    C7 7594   2.169   2.166  14.824  0.3957 -0.5716 -0.1603
  507TMC3    C8 7595   1.931   1.809  14.741 -0.7733  1.0000  0.0594
  507TMC3    O1 7596   2.147   2.209  14.714 -0.5593  0.1106 -0.5399
  507TMC3    O2 7597   1.883   1.704  14.768  0.1780 -0.2509  0.4634
  508MPD2     C 7598   3.845   3.916  16.157  0.4983 -0.3932  0.1441
  508MPD2    C1 7599   3.841   4.050  16.183 -0.2965 -0.1442  0.1294
  508MPD2    C2 7600   3.779   4.132  16.093 -0.1100 -0.1427 -0.0706
  508MPD2    C3 7601   3.725   4.087  15.972 -0.0129  0.2336 -0.3802
  508MPD2    C4 7602   3.724   3.948  15.951 -0.6599  0.0418 -0.0898
  508MPD2    C5 7603   3.781   3.866  16.044  0.2026 -0.0159 -0.1699
  508MPD2     H 7604   3.761   4.237  16.112  2.5982  0.3101  0.0199
  508MPD2    H1 7605   3.672   3.897  15.871 -0.6843 -1.4379  0.8712
  508MPD2    H2 7606   3.898   3.845  16.219  0.8223  0.5006  0.8806
  508MPD2    H3 7607   3.775   3.761  16.019  0.5178 -0.1207  0.1894
  508MPD2     N 7608   3.660   4.184  15.891  0.4371  0.4409 -0.0650
  508MPD2    H5 7609   3.673   4.282  15.917 -1.0572  0.7386 -0.4308
  508MPD2    N1 7610   3.924   4.107  16.291 -0.2891  0.1508 -0.2602
  508MPD2    H7 7611   3.967   4.037  16.350  1.7622  1.1692 -0.5469
  509TMC3    C1 7612   3.411   4.350  15.517  0.4084  0.6283 -1.4203
  509TMC3    C2 7613   3.472   4.469  15.522 -0.4025  0.2157  0.1270
  509TMC3    C3 7614   3.559   4.490  15.621 -0.7977  0.5241  0.6177
  509TMC3    C4 7615   3.445   4.242  15.606  0.0550 -0.8607 -0.4433
  509TMC3    C5 7616   3.533   4.272  15.708 -0.9235 -0.7217  0.1456
  509TMC3    C6 7617   3.587   4.396  15.724  0.7515  0.3654 -0.1340
  509TMC3     C 7618   3.297   4.331  15.431  0.0669  1.3205 -0.1521
  509TMC3     O 7619   3.272   4.218  15.404 -0.3180 -0.1449 -0.2662
  509TMC3     H 7620   3.458   4.540  15.441 -0.7595  0.1297  0.1159
  509TMC3    H1 7621   3.409   4.141  15.589 -1.3793 -0.5230  0.5295
  509TMC3    H2 7622   3.649   4.425  15.808 -1.0808 -0.2211  1.4232
  509TMC3    C7 7623   3.593   4.152  15.775 -0.9341  1.0053  0.7069
  509TMC3    C8 7624   3.655   4.592  15.593  0.3726  0.1458 -0.0977
  509TMC3    O1 7625   3.567   4.043  15.737 -0.0567  0.0356 -0.0044
  509TMC3    O2 7626   3.757   4.579  15.662 -0.2309 -0.6307  0.3005
  510MPD2     C 7627   1.154   0.717  14.536  0.6362  0.3190  0.3080
  510MPD2    C1 7628   1.240   0.643  14.615  0.2024  0.0219 -0.2333
  510MPD2    C2 7629   1.366   0.614  14.568  0.7590 -0.5016 -0.1286
  510MPD2    C3 7630   1.411   0.659  14.443  0.1023  0.5152  0.2518
  510MPD2    C4 7631   1.328   0.750  14.374 -0.0701 -0.5068 -0.4844
  510MPD2    C5 7632   1.197   0.775  14.420 -0.2037  0.0507 -0.6750
  510MPD2     H 7633   1.425   0.553  14.635 -0.0490 -2.7585 -1.4776
  510MPD2    H1 7634   1.352   0.789  14.276 -1.3058 -1.6540 -1.2449
  510MPD2    H2 7635   1.058   0.757  14.565  0.8967  1.8082 -0.8782
  510MPD2    H3 7636   1.131   0.830  14.354 -1.1924 -0.8114 -0.3941
  510MPD2     N 7637   1.537   0.623  14.396  0.6841  0.5717  0.2770
  510MPD2    H5 7638   1.586   0.556  14.453 -0.7062 -0.2640  0.5019
  510MPD2    N1 7639   1.210   0.588  14.744 -0.7494  0.0361  0.9063
  510MPD2    H7 7640   1.284   0.534  14.788 -0.9328 -1.5295 -0.6977
  511TMC3    C1 7641   1.086   0.540  14.935 -0.2250  0.4312 -0.2797
  511TMC3    C2 7642   1.020   0.594  15.041  0.2910  0.1028 -0.2052
  511TMC3    C3 7643   1.013   0.525  15.158 -0.9758 -0.3625 -0.2819
  511TMC3    C4 7644   1.109   0.402  14.926 -0.2926 -0.4488 -0.9638
  511TMC3    C5 7645   1.082   0.327  15.039 -0.0383 -1.1418 -0.0601
  511TMC3    C6 7646   1.031   0.386  15.159  0.2890 -0.2737 -0.5424
  511TMC3     C 7647   1.101   0.621  14.821  0.2449 -0.7125  0.1026
  511TMC3     O 7648   1.020   0.709  14.796  0.6723 -0.8735 -0.2171
  511TMC3     H 7649   1.005   0.701  15.035  1.6960  0.3118 -0.0455
  511TMC3    H1 7650   1.131   0.350  14.834  2.4832  0.6182 -0.8789
  511TMC3    H2 7651   1.024   0.329  15.250 -1.2927 -0.1510 -0.5777
  511TMC3    C7 7652   1.081   0.185  15.017  0.2727  0.0464 -0.1572
  511TMC3    C8 7653   0.937   0.587  15.270 -0.2794  0.4788  0.3997
  511TMC3    O1 7654   1.134   0.139  14.916  0.8645  0.1650 -0.0171
  511TMC3    O2 7655   0.935   0.711  15.263  0.2866  0.7569  0.0713
  512TMC3    C1 7656   0.203   4.600  13.802 -0.0529 -0.1085 -0.7903
  512TMC3    C2 7657   0.305   4.684  13.809 -0.4302  0.1011 -0.1460
  512TMC3    C3 7658   0.424   4.635  13.859  0.4568  0.2736 -0.2287
  512TMC3    C4 7659   0.211   4.469  13.833 -0.1718  0.2605  0.2679
  512TMC3    C5 7660   0.324   4.425  13.891  0.4380 -0.0959 -0.4577
  512TMC3    C6 7661   0.433   4.505  13.903  0.5750  0.1185 -1.0027
  512TMC3     C 7662   0.088   4.654  13.730  0.8113 -0.0090 -0.1516
  512TMC3     O 7663   0.104   0.023  13.674  0.0721 -0.2521  0.1870
  512TMC3     H 7664   0.298   0.057  13.794  1.1903  0.0825 -1.0331
  512TMC3    H1 7665   0.119   4.412  13.843 -0.1579 -0.0428 -1.2931
  512TMC3    H2 7666   0.529   4.468  13.938  0.9933  0.3106 -1.9602
  512TMC3    C7 7667   0.351   4.281  13.898  0.1543 -0.5106  0.2464
  512TMC3    C8 7668   0.546   4.704  13.854 -0.4760  0.6779  0.1138
  512TMC3    O1 7669   0.442   4.237  13.970  0.2332 -0.1968  0.2016
  512TMC3    O2 7670   0.637   4.690  13.934 -0.3356 -0.3362  1.3818
  513MPD2     C 7671   2.894   0.204  13.819 -0.4785  0.2414  0.0365
  513MPD2    C1 7672   2.870   0.099  13.729  0.4469 -0.0625  0.1633
  513MPD2    C2 7673   2.843   4.710  13.788  0.3895 -0.0459 -0.6631
  513MPD2    C3 7674   2.838   4.699  13.925  0.3123 -0.1900 -0.1447
  513MPD2    C4 7675   2.869   0.067  14.012 -0.2010 -0.2885  0.1032
  513MPD2    C5 7676   2.899   0.190  13.959  0.5075 -0.5359  0.2850
  513MPD2     H 7677   2.815   4.624  13.728  0.4017 -2.2848  2.5427
  513MPD2    H1 7678   2.866   0.044  14.118  0.3781 -0.1921  0.1405
  513MPD2    H2 7679   2.911   0.298  13.769 -1.4817 -0.3493 -1.4172
  513MPD2    H3 7680   2.901   0.280  14.019 -2.8706 -0.4919  0.3243
  513MPD2     N 7681   2.796   4.570  13.971  0.0818 -0.2011  0.0980
  513MPD2    H5 7682   2.755   4.513  13.898  0.1038  1.0873 -0.9162
  513MPD2    N1 7683   2.873   0.120  13.594  0.1081 -0.0669 -0.1443
  513MPD2    H7 7684   2.884   0.217  13.569  1.6007 -0.1916  0.0434
  514TMC3    C1 7685   2.863   0.070  13.354 -0.5081 -0.3593 -0.5750
  514TMC3    C2 7686   2.775   0.171  13.326 -0.0413  0.2964  0.0967
  514TMC3    C3 7687   2.689   0.149  13.223 -0.1731 -0.3649  0.2369
  514TMC3    C4 7688   2.874   4.695  13.277  0.1363  0.2590  0.6010
  514TMC3    C5 7689   2.788   4.671  13.181  0.2078  0.8325  0.4080
  514TMC3    C6 7690   2.698   0.034  13.149 -0.6138  0.4986  0.0424
  514TMC3     C 7691   2.862   0.026  13.492  0.1173 -0.1267 -0.0691
  514TMC3     O 7692   2.835   4.643  13.507 -0.0517  0.1482 -0.2504
  514TMC3     H 7693   2.770   0.257  13.393 -0.4698 -0.6496  1.2748
  514TMC3    H1 7694   2.946   4.623  13.314 -0.3517  0.1790  1.3966
  514TMC3    H2 7695   2.618   0.002  13.083 -0.7136  1.5913 -0.3547
  514TMC3    C7 7696   2.741   4.525  13.177  0.2161  0.3721 -0.3790
  514TMC3    C8 7697   2.633   0.268  13.164 -0.0460  0.2744  0.1564
  514TMC3    O1 7698   2.709   4.471  13.072  0.6429 -0.3624 -0.8762
  514TMC3    O2 7699   2.653   0.371  13.222 -0.0238 -0.0324 -0.4057
  515MPD2     C 7700   0.500   1.103  14.600  0.0053  0.0448 -0.3159
  515MPD2    C1 7701   0.431   1.217  14.573 -0.9060  0.4520  0.5906
  515MPD2    C2 7702   0.463   1.336  14.647  0.3586  0.2984  0.3530
  515MPD2    C3 7703   0.572   1.341  14.735 -0.1084 -0.0223 -0.5328
  515MPD2    C4 7704   0.637   1.221  14.761 -0.0159 -0.0258 -0.0822
  515MPD2    C5 7705   0.596   1.110  14.697 -0.7092 -0.3286 -0.3445
  515MPD2     H 7706   0.411   1.427  14.620 -2.9824 -0.8057  3.1609
  515MPD2    H1 7707   0.701   1.219  14.849  0.9099 -0.2847 -0.7619
  515MPD2    H2 7708   0.467   1.007  14.562 -1.0941  1.1031 -2.0407
  515MPD2    H3 7709   0.648   1.023  14.735 -1.1138 -1.2142 -1.8189
  515MPD2     N 7710   0.616   1.451  14.806 -0.0506 -0.0399 -0.3267
  515MPD2    H5 7711   0.682   1.427  14.879  0.2940 -1.8875 -1.2408
  515MPD2    N1 7712   0.332   1.220  14.467  0.0337  0.4744 -0.2411
  515MPD2    H7 7713   0.275   1.304  14.467 -1.2218 -0.3790 -0.0181
  516TMC3    C1 7714   0.165   1.134  14.306 -0.2867  0.0022  0.4205
  516TMC3    C2 7715   0.114   1.265  14.293 -0.0703  0.3865 -0.5344
  516TMC3    C3 7716   4.709   1.267  14.274 -0.0525  0.2390 -0.7838
  516TMC3    C4 7717   0.094   1.017  14.277 -0.4688 -0.5888  0.6704
  516TMC3    C5 7718   4.694   1.037  14.257  0.3073  0.0620 -0.1090
  516TMC3    C6 7719   4.628   1.156  14.266 -0.4554  0.2937 -0.2803
  516TMC3     C 7720   0.289   1.112  14.385 -0.5236  0.4497  0.0849
  516TMC3     O 7721   0.325   0.999  14.376  0.4612 -0.2438  0.3407
  516TMC3     H 7722   0.175   1.353  14.309  0.7171 -0.2517 -0.0026
  516TMC3    H1 7723   0.125   0.917  14.304 -1.2782 -0.6085  1.5385
  516TMC3    H2 7724   4.524   1.172  14.240 -0.5914  1.4546  0.9921
  516TMC3    C7 7725   4.627   0.928  14.318 -0.2396  0.3471 -0.2677
  516TMC3    C8 7726   4.643   1.391  14.278 -0.1871 -0.4942  0.6571
  516TMC3    O1 7727   4.631   0.817  14.266 -0.4569 -0.1255  0.0572
  516TMC3    O2 7728   4.531   1.386  14.330  0.0584 -0.1588 -0.7567
  517MPD2     C 7729   0.083   3.505   0.170  0.4992  0.6795  0.0404
  517MPD2    C1 7730   0.218   3.464   0.178 -0.3729  0.2924 -0.0924
  517MPD2    C2 7731   0.320   3.551   0.206 -0.7855 -0.2920  0.0654
  517MPD2    C3 7732   0.289   3.685   0.215  0.1733  0.2039  0.2145
  517MPD2    C4 7733   0.154   3.727   0.214 -0.3781 -0.4658  0.6361
  517MPD2    C5 7734   0.050   3.637   0.184 -0.4111 -0.6464 -0.0107
  517MPD2     H 7735   0.422   3.516   0.212 -0.5139  0.7082  1.1890
  517MPD2    H1 7736   0.130   3.832   0.230  1.4182  0.1620 -0.7503
  517MPD2    H2 7737   0.001   3.436   0.154 -0.5635  0.9506  4.2364
  517MPD2    H3 7738   4.680   3.666   0.182 -0.2744 -0.2035 -0.6090
  517MPD2     N 7739   0.390   3.784   0.223 -0.2113  0.3951  0.1788
  517MPD2    H5 7740   0.365   3.879   0.198 -2.1421 -0.2525 -0.3825
  517MPD2    N1 7741   0.258   3.329   0.163  0.3088  0.3992 -0.2328
  517MPD2    H7 7742   0.357   3.317   0.178  0.3329  0.1700 -0.5677
  518TMC3    C1 7743   0.264   3.106   0.087 -0.1613  0.5955 -0.0669
  518TMC3    C2 7744   0.185   2.996   0.067  0.2053 -0.1968 -0.2314
  518TMC3    C3 7745   0.236   2.889   0.004  0.2755  0.0571 -0.6155
  518TMC3    C4 7746   0.397   3.104   0.045 -0.0821 -0.3875  0.5201
  518TMC3    C5 7747   0.441   2.989  17.722  0.2730  0.3355  0.0021
  518TMC3    C6 7748   0.359   2.881  17.691  0.6419  0.3710  0.5691
  518TMC3     C 7749   0.185   3.224   0.117 -0.3716  0.5277  0.1250
  518TMC3     O 7750   0.061   3.221   0.100 -0.0558  1.1011 -0.2178
  518TMC3     H 7751   0.081   3.001   0.096 -0.0722  0.4343 -1.3469
  518TMC3    H1 7752   0.448   3.199   0.033  0.7874 -0.5761  2.7285
  518TMC3    H2 7753   0.390   2.800  17.626 -1.4281  0.4723 -0.5222
  518TMC3    C7 7754   0.579   2.982  17.697 -0.2045 -0.1846  0.1987
  518TMC3    C8 7755   0.184   2.753   0.007 -0.5234  0.1082  0.1263
  518TMC3    O1 7756   0.632   3.090  17.664 -0.0344  0.1189 -0.5020
  518TMC3    O2 7757   0.258   2.664  17.728 -0.1106 -0.0303  0.0737
  519MPD2     C 7758   1.296   1.851  14.220 -0.3715  0.3135 -0.7156
  519MPD2    C1 7759   1.248   1.831  14.090  0.5042  0.7742  0.1493
  519MPD2    C2 7760   1.286   1.721  14.014  0.3862  0.1943  0.7738
  519MPD2    C3 7761   1.383   1.632  14.056 -0.3830 -0.4356 -0.3377
  519MPD2    C4 7762   1.439   1.660  14.186  0.0341  0.0329 -0.1477
  519MPD2    C5 7763   1.402   1.770  14.260 -0.1902  0.0601 -0.1396
  519MPD2     H 7764   1.239   1.699  13.919  1.6604 -1.9426  0.6406
  519MPD2    H1 7765   1.512   1.588  14.219 -1.8180 -2.3779 -1.3475
  519MPD2    H2 7766   1.254   1.933  14.276 -0.6243 -0.8718  0.8213
  519MPD2    H3 7767   1.450   1.786  14.357 -0.5824  4.1017 -0.5892
  519MPD2     N 7768   1.429   1.520  13.984 -0.4413 -0.0335 -0.2950
  519MPD2    H5 7769   1.502   1.468  14.031  1.5219  3.2631  0.3231
  519MPD2    N1 7770   1.129   1.898  14.055  0.3468 -0.0554  0.5361
  519MPD2    H7 7771   1.076   1.955  14.121 -1.8271 -1.9489  0.3959
  520TMC3    C1 7772   1.415   1.341  13.826 -0.6975 -0.2885 -0.3240
  520TMC3    C2 7773   1.324   1.258  13.787  0.0767 -0.4484 -0.4757
  520TMC3    C3 7774   1.352   1.126  13.787 -0.5090 -0.4257 -0.6756
  520TMC3    C4 7775   1.548   1.310  13.842  0.6596  0.1888 -0.8777
  520TMC3    C5 7776   1.580   1.177  13.821  0.3973 -0.3889  0.1292
  520TMC3    C6 7777   1.485   1.085  13.804 -0.2100 -0.2488 -0.1681
  520TMC3     C 7778   1.374   1.470  13.865 -1.2982 -0.5467  0.0043
  520TMC3     O 7779   1.279   1.511  13.801  0.0227  0.3470  0.6133
  520TMC3     H 7780   1.224   1.296  13.770  0.9305  0.9465 -2.3168
  520TMC3    H1 7781   1.611   1.395  13.864  1.3502 -0.8513  1.1732
  520TMC3    H2 7782   1.503   0.978  13.818 -2.2048 -0.5685 -0.0665
  520TMC3    C7 7783   1.708   1.143  13.886 -0.3557 -0.0775 -0.5635
  520TMC3    C8 7784   1.255   1.032  13.731  0.1183  0.2571 -0.1798
  520TMC3    O1 7785   1.718   1.033  13.941  0.1792  0.2297 -0.1013
  520TMC3    O2 7786   1.297   0.928  13.681 -0.0848 -0.0260  0.6260
  521MPD2     C 7787   2.815   4.284   0.154 -0.2242 -0.2874 -0.1961
  521MPD2    C1 7788   2.765   4.261   0.025  0.0583 -0.5658 -0.6455
  521MPD2    C2 7789   2.845   4.283  17.653  0.5306 -0.0323 -0.1962
  521MPD2    C3 7790   2.971   4.351  17.676  0.2393 -0.4870 -0.4763
  521MPD2    C4 7791   3.007   4.383   0.066  0.4372 -0.3492 -0.3708
  521MPD2    C5 7792   2.933   4.336   0.175 -0.4960  0.0807  0.1944
  521MPD2     H 7793   2.808   4.259  17.554 -0.3130 -0.8024  0.3058
  521MPD2    H1 7794   3.095   4.441   0.093  0.0230 -0.0198  0.2941
  521MPD2    H2 7795   2.756   4.255   0.241  1.8798 -0.8793  1.0348
  521MPD2    H3 7796   2.952   4.353   0.281  0.5393  0.2052 -0.0156
  521MPD2     N 7797   3.051   4.382  17.565 -0.1817 -0.5175 -0.2982
  521MPD2    H5 7798   3.014   4.348  17.477 -1.7045  2.2209 -0.7249
  521MPD2    N1 7799   2.632   4.211   0.017 -0.1390  0.3389 -0.1342
  521MPD2    H7 7800   2.587   4.193   0.107  0.7765 -1.6395 -0.0714
  522TMC3    C1 7801   3.245   4.437  17.434  1.1303 -0.4773  0.4843
  522TMC3    C2 7802   3.376   4.401  17.420  0.1813  0.2755  0.3573
  522TMC3    C3 7803   3.439   4.446  17.308  0.1982  0.1321  0.0309
  522TMC3    C4 7804   3.179   4.493  17.328 -0.3432 -0.5370 -0.7903
  522TMC3    C5 7805   3.245   4.556  17.230 -0.5603 -0.3422 -0.6372
  522TMC3    C6 7806   3.377   4.531  17.218 -0.2182  0.2015  0.3707
  522TMC3     C 7807   3.181   4.416  17.563  0.0289  1.1256  1.1971
  522TMC3     O 7808   3.261   4.407  17.659  0.9034 -0.1744 -0.5647
  522TMC3     H 7809   3.420   4.350  17.505  1.3205 -0.2617 -0.5578
  522TMC3    H1 7810   3.076   4.527  17.338 -1.1039 -1.5205 -5.4035
  522TMC3    H2 7811   3.432   4.601  17.156  0.3847 -1.0011 -0.4613
  522TMC3    C7 7812   3.200   4.675  17.158 -0.2937  0.3534 -0.1255
  522TMC3    C8 7813   3.582   4.459  17.318 -0.0111  0.2054 -0.8901
  522TMC3    O1 7814   3.277   0.031  17.128  0.8218 -0.2673 -0.1503
  522TMC3    O2 7815   3.637   4.410  17.418  0.1253 -0.1885  0.5471
  523MPD2     C 7816   0.126   4.678   9.785 -0.0966  0.3758 -0.0299
  523MPD2    C1 7817   0.024   4.626   9.871  0.3892  0.8155 -0.3643
  523MPD2    C2 7818   4.632   4.690   9.873  0.6093  0.0532 -0.2796
  523MPD2    C3 7819   4.605   0.058   9.781  0.3063 -0.9096 -0.1287
  523MPD2    C4 7820   4.705   0.101   9.694 -0.3452  0.4423 -0.0363
  523MPD2    C5 7821   0.094   0.044   9.700 -0.2230 -0.0877  0.5728
  523MPD2     H 7822   4.554   4.657   9.941  1.9856 -0.2157  1.1737
  523MPD2    H1 7823   4.689   0.166   9.609 -0.5222 -1.7248 -1.6712
  523MPD2    H2 7824   0.228   4.642   9.789 -0.4346 -0.9215 -2.9503
  523MPD2    H3 7825   0.170   0.070   9.627  0.8870  0.6854  2.0191
  523MPD2     N 7826   4.484   0.117   9.757  0.3346  0.1463  0.6862
  523MPD2    H5 7827   4.478   0.175   9.674  2.3443  0.6213  0.8735
  523MPD2    N1 7828   0.049   4.499   9.931  0.5748  0.0398  0.1008
  523MPD2    H7 7829   0.139   4.461   9.903  0.4373 -0.6563  0.5959
  524TMC3    C1 7830   4.265   0.188   9.779 -0.5352 -0.1123  0.2162
  524TMC3    C2 7831   4.251   0.174   9.643 -0.1337 -0.2516 -0.4800
  524TMC3    C3 7832   4.152   0.253   9.583 -0.0038 -0.1731 -0.0664
  524TMC3    C4 7833   4.216   0.295   9.847 -0.6939  0.4786 -0.4573
  524TMC3    C5 7834   4.126   0.373   9.785  0.0674 -0.1432 -0.6193
  524TMC3    C6 7835   4.092   0.353   9.656 -0.3855 -1.0088  0.1422
  524TMC3     C 7836   4.375   0.112   9.835  0.2943 -0.3404  0.7303
  524TMC3     O 7837   4.373   0.078   9.950 -0.2955  0.2205  0.1936
  524TMC3     H 7838   4.288   0.081   9.601 -3.8345 -1.6987 -0.4653
  524TMC3    H1 7839   4.238   0.308   9.952  0.1521 -0.4193 -0.5241
  524TMC3    H2 7840   4.000   0.392   9.612  0.1097 -0.3027 -0.2718
  524TMC3    C7 7841   4.039   0.463   9.860  0.0634 -0.2482  0.4966
  524TMC3    C8 7842   4.085   0.209   9.461  0.4508 -0.0441  0.1176
  524TMC3    O1 7843   4.034   0.464   9.979 -0.1073 -0.1059 -0.2821
  524TMC3    O2 7844   3.977   0.262   9.437  0.0690 -0.2584  0.4894
  525MPD2     C 7845   2.578   1.237  14.402 -0.0415 -0.0155  0.2091
  525MPD2    C1 7846   2.675   1.282  14.495 -0.5665  0.4102 -0.0913
  525MPD2    C2 7847   2.710   1.412  14.486 -1.2118  0.9512  0.0109
  525MPD2    C3 7848   2.668   1.496  14.385 -0.1136 -0.1398  0.4285
  525MPD2    C4 7849   2.576   1.451  14.300 -0.0761  0.1434  0.9727
  525MPD2    C5 7850   2.544   1.321  14.295 -0.3551  0.5086 -0.2887
  525MPD2     H 7851   2.789   1.453  14.549  1.4190 -1.6079 -1.6389
  525MPD2    H1 7852   2.531   1.513  14.223  0.7724  0.4446  0.7187
  525MPD2    H2 7853   2.539   1.135  14.403 -0.0030  0.0028  3.0265
  525MPD2    H3 7854   2.476   1.288  14.217 -1.9703  1.0171  0.9037
  525MPD2     N 7855   2.693   1.636  14.385  0.2309 -0.6747 -0.1545
  525MPD2    H5 7856   2.639   1.685  14.314 -0.3832  0.1612  0.8816
  525MPD2    N1 7857   2.734   1.195  14.590  0.0414  0.2100 -0.1788
  525MPD2    H7 7858   2.805   1.234  14.652  1.0903  0.3905 -1.4735
  526TMC3    C1 7859   2.771   1.001  14.721  1.2746 -0.1228  0.0249
  526TMC3    C2 7860   2.694   0.933  14.810  1.2210  0.8639 -0.2893
  526TMC3    C3 7861   2.754   0.872  14.910 -0.5552  0.1637  0.1370
  526TMC3    C4 7862   2.902   1.016  14.727 -0.0170  0.0988 -0.7540
  526TMC3    C5 7863   2.964   0.949  14.832 -0.6022 -0.4238  0.2506
  526TMC3    C6 7864   2.897   0.873  14.921  0.3838  0.0431  0.9708
  526TMC3     C 7865   2.698   1.063  14.618 -0.4508  0.4594  0.4520
  526TMC3     O 7866   2.590   1.011  14.593 -0.6010 -0.4612  0.5967
  526TMC3     H 7867   2.586   0.936  14.804  1.3557  0.2878 -3.0812
  526TMC3    H1 7868   2.971   1.062  14.657  0.9670  0.8583  0.7200
  526TMC3    H2 7869   2.948   0.843  15.012  2.4024  0.0968 -0.1456
  526TMC3    C7 7870   3.112   0.956  14.859 -0.0032 -0.3017  0.2419
  526TMC3    C8 7871   2.696   0.888  15.042  0.0398 -0.4921  0.4521
  526TMC3    O1 7872   3.175   1.051  14.824  0.0040 -0.4227 -0.5493
  526TMC3    O2 7873   2.742   0.975  15.113  0.2891  0.7479 -0.4808
  527MPD2     C 7874   1.217   3.632   1.558 -0.5095 -0.3380  0.5030
  527MPD2    C1 7875   1.212   3.677   1.434 -0.3655 -0.2520 -1.2744
  527MPD2    C2 7876   1.319   3.652   1.356 -0.5169  0.3386 -0.2684
  527MPD2    C3 7877   1.425   3.578   1.404  0.1760  0.3141 -0.2805
  527MPD2    C4 7878   1.422   3.514   1.530 -0.7942 -0.0137  0.3858
  527MPD2    C5 7879   1.318   3.552   1.606 -0.4190  0.0473 -0.4722
  527MPD2     H 7880   1.323   3.696   1.257  0.4727  0.5277 -0.1439
  527MPD2    H1 7881   1.511   3.460   1.562 -0.1879  2.0956  2.2900
  527MPD2    H2 7882   1.132   3.650   1.623 -0.6242 -0.7324  0.4645
  527MPD2    H3 7883   1.312   3.509   1.705 -2.3565  0.7392 -0.3019
  527MPD2     N 7884   1.534   3.565   1.317  0.7965  0.2417 -0.5056
  527MPD2    H5 7885   1.529   3.633   1.241 -1.0937  0.5291 -0.1369
  527MPD2    N1 7886   1.111   3.752   1.373 -0.3040 -0.1432  0.1298
  527MPD2    H7 7887   1.131   3.756   1.274  1.6660  1.2931  0.5882
  528TMC3    C1 7888   0.904   3.864   1.350  0.6424 -0.4713  0.1746
  528TMC3    C2 7889   0.948   3.914   1.229  0.3820 -0.3301 -0.5715
  528TMC3    C3 7890   0.848   3.954   1.141  0.1363  0.1538 -0.3260
  528TMC3    C4 7891   0.772   3.869   1.389 -0.0450  1.1564  0.4606
  528TMC3    C5 7892   0.680   3.906   1.298  0.0891  0.0850 -0.7441
  528TMC3    C6 7893   0.717   3.941   1.172  0.1920 -0.0860 -0.7156
  528TMC3     C 7894   1.000   3.805   1.436 -0.0523 -0.2436 -0.0390
  528TMC3     O 7895   0.965   3.781   1.553  0.5974  0.2238  0.1728
  528TMC3     H 7896   1.052   3.931   1.204 -0.4586  1.5919 -2.7412
  528TMC3    H1 7897   0.745   3.845   1.491  1.3977 -1.2316  0.2804
  528TMC3    H2 7898   0.644   3.958   1.093 -0.2459 -1.7334 -0.6700
  528TMC3    C7 7899   0.536   3.900   1.328 -0.1951  0.4101  0.4418
  528TMC3    C8 7900   0.884   4.007   0.999 -0.1806  0.4106 -0.9316
  528TMC3    O1 7901   0.461   3.976   1.265 -0.2397 -0.1467  0.8494
  528TMC3    O2 7902   1.000   3.986   0.970  0.4539  0.0213 -0.5068
  529MPD2     C 7903   3.381   2.082   0.872 -0.4598 -0.3760 -0.2282
  529MPD2    C1 7904   3.508   2.082   0.820 -0.3647 -0.4955  0.8032
  529MPD2    C2 7905   3.543   2.175   0.724  0.0899  0.4532  0.0993
  529MPD2    C3 7906   3.453   2.275   0.694  0.2938 -0.1925  0.3783
  529MPD2    C4 7907   3.322   2.268   0.741  0.1850 -0.1202  0.2770
  529MPD2    C5 7908   3.283   2.175   0.825 -0.0580 -0.5823 -0.2787
  529MPD2     H 7909   3.643   2.172   0.682 -1.4626 -0.3559 -3.4573
  529MPD2    H1 7910   3.253   2.346   0.711 -3.0852 -2.3940  1.9791
  529MPD2    H2 7911   3.354   2.019   0.955  2.2113 -0.8451  0.2970
  529MPD2    H3 7912   3.190   2.189   0.878 -0.2226  1.3833 -1.1218
  529MPD2     N 7913   3.494   2.378   0.599 -0.1876 -0.2476 -0.2556
  529MPD2    H5 7914   3.425   2.450   0.581 -0.6934 -1.0313 -1.5105
  529MPD2    N1 7915   3.601   1.992   0.871 -0.3871 -0.0003 -0.6064
  529MPD2    H7 7916   3.691   1.999   0.824  0.1022  1.5607  0.5611
  530TMC3    C1 7917   3.720   1.847   0.995  0.7202 -0.5688  0.3253
  530TMC3    C2 7918   3.826   1.921   0.983 -0.0572 -0.1107  0.2766
  530TMC3    C3 7919   3.946   1.868   1.025 -0.1349  0.6681 -0.3249
  530TMC3    C4 7920   3.722   1.715   1.034 -0.8253  0.4028  0.0557
  530TMC3    C5 7921   3.844   1.662   1.062  0.8266  0.7872  0.1755
  530TMC3    C6 7922   3.955   1.736   1.065  0.2600 -0.1351  0.0295
  530TMC3     C 7923   3.590   1.894   0.964 -0.0841 -0.3395  0.6200
  530TMC3     O 7924   3.490   1.848   1.014  0.0503  0.1802 -0.2018
  530TMC3     H 7925   3.823   2.027   0.963  1.4704 -0.2666 -0.8213
  530TMC3    H1 7926   3.629   1.661   1.041 -0.9241  1.1082  3.9334
  530TMC3    H2 7927   4.052   1.689   1.081  1.6245  2.5165 -0.4717
  530TMC3    C7 7928   3.860   1.522   1.127  0.3536  0.5552  0.7226
  530TMC3    C8 7929   4.024   1.956   1.106 -0.0348  0.3120  0.2426
  530TMC3    O1 7930   3.969   1.500   1.177 -0.0902 -0.1641 -0.5538
  530TMC3    O2 7931   3.970   2.058   1.136  0.0446 -0.0964  0.5410
  531MPD2     C 7932   2.670   4.099  13.465 -0.3424  0.4708 -0.8041
  531MPD2    C1 7933   2.688   4.215  13.544  1.0587 -0.0324 -0.2797
  531MPD2    C2 7934   2.707   4.336  13.494 -0.1508  0.6379 -0.6166
  531MPD2    C3 7935   2.706   4.358  13.358  0.0148 -0.2313 -1.1636
  531MPD2    C4 7936   2.681   4.245  13.276  0.0098 -0.0941  0.2311
  531MPD2    C5 7937   2.667   4.122  13.330  0.0230  0.1947 -0.6899
  531MPD2     H 7938   2.718   4.424  13.556 -0.6062 -0.2887  0.7718
  531MPD2    H1 7939   2.683   4.251  13.167  0.7564  1.4292  0.3206
  531MPD2    H2 7940   2.655   3.999  13.504 -2.2929  0.5362 -1.4034
  531MPD2    H3 7941   2.668   4.033  13.268  0.3411 -0.2947  0.0245
  531MPD2     N 7942   2.736   4.486  13.307 -0.3457  0.0773 -0.1113
  531MPD2    H5 7943   2.761   4.555  13.377 -3.0677  1.9054 -0.9577
  531MPD2    N1 7944   2.698   4.194  13.683 -0.2312 -1.1070 -1.0630
  531MPD2    H7 7945   2.721   4.098  13.707 -1.8153 -0.8922  1.3849
  532TMC3    C1 7946   2.723   4.226  13.920  0.2529 -0.6011  0.1039
  532TMC3    C2 7947   2.694   4.326  14.010  0.0958 -0.2801  0.1270
  532TMC3    C3 7948   2.790   4.371  14.101  0.2057 -0.0696 -1.0020
  532TMC3    C4 7949   2.853   4.178  13.925 -0.1177 -0.5811 -0.3762
  532TMC3    C5 7950   2.940   4.223  14.016 -0.7503  0.4582 -0.7106
  532TMC3    C6 7951   2.906   4.313  14.112  0.1861  0.1882 -0.8146
  532TMC3     C 7952   2.693   4.284  13.786  0.9588 -0.2166 -0.0907
  532TMC3     O 7953   2.675   4.404  13.780  0.1677 -0.0871 -0.4706
  532TMC3     H 7954   2.601   4.379  13.993 -0.3652 -1.1628 -0.1060
  532TMC3    H1 7955   2.891   4.128  13.837  1.5748  0.4489 -0.2420
  532TMC3    H2 7956   2.987   4.356  14.170 -1.5307 -0.7396  2.2994
  532TMC3    C7 7957   3.057   4.144  14.045  0.4449  0.3196 -0.7843
  532TMC3    C8 7958   2.814   4.516  14.101  0.7904 -0.3738  0.0144
  532TMC3    O1 7959   3.132   4.177  14.136  0.1561  0.4154 -0.1112
  532TMC3    O2 7960   2.849   4.566  14.207  0.4878  0.2574  0.1161
  533TMC3    C1 7961   2.772   1.849  14.445 -0.5512 -0.3435  0.9478
  533TMC3    C2 7962   2.876   1.926  14.488 -0.3446 -0.3663 -0.2780
  533TMC3    C3 7963   2.854   2.047  14.533  0.2664 -0.4894 -0.1176
  533TMC3    C4 7964   2.646   1.906  14.461  0.5257 -0.2365  0.1303
  533TMC3    C5 7965   2.620   2.025  14.526 -0.0127 -0.6785  0.3237
  533TMC3    C6 7966   2.731   2.101  14.556  0.3857 -0.4292 -0.1953
  533TMC3     C 7967   2.781   1.705  14.465 -0.5211  0.6151 -0.0183
  533TMC3     O 7968   2.868   1.667  14.547  0.4156  0.5466 -0.1381
  533TMC3     H 7969   2.979   1.892  14.487 -0.3738 -0.4093 -1.3389
  533TMC3    H1 7970   2.567   1.846  14.418 -0.0765  2.1684 -2.0786
  533TMC3    H2 7971   2.726   2.200  14.600 -0.5469 -0.0551 -1.1238
  533TMC3    C7 7972   2.525   2.014  14.639  0.2734  0.3496  0.4606
  533TMC3    C8 7973   2.959   2.113  14.615  1.1011  0.0053 -0.4446
  533TMC3    O1 7974   2.434   1.932  14.635 -0.4482 -0.6817  0.6042
  533TMC3    O2 7975   2.933   2.110  14.736 -0.9340  0.0686  0.3530
  534MPD2     C 7976   2.007   1.738   1.008 -0.1472 -0.5300  0.2976
  534MPD2    C1 7977   1.923   1.802   1.103  0.4327  1.2500 -0.6260
  534MPD2    C2 7978   1.785   1.789   1.077  0.8048  0.6585  0.0270
  534MPD2    C3 7979   1.735   1.708   0.974 -0.0865 -0.0395 -0.1411
  534MPD2    C4 7980   1.828   1.648   0.896  0.5944 -0.2427  0.0366
  534MPD2    C5 7981   1.961   1.657   0.908  0.4168  0.1334 -0.1292
  534MPD2     H 7982   1.712   1.835   1.144 -1.3058 -0.6289 -1.3854
  534MPD2    H1 7983   1.794   1.580   0.819  0.3924 -1.5996  1.3137
  534MPD2    H2 7984   2.115   1.742   1.015 -0.3165  3.6866  0.6324
  534MPD2    H3 7985   2.023   1.604   0.837 -0.9709 -0.0370 -1.2085
  534MPD2     N 7986   1.602   1.675   0.946 -0.1975  0.9079 -0.3114
  534MPD2    H5 7987   1.591   1.611   0.868  0.6008  1.4923 -0.9038
  534MPD2    N1 7988   1.965   1.889   1.209 -0.1743 -0.2843  0.0109
  534MPD2    H7 7989   1.893   1.919   1.274  0.2848  0.5962  0.1115
  535TMC3    C1 7990   1.375   1.700   0.973  0.4568  0.1134 -0.1818
  535TMC3    C2 7991   1.278   1.657   1.059 -0.1678 -0.1150 -0.0229
  535TMC3    C3 7992   1.151   1.677   1.016 -0.4817  0.1903 -0.0624
  535TMC3    C4 7993   1.360   1.747   0.851  0.2652  0.2611  0.2335
  535TMC3    C5 7994   1.229   1.769   0.807 -0.1165 -0.0585 -0.5375
  535TMC3    C6 7995   1.128   1.731   0.888 -0.5324  0.3113  0.9118
  535TMC3     C 7996   1.506   1.706   1.034  0.0179  0.1215  0.1453
  535TMC3     O 7997   1.510   1.728   1.153 -0.0776  0.0561  0.0897
  535TMC3     H 7998   1.300   1.604   1.151  0.0977 -2.5913 -1.4976
  535TMC3    H1 7999   1.439   1.795   0.794 -0.7362  0.7726 -0.7263
  535TMC3    H2 8000   1.026   1.767   0.879 -1.3882 -2.3723 -0.0599
  535TMC3    C7 8001   1.206   1.886   0.731  0.6676  0.4171 -0.6392
  535TMC3    C8 8002   1.069   1.735   1.115  0.1779  0.3945  0.1982
  535TMC3    O1 8003   1.160   1.875   0.615  0.3610 -0.1586  0.6824
  535TMC3    O2 8004   0.949   1.725   1.107 -0.1243  0.0543  0.4045
  536MPD2     C 8005   0.188   0.907  15.808 -0.2081 -0.4080 -0.1609
  536MPD2    C1 8006   0.066   0.868  15.862  0.4576  1.1336 -0.9162
  536MPD2    C2 8007   4.694   0.952  15.854  0.0343  0.7045 -0.2330
  536MPD2    C3 8008   4.709   1.074  15.791 -0.3691 -0.2272  1.5364
  536MPD2    C4 8009   0.099   1.114  15.736 -0.7062  0.1596 -0.1133
  536MPD2    C5 8010   0.201   1.028  15.748  0.1023 -0.6367 -0.1375
  536MPD2     H 8011   4.606   0.930  15.912 -2.0945  0.3858 -3.5611
  536MPD2    H1 8012   0.105   1.210  15.687  1.5266  1.3319  2.4870
  536MPD2    H2 8013   0.273   0.840  15.813  0.1840  0.1700  0.7982
  536MPD2    H3 8014   0.295   1.059  15.703  0.1311 -3.5013 -2.0307
  536MPD2     N 8015   4.607   1.171  15.800  0.6384 -0.0888  0.2054
  536MPD2    H5 8016   4.630   1.265  15.770 -1.1680 -0.2711 -1.7741
  536MPD2    N1 8017   0.058   0.744  15.931 -0.2380  0.2144  0.2190
  536MPD2    H7 8018   0.147   0.696  15.928 -0.7108 -0.7164  1.0874
  537TMC3    C1 8019   4.700   0.557  16.035  0.5070  0.0763 -0.0595
  537TMC3    C2 8020   0.070   0.539  16.116  0.3557 -0.0445 -0.1567
  537TMC3    C3 8021   0.065   0.453  16.218  0.1740  0.5964  0.1254
  537TMC3    C4 8022   4.592   0.472  16.044 -0.4231  0.3612  0.0056
  537TMC3    C5 8023   4.588   0.388  16.154 -0.3785  0.2156 -0.5068
  537TMC3    C6 8024   4.690   0.378  16.247  0.1134  0.7232  1.0761
  537TMC3     C 8025   4.679   0.678  15.965 -0.1671 -0.4464 -0.6334
  537TMC3     O 8026   4.565   0.709  15.936  0.1478  0.1459 -0.7101
  537TMC3     H 8027   0.152   0.609  16.101  2.1439 -1.5917  2.1678
  537TMC3    H1 8028   4.507   0.483  15.978 -0.1424  2.1343 -0.0552
  537TMC3    H2 8029   4.689   0.304  16.326 -1.9971  1.1637  1.4673
  537TMC3    C7 8030   4.459   0.332  16.189 -0.4558  0.6313 -0.0630
  537TMC3    C8 8031   0.161   0.475  16.326 -0.0961  0.2000 -0.9460
  537TMC3    O1 8032   4.378   0.321  16.099 -0.1424  0.2583 -0.4494
  537TMC3    O2 8033   0.133   0.443  16.441 -0.0268 -0.6187  0.8818
  538TMC3    C1 8034   0.485   4.363  11.179 -0.3191 -0.5480  0.5370
  538TMC3    C2 8035   0.536   4.239  11.169  0.4233  0.8342  0.0574
  538TMC3    C3 8036   0.562   4.178  11.048  0.5332 -0.6410  0.3869
  538TMC3    C4 8037   0.454   4.431  11.065  0.0200 -0.4383 -0.1454
  538TMC3    C5 8038   0.483   4.377  10.944  0.6548 -0.3766  0.2253
  538TMC3    C6 8039   0.542   4.254  10.935  0.0943 -0.0335  0.3411
  538TMC3     C 8040   0.434   4.413  11.306 -0.1942 -0.5313 -0.2594
  538TMC3     O 8041   0.353   4.506  11.298 -0.2874 -0.3254 -0.3915
  538TMC3     H 8042   0.553   4.186  11.262  2.7660  0.5459 -0.5335
  538TMC3    H1 8043   0.414   4.531  11.082  2.0218  0.6581 -1.9272
  538TMC3    H2 8044   0.542   4.209  10.837 -1.0361  0.9957 -0.1337
  538TMC3    C7 8045   0.406   4.429  10.832 -0.0950  0.5550 -0.3257
  538TMC3    C8 8046   0.647   4.063  11.049  0.1416  0.1011 -0.5066
  538TMC3    O1 8047   0.305   4.485  10.867  0.1963  0.9650  0.2652
  538TMC3    O2 8048   0.665   3.989  11.150  0.0323 -0.3798 -0.1613
  539MPD2     C 8049   0.391   3.741  11.660 -0.0755 -0.0802  0.1691
  539MPD2    C1 8050   0.406   3.727  11.521 -0.5056  0.1750 -0.0195
  539MPD2    C2 8051   0.364   3.826  11.436 -0.9635 -0.1481  0.2145
  539MPD2    C3 8052   0.290   3.935  11.480  0.2951 -0.3449 -0.2096
  539MPD2    C4 8053   0.285   3.950  11.620 -0.2751  0.5522 -0.2285
  539MPD2    C5 8054   0.345   3.859  11.705 -0.1231 -0.0625  0.2753
  539MPD2     H 8055   0.369   3.807  11.329  1.9076 -1.3037  0.5635
  539MPD2    H1 8056   0.244   4.040  11.664 -1.3603  0.4653 -1.0582
  539MPD2    H2 8057   0.421   3.671  11.737 -1.0429  0.6265  1.1825
  539MPD2    H3 8058   0.322   3.865  11.811  0.0136  0.0034  0.3021
  539MPD2     N 8059   0.220   4.024  11.396 -0.0959  0.2747  0.4498
  539MPD2    H5 8060   0.178   4.100  11.450 -0.7648 -1.3089  2.1314
  539MPD2    N1 8061   0.472   3.615  11.466 -0.4230  0.3095  0.3593
  539MPD2    H7 8062   0.459   3.597  11.367  0.1551 -3.1693  0.8919
  540TMC3    C1 8063   0.177   4.160  11.199 -0.0843  0.2092 -0.1358
  540TMC3    C2 8064   0.183   4.167  11.060  0.1001 -0.2549 -0.1699
  540TMC3    C3 8065   0.106   4.268  11.010  0.3328 -0.4592  0.1440
  540TMC3    C4 8066   0.119   4.252  11.283  0.2027 -0.0040  0.0017
  540TMC3    C5 8067   0.064   4.366  11.226  0.8955 -0.2775 -0.8569
  540TMC3    C6 8068   0.037   4.367  11.091 -0.0490  0.8459  0.0560
  540TMC3     C 8069   0.226   4.029  11.260  0.2227  0.5092 -0.2833
  540TMC3     O 8070   0.281   3.950  11.185  0.2621  0.5241  0.0343
  540TMC3     H 8071   0.248   4.101  11.003 -1.7523 -0.9206 -1.5289
  540TMC3    H1 8072   0.118   4.248  11.392  0.6014  0.8374  0.0380
  540TMC3    H2 8073   4.706   4.445  11.055  2.0144  1.4052 -2.5172
  540TMC3    C7 8074   4.696   4.410  11.308 -0.1891 -0.1327  0.5082
  540TMC3    C8 8075   0.085   4.281  10.867 -0.1829  0.0832 -0.1104
  540TMC3    O1 8076   4.621   4.317  11.340 -0.0864 -0.1902  0.2621
  540TMC3    O2 8077   0.009   4.366  10.820  0.2587  0.1336 -0.5807
  541MPD2     C 8078   3.397   4.431  13.450  0.2474  0.2408  0.3885
  541MPD2    C1 8079   3.516   4.403  13.386  0.3930 -0.5772 -0.1098
  541MPD2    C2 8080   3.598   4.506  13.344  0.3042 -0.2192 -0.6779
  541MPD2    C3 8081   3.563   4.642  13.354 -0.5087  0.0325 -0.1531
  541MPD2    C4 8082   3.440   4.670  13.406  0.5702 -0.3081  0.2125
  541MPD2    C5 8083   3.356   4.562  13.445 -0.5642 -0.7506 -0.3333
  541MPD2     H 8084   3.688   4.492  13.286 -0.0064  1.4511 -1.5530
  541MPD2    H1 8085   3.405   0.037  13.417  0.3967 -0.3325 -0.1265
  541MPD2    H2 8086   3.324   4.360  13.487  2.3934 -1.9887  0.3446
  541MPD2    H3 8087   3.260   4.584  13.490 -0.5884  2.6560 -2.0534
  541MPD2     N 8088   3.635   0.004  13.279 -0.4190 -0.5157 -0.0944
  541MPD2    H5 8089   3.585   0.091  13.264  0.4534  0.0840  0.5219
  541MPD2    N1 8090   3.552   4.266  13.368 -0.2751  0.2026  0.2227
  541MPD2    H7 8091   3.494   4.196  13.413  1.7785 -0.9598  1.0271
  542TMC3    C1 8092   3.780   0.086  13.118  0.1602 -0.3286  0.5654
  542TMC3    C2 8093   3.817   0.036  12.994  0.5325 -0.2649 -0.3398
  542TMC3    C3 8094   3.830   0.125  12.888 -1.0254 -0.6069  0.3726
  542TMC3    C4 8095   3.752   0.217  13.136  0.2327  0.5119 -0.4729
  542TMC3    C5 8096   3.763   0.296  13.027  0.8052 -0.4388 -0.0550
  542TMC3    C6 8097   3.800   0.253  12.904 -0.2451 -0.0740  0.2230
  542TMC3     C 8098   3.755   4.726  13.227 -0.7844  0.5230  0.6266
  542TMC3     O 8099   3.848   4.649  13.252  0.3488 -0.0277  0.3909
  542TMC3     H 8100   3.829   4.664  12.983  2.0316 -0.3377  2.1361
  542TMC3    H1 8101   3.694   0.251  13.220  0.9233 -0.6172  0.4593
  542TMC3    H2 8102   3.781   0.320  12.821  1.9385 -0.9398 -0.9667
  542TMC3    C7 8103   3.767   0.436  13.054 -0.2288  0.3690  0.5797
  542TMC3    C8 8104   3.877   0.086  12.764  0.3098  0.3427 -0.0780
  542TMC3    O1 8105   3.752   0.473  13.172  0.6396  0.3095 -0.1033
  542TMC3    O2 8106   3.898   0.180  12.686 -0.6613  0.4192 -0.3045
  543TMC3    C1 8107   3.254   1.798  17.348 -0.6474  0.5818  0.7305
  543TMC3    C2 8108   3.161   1.707  17.390 -0.3393 -0.0734 -0.4644
  543TMC3    C3 8109   3.155   1.679  17.525  0.0088 -0.0883  0.2851
  543TMC3    C4 8110   3.354   1.838  17.431  0.6942  0.6797 -0.1736
  543TMC3    C5 8111   3.342   1.821  17.569 -0.1074  0.2159  0.3353
  543TMC3    C6 8112   3.240   1.741  17.613  0.3683 -0.3319  0.1890
  543TMC3     C 8113   3.305   1.772  17.219  0.1649  0.2293 -0.7388
  543TMC3     O 8114   3.398   1.698  17.212 -0.0330 -0.4949 -0.4469
  543TMC3     H 8115   3.099   1.663  17.313 -1.4988 -0.4520  0.6908
  543TMC3    H1 8116   3.444   1.881  17.389  1.8438 -1.2656  0.3054
  543TMC3    H2 8117   3.239   1.723  17.720  0.3007 -0.1154  0.2249
  543TMC3    C7 8118   3.450   1.851  17.666 -0.3097  0.1116  0.3465
  543TMC3    C8 8119   3.107   1.544  17.564 -1.0154 -0.0611 -0.2982
  543TMC3    O1 8120   3.431   1.830   0.048  0.0997  0.2607 -0.0846
  543TMC3    O2 8121   3.114   1.521  17.679 -0.7608  0.1065  0.5338
  544MPD2     C 8122   3.114   1.049  17.458 -0.1723 -0.0149  0.4140
  544MPD2    C1 8123   3.064   1.103  17.347 -0.8836  0.2897  0.0064
  544MPD2    C2 8124   3.047   1.248  17.343 -0.2772 -0.3643  0.1390
  544MPD2    C3 8125   3.088   1.316  17.461 -0.0987  0.4799  0.1672
  544MPD2    C4 8126   3.136   1.250  17.572  0.2921  0.1383  0.6295
  544MPD2    C5 8127   3.143   1.117  17.572 -0.9140  0.1443  0.1723
  544MPD2     H 8128   2.996   1.298  17.261 -0.4166  0.6822  0.8574
  544MPD2    H1 8129   3.181   1.299  17.658  2.9603  1.0041 -1.2547
  544MPD2    H2 8130   3.143   0.945  17.463  0.5853  0.1601 -0.5648
  544MPD2    H3 8131   3.190   1.061  17.652 -0.1496  0.7644  0.1602
  544MPD2     N 8132   3.076   1.459  17.461  0.2465 -0.7316  0.3053
  544MPD2    H5 8133   3.043   1.499  17.374 -0.6143 -0.3921  0.7968
  544MPD2    N1 8134   3.031   1.024  17.243 -0.1343  0.3238  0.1518
  544MPD2    H7 8135   3.056   0.926  17.247 -0.9116  0.0621 -1.3690
  545TMC3    C1 8136   2.966   0.940  17.034  0.5224  0.0545 -0.2717
  545TMC3    C2 8137   2.960   0.979  16.904 -0.2859  0.0295 -0.3323
  545TMC3    C3 8138   2.910   0.887  16.812  0.3009 -0.3057 -0.2981
  545TMC3    C4 8139   2.895   0.830  17.080 -0.4085  0.2090  0.1312
  545TMC3    C5 8140   2.840   0.748  16.988  0.0234  0.1024  0.1648
  545TMC3    C6 8141   2.850   0.772  16.853 -0.1163 -0.4233 -0.2717
  545TMC3     C 8142   2.971   1.051  17.124 -0.3521 -0.0996  0.2763
  545TMC3     O 8143   2.924   1.157  17.087 -0.3747  0.8540 -0.0765
  545TMC3     H 8144   3.001   1.077  16.881 -0.9524 -0.2973 -2.9671
  545TMC3    H1 8145   2.872   0.807  17.184  2.9514 -0.3958  0.7453
  545TMC3    H2 8146   2.803   0.704  16.782  0.3725 -1.2217  0.1712
  545TMC3    C7 8147   2.802   0.613  17.028  0.1808  1.0389 -0.4411
  545TMC3    C8 8148   3.000   0.850  16.711 -0.1492 -0.6600  0.3021
  545TMC3    O1 8149   2.703   0.561  16.975 -0.5640  0.7061 -0.0803
  545TMC3    O2 8150   2.967   0.764  16.628 -0.1598 -0.2026  0.1568
  546MPD2     C 8151   4.627   1.305  17.712 -0.0736 -0.1947 -0.3766
  546MPD2    C1 8152   4.635   1.311  17.574  0.0466  0.0592  0.3863
  546MPD2    C2 8153   4.657   1.435  17.524 -0.4355 -0.0922 -0.3441
  546MPD2    C3 8154   4.648   1.554  17.600  0.5764  0.2623  0.0987
  546MPD2    C4 8155   4.614   1.545  17.733  0.6054 -0.3093 -0.2962
  546MPD2    C5 8156   4.610   1.422   0.047  0.2011 -0.6101 -0.3344
  546MPD2     H 8157   4.653   1.448  17.417  1.3226 -2.5832 -0.7071
  546MPD2    H1 8158   4.600   1.629   0.063  2.3280 -0.0235 -0.3043
  546MPD2    H2 8159   4.613   1.207   0.019  2.3006 -0.3944 -0.0552
  546MPD2    H3 8160   4.591   1.405   0.152  0.4157  0.2604 -0.1562
  546MPD2     N 8161   4.669   1.685  17.543 -0.2347  0.2027 -0.2254
  546MPD2    H5 8162   4.657   1.760  17.610  0.2292 -0.2754  0.3906
  546MPD2    N1 8163   4.599   1.203  17.492 -0.1984 -0.1626 -0.1841
  546MPD2    H7 8164   4.549   1.124  17.531  0.1622 -0.3129 -0.0191
  547TMC3    C1 8165   4.475   1.116  17.323  0.0822 -0.5051  0.1520
  547TMC3    C2 8166   4.432   1.121  17.199 -0.4104 -0.3202 -1.2275
  547TMC3    C3 8167   4.301   1.074  17.170 -0.0343  0.0815  0.3263
  547TMC3    C4 8168   4.392   1.060  17.419  0.3319 -0.1946  0.0324
  547TMC3    C5 8169   4.275   1.005  17.386  0.0063  0.2243 -0.5927
  547TMC3    C6 8170   4.228   1.001  17.259  0.5136 -0.6405 -0.5154
  547TMC3     C 8171   4.575   1.205  17.359 -0.8870  0.1383  0.6186
  547TMC3     O 8172   4.620   1.281  17.271  0.0562 -0.8094  0.0808
  547TMC3     H 8173   4.486   1.164  17.116 -2.1113  0.5832 -1.8624
  547TMC3    H1 8174   4.398   1.074  17.526 -0.6109 -0.3233  0.1081
  547TMC3    H2 8175   4.126   0.965  17.249 -0.2909  1.7126 -0.5776
  547TMC3    C7 8176   4.234   0.901  17.484 -0.8542  0.5504  0.4307
  547TMC3    C8 8177   4.226   1.126  17.052  0.5472  0.5681  0.0993
  547TMC3    O1 8178   4.278   0.907  17.597 -0.3682 -0.1599  0.0279
  547TMC3    O2 8179   4.104   1.134  17.066 -0.0260  0.0432 -0.5491
  548MPD2     C 8180   3.912   1.597  11.827  0.3037  0.0853 -0.4663
  548MPD2    C1 8181   4.007   1.685  11.881  0.1562  0.6026 -0.0083
  548MPD2    C2 8182   4.106   1.632  11.962  0.0323 -0.5441  0.0693
  548MPD2    C3 8183   4.108   1.497  11.996  0.6186  0.4254  0.4940
  548MPD2    C4 8184   4.004   1.416  11.956 -0.1485  0.4331 -0.9048
  548MPD2    C5 8185   3.916   1.463  11.855 -0.3570  0.1615  0.2732
  548MPD2     H 8186   4.186   1.691  12.006 -1.1843  0.5189  0.8535
  548MPD2    H1 8187   3.994   1.313  11.988 -1.9490  0.9767  0.2247
  548MPD2    H2 8188   3.841   1.623  11.750 -0.6467  2.0080  1.0557
  548MPD2    H3 8189   3.845   1.392  11.813 -0.4489  0.8983 -0.7996
  548MPD2     N 8190   4.212   1.453  12.084  0.5729  0.4392 -0.6144
  548MPD2    H5 8191   4.289   1.518  12.099 -1.0889  1.8546  1.9174
  548MPD2    N1 8192   4.015   1.821  11.852 -0.7344  0.3548 -0.4130
  548MPD2    H7 8193   4.098   1.865  11.891 -1.1476  1.4172 -0.7394
  549TMC3    C1 8194   3.891   2.012  11.908 -0.4887 -0.1009 -0.2178
  549TMC3    C2 8195   3.761   2.048  11.955  0.3290  0.2053 -0.4057
  549TMC3    C3 8196   3.743   2.091  12.086 -0.2015 -0.3617 -0.0872
  549TMC3    C4 8197   3.997   2.036  11.992  0.8166  0.3086 -0.3328
  549TMC3    C5 8198   3.973   2.084  12.121 -0.6129  0.5388 -0.9210
  549TMC3    C6 8199   3.853   2.099  12.172  0.3928  0.1093 -0.4181
  549TMC3     C 8200   3.905   1.898  11.818  0.0239 -0.4870 -0.4049
  549TMC3     O 8201   3.796   1.865  11.770 -0.4448 -0.1473  0.6172
  549TMC3     H 8202   3.678   2.043  11.886  1.2481  2.4018 -1.6581
  549TMC3    H1 8203   4.100   2.030  11.960  1.0635 -0.3272  0.5767
  549TMC3    H2 8204   3.844   2.130  12.276 -1.7523 -1.5712 -0.1197
  549TMC3    C7 8205   4.077   2.055  12.213  0.3200  0.7171 -0.9788
  549TMC3    C8 8206   3.611   2.099  12.149 -0.7348 -0.1462 -0.2673
  549TMC3    O1 8207   4.186   2.110  12.215 -0.3786  0.1631  0.0397
  549TMC3    O2 8208   3.613   2.092  12.272  0.4782 -0.8064 -0.0926
  550TMC3    C1 8209   3.575   4.304  12.407  0.0190  0.8134 -0.0800
  550TMC3    C2 8210   3.537   4.374  12.520 -0.1410 -0.4535  0.2233
  550TMC3    C3 8211   3.529   4.507  12.512  0.6125 -0.3478 -0.2174
  550TMC3    C4 8212   3.592   4.363  12.289 -0.3937 -0.1434  0.8914
  550TMC3    C5 8213   3.570   4.499  12.283 -0.1969  0.2330 -0.2566
  550TMC3    C6 8214   3.537   4.569  12.394  0.1247  0.2320 -0.0010
  550TMC3     C 8215   3.517   4.176  12.405 -0.3178 -0.3851 -0.5626
  550TMC3     O 8216   3.525   4.100  12.503  0.3439 -0.2874  0.5817
  550TMC3     H 8217   3.524   4.314  12.609 -0.3876 -1.5464 -0.5495
  550TMC3    H1 8218   3.634   4.308  12.205 -0.4479  3.8033 -1.7071
  550TMC3    H2 8219   3.532   4.677  12.397  0.1998  0.1940  1.4773
  550TMC3    C7 8220   3.483   4.527  12.170  0.3435  0.5995  0.0747
  550TMC3    C8 8221   3.446   4.573  12.607  0.3038  1.2488  0.7138
  550TMC3    O1 8222   3.496   4.434  12.091 -0.7577  0.5718 -0.8270
  550TMC3    O2 8223   3.462   4.693  12.621  0.3183  0.3100 -0.1083
  551TMC3    C1 8224   0.364   2.578  13.151  0.5701  0.7599 -0.0315
  551TMC3    C2 8225   0.486   2.555  13.085  0.6077 -0.4336  0.2770
  551TMC3    C3 8226   0.592   2.517  13.162  0.5159  0.1563 -0.3638
  551TMC3    C4 8227   0.356   2.582  13.287 -0.5246 -0.6077 -0.1159
  551TMC3    C5 8228   0.466   2.536  13.362  0.1248 -0.1288  0.4262
  551TMC3    C6 8229   0.586   2.507  13.299 -0.8894  0.7249  0.1341
  551TMC3     C 8230   0.237   2.596  13.073 -0.2583 -0.2132 -0.4467
  551TMC3     O 8231   0.133   2.607  13.137 -0.2619 -0.5195  0.2404
  551TMC3     H 8232   0.498   2.548  12.978 -0.1885 -3.1757  0.3716
  551TMC3    H1 8233   0.267   2.625  13.331  0.0505  0.1901  0.2765
  551TMC3    H2 8234   0.665   2.458  13.356  0.7394  2.1359 -0.9142
  551TMC3    C7 8235   0.478   2.561  13.509 -0.1595 -0.1457 -0.0043
  551TMC3    C8 8236   0.728   2.534  13.111  0.1003  0.6976  0.0003
  551TMC3    O1 8237   0.595   2.575  13.544  0.1892  0.0824 -0.4660
  551TMC3    O2 8238   0.817   2.496  13.186  0.0650  0.9266  0.5999
  552MPD2     C 8239   2.360   4.345  13.848  0.7839 -0.2093  0.7270
  552MPD2    C1 8240   2.333   4.264  13.959 -0.2158 -0.6183 -0.1377
  552MPD2    C2 8241   2.325   4.315  14.085  0.3835  0.1818  0.0007
  552MPD2    C3 8242   2.369   4.446  14.102 -0.7575  0.0409  0.9810
  552MPD2    C4 8243   2.377   4.525  13.985  0.4376  0.1171 -0.3095
  552MPD2    C5 8244   2.367   4.476  13.857 -0.2697 -0.5524 -0.7270
  552MPD2     H 8245   2.307   4.242  14.163 -0.5389  2.2252  1.6992
  552MPD2    H1 8246   2.407   4.629  13.995  0.5551  0.3599 -2.9762
  552MPD2    H2 8247   2.372   4.307  13.747 -0.4620  2.9845 -0.6060
  552MPD2    H3 8248   2.386   4.534  13.768 -2.0377 -0.3257 -0.9600
  552MPD2     N 8249   2.396   4.498  14.230  0.5840  0.3824  0.1504
  552MPD2    H5 8250   2.416   4.597  14.235 -0.7766  0.7179 -0.9166
  552MPD2    N1 8251   2.326   4.123  13.953  0.0467  0.2699  0.0358
  552MPD2    H7 8252   2.291   4.081  14.038  0.3186 -3.1106 -1.5323
  553TMC3    C1 8253   2.398   3.915  13.879  0.3867 -0.1913 -0.5758
  553TMC3    C2 8254   2.410   3.838  13.772 -0.3083 -0.5632 -0.2734
  553TMC3    C3 8255   2.487   3.725  13.781 -0.5359  0.1055 -0.8082
  553TMC3    C4 8256   2.465   3.889  13.994 -0.1908  0.1466  0.5312
  553TMC3    C5 8257   2.549   3.780  13.998  0.0120  0.3839  0.2339
  553TMC3    C6 8258   2.565   3.698  13.891  0.2845 -0.4576  1.0375
  553TMC3     C 8259   2.357   4.050  13.845 -0.3591 -0.0368 -0.3648
  553TMC3     O 8260   2.376   4.082  13.731  0.0806 -0.1265  0.4672
  553TMC3     H 8261   2.356   3.857  13.680  0.1854  0.0581 -0.4377
  553TMC3    H1 8262   2.486   3.970  14.063 -0.1646  0.3003  0.3427
  553TMC3    H2 8263   2.625   3.608  13.886  0.9735  0.1754 -1.8949
  553TMC3    C7 8264   2.661   3.785  14.095  0.4218 -0.3105 -0.5875
  553TMC3    C8 8265   2.575   3.711  13.668 -0.2307  0.0443  0.3896
  553TMC3    O1 8266   2.651   3.859  14.189  0.0025  0.1218 -0.6881
  553TMC3    O2 8267   2.694   3.704  13.701  0.5069 -0.1620 -0.2518
  554TMC3    C1 8268   4.305   4.218  11.333 -0.1297  0.3806  0.0851
  554TMC3    C2 8269   4.274   4.106  11.251 -0.9658 -0.1821  0.0896
  554TMC3    C3 8270   4.283   4.131  11.118 -0.7370 -0.0905 -0.3144
  554TMC3    C4 8271   4.332   4.344  11.286 -1.4058 -0.1275  0.3743
  554TMC3    C5 8272   4.342   4.360  11.153 -0.9181  0.0966 -0.0753
  554TMC3    C6 8273   4.313   4.256  11.065 -0.1688 -0.1102  0.8643
  554TMC3     C 8274   4.326   4.197  11.473 -0.1588 -0.3283  0.1726
  554TMC3     O 8275   4.361   4.291  11.545  0.4014  0.5509  0.4724
  554TMC3     H 8276   4.237   4.018  11.302  0.8983 -0.1361  1.4932
  554TMC3    H1 8277   4.332   4.428  11.355  0.6969 -0.9380  1.3595
  554TMC3    H2 8278   4.336   4.278  10.961  3.9240  1.8521  2.1549
  554TMC3    C7 8279   4.343   4.496  11.096 -0.3326 -0.4318 -0.1171
  554TMC3    C8 8280   4.212   4.050  11.027  0.3781 -0.2325  0.3463
  554TMC3    O1 8281   4.286   4.509  10.989 -0.0979 -0.3435  0.6539
  554TMC3    O2 8282   4.205   4.097  10.914  0.0446  0.1182 -0.0740
  555TMC3    C1 8283   2.869   3.289  15.261  0.5400 -0.3483 -0.5885
  555TMC3    C2 8284   2.928   3.385  15.331  0.6151  0.1514 -0.4853
  555TMC3    C3 8285   3.031   3.355  15.412 -0.0424 -0.7697  0.4334
  555TMC3    C4 8286   2.905   3.156  15.262  0.4116  0.2663  0.3056
  555TMC3    C5 8287   3.013   3.130  15.339  0.2430 -0.0352 -0.6745
  555TMC3    C6 8288   3.075   3.224  15.419  0.3226  0.9595  0.0953
  555TMC3     C 8289   2.774   3.328  15.170 -0.4115 -0.0084  0.4872
  555TMC3     O 8290   2.724   3.441  15.187 -0.4774 -0.0216 -0.6567
  555TMC3     H 8291   2.903   3.490  15.336  0.1530  0.0042  0.3488
  555TMC3    H1 8292   2.849   3.081  15.208 -0.8931  1.4545  0.0049
  555TMC3    H2 8293   3.150   3.196  15.492  0.1348  0.4918  0.1055
  555TMC3    C7 8294   3.051   2.985  15.346  0.1293  0.0046 -0.2609
  555TMC3    C8 8295   3.102   3.468  15.471 -0.2242  0.7552  0.4760
  555TMC3    O1 8296   2.997   2.909  15.266 -1.1521 -0.3957  0.1823
  555TMC3    O2 8297   3.054   3.581  15.473 -0.0274 -0.3241 -0.2097
  556MPD2     C 8298   1.903   4.391  10.734  0.0966  0.6573 -0.1921
  556MPD2    C1 8299   1.800   4.364  10.819 -0.3635  0.1717  0.3838
  556MPD2    C2 8300   1.709   4.275  10.776  0.9904  0.4297  0.3060
  556MPD2    C3 8301   1.721   4.200  10.662  0.5728 -0.3300 -0.0158
  556MPD2    C4 8302   1.829   4.224  10.577 -0.9127 -0.2501 -0.5228
  556MPD2    C5 8303   1.918   4.323  10.615 -0.2544 -0.6817  0.1785
  556MPD2     H 8304   1.615   4.259  10.829  0.7978  0.9630  0.1259
  556MPD2    H1 8305   1.861   4.170  10.488 -2.0351 -0.2470 -0.9240
  556MPD2    H2 8306   1.993   4.446  10.757  1.0595 -0.8883 -0.2914
  556MPD2    H3 8307   2.003   4.337  10.549 -0.5280  0.5885  0.0792
  556MPD2     N 8308   1.603   4.135  10.619  0.1813  0.3956  0.0897
  556MPD2    H5 8309   1.527   4.127  10.686 -2.7093  0.8840 -3.0808
  556MPD2    N1 8310   1.788   4.425  10.945  0.0240  0.4476  0.5175
  556MPD2    H7 8311   1.702   4.412  10.996  0.4833  0.4377  1.2880
  557TMC3    C1 8312   1.447   4.044  10.460 -0.9731 -0.0082 -0.3713
  557TMC3    C2 8313   1.417   4.006  10.334 -0.1735  0.3118 -0.2588
  557TMC3    C3 8314   1.288   4.005  10.291  0.3893  0.8248  0.2593
  557TMC3    C4 8315   1.347   4.080  10.548  0.5845 -0.1252  0.4802
  557TMC3    C5 8316   1.222   4.092  10.498 -0.0453  0.0730 -0.4437
  557TMC3    C6 8317   1.181   4.047  10.372 -0.0457 -0.1556  0.3139
  557TMC3     C 8318   1.584   4.079  10.491  0.3374  1.0259 -0.5667
  557TMC3     O 8319   1.668   4.068  10.401  0.5995  0.6016 -0.4352
  557TMC3     H 8320   1.500   3.989  10.266 -0.9819 -0.2636 -1.1038
  557TMC3    H1 8321   1.374   4.133  10.639  0.9811  0.1235  0.2158
  557TMC3    H2 8322   1.076   4.026  10.351 -0.7236  1.2306  2.2965
  557TMC3    C7 8323   1.112   4.098  10.594  0.9449  0.6206 -0.7180
  557TMC3    C8 8324   1.264   3.946  10.167 -0.7876 -0.3171 -0.0349
  557TMC3    O1 8325   1.012   4.162  10.568  0.0996  0.0276 -0.0785
  557TMC3    O2 8326   1.322   3.839  10.147 -0.3245 -0.0084  0.2098
  558TMC3    C1 8327   4.090   1.944   9.887  0.5580  0.2749 -0.3128
  558TMC3    C2 8328   3.954   1.944   9.899  0.5147  0.2461 -0.3846
  558TMC3    C3 8329   3.878   1.956   9.790 -0.8576 -0.6708 -0.2734
  558TMC3    C4 8330   4.156   1.950   9.767 -0.5157 -0.1928 -0.3589
  558TMC3    C5 8331   4.071   1.965   9.655 -0.1665  0.0162 -0.2169
  558TMC3    C6 8332   3.936   1.968   9.672  0.5909 -0.1670  0.1861
  558TMC3     C 8333   4.148   1.999  10.006  0.1884 -0.3586 -0.3153
  558TMC3     O 8334   4.087   2.086  10.063  0.0329 -0.0227  0.9300
  558TMC3     H 8335   3.917   1.943  10.001  1.8273  0.7577  0.0991
  558TMC3    H1 8336   4.264   1.962   9.763 -0.5847  0.5990  0.1082
  558TMC3    H2 8337   3.861   1.982   9.595  0.5334  2.2936  0.7071
  558TMC3    C7 8338   4.126   1.988   9.523  0.4113  0.0081  0.4254
  558TMC3    C8 8339   3.756   2.029   9.815  0.2796 -0.7344 -0.5303
  558TMC3    O1 8340   4.244   1.975   9.496 -0.1066  0.3330 -0.2195
  558TMC3    O2 8341   3.652   2.008   9.752 -0.1837 -0.0610 -0.2419
  559MPD2     C 8342   3.931   3.378  10.258  0.0431 -0.4595  0.3561
  559MPD2    C1 8343   3.857   3.302  10.341 -0.0112  0.5713 -0.8377
  559MPD2    C2 8344   3.907   3.261  10.462 -0.5619  0.6071 -0.1677
  559MPD2    C3 8345   4.038   3.312  10.494  0.0338  0.3129 -0.6746
  559MPD2    C4 8346   4.108   3.383  10.401 -0.0050  0.0960  0.0171
  559MPD2    C5 8347   4.057   3.417  10.284 -0.1300 -0.4127 -0.0095
  559MPD2     H 8348   3.839   3.213  10.532 -0.6847  0.5035 -0.3580
  559MPD2    H1 8349   4.207   3.417  10.429  0.4471 -0.9650 -0.2734
  559MPD2    H2 8350   3.885   3.400  10.162 -1.0298  2.4941  1.5389
  559MPD2    H3 8351   4.115   3.462  10.204  0.5568  0.6028  1.0469
  559MPD2     N 8352   4.084   3.292  10.630 -0.2184  0.3477  0.5974
  559MPD2    H5 8353   4.010   3.258  10.691 -1.2562  2.6424  0.6315
  559MPD2    N1 8354   3.717   3.288  10.312 -0.1158 -0.4623 -0.8130
  559MPD2    H7 8355   3.677   3.334  10.231 -1.3531 -0.6987 -0.3317
  560TMC3    C1 8356   4.200   3.307  10.831 -0.0112 -0.1936 -0.7512
  560TMC3    C2 8357   4.106   3.235  10.893 -1.0258 -0.0798 -0.6219
  560TMC3    C3 8358   4.098   3.237  11.030  0.2259  0.0622 -0.1433
  560TMC3    C4 8359   4.295   3.372  10.906  0.0249 -0.4233 -0.5936
  560TMC3    C5 8360   4.281   3.372  11.038  0.3246 -0.0925 -0.0885
  560TMC3    C6 8361   4.189   3.303  11.106 -0.0551  0.3341  0.5648
  560TMC3     C 8362   4.200   3.333  10.694 -0.2137 -0.6755 -0.3137
  560TMC3     O 8363   4.308   3.360  10.639 -0.1122  0.2676 -0.5216
  560TMC3     H 8364   4.038   3.175  10.833  1.4389 -3.3010 -0.2196
  560TMC3    H1 8365   4.351   3.446  10.851 -1.1245 -0.0354 -1.2522
  560TMC3    H2 8366   4.192   3.294  11.214 -3.0527  0.3097  0.6449
  560TMC3    C7 8367   4.365   3.450  11.135 -0.9771 -0.1424  0.2714
  560TMC3    C8 8368   4.033   3.137  11.107 -0.2762  0.6239 -0.6248
  560TMC3    O1 8369   4.317   3.488  11.241 -0.4224 -0.4751 -0.5001
  560TMC3    O2 8370   4.058   3.135  11.229 -0.6944  0.1506  0.8689
  561TMC3    C1 8371   1.831   2.283  10.960  0.3482 -0.8529  1.0040
  561TMC3    C2 8372   1.761   2.213  11.052 -0.3460 -0.4052 -0.1962
  561TMC3    C3 8373   1.649   2.271  11.103  0.2723 -0.8610  0.8606
  561TMC3    C4 8374   1.794   2.413  10.924  0.2629  0.0612 -0.2621
  561TMC3    C5 8375   1.673   2.458  10.971  0.4745 -0.4239 -0.2820
  561TMC3    C6 8376   1.594   2.392  11.058 -1.1562 -0.3294  0.0938
  561TMC3     C 8377   1.960   2.223  10.904  0.1601 -0.2363 -0.0036
  561TMC3     O 8378   1.967   2.099  10.914 -0.0628  0.3361 -0.0684
  561TMC3     H 8379   1.789   2.113  11.082  0.4390 -0.1425 -0.0573
  561TMC3    H1 8380   1.853   2.462  10.847  1.3091  0.4241  0.7694
  561TMC3    H2 8381   1.501   2.431  11.097 -0.5279  1.3294 -0.0641
  561TMC3    C7 8382   1.632   2.591  10.929  0.2042 -0.1282 -0.7570
  561TMC3    C8 8383   1.589   2.198  11.214  0.0498 -1.0208  0.0200
  561TMC3    O1 8384   1.511   2.620  10.955 -0.5935 -0.7147  0.1251
  561TMC3    O2 8385   1.620   2.078  11.225  0.0454  0.0551 -0.5517
  562TMC3    C1 8386   3.281   3.743  16.027 -0.3197  0.5689  0.3253
  562TMC3    C2 8387   3.169   3.822  16.032  0.0556  0.5315  0.8401
  562TMC3    C3 8388   3.054   3.768  15.977  0.4299 -0.5561  1.0992
  562TMC3    C4 8389   3.283   3.623  15.967 -0.0181 -0.2980 -0.4285
  562TMC3    C5 8390   3.171   3.576  15.907 -0.1464  0.4811 -0.7354
  562TMC3    C6 8391   3.054   3.655  15.900  0.3629 -0.7134  0.5107
  562TMC3     C 8392   3.383   3.755  16.131  0.1306  0.6239  0.1526
  562TMC3     O 8393   3.437   3.651  16.150 -0.4337 -0.7424  0.1890
  562TMC3     H 8394   3.170   3.921  16.077 -0.8654  1.9382 -2.2563
  562TMC3    H1 8395   3.378   3.571  15.965 -0.5190 -1.0447 -4.0424
  562TMC3    H2 8396   2.964   3.613  15.858 -0.3469 -0.9012  2.2280
  562TMC3    C7 8397   3.148   3.437  15.887 -0.0349  0.0151  0.5407
  562TMC3    C8 8398   2.934   3.845  16.004  0.1643 -0.3813 -0.3554
  562TMC3    O1 8399   3.035   3.404  15.843 -1.0129 -0.4387 -0.1761
  562TMC3    O2 8400   2.937   3.925  16.092 -0.4060  0.0633 -0.1017
  563MPD2     C 8401   0.871   0.096  15.900  0.6832 -0.6854  0.4781
  563MPD2    C1 8402   0.891   0.047  16.027 -0.0035  0.3114 -0.6432
  563MPD2    C2 8403   1.017   4.729  16.047  0.0098  0.1501 -0.2512
  563MPD2    C3 8404   1.114   4.719  15.947  0.7091  0.7314 -0.1991
  563MPD2    C4 8405   1.082   0.025  15.816 -0.4116 -0.7420 -0.1323
  563MPD2    C5 8406   0.959   0.082  15.796 -0.2362  0.0047 -0.7479
  563MPD2     H 8407   1.048   4.692  16.144 -1.0964  0.4295  0.2173
  563MPD2    H1 8408   1.156   0.021  15.737 -0.3119  0.3129 -0.1003
  563MPD2    H2 8409   0.781   0.149  15.870  0.3601 -1.1967  0.5363
  563MPD2    H3 8410   0.921   0.099  15.696 -1.6022 -4.7012 -1.0661
  563MPD2     N 8411   1.241   4.656  15.982 -0.2734  0.1498 -0.0926
  563MPD2    H5 8412   1.244   4.629  16.080 -1.7662  0.0247 -0.0789
  563MPD2    N1 8413   0.791   0.028  16.120 -0.0803  0.1013 -0.1138
  563MPD2    H7 8414   0.693   0.037  16.093  0.5209  2.5811 -1.4140
  564TMC3    C1 8415   0.703   4.698  16.330 -0.6651  0.0952  0.3312
  564TMC3    C2 8416   0.618   4.608  16.283 -0.6217  0.2709  0.1291
  564TMC3    C3 8417   0.526   4.554  16.372 -0.0575  0.2179 -0.5278
  564TMC3    C4 8418   0.721   4.721  16.464 -0.4035 -0.0515  0.3441
  564TMC3    C5 8419   0.665   4.634  16.555 -0.3034 -0.3480  0.3733
  564TMC3    C6 8420   0.553   4.572  16.504  0.8052  0.2158 -0.5538
  564TMC3     C 8421   0.820   4.729  16.249  0.0554 -0.1671  0.3068
  564TMC3     O 8422   0.924   0.019  16.312 -0.3200 -0.7113 -0.0268
  564TMC3     H 8423   0.608   4.606  16.175 -0.9312  0.2736  0.1551
  564TMC3    H1 8424   0.794   0.062  16.493  1.2370 -0.9887 -1.4169
  564TMC3    H2 8425   0.494   4.518  16.577  0.7822 -1.7529 -2.0105
  564TMC3    C7 8426   0.773   4.534  16.572  0.6480 -0.4427 -0.2636
  564TMC3    C8 8427   0.474   4.425  16.337 -0.2745 -0.1170  0.6991
  564TMC3    O1 8428   0.887   4.573  16.606 -0.0254  0.9091  0.4684
  564TMC3    O2 8429   0.479   4.349  16.431 -0.1584 -0.1076 -0.8401
  565TMC3    C1 8430   1.447   0.671  10.537  0.3398  0.3740  0.6476
  565TMC3    C2 8431   1.388   0.672  10.661  0.0827  0.3197  0.4983
  565TMC3    C3 8432   1.299   0.570  10.692 -0.8996  0.5200  0.3366
  565TMC3    C4 8433   1.441   0.562  10.452 -0.0388  0.0974  0.5706
  565TMC3    C5 8434   1.361   0.458  10.488 -0.0741 -0.1097 -0.3786
  565TMC3    C6 8435   1.286   0.461  10.607  0.3488 -0.3491  0.0927
  565TMC3     C 8436   1.496   0.790  10.478 -0.0237 -0.6529 -0.0631
  565TMC3     O 8437   1.516   0.789  10.358 -0.5466 -0.5514  0.2570
  565TMC3     H 8438   1.401   0.752  10.732  1.9931  0.3742  0.0912
  565TMC3    H1 8439   1.498   0.557  10.361  1.3959  2.7824  1.3319
  565TMC3    H2 8440   1.234   0.373  10.644  2.1983 -1.4555  0.0302
  565TMC3    C7 8441   1.332   0.364  10.379  0.0229 -0.0275  0.4355
  565TMC3    C8 8442   1.234   0.548  10.823 -0.4552  0.1691  0.1062
  565TMC3    O1 8443   1.394   0.379  10.276 -0.0166  0.3680  0.7856
  565TMC3    O2 8444   1.207   0.436  10.866  0.7674 -0.3156 -0.0756
  566MPD2     C 8445   2.403   2.154  14.282  0.1861  0.0002 -0.0731
  566MPD2    C1 8446   2.410   2.222  14.164 -0.0884  0.1564 -0.3241
  566MPD2    C2 8447   2.311   2.203  14.069  0.6922 -0.2306 -0.0034
  566MPD2    C3 8448   2.212   2.102  14.087  0.4961  0.1110 -0.2695
  566MPD2    C4 8449   2.214   2.025  14.206  0.2617 -0.4204 -0.7971
  566MPD2    C5 8450   2.304   2.057  14.306  0.2660 -0.1511  0.3512
  566MPD2     H 8451   2.291   2.273  13.989  0.1280 -1.3362 -0.8422
  566MPD2    H1 8452   2.144   1.945  14.224 -3.1328  2.0238 -3.1084
  566MPD2    H2 8453   2.477   2.169  14.360  1.5732  0.1369 -1.4261
  566MPD2    H3 8454   2.298   2.005  14.400 -0.7766  0.7456  0.7776
  566MPD2     N 8455   2.119   2.070  13.983  0.2019 -0.3926  0.3663
  566MPD2    H5 8456   2.037   2.022  14.018 -0.6089 -0.9973 -2.3895
  566MPD2    N1 8457   2.519   2.308  14.145 -0.3492  0.7745 -0.3160
  566MPD2    H7 8458   2.588   2.295  14.218 -0.8504  0.7660  0.1602
  567TMC3    C1 8459   2.681   2.440  14.035  0.4523  0.1679  0.3265
  567TMC3    C2 8460   2.719   2.481  13.913 -0.0478  0.2156  0.5098
  567TMC3    C3 8461   2.845   2.531  13.901 -1.1430 -0.4989 -0.1153
  567TMC3    C4 8462   2.757   2.442  14.144  0.2371 -0.4790 -0.0795
  567TMC3    C5 8463   2.885   2.493  14.134 -0.3640 -0.1663  0.8367
  567TMC3    C6 8464   2.928   2.533  14.007  0.8094  0.0672  0.5489
  567TMC3     C 8465   2.549   2.385  14.037  0.1257  0.3413  0.1565
  567TMC3     O 8466   2.471   2.412  13.943 -0.2549  0.4012  0.3971
  567TMC3     H 8467   2.646   2.481  13.833 -0.5449 -0.8127  0.9591
  567TMC3    H1 8468   2.729   2.395  14.237  0.7378 -1.3938 -0.3896
  567TMC3    H2 8469   3.032   2.553  13.983 -0.0660  2.1297 -1.4412
  567TMC3    C7 8470   2.968   2.501  14.255 -0.2567  0.3276 -0.1014
  567TMC3    C8 8471   2.879   2.594  13.768 -0.0591  0.3469 -0.1748
  567TMC3    O1 8472   3.085   2.518  14.239 -0.3627 -0.6043 -0.3132
  567TMC3    O2 8473   2.780   2.605  13.698 -0.1065 -0.3660 -0.0633
  568MPD2     C 8474   0.617   3.073  16.286 -0.0021  0.1686 -0.4610
  568MPD2    C1 8475   0.633   3.160  16.394  0.5222  0.1156  0.0866
  568MPD2    C2 8476   0.544   3.264  16.406 -0.2784  0.2306 -0.0959
  568MPD2    C3 8477   0.430   3.269  16.335 -0.4599  0.1431 -0.4569
  568MPD2    C4 8478   0.409   3.179  16.232  0.0600 -0.4029 -0.6208
  568MPD2    C5 8479   0.503   3.087  16.209 -0.5225 -0.6024 -0.1763
  568MPD2     H 8480   0.564   3.340  16.481  1.3382  0.0353 -0.3215
  568MPD2    H1 8481   0.317   3.169  16.176 -0.4488 -0.9763  0.3286
  568MPD2    H2 8482   0.685   2.997  16.251 -0.0106  0.4148 -1.0065
  568MPD2    H3 8483   0.492   3.012  16.131 -0.1587 -0.3978 -0.4260
  568MPD2     N 8484   0.342   3.371  16.371  0.1886 -0.8513  0.4540
  568MPD2    H5 8485   0.365   3.428  16.451  0.8332 -0.0122 -0.3284
  568MPD2    N1 8486   0.755   3.164  16.469  0.7190  0.6686 -0.1557
  568MPD2    H7 8487   0.833   3.111  16.431  0.4711 -0.1301  0.4615
  569TMC3    C1 8488   0.175   3.531  16.341 -0.1172 -0.8780  0.3819
  569TMC3    C2 8489   0.218   3.548  16.464  0.0056  0.4254 -0.0891
  569TMC3    C3 8490   0.306   3.649  16.500 -0.5956 -0.1116  0.9867
  569TMC3    C4 8491   0.198   3.629  16.252 -0.2140  0.6339 -1.1872
  569TMC3    C5 8492   0.279   3.731  16.286  0.2015  0.2762  0.4720
  569TMC3    C6 8493   0.337   3.747  16.409  0.3159 -0.0827  0.2061
  569TMC3     C 8494   0.234   3.410  16.289 -1.2455  0.4928 -0.5725
  569TMC3     O 8495   0.222   3.383  16.170 -0.2635  0.6397  0.0277
  569TMC3     H 8496   0.199   3.472  16.539 -0.7776 -0.6646 -1.3986
  569TMC3    H1 8497   0.171   3.612  16.148 -1.0110  0.6031 -0.9713
  569TMC3    H2 8498   0.407   3.825  16.437 -1.6744  1.2338  1.5128
  569TMC3    C7 8499   0.290   3.835  16.181  0.6306  0.1365 -0.0928
  569TMC3    C8 8500   0.408   3.618  16.599 -0.5162  0.1166 -0.5244
  569TMC3    O1 8501   0.274   3.788  16.070 -0.3537 -0.1933  0.3577
  569TMC3    O2 8502   0.424   3.498  16.626  0.3499  0.1302  0.4969
  570TMC3    C1 8503   4.198   2.077  16.242  0.2526 -0.2371  0.7013
  570TMC3    C2 8504   4.204   2.099  16.107 -0.2122  0.1044  0.3212
  570TMC3    C3 8505   4.273   2.215  16.074 -0.0319  0.9772  0.5827
  570TMC3    C4 8506   4.240   2.161  16.338 -0.2374  0.7008  0.0903
  570TMC3    C5 8507   4.304   2.279  16.296 -0.3927  1.2787 -0.7224
  570TMC3    C6 8508   4.336   2.294  16.165 -0.3352  0.2660  0.1690
  570TMC3     C 8509   4.134   1.949  16.278  0.2467  0.6285  0.3593
  570TMC3     O 8510   4.044   1.917  16.205  0.1837 -0.0717 -0.2704
  570TMC3     H 8511   4.186   2.023  16.031 -0.3304 -0.4500  0.9027
  570TMC3    H1 8512   4.193   2.161  16.436 -2.7538 -1.2765 -1.1044
  570TMC3    H2 8513   4.396   2.378  16.133 -1.0201  0.4032 -0.7307
  570TMC3    C7 8514   4.334   2.380  16.390  0.3658  0.4293  0.1445
  570TMC3    C8 8515   4.308   2.237  15.936 -0.4318  0.0130  0.2920
  570TMC3    O1 8516   4.329   2.344  16.509 -0.7488 -0.1782 -0.0930
  570TMC3    O2 8517   4.398   2.319  15.916 -0.5295  0.4180  0.1862
  571MPD2     C 8518   1.906   0.548   0.910 -0.4080  0.6463  0.0207
  571MPD2    C1 8519   1.938   0.457   1.006  0.1677 -0.0590 -0.5734
  571MPD2    C2 8520   2.064   0.413   1.016 -0.8788 -0.4790  0.1004
  571MPD2    C3 8521   2.164   0.457   0.931  0.2517 -0.2844  0.7476
  571MPD2    C4 8522   2.132   0.537   0.823 -0.1462  0.0594 -0.3664
  571MPD2    C5 8523   2.006   0.587   0.824  0.4704  0.5558  0.3926
  571MPD2     H 8524   2.091   0.344   1.096 -1.4034 -1.4429 -0.5515
  571MPD2    H1 8525   2.206   0.575   0.754  0.4649  1.4427  1.0740
  571MPD2    H2 8526   1.805   0.588   0.903 -0.3595  0.3405 -2.6215
  571MPD2    H3 8527   1.973   0.646   0.740 -0.3979 -1.0311 -0.3760
  571MPD2     N 8528   2.301   0.424   0.943  0.3143  0.2155 -0.5844
  571MPD2    H5 8529   2.356   0.454   0.864  0.1481 -1.9122 -1.5225
  571MPD2    N1 8530   1.835   0.402   1.090  0.6264  0.3585  0.5748
  571MPD2    H7 8531   1.740   0.433   1.072  0.2649 -2.0473 -1.6692
  572TMC3    C1 8532   2.500   0.314   1.009 -0.6379 -0.0688  0.4950
  572TMC3    C2 8533   2.550   0.201   1.070 -0.3240  0.3499 -0.0701
  572TMC3    C3 8534   2.665   0.138   1.017 -0.1677  0.2527  0.1364
  572TMC3    C4 8535   2.549   0.369   0.898  0.5048  0.8608 -0.5046
  572TMC3    C5 8536   2.657   0.297   0.848 -0.3789 -0.1151  0.2415
  572TMC3    C6 8537   2.707   0.182   0.900 -0.3413  0.2038 -0.1988
  572TMC3     C 8538   2.355   0.337   1.028 -0.5733 -0.3392 -0.1079
  572TMC3     O 8539   2.309   0.285   1.123 -0.4068 -0.0299  0.1502
  572TMC3     H 8540   2.514   0.197   1.172 -1.9920 -1.9834 -0.7593
  572TMC3    H1 8541   2.518   0.469   0.870  1.1959  1.7833  2.0822
  572TMC3    H2 8542   2.780   0.128   0.841  0.3367  1.9229 -0.9572
  572TMC3    C7 8543   2.725   0.353   0.724  0.1122 -0.2565 -0.0408
  572TMC3    C8 8544   2.657   4.723   1.028  0.4022 -0.7163  0.3507
  572TMC3    O1 8545   2.661   0.429   0.649 -0.2285 -0.6330  0.5687
  572TMC3    O2 8546   2.736   4.668   0.949 -0.1384 -0.3712 -0.0346
  573MPD2     C 8547   2.972   4.612   0.624  0.5511 -0.2282 -0.0767
  573MPD2    C1 8548   3.103   4.645   0.625  0.1212 -0.5641 -0.1359
  573MPD2    C2 8549   3.156   4.685   0.506 -0.4428 -0.5723  0.3114
  573MPD2    C3 8550   3.082   4.690   0.387 -0.3824  0.3347 -0.0890
  573MPD2    C4 8551   2.954   4.646   0.388  0.3011  0.3654  1.0422
  573MPD2    C5 8552   2.898   4.611   0.508 -0.3318 -0.0300 -0.3054
  573MPD2     H 8553   3.257   4.722   0.500 -0.7351  0.2002  0.2607
  573MPD2    H1 8554   2.888   4.642   0.302  0.9781  2.1874  0.4501
  573MPD2    H2 8555   2.919   4.576   0.711 -0.6904 -2.3071 -1.7132
  573MPD2    H3 8556   2.794   4.582   0.501 -0.0478 -0.2296 -3.7809
  573MPD2     N 8557   3.127   4.725   0.264 -0.1167 -0.4222  0.3050
  573MPD2    H5 8558   3.051   4.733   0.197  0.8761 -0.2596 -0.8100
  573MPD2    N1 8559   3.173   4.627   0.746 -0.6349 -0.1986 -0.8065
  573MPD2    H7 8560   3.115   4.612   0.828 -1.6055 -2.4364 -1.9070
  574TMC3    C1 8561   3.271   0.084   0.086 -0.6854  0.3823  0.5872
  574TMC3    C2 8562   3.166   0.078  17.737  0.1412 -0.2634  0.3277
  574TMC3    C3 8563   3.179   0.161  17.626 -0.4853  0.3434 -0.2214
  574TMC3    C4 8564   3.375   0.172   0.071  0.5666 -0.9525  0.0958
  574TMC3    C5 8565   3.392   0.240  17.691  0.0174  0.3421  0.7571
  574TMC3    C6 8566   3.288   0.240  17.597 -0.4746  0.0680  0.0546
  574TMC3     C 8567   3.254   0.028   0.225 -0.7945  0.0805  0.1594
  574TMC3     O 8568   3.350   0.039   0.302  0.0450  0.5842 -0.2720
  574TMC3     H 8569   3.083   0.011   0.014 -0.8663  0.2909 -2.9304
  574TMC3    H1 8570   3.440   0.183   0.157  1.4148  0.9561 -0.7941
  574TMC3    H2 8571   3.297   0.295  17.504  2.2862  1.7388  1.3238
  574TMC3    C7 8572   3.497   0.335  17.689 -0.6621 -0.8830 -0.8313
  574TMC3    C8 8573   3.062   0.158  17.534 -0.4175 -0.3721  0.1602
  574TMC3    O1 8574   3.550   0.357   0.061  0.4705 -0.7060  0.0215
  574TMC3    O2 8575   2.987   0.065  17.550 -0.0402 -0.0764  0.5710
  575TMC3    C1 8576   1.252   0.327  11.686 -0.1709  0.1149 -0.1669
  575TMC3    C2 8577   1.278   0.197  11.679  0.2809  0.7160 -0.5603
  575TMC3    C3 8578   1.321   0.143  11.558  0.0491  0.2004  0.2053
  575TMC3    C4 8579   1.253   0.403  11.579 -0.0959  1.3236 -0.2191
  575TMC3    C5 8580   1.308   0.355  11.460 -0.0922 -0.5501 -0.4382
  575TMC3    C6 8581   1.357   0.227  11.455 -0.1396 -0.3557  0.1149
  575TMC3     C 8582   1.195   0.383  11.806 -0.3871 -0.4477  0.0745
  575TMC3     O 8583   1.137   0.489  11.786 -0.0369 -0.1048  0.4192
  575TMC3     H 8584   1.253   0.120  11.751  0.8248  0.1839 -0.9373
  575TMC3    H1 8585   1.230   0.509  11.590  0.4154  1.2509  1.4890
  575TMC3    H2 8586   1.404   0.186  11.366  1.3987 -0.0910  0.8216
  575TMC3    C7 8587   1.288   0.436  11.334  0.1258 -0.4317  0.3035
  575TMC3    C8 8588   1.313   4.732  11.536 -0.3576  0.0391  0.9763
  575TMC3    O1 8589   1.309   0.379  11.232 -0.1023  0.1508 -0.0168
  575TMC3    O2 8590   1.283   4.661  11.628  0.5546  0.7258  0.0762
  576MPD2     C 8591   0.877   2.640  12.447  0.0664 -0.5329  0.1447
  576MPD2    C1 8592   0.867   2.723  12.334  0.0064  0.3223 -0.3534
  576MPD2    C2 8593   0.776   2.827  12.328  0.2214  0.3270 -0.3718
  576MPD2    C3 8594   0.710   2.869  12.442  0.3143  0.2185  0.8802
  576MPD2    C4 8595   0.738   2.794  12.558  0.1677  0.5364  0.0203
  576MPD2    C5 8596   0.820   2.681  12.560  1.2802  0.1839  0.3672
  576MPD2     H 8597   0.757   2.880  12.235 -0.2507  0.2454 -0.3243
  576MPD2    H1 8598   0.703   2.834  12.653  0.4887  0.8334  0.0099
  576MPD2    H2 8599   0.938   2.550  12.456  0.1535 -0.5811 -0.9359
  576MPD2    H3 8600   0.845   2.630  12.652  0.0450 -0.0143  0.5965
  576MPD2     N 8601   0.621   2.982  12.442 -0.0120  0.0287 -0.3042
  576MPD2    H5 8602   0.623   3.036  12.355  0.4972 -0.5903 -0.6776
  576MPD2    N1 8603   0.959   2.701  12.225  0.1177  0.0492  0.0352
  576MPD2    H7 8604   0.956   2.769  12.150 -1.0533 -1.2812 -1.1238
  577TMC3    C1 8605   1.133   2.607  12.103  0.1755  0.1445  0.6029
  577TMC3    C2 8606   1.180   2.491  12.042  0.4803 -0.0877 -0.2285
  577TMC3    C3 8607   1.258   2.500  11.927 -0.1526  0.8697  0.4906
  577TMC3    C4 8608   1.163   2.733  12.052 -0.0866  0.1124  0.6905
  577TMC3    C5 8609   1.218   2.732  11.922 -0.8934  0.0723 -0.2049
  577TMC3    C6 8610   1.266   2.617  11.856  0.4930  0.4163 -0.0988
  577TMC3     C 8611   1.038   2.588  12.208 -0.3837 -0.2945 -0.0281
  577TMC3     O 8612   1.056   2.493  12.280 -0.1991  0.2331  0.2862
  577TMC3     H 8613   1.158   2.399  12.095  1.7113  0.1077  0.6152
  577TMC3    H1 8614   1.134   2.829  12.091 -0.5936  0.5551 -0.7663
  577TMC3    H2 8615   1.291   2.631  11.752  0.3875  2.0064  0.0917
  577TMC3    C7 8616   1.196   2.848  11.837 -0.4039 -0.1735  0.4933
  577TMC3    C8 8617   1.315   2.383  11.861 -0.5206 -0.4572 -0.1409
  577TMC3    O1 8618   1.155   2.834  11.725  0.0292 -0.1521 -0.1143
  577TMC3    O2 8619   1.296   2.281  11.925 -0.3717 -0.2387  0.3895
  578MPD2     C 8620   0.138   2.898   1.318  0.0973 -0.2037  0.5254
  578MPD2    C1 8621   0.073   2.779   1.301  0.4311 -0.1554  0.1631
  578MPD2    C2 8622   0.123   2.663   1.351  0.1856 -0.1840 -0.0340
  578MPD2    C3 8623   0.251   2.655   1.397  0.8190  0.0449 -0.3596
  578MPD2    C4 8624   0.322   2.774   1.409 -0.1916 -0.0983  0.1312
  578MPD2    C5 8625   0.266   2.895   1.373  0.0641  0.0380  0.1684
  578MPD2     H 8626   0.071   2.568   1.348  1.8781 -1.0894 -0.9544
  578MPD2    H1 8627   0.426   2.780   1.442 -0.3728  0.1830  0.6600
  578MPD2    H2 8628   0.120   2.995   1.274 -0.3787 -0.1452  0.8451
  578MPD2    H3 8629   0.327   2.984   1.376  0.3737 -0.1375 -0.9674
  578MPD2     N 8630   0.308   2.529   1.416  0.1948  0.2028  0.4177
  578MPD2    H5 8631   0.249   2.446   1.407  0.0692  0.6354 -2.7196
  578MPD2    N1 8632   4.688   2.774   1.221  0.0854 -0.2342 -0.2389
  578MPD2    H7 8633   4.659   2.868   1.198  1.6521  0.4338  0.5122
  579TMC3    C1 8634   0.480   2.365   1.444  0.0267 -0.6267 -0.4711
  579TMC3    C2 8635   0.615   2.345   1.479  0.1081 -0.2121 -0.5300
  579TMC3    C3 8636   0.655   2.216   1.472 -0.1400  0.4214  0.5459
  579TMC3    C4 8637   0.392   2.260   1.422 -0.4254 -0.3432 -0.8268
  579TMC3    C5 8638   0.444   2.132   1.422  0.7661  0.9946  0.5282
  579TMC3    C6 8639   0.573   2.110   1.452 -0.5966  0.1051 -1.0251
  579TMC3     C 8640   0.441   2.506   1.443 -0.0531  0.2528  0.2346
  579TMC3     O 8641   0.536   2.589   1.447 -0.4734  0.1619  0.1961
  579TMC3     H 8642   0.687   2.423   1.498  0.0232  0.1116 -1.5259
  579TMC3    H1 8643   0.292   2.280   1.386 -0.8537 -0.0992  0.4760
  579TMC3    H2 8644   0.613   2.010   1.465  1.1409  0.9504  0.1545
  579TMC3    C7 8645   0.373   2.024   1.346 -0.1489 -0.1497 -0.1936
  579TMC3    C8 8646   0.800   2.198   1.484  0.5821 -0.5638  0.2964
  579TMC3    O1 8647   0.446   1.922   1.335  0.0558 -0.4370 -0.0551
  579TMC3    O2 8648   0.874   2.290   1.524 -0.3391 -0.5970 -0.4079
  580TMC3    C1 8649   3.202   1.229  11.902  0.9836 -0.6647 -0.7328
  580TMC3    C2 8650   3.216   1.229  11.763 -0.3322  0.6490 -0.1016
  580TMC3    C3 8651   3.324   1.161  11.711  0.2237 -0.2118  0.4186
  580TMC3    C4 8652   3.289   1.157  11.982  0.1505  0.2673 -0.3694
  580TMC3    C5 8653   3.397   1.087  11.926  0.1922 -0.3825  0.0216
  580TMC3    C6 8654   3.413   1.105  11.793  0.3242 -0.3846 -0.3819
  580TMC3     C 8655   3.171   1.358  11.952  0.1174  0.3575 -0.7212
  580TMC3     O 8656   3.155   1.363  12.075  0.0958 -0.0514  0.4062
  580TMC3     H 8657   3.128   1.255  11.707 -1.7021 -1.8854  0.8748
  580TMC3    H1 8658   3.295   1.187  12.086 -0.0993 -3.1710  0.6195
  580TMC3    H2 8659   3.501   1.053  11.756 -0.3361 -1.4204 -0.4592
  580TMC3    C7 8660   3.506   1.053  12.023  0.4730  0.7062 -0.2820
  580TMC3    C8 8661   3.366   1.198  11.575 -0.4789 -0.3117 -0.4063
  580TMC3    O1 8662   3.509   1.134  12.116  0.2550  0.3617  0.2632
  580TMC3    O2 8663   3.270   1.232  11.505 -0.9091 -0.3817  0.2297
  581MPD2     C 8664   1.633   0.730  14.883  0.6207 -0.5854 -0.3872
  581MPD2    C1 8665   1.504   0.753  14.928 -0.4749  0.4171 -0.9353
  581MPD2    C2 8666   1.426   0.836  14.859 -0.0102 -0.1109 -0.2456
  581MPD2    C3 8667   1.473   0.906  14.750 -0.1614 -0.1696  0.5985
  581MPD2    C4 8668   1.603   0.878  14.700  0.2977 -0.9218  0.3017
  581MPD2    C5 8669   1.679   0.793  14.773  0.0700 -0.3064  0.1047
  581MPD2     H 8670   1.326   0.862  14.895 -0.0805  0.8271 -1.1204
  581MPD2    H1 8671   1.638   0.921  14.607  0.4924 -2.8783 -0.5197
  581MPD2    H2 8672   1.702   0.666  14.936  2.7220  1.6035 -0.4740
  581MPD2    H3 8673   1.771   0.770  14.720 -0.2641 -1.4167  0.0097
  581MPD2     N 8674   1.404   1.007  14.685  0.1535  0.0115 -0.3491
  581MPD2    H5 8675   1.307   1.023  14.712  0.2709  0.0701  0.0423
  581MPD2    N1 8676   1.468   0.714  15.060 -0.5595  0.2547  0.1049
  581MPD2    H7 8677   1.378   0.750  15.088 -0.4150 -0.0955  1.0211
  582TMC3    C1 8678   1.460   0.646  15.283 -0.0473  1.2304  0.0030
  582TMC3    C2 8679   1.541   0.674  15.391  0.3943 -0.4979 -0.1220
  582TMC3    C3 8680   1.518   0.785  15.466  0.8488 -0.5382 -0.3464
  582TMC3    C4 8681   1.343   0.720  15.272 -0.1496 -0.4898  0.1620
  582TMC3    C5 8682   1.347   0.845  15.327 -0.8122  0.6729  0.2216
  582TMC3    C6 8683   1.430   0.882  15.427  0.4586 -0.0458  0.4618
  582TMC3     C 8684   1.532   0.646  15.156 -0.6302  0.4086  0.6021
  582TMC3     O 8685   1.650   0.615  15.166 -0.4324  0.2075 -0.8846
  582TMC3     H 8686   1.632   0.619  15.408  0.6790 -0.1200 -0.4410
  582TMC3    H1 8687   1.265   0.693  15.203 -1.4739  0.1568  1.4047
  582TMC3    H2 8688   1.429   0.973  15.485 -2.0848 -0.8121  1.5969
  582TMC3    C7 8689   1.288   0.944  15.242  0.8968 -0.0027 -0.6898
  582TMC3    C8 8690   1.607   0.823  15.575  0.0786 -0.2816 -0.6522
  582TMC3    O1 8691   1.217   0.911  15.149 -0.2641 -0.6328 -0.1142
  582TMC3    O2 8692   1.651   0.938  15.573  0.2416 -0.5616  0.1400
  583MPD2     C 8693   1.928   2.861  16.907 -0.3570 -1.0660  0.2575
  583MPD2    C1 8694   1.877   2.986  16.890 -1.1135  0.2183  0.3569
  583MPD2    C2 8695   1.809   3.056  16.989  0.5413  0.0226 -0.7628
  583MPD2    C3 8696   1.802   3.003  17.109  0.0128 -0.4061 -0.1126
  583MPD2    C4 8697   1.857   2.883  17.136  0.1753 -0.4432  0.9809
  583MPD2    C5 8698   1.918   2.813  17.031 -0.0913 -0.8977 -0.1063
  583MPD2     H 8699   1.768   3.151  16.955 -0.9535  0.7809  3.1428
  583MPD2    H1 8700   1.841   2.833  17.231 -0.8862  2.9683  2.6051
  583MPD2    H2 8701   1.956   2.790  16.829 -0.4928 -0.6139 -0.2055
  583MPD2    H3 8702   1.957   2.713  17.050 -0.8320 -1.1069  0.3242
  583MPD2     N 8703   1.732   3.079  17.203  0.1183  0.2333  0.1721
  583MPD2    H5 8704   1.696   3.166  17.165 -0.6279  0.0797  0.5319
  583MPD2    N1 8705   1.860   3.040  16.759 -0.2345 -0.5874  0.0679
  583MPD2    H7 8706   1.806   3.124  16.744  0.7654 -0.1154 -0.9254
  584TMC3    C1 8707   1.643   3.174  17.400 -0.4088 -0.1788  0.6083
  584TMC3    C2 8708   1.620   3.291  17.337 -0.7065  0.5227 -0.2692
  584TMC3    C3 8709   1.589   3.401  17.411  0.4646 -0.1052 -0.1139
  584TMC3    C4 8710   1.630   3.164  17.535  0.5091 -0.6661 -0.3412
  584TMC3    C5 8711   1.593   3.273  17.608  0.0758 -0.2369  0.2424
  584TMC3    C6 8712   1.577   3.400  17.545 -0.1537 -0.5656 -0.2227
  584TMC3     C 8713   1.732   3.068  17.345 -0.1745 -0.2873  0.4839
  584TMC3     O 8714   1.797   3.006  17.426  0.2842 -0.2953  0.1103
  584TMC3     H 8715   1.635   3.304  17.230  1.3569  1.4598  0.1232
  584TMC3    H1 8716   1.651   3.074  17.591 -1.3000 -0.1961  1.1241
  584TMC3    H2 8717   1.572   3.497  17.594 -0.3501  1.0249 -3.3973
  584TMC3    C7 8718   1.555   3.253   0.016  0.2036 -0.4672  0.9584
  584TMC3    C8 8719   1.621   3.529  17.339 -0.0722  0.7107  0.8785
  584TMC3    O1 8720   1.604   3.161   0.082  0.1753  0.8754 -0.0124
  584TMC3    O2 8721   1.593   3.549  17.222  0.1844  0.3413 -0.2777
  585MPD2     C 8722   0.613   2.024   0.228 -0.5011 -0.4799  0.0464
  585MPD2    C1 8723   0.706   2.077   0.144  0.1009  0.4203  0.3431
  585MPD2    C2 8724   0.767   2.004   0.047  0.1120 -0.5592 -0.2744
  585MPD2    C3 8725   0.717   1.878   0.015  0.0473 -1.0312 -0.4161
  585MPD2    C4 8726   0.612   1.829   0.084 -0.2783 -0.0375  0.5852
  585MPD2    C5 8727   0.563   1.900   0.192 -0.3621  0.1676  0.1382
  585MPD2     H 8728   0.848   2.038  17.721  1.9520 -2.9395  0.8046
  585MPD2    H1 8729   0.573   1.730   0.061  1.0000 -0.4090  0.0434
  585MPD2    H2 8730   0.565   2.087   0.303  0.4120 -0.9635  1.0404
  585MPD2    H3 8731   0.492   1.852   0.259  0.0167 -0.1824  0.2856
  585MPD2     N 8732   0.760   1.803  17.637 -0.1522 -0.0375 -0.7913
  585MPD2    H5 8733   0.712   1.717  17.613 -1.5648 -1.0049  5.2931
  585MPD2    N1 8734   0.747   2.210   0.172  0.3336 -0.2176  0.2428
  585MPD2    H7 8735   0.681   2.259   0.231 -0.9916 -1.9489  0.1869
  586TMC3    C1 8736   0.911   1.737  17.462 -0.2794 -0.1772 -0.0212
  586TMC3    C2 8737   1.042   1.726  17.420  0.0948 -0.6433 -0.1645
  586TMC3    C3 8738   1.061   1.656  17.306  0.6440 -0.0611  1.0509
  586TMC3    C4 8739   0.810   1.666  17.401  0.4614 -0.0096  0.2287
  586TMC3    C5 8740   0.837   1.606  17.287 -0.6130  0.9712  0.1261
  586TMC3    C6 8741   0.959   1.599  17.231 -0.2774 -0.8402  0.3354
  586TMC3     C 8742   0.882   1.826  17.571  0.6601  0.0920  0.6914
  586TMC3     O 8743   0.971   1.905  17.606  0.2439  0.1201 -0.3976
  586TMC3     H 8744   1.122   1.755  17.487 -0.2414 -1.7558  0.7161
  586TMC3    H1 8745   0.710   1.651  17.441  0.6971  1.8321  1.5555
  586TMC3    H2 8746   0.982   1.537  17.146 -0.2825 -0.6944  0.2279
  586TMC3    C7 8747   0.728   1.525  17.234 -0.1589 -0.7009 -0.0106
  586TMC3    C8 8748   1.194   1.644  17.254 -0.9709 -0.5297  0.0894
  586TMC3    O1 8749   0.760   1.419  17.181  0.4510 -0.9252  0.2503
  586TMC3    O2 8750   1.289   1.610  17.326 -0.2903 -0.4665  0.2777
  587TMC3    C1 8751   2.986   0.861  16.219 -0.3792  0.6113  0.1183
  587TMC3    C2 8752   3.103   0.937  16.221 -0.3485 -0.5827  0.4555
  587TMC3    C3 8753   3.228   0.883  16.225  0.6200 -0.5059  0.5976
  587TMC3    C4 8754   3.003   0.727  16.205 -0.4577  0.2013  0.2501
  587TMC3    C5 8755   3.132   0.673  16.216 -0.5303  0.0391  0.1271
  587TMC3    C6 8756   3.250   0.745  16.224 -0.0937 -0.0909  0.2019
  587TMC3     C 8757   2.863   0.933  16.205  0.3333  0.3969 -0.3352
  587TMC3     O 8758   2.870   1.054  16.182  0.2023 -0.1096  0.1162
  587TMC3     H 8759   3.090   1.044  16.208 -0.3084 -0.7087 -0.6409
  587TMC3    H1 8760   2.918   0.663  16.185 -0.4648  0.0839  0.6641
  587TMC3    H2 8761   3.347   0.700  16.243 -0.0221  0.6027  1.4609
  587TMC3    C7 8762   3.126   0.535  16.248 -0.1317 -0.6191 -0.1179
  587TMC3    C8 8763   3.324   0.958  16.310 -0.1612 -0.2002 -0.8072
  587TMC3    O1 8764   3.031   0.500  16.315  0.1879 -0.3523  0.1177
  587TMC3    O2 8765   3.438   0.914  16.313  0.3803  0.3300 -0.3260
  588TMC3    C1 8766   0.343   3.219   9.763  0.4999  0.9864  0.9929
  588TMC3    C2 8767   0.280   3.094   9.779 -0.2578  0.8293 -0.2900
  588TMC3    C3 8768   0.344   2.997   9.846 -0.1258 -0.2096 -0.2796
  588TMC3    C4 8769   0.459   3.251   9.824 -0.5806  0.1322  0.4194
  588TMC3    C5 8770   0.528   3.152   9.891  0.0300  0.2341  0.0029
  588TMC3    C6 8771   0.469   3.029   9.901  0.0675  0.2766 -0.2136
  588TMC3     C 8772   0.270   3.314   9.688  0.6246 -0.0544  0.0273
  588TMC3     O 8773   0.152   3.300   9.661  0.5792 -0.3462  0.3841
  588TMC3     H 8774   0.187   3.069   9.729  0.0562 -0.2279 -0.3439
  588TMC3    H1 8775   0.491   3.352   9.849 -3.3405  0.6229  2.0482
  588TMC3    H2 8776   0.512   2.962   9.976 -1.9746  1.9611  2.4625
  588TMC3    C7 8777   0.651   3.180   9.968 -0.2046  0.4246  0.4512
  588TMC3    C8 8778   0.269   2.880   9.870  0.5024  0.0979 -0.7073
  588TMC3    O1 8779   0.682   3.117  10.068 -0.2337  0.0346  0.2951
  588TMC3    O2 8780   0.193   2.839   9.782 -0.7215  0.3533 -0.2708
  589TMC3    C1 8781   4.598   0.451   0.870  0.9661  0.3208  0.0471
  589TMC3    C2 8782   4.678   0.378   0.960  0.6357 -0.3437 -1.3369
  589TMC3    C3 8783   0.029   0.279   0.916  0.0181  0.2061  0.3126
  589TMC3    C4 8784   4.611   0.433   0.736  0.1871  0.2291 -0.4460
  589TMC3    C5 8785   4.700   0.336   0.699  0.0586  0.4751 -0.4814
  589TMC3    C6 8786   0.047   0.259   0.784 -0.6090  0.5299 -0.2017
  589TMC3     C 8787   4.564   0.589   0.904  0.6068 -0.4973  0.0065
  589TMC3     O 8788   4.472   0.636   0.839 -0.2990 -0.4909 -0.3921
  589TMC3     H 8789   4.672   0.400   1.066  1.6790 -1.3258 -1.0657
  589TMC3    H1 8790   4.566   0.494   0.659 -2.6081 -3.3665 -1.6980
  589TMC3    H2 8791   0.120   0.187   0.750  2.1676  3.4981 -0.5336
  589TMC3    C7 8792   4.730   0.319   0.556  0.3061 -0.3812 -0.9537
  589TMC3    C8 8793   0.103   0.206   1.013 -0.3882  0.1400 -0.2860
  589TMC3    O1 8794   0.070   0.232   0.526  0.2387 -0.0248 -0.3713
  589TMC3    O2 8795   0.060   0.211   1.126  0.1292 -0.1806 -0.4052
  590MPD2     C 8796   4.560   4.457  16.726 -0.3396 -0.1039  0.4278
  590MPD2    C1 8797   4.499   4.377  16.630 -0.6533  0.1847 -0.2055
  590MPD2    C2 8798   4.561   4.355  16.510  0.9431  0.1127  0.6099
  590MPD2    C3 8799   4.681   4.416  16.482 -0.3604  0.0390  0.3871
  590MPD2    C4 8800   0.015   4.487  16.577 -0.1167  0.3312 -0.0235
  590MPD2    C5 8801   4.685   4.516  16.698  0.2414  0.7478 -0.0662
  590MPD2     H 8802   4.515   4.298  16.430 -0.1039  1.5312  0.2065
  590MPD2    H1 8803   0.110   4.535  16.555  0.2637 -1.3428 -2.0020
  590MPD2    H2 8804   4.513   4.469  16.823 -0.5137  0.8169  0.2296
  590MPD2    H3 8805   0.003   4.579  16.769  0.5316 -0.3260  0.6852
  590MPD2     N 8806   4.726   4.395  16.343 -0.3933 -0.1907 -0.4729
  590MPD2    H5 8807   4.656   4.356  16.281 -0.1811  0.3224 -1.0294
  590MPD2    N1 8808   4.368   4.315  16.658 -0.3510 -0.5091 -0.6565
  590MPD2    H7 8809   4.316   4.361  16.731  0.6889  0.2250 -0.3749
  591TMC3    C1 8810   0.115   4.439  16.145  0.2246  0.2680  0.3883
  591TMC3    C2 8811   0.062   4.328  16.087  0.3286  0.4357 -1.0649
  591TMC3    C3 8812   0.070   4.313  15.954 -0.0054 -0.2634  0.2260
  591TMC3    C4 8813   0.187   4.529  16.073  0.0293 -0.7953  0.5147
  591TMC3    C5 8814   0.185   4.514  15.937  0.1107 -0.8306  0.1579
  591TMC3    C6 8815   0.129   4.402  15.875  0.0320 -0.1678 -0.1966
  591TMC3     C 8816   0.096   4.473  16.287  0.6549  0.2666  1.0358
  591TMC3     O 8817   0.170   4.560  16.329  0.0387 -0.1750 -0.4309
  591TMC3     H 8818   4.729   4.255  16.130  1.5743 -1.7158 -2.7881
  591TMC3    H1 8819   0.251   4.607  16.112 -0.1590 -1.0227  1.2689
  591TMC3    H2 8820   0.136   4.391  15.767 -1.4415  1.4374 -0.4598
  591TMC3    C7 8821   0.282   4.584  15.869 -0.3311 -0.4388  0.0515
  591TMC3    C8 8822   0.095   4.172  15.923  0.2399  0.0395 -0.0080
  591TMC3    O1 8823   0.395   4.597  15.923 -0.2815  0.2054 -0.0954
  591TMC3    O2 8824   0.077   4.088  16.015  0.2745 -0.1470  0.2091
  592MPD2     C 8825   4.719   0.772  11.680  0.6081  0.2478 -0.5392
  592MPD2    C1 8826   0.029   0.793  11.808  0.2760 -0.0429 -0.2907
  592MPD2    C2 8827   0.023   0.700  11.906 -0.1361 -0.2414  0.1241
  592MPD2    C3 8828   4.708   0.573  11.867 -0.3267 -0.5307  0.3679
  592MPD2    C4 8829   4.685   0.549  11.734  0.0640 -0.0068 -0.2712
  592MPD2    C5 8830   4.686   0.644  11.641 -0.0932 -0.0677  0.6323
  592MPD2     H 8831   0.057   0.728  12.006  0.3646 -1.4202  0.2841
  592MPD2    H1 8832   4.644   0.452  11.706  1.8077 -0.6087 -0.7360
  592MPD2    H2 8833   4.709   0.851  11.606 -0.8264 -0.3977 -1.0464
  592MPD2    H3 8834   4.648   0.625  11.541 -0.4374  0.5092  0.6521
  592MPD2     N 8835   4.689   0.480  11.970  0.0501 -0.3578  0.8978
  592MPD2    H5 8836   4.722   0.517  12.059 -1.2825 -2.0577  2.1036
  592MPD2    N1 8837   0.065   0.927  11.826 -0.2041  0.6781 -0.5809
  592MPD2    H7 8838   0.061   0.987  11.745 -1.6408 -1.0714 -1.8191
  593TMC3    C1 8839   0.154   1.130  11.914  0.1723 -0.0200  0.9052
  593TMC3    C2 8840   0.202   1.192  12.026  0.5806 -0.6929 -0.1309
  593TMC3    C3 8841   0.243   1.318  12.029  0.4003 -0.7909 -0.5241
  593TMC3    C4 8842   0.144   1.202  11.800  0.3832  1.2696  0.4566
  593TMC3    C5 8843   0.156   1.338  11.809  0.0005 -0.5586  0.0285
  593TMC3    C6 8844   0.214   1.399  11.922  0.3415  0.1876 -0.3748
  593TMC3     C 8845   0.109   0.990  11.937  0.3486 -0.2140  0.2996
  593TMC3     O 8846   0.117   0.936  12.047  0.1193 -0.3985 -0.2622
  593TMC3     H 8847   0.215   1.130  12.114  0.2430 -0.5952 -0.0109
  593TMC3    H1 8848   0.107   1.150  11.712  0.6633  0.0281  1.0619
  593TMC3    H2 8849   0.227   1.507  11.921 -1.6865  0.4300  0.8890
  593TMC3    C7 8850   0.134   1.424  11.692  0.1676  0.7791 -0.5168
  593TMC3    C8 8851   0.237   1.385  12.154 -0.4603  0.0211  0.2503
  593TMC3    O1 8852   0.188   1.533  11.694  0.2778  0.7073 -0.3651
  593TMC3    O2 8853   0.195   1.317  12.247  0.0467  0.3807  0.6156
  594MPD2     C 8854   2.764   0.257  14.304 -0.2137  0.9276 -0.4464
  594MPD2    C1 8855   2.814   0.171  14.399 -0.5753  0.0151 -0.0641
  594MPD2    C2 8856   2.949   0.177  14.425  0.2087 -0.0756  0.4369
  594MPD2    C3 8857   3.033   0.264  14.360 -0.2450 -0.4032  0.1732
  594MPD2    C4 8858   2.982   0.362  14.284  0.5022 -1.0108 -0.1455
  594MPD2    C5 8859   2.848   0.359  14.257 -0.5033 -0.2383 -1.0781
  594MPD2     H 8860   2.991   0.104  14.492  2.2443  0.2072 -0.5248
  594MPD2    H1 8861   3.040   0.449  14.255 -3.0359  0.8902 -1.5490
  594MPD2    H2 8862   2.657   0.261  14.288 -0.8434  1.1687  3.7694
  594MPD2    H3 8863   2.808   0.437  14.193 -1.8225  0.7848  1.0112
  594MPD2     N 8864   3.174   0.262  14.392  0.1376  0.3794  0.1834
  594MPD2    H5 8865   3.205   0.186  14.452 -1.4774 -1.3063 -1.1121
  594MPD2    N1 8866   2.729   0.069  14.437  0.4818  0.1066  0.2036
  594MPD2    H7 8867   2.635   0.072  14.397  1.1124  0.5118 -1.2457
  595TMC3    C1 8868   3.633   0.396  14.408  0.6663  0.3450  0.0656
  595TMC3    C2 8869   3.520   0.366  14.336  0.2767 -0.7458 -0.3261
  595TMC3    C3 8870   3.409   0.322  14.402 -0.0026  0.1022 -0.0271
  595TMC3    C4 8871   3.625   0.410  14.548  0.3026  0.1972  0.2278
  595TMC3    C5 8872   3.509   0.367  14.614 -0.3104 -0.2492 -0.4194
  595TMC3    C6 8873   3.406   0.310  14.540 -0.2707 -0.1665  0.0181
  595TMC3     C 8874   3.765   0.366  14.351  0.2826  0.2983 -0.3586
  595TMC3     O 8875   3.860   0.356  14.423 -0.1583 -0.2185 -0.0944
  595TMC3     H 8876   3.517   0.359  14.228 -0.4401 -0.9098 -0.2950
  595TMC3    H1 8877   3.711   0.439  14.607 -0.9558  0.0357  2.1309
  595TMC3    H2 8878   3.316   0.276  14.591  1.1853 -2.8274  0.8557
  595TMC3    C7 8879   3.449   0.451  14.714  1.1413  0.3416 -0.3186
  595TMC3    C8 8880   3.278   0.334  14.328 -0.7197 -0.6125 -0.5459
  595TMC3    O1 8881   3.330   0.429  14.741 -0.1894 -0.1168 -0.5594
  595TMC3    O2 8882   3.273   0.409  14.230 -0.1723 -0.0324  0.2294
  596MPD2     C 8883   2.776   2.895  16.560 -0.0736  0.3106  0.3540
  596MPD2    C1 8884   2.719   3.013  16.530  0.2162 -0.3619 -0.5303
  596MPD2    C2 8885   2.680   3.045  16.405  0.2595  0.4298  0.6054
  596MPD2    C3 8886   2.687   2.954  16.302  0.6657  1.6144  0.0542
  596MPD2    C4 8887   2.735   2.829  16.338  0.3495 -0.0749  0.2933
  596MPD2    C5 8888   2.782   2.803  16.459 -0.1770 -0.0629 -0.6938
  596MPD2     H 8889   2.643   3.146  16.395 -1.4481 -0.1601  1.0768
  596MPD2    H1 8890   2.745   2.757  16.257  0.7716  1.1045 -0.7165
  596MPD2    H2 8891   2.809   2.872  16.660  1.8563  2.2728  0.1729
  596MPD2    H3 8892   2.822   2.703  16.474 -0.7731 -0.3192 -0.8005
  596MPD2     N 8893   2.649   2.976  16.167 -0.2703  0.0418 -0.4472
  596MPD2    H5 8894   2.666   2.903  16.100 -2.2162 -0.0129 -0.8618
  596MPD2    N1 8895   2.694   3.109  16.631  0.1794 -0.1427 -0.0600
  596MPD2    H7 8896   2.652   3.194  16.597 -1.6430 -0.0588  2.3959
  597TMC3    C1 8897   2.649   3.209  16.843  0.1069 -0.1521 -0.2666
  597TMC3    C2 8898   2.703   3.325  16.797  0.4706  0.5035  0.2193
  597TMC3    C3 8899   2.663   3.434  16.862 -0.0868  0.5213  0.1508
  597TMC3    C4 8900   2.594   3.192  16.970  0.2769 -0.4858 -0.0811
  597TMC3    C5 8901   2.562   3.310  17.029 -0.4166  0.1144  0.0827
  597TMC3    C6 8902   2.591   3.435  16.970 -0.1457  0.1981 -0.2707
  597TMC3     C 8903   2.676   3.088  16.769 -0.4589 -0.7887  0.4632
  597TMC3     O 8904   2.698   2.988  16.837  0.1478 -0.2436  0.2506
  597TMC3     H 8905   2.747   3.325  16.698  0.2665  0.9377  0.1284
  597TMC3    H1 8906   2.562   3.097  17.011  1.2279 -0.8305 -0.1375
  597TMC3    H2 8907   2.548   3.530  17.000  0.8530  0.8428 -0.8989
  597TMC3    C7 8908   2.479   3.303  17.143 -0.1474 -0.4331 -0.3338
  597TMC3    C8 8909   2.677   3.566  16.797  0.0098  0.5929  0.0240
  597TMC3    O1 8910   2.414   3.200  17.145 -0.0760  0.4598  0.1219
  597TMC3    O2 8911   2.593   3.653  16.821 -0.4066 -1.1385  0.1426
  598TMC3    C1 8912   1.017   4.088  15.481 -1.0870  0.8471 -0.0197
  598TMC3    C2 8913   0.941   3.974  15.503  0.0669  0.0333  0.4301
  598TMC3    C3 8914   0.819   3.971  15.443 -0.2755  0.9075  0.6396
  598TMC3    C4 8915   0.976   4.201  15.413  0.0545 -0.4291 -0.5864
  598TMC3    C5 8916   0.847   4.199  15.367 -0.3210  0.6196  0.4208
  598TMC3    C6 8917   0.771   4.081  15.377 -0.2833 -0.1182 -0.1759
  598TMC3     C 8918   1.140   4.093  15.552 -0.0288 -0.4391 -0.4396
  598TMC3     O 8919   1.241   4.109  15.485 -0.1209  0.4831  0.0007
  598TMC3     H 8920   0.978   3.891  15.562 -4.3071 -2.3755 -0.1750
  598TMC3    H1 8921   1.044   4.283  15.396  1.7358 -1.7338 -0.1668
  598TMC3    H2 8922   0.669   4.075  15.342 -0.0531 -1.5099 -0.6408
  598TMC3    C7 8923   0.818   4.291  15.252  0.3109  0.4090  0.1609
  598TMC3    C8 8924   0.733   3.860  15.457  0.4958  0.2692  0.2560
  598TMC3    O1 8925   0.744   4.253  15.160 -0.2289  0.0273  0.4772
  598TMC3    O2 8926   0.740   3.806  15.567 -0.3609  0.5034 -0.2444
  599MPD2     C 8927   0.888   1.842  15.766 -0.8155 -0.0773 -0.5914
  599MPD2    C1 8928   0.833   1.726  15.789  0.3849  0.2179 -0.4469
  599MPD2    C2 8929   0.707   1.726  15.835  0.5076 -0.7997  1.0581
  599MPD2    C3 8930   0.636   1.833  15.865  0.6395  0.3862 -0.8479
  599MPD2    C4 8931   0.695   1.950  15.854 -0.3505 -0.5292 -0.1891
  599MPD2    C5 8932   0.821   1.955  15.800 -0.3691 -0.9838 -0.3153
  599MPD2     H 8933   0.666   1.626  15.849  3.7923 -2.1571  0.9829
  599MPD2    H1 8934   0.653   2.042  15.892 -0.0399 -0.4342 -0.0709
  599MPD2    H2 8935   0.987   1.851  15.724 -1.3496 -0.0598 -1.8419
  599MPD2    H3 8936   0.873   2.049  15.789  1.2483 -1.9355 -0.9271
  599MPD2     N 8937   0.509   1.832  15.919  0.3845  0.3927 -0.0042
  599MPD2    H5 8938   0.471   1.925  15.937 -1.7191 -0.3683 -0.5206
  599MPD2    N1 8939   0.919   1.618  15.772 -0.1410 -0.3631  0.6488
  599MPD2    H7 8940   1.015   1.643  15.751 -0.5832  0.6726 -0.1524
  600TMC3    C1 8941   0.312   1.757  16.022 -0.2872  0.2859  0.1568
  600TMC3    C2 8942   0.210   1.669  16.019 -0.3796 -0.3562  0.1196
  600TMC3    C3 8943   0.116   1.670  16.122 -0.2141  0.2247  0.4435
  600TMC3    C4 8944   0.331   1.840  16.129  0.0848  0.5758  0.0058
  600TMC3    C5 8945   0.233   1.845  16.224  0.0631  0.4227 -0.6571
  600TMC3    C6 8946   0.127   1.763  16.220 -0.4794  0.5067 -0.3843
  600TMC3     C 8947   0.430   1.721  15.946  0.1870 -0.2752  0.4747
  600TMC3     O 8948   0.437   1.600  15.918 -0.2577  0.1621 -0.2276
  600TMC3     H 8949   0.191   1.601  15.937  2.2027 -0.8046 -0.1049
  600TMC3    H1 8950   0.430   1.883  16.142 -0.6466  1.7971  1.4873
  600TMC3    H2 8951   0.053   1.764  16.300  0.0563 -0.0468  0.1179
  600TMC3    C7 8952   0.242   1.950  16.325  0.8560  0.5200 -0.2510
  600TMC3    C8 8953   0.015   1.565  16.123  0.1669  0.8277  0.5437
  600TMC3    O1 8954   0.148   1.956  16.408 -0.5774  0.2207 -0.1849
  600TMC3    O2 8955   0.041   1.470  16.050 -0.6483  0.1682  0.0962
  601MPD2     C 8956   3.139   0.307   0.429  0.7930 -0.9483  0.1506
  601MPD2    C1 8957   3.012   0.351   0.392 -0.9299 -0.6881 -0.2963
  601MPD2    C2 8958   2.919   0.357   0.492  0.3226  0.2561  0.8425
  601MPD2    C3 8959   2.952   0.316   0.623 -0.2704  0.5460  0.2845
  601MPD2    C4 8960   3.078   0.275   0.649 -0.1922 -0.1423 -0.5488
  601MPD2    C5 8961   3.172   0.279   0.556  0.2827 -0.1197 -0.1662
  601MPD2     H 8962   2.817   0.377   0.462 -0.0082 -0.7392  1.2986
  601MPD2    H1 8963   3.108   0.230   0.743 -0.8836 -0.2612 -0.3875
  601MPD2    H2 8964   3.214   0.284   0.354 -0.0183 -0.3495 -0.8444
  601MPD2    H3 8965   3.271   0.237   0.574  0.7255  0.0630 -2.2062
  601MPD2     N 8966   2.857   0.313   0.729 -0.2708  0.4794 -0.4733
  601MPD2    H5 8967   2.898   0.289   0.819 -0.0715 -0.7942 -0.8992
  601MPD2    N1 8968   2.968   0.362   0.255 -0.3242 -0.8352  0.2331
  601MPD2    H7 8969   2.868   0.358   0.237 -0.7653  1.1987  2.2781
  602TMC3    C1 8970   2.965   0.409   0.023 -0.2189 -0.3735 -0.0591
  602TMC3    C2 8971   2.998   0.521  17.681 -0.1502  0.1726  0.4274
  602TMC3    C3 8972   2.902   0.541  17.584  0.2073  0.5186  0.0899
  602TMC3    C4 8973   2.855   0.327   0.008  0.5519 -0.0861 -0.6573
  602TMC3    C5 8974   2.773   0.351  17.639 -0.1760  0.6952  1.3980
  602TMC3    C6 8975   2.797   0.458  17.558 -0.4930  0.2689  0.4761
  602TMC3     C 8976   3.044   0.396   0.146 -0.4093  0.0285  0.6509
  602TMC3     O 8977   3.162   0.422   0.142 -0.3538  0.1154  0.3073
  602TMC3     H 8978   3.082   0.589  17.681 -0.0902  0.0993  0.1063
  602TMC3    H1 8979   2.820   0.252   0.078 -1.1491  1.8325  0.5601
  602TMC3    H2 8980   2.750   0.463  17.460  1.4828 -0.1475 -0.4919
  602TMC3    C7 8981   2.646   0.293  17.634 -0.5264 -0.2224 -0.1893
  602TMC3    C8 8982   2.892   0.683  17.550  0.4402  0.2811  0.1821
  602TMC3    O1 8983   2.623   0.185  17.687  0.2727  0.4313 -0.1483
  602TMC3    O2 8984   2.984   0.763  17.569 -0.2811  0.6170 -0.1606
  603TMC3    C1 8985   1.120   4.588  10.880  0.5430  0.1201  0.3561
  603TMC3    C2 8986   1.127   4.605  11.014 -0.5806  0.2613 -0.7629
  603TMC3    C3 8987   1.051   4.702  11.072  0.2862  0.0217 -0.0519
  603TMC3    C4 8988   1.064   4.680  10.797  0.0995  0.0248 -0.4810
  603TMC3    C5 8989   0.986   0.038  10.857  0.0768 -0.8869  0.3703
  603TMC3    C6 8990   0.980   0.055  10.992  0.6505  0.0949 -0.7057
  603TMC3     C 8991   1.241   4.533  10.820 -0.4634 -0.6623 -0.4123
  603TMC3     O 8992   1.342   4.551  10.882 -0.2080  0.4586 -0.6497
  603TMC3     H 8993   1.169   4.521  11.068 -2.3565  1.3302  2.2289
  603TMC3    H1 8994   1.072   4.676  10.688 -0.6177 -1.2161 -0.4855
  603TMC3    H2 8995   0.896   0.109  11.035  1.1736 -0.8084  1.4444
  603TMC3    C7 8996   0.934   0.137  10.765 -0.1914  0.0094  0.0178
  603TMC3    C8 8997   1.040   4.715  11.213 -0.3494 -0.5023  0.5261
  603TMC3    O1 8998   0.912   0.110  10.650 -0.2350  0.6902 -0.0502
  603TMC3    O2 8999   1.069   4.616  11.282 -0.0010  0.1398  0.3261
  604MPD2     C 9000   1.881   4.091  16.197 -0.2248 -0.2030 -0.0461
  604MPD2    C1 9001   1.757   4.031  16.218 -0.1943  0.7143  0.6900
  604MPD2    C2 9002   1.710   3.950  16.117  0.3011 -1.0646  0.3628
  604MPD2    C3 9003   1.790   3.920  16.003 -0.2977 -0.0159  0.9680
  604MPD2    C4 9004   1.918   3.976  15.988 -0.8462  0.1084 -0.4809
  604MPD2    C5 9005   1.949   4.074  16.082 -0.0531  0.4872  0.3980
  604MPD2     H 9006   1.611   3.906  16.126  0.1543  0.3092  5.1314
  604MPD2    H1 9007   1.980   3.961  15.900  1.8498  0.9153  1.2842
  604MPD2    H2 9008   1.919   4.167  16.265  1.1143 -0.2085 -0.7904
  604MPD2    H3 9009   2.048   4.113  16.061  0.3064 -0.7981 -0.2979
  604MPD2     N 9010   1.738   3.833  15.904  0.7685 -0.2946 -0.0979
  604MPD2    H5 9011   1.647   3.796  15.927  0.4066 -1.2196 -2.9222
  604MPD2    N1 9012   1.694   4.062  16.343 -0.0228 -0.0916  0.3730
  604MPD2    H7 9013   1.737   4.126  16.408 -2.3610  0.8740  0.9945
  605TMC3    C1 9014   1.533   4.076  16.496  0.0501 -0.7340 -0.0320
  605TMC3    C2 9015   1.623   4.073  16.594  0.0559  0.4572 -0.3881
  605TMC3    C3 9016   1.594   4.146  16.706  0.0554  0.6662 -0.2220
  605TMC3    C4 9017   1.407   4.128  16.508 -0.4528  0.2595 -0.0916
  605TMC3    C5 9018   1.385   4.215  16.611  0.0659 -0.1508  0.5027
  605TMC3    C6 9019   1.479   4.230  16.712  0.0266  0.3055 -0.4074
  605TMC3     C 9020   1.566   4.028  16.371  0.2177  0.5117 -0.1791
  605TMC3     O 9021   1.479   3.972  16.303 -0.5164 -0.1878 -0.5631
  605TMC3     H 9022   1.707   4.005  16.593 -0.2256  0.1077 -0.0911
  605TMC3    H1 9023   1.338   4.115  16.425 -0.3585  1.7273 -0.3971
  605TMC3    H2 9024   1.460   4.288  16.802 -0.4749 -0.0994 -0.2590
  605TMC3    C7 9025   1.247   4.247  16.631 -0.1651 -0.3084 -0.4519
  605TMC3    C8 9026   1.714   4.212  16.760 -0.1218  0.6772  0.0358
  605TMC3    O1 9027   1.213   4.345  16.700  0.4520 -0.4638  0.6400
  605TMC3    O2 9028   1.791   4.251  16.671  0.0665 -0.4912 -0.1726
  606TMC3    C1 9029   2.630   2.482  17.567  0.3984 -0.4288  0.1711
  606TMC3    C2 9030   2.757   2.515  17.616 -0.3453  0.4199  0.1662
  606TMC3    C3 9031   2.861   2.501  17.531 -0.2726 -0.0653 -0.7215
  606TMC3    C4 9032   2.610   2.452  17.435  0.4222  0.2254  0.4975
  606TMC3    C5 9033   2.723   2.444  17.359 -0.2898  0.0067 -0.6951
  606TMC3    C6 9034   2.850   2.457  17.401 -0.1056 -0.1285  0.1269
  606TMC3     C 9035   2.506   2.466  17.652 -0.4383  0.0839  0.3267
  606TMC3     O 9036   2.411   2.403  17.606 -0.1185  0.5160 -0.5885
  606TMC3     H 9037   2.769   2.549  17.718 -0.1705  1.8938 -0.3405
  606TMC3    H1 9038   2.512   2.445  17.388  0.5129  0.6398  0.2392
  606TMC3    H2 9039   2.932   2.444  17.332  0.0039 -2.4428  0.6706
  606TMC3    C7 9040   2.704   2.390  17.228 -0.2823  0.0457  0.0983
  606TMC3    C8 9041   2.990   2.545  17.582  0.1833  0.3270  0.3454
  606TMC3    O1 9042   2.797   2.415  17.152  0.8218  0.1624  0.3458
  606TMC3    O2 9043   3.001   2.582  17.699 -0.1023 -0.6135 -0.0052
  607MPD2     C 9044   0.243   0.276  11.913  0.4008  0.2248 -0.4812
  607MPD2    C1 9045   0.293   0.340  12.018 -0.1395 -0.0665  0.1999
  607MPD2    C2 9046   0.288   0.280  12.143 -0.4944  0.0469  0.0168
  607MPD2    C3 9047   0.231   0.156  12.169 -0.2655 -0.8984  0.1932
  607MPD2    C4 9048   0.187   0.088  12.062  0.0919  0.3473 -0.3026
  607MPD2    C5 9049   0.196   0.149  11.935  0.8021 -0.3524  0.2644
  607MPD2     H 9050   0.328   0.339  12.226 -3.6541  0.6843  1.0821
  607MPD2    H1 9051   0.142   4.728  12.089  1.5011  0.0408  0.9454
  607MPD2    H2 9052   0.248   0.324  11.816 -0.6682  1.6605  0.1801
  607MPD2    H3 9053   0.153   0.103  11.846  2.6379 -0.6938 -0.4329
  607MPD2     N 9054   0.222   0.117  12.304 -0.4607  0.4365 -0.4638
  607MPD2    H5 9055   0.269   0.180  12.368 -2.6899  1.5921  0.0048
  607MPD2    N1 9056   0.361   0.464  12.014  0.0771  0.3642  0.1616
  607MPD2    H7 9057   0.398   0.494  12.103  0.8978  0.1824 -0.1194
  608TMC3    C1 9058   0.407   0.699  11.966  0.5455 -1.5203  0.0209
  608TMC3    C2 9059   0.398   0.723  12.096  0.0457  0.5312  0.4895
  608TMC3    C3 9060   0.435   0.846  12.141  0.5013  0.2560  0.7472
  608TMC3    C4 9061   0.433   0.795  11.878  0.2396 -0.0951 -1.3264
  608TMC3    C5 9062   0.474   0.919  11.926 -0.2116 -0.1516  0.7670
  608TMC3    C6 9063   0.471   0.947  12.057 -0.9802  0.3038  0.4440
  608TMC3     C 9064   0.368   0.563  11.914 -0.2990 -0.2384  0.2020
  608TMC3     O 9065   0.349   0.546  11.797 -0.0461  0.3877 -0.2821
  608TMC3     H 9066   0.354   0.643  12.154 -1.4717  1.0160  0.0045
  608TMC3    H1 9067   0.444   0.779  11.771  1.9955  0.1081 -1.1797
  608TMC3    H2 9068   0.487   1.049  12.089 -0.5748 -0.4358  2.5347
  608TMC3    C7 9069   0.477   1.022  11.832  0.7360 -0.8347  0.1305
  608TMC3    C8 9070   0.404   0.874  12.283 -0.1392 -0.1229  0.4046
  608TMC3    O1 9071   0.404   1.012  11.734  0.2496  0.6007 -0.2914
  608TMC3    O2 9072   0.364   0.989  12.310 -0.0838  0.3377  0.0593
  609TMC3    C1 9073   2.947   0.277   9.368  0.5376  0.2736 -0.4674
  609TMC3    C2 9074   2.943   0.382   9.282 -0.5697  0.2030 -0.4703
  609TMC3    C3 9075   3.006   0.372   9.165  0.4623 -0.2163 -0.3247
  609TMC3    C4 9076   3.014   0.161   9.347 -0.9456 -0.5218  0.2824
  609TMC3    C5 9077   3.075   0.154   9.220 -0.1764 -0.6729  0.4253
  609TMC3    C6 9078   3.068   0.256   9.129  0.3670  0.1449  0.6403
  609TMC3     C 9079   2.894   0.280   9.500 -0.6428  0.3499 -0.8020
  609TMC3     O 9080   2.911   0.192   9.585 -0.6036  0.1522  0.0694
  609TMC3     H 9081   2.894   0.474   9.308  1.7405  0.9263  1.3902
  609TMC3    H1 9082   3.026   0.078   9.415 -0.4597  0.0817  0.9303
  609TMC3    H2 9083   3.129   0.253   9.039 -0.9090  3.6206 -0.3556
  609TMC3    C7 9084   3.177   0.058   9.201 -0.0144  0.0828  0.2928
  609TMC3    C8 9085   3.069   0.492   9.111  0.1949  0.0405 -0.1440
  609TMC3    O1 9086   3.229   0.011   9.299 -0.2219 -0.6034  0.0344
  609TMC3    O2 9087   3.178   0.477   9.061  0.4386  0.3300 -0.0038
  610TMC3    C1 9088   0.471   1.058  12.763  0.2253 -0.3770  0.2503
  610TMC3    C2 9089   0.560   1.133  12.688  0.0866 -0.0077 -0.3864
  610TMC3    C3 9090   0.655   1.056  12.630 -0.1189 -0.7306  0.4153
  610TMC3    C4 9091   0.486   0.924  12.795 -0.4573 -0.3031 -0.0883
  610TMC3    C5 9092   0.593   0.856  12.744 -0.1849  0.6830 -0.5766
  610TMC3    C6 9093   0.675   0.922  12.658 -0.1054  0.0426 -0.2956
  610TMC3     C 9094   0.369   1.135  12.831  0.0685  0.3519 -0.1455
  610TMC3     O 9095   0.309   1.077  12.918  0.5024 -0.1416  0.0811
  610TMC3     H 9096   0.564   1.240  12.671  0.9473 -0.1672 -1.2194
  610TMC3    H1 9097   0.430   0.889  12.881  1.5509  0.7427  1.6291
  610TMC3    H2 9098   0.750   0.862  12.609  0.4389 -0.7597  1.5652
  610TMC3    C7 9099   0.611   0.718  12.767 -0.3219  0.2910  0.3858
  610TMC3    C8 9100   0.731   1.110  12.519  0.3735  0.0768  0.5322
  610TMC3    O1 9101   0.725   0.675  12.754 -0.3521  0.7055  0.7272
  610TMC3    O2 9102   0.837   1.059  12.489  0.3631 -0.2891 -0.0466
  611MPD2     C 9103   4.532   0.562  10.062  0.4127  0.0773 -0.4434
  611MPD2    C1 9104   4.582   0.646  10.163 -0.3839  0.1599 -0.2813
  611MPD2    C2 9105   4.718   0.678  10.162 -0.1970 -0.1317  0.4149
  611MPD2    C3 9106   0.064   0.612  10.077  0.2946 -0.5318  0.1958
  611MPD2    C4 9107   0.014   0.521   9.983 -0.5472 -0.0871 -0.3536
  611MPD2    C5 9108   4.614   0.491   9.979 -0.5992  0.3377  0.0591
  611MPD2     H 9109   0.027   0.757  10.222  0.4090 -0.6728  0.6840
  611MPD2    H1 9110   0.076   0.465   9.915 -0.4097 -0.1095 -0.2086
  611MPD2    H2 9111   4.426   0.542  10.053  0.6405 -1.9493  1.4619
  611MPD2    H3 9112   4.573   0.415   9.914  0.7717  0.1112 -0.5233
  611MPD2     N 9113   0.199   0.630  10.069 -0.0053 -0.0413 -0.4717
  611MPD2    H5 9114   0.253   0.558  10.023 -3.5709 -3.0996  0.1359
  611MPD2    N1 9115   4.488   0.695  10.257  0.2741 -0.5433  0.4820
  611MPD2    H7 9116   4.392   0.671  10.238  0.0611  0.7371 -0.0480
  612TMC3    C1 9117   0.412   0.684  10.137 -0.1122 -0.0526 -0.3775
  612TMC3    C2 9118   0.470   0.687  10.261  0.3766 -0.0803  0.1037
  612TMC3    C3 9119   0.586   0.620  10.287 -0.3393  0.2371 -0.0020
  612TMC3    C4 9120   0.469   0.604  10.037  0.4489 -0.6585  0.2587
  612TMC3    C5 9121   0.572   0.524  10.081 -0.1778 -0.2696 -0.7520
  612TMC3    C6 9122   0.642   0.536  10.200  0.0597  0.2707 -0.0990
  612TMC3     C 9123   0.274   0.723  10.140 -0.6728  0.4121  0.5834
  612TMC3     O 9124   0.240   0.809  10.219 -0.0481  0.3443 -0.0468
  612TMC3     H 9125   0.419   0.742  10.340  0.1962  0.6402 -0.5106
  612TMC3    H1 9126   0.411   0.594   9.946  0.3740  0.2028  0.2080
  612TMC3    H2 9127   0.733   0.482  10.224  0.6126  1.1584 -0.2118
  612TMC3    C7 9128   0.649   0.460   9.986  0.4267  0.6232 -0.7979
  612TMC3    C8 9129   0.629   0.619  10.429 -0.6097  0.2328  0.7272
  612TMC3    O1 9130   0.742   0.394  10.026 -0.4526  0.2509  0.9831
  612TMC3    O2 9131   0.584   0.710  10.493  0.7813 -0.7223 -0.2237
  613MPD2     C 9132   4.041   3.197  16.539  0.7360  0.0984 -0.3122
  613MPD2    C1 9133   3.950   3.208  16.436  0.1321  0.4331  0.0430
  613MPD2    C2 9134   3.834   3.138  16.441 -0.3987 -0.2357 -0.3090
  613MPD2    C3 9135   3.824   3.033  16.531 -0.1301  0.0784 -0.4496
  613MPD2    C4 9136   3.913   3.024  16.639 -0.1164 -0.5066 -0.5883
  613MPD2    C5 9137   4.022   3.108  16.639  0.3045  0.7469 -0.6510
  613MPD2     H 9138   3.768   3.160  16.358  0.2036 -1.2772 -1.0668
  613MPD2    H1 9139   3.905   2.952  16.720 -0.6193 -1.1251 -1.1871
  613MPD2    H2 9140   4.127   3.263  16.548 -1.2111  2.4088  1.1205
  613MPD2    H3 9141   4.095   3.104  16.718 -0.0721  3.6838 -0.1697
  613MPD2     N 9142   3.723   2.932  16.520 -0.1432  0.2813 -0.0309
  613MPD2    H5 9143   3.733   2.855  16.586 -0.3107 -0.2434 -0.6188
  613MPD2    N1 9144   3.980   3.291  16.327 -0.2306 -0.4718 -0.2824
  613MPD2    H7 9145   4.071   3.330  16.304 -1.4025  1.5081 -1.6071
  614TMC3    C1 9146   3.938   3.393  16.117 -0.6920 -0.2418  0.0084
  614TMC3    C2 9147   4.028   3.310  16.057  0.2387 -1.2442 -0.0091
  614TMC3    C3 9148   4.006   3.260  15.921  0.2849  0.8040  0.8793
  614TMC3    C4 9149   3.845   3.453  16.043 -0.4240 -0.5909  0.4295
  614TMC3    C5 9150   3.836   3.424  15.910 -0.1980 -0.9609  0.1231
  614TMC3    C6 9151   3.917   3.334  15.846  0.5238 -0.2317  0.7100
  614TMC3     C 9152   3.882   3.348  16.246 -0.2946  0.3483 -0.3971
  614TMC3     O 9153   3.761   3.364  16.263 -0.1757  0.3046 -0.6548
  614TMC3     H 9154   4.101   3.259  16.119  2.1112  1.6326  0.1264
  614TMC3    H1 9155   3.773   3.514  16.097 -0.8922 -3.2232  2.7714
  614TMC3    H2 9156   3.908   3.317  15.739  1.4143  0.1628  0.5674
  614TMC3    C7 9157   3.749   3.516  15.831 -0.0051 -0.7233  0.5439
  614TMC3    C8 9158   4.004   3.114  15.910 -0.1076 -0.1189  0.1410
  614TMC3    O1 9159   3.792   3.628  15.811  0.1075 -0.5457 -0.2028
  614TMC3    O2 9160   4.052   3.048  16.001  0.0499 -0.3382  0.1278
  615MPD2     C 9161   3.191   4.263  15.823  0.4203 -0.0440  0.7310
  615MPD2    C1 9162   3.080   4.356  15.819 -0.8257 -0.1772 -0.5629
  615MPD2    C2 9163   2.958   4.301  15.776 -0.4770 -0.1908 -0.1509
  615MPD2    C3 9164   2.949   4.175  15.722  0.0110  0.2252 -0.1196
  615MPD2    C4 9165   3.051   4.087  15.732 -0.6245  0.9973 -0.6701
  615MPD2    C5 9166   3.168   4.132  15.788  0.1091 -1.2325  0.8756
  615MPD2     H 9167   2.874   4.369  15.768 -0.4875 -0.3298 -1.2555
  615MPD2    H1 9168   3.050   3.980  15.711  0.7518  0.8826 -0.1563
  615MPD2    H2 9169   3.288   4.278  15.869  0.7447  2.0672 -0.6605
  615MPD2    H3 9170   3.253   4.066  15.802  2.1468  0.8290 -1.7272
  615MPD2     N 9171   2.836   4.137  15.649  0.0524 -0.0688 -0.5357
  615MPD2    H5 9172   2.855   4.058  15.589  0.2609 -0.4854  0.0723
  615MPD2    N1 9173   3.091   4.497  15.836 -0.0063 -0.1136  0.3053
  615MPD2    H7 9174   3.010   4.553  15.811  1.2567  1.3678 -0.4433
  616TMC3    C1 9175   3.200   4.714  15.865 -0.2012  0.6768  0.1897
  616TMC3    C2 9176   3.334   0.030  15.853  0.3818 -0.7750 -0.4074
  616TMC3    C3 9177   3.341   0.170  15.837  0.2399  0.3486 -0.7844
  616TMC3    C4 9178   3.085   0.062  15.874  0.2003 -0.1316  0.4613
  616TMC3    C5 9179   3.108   0.198  15.861 -0.3347  0.4710  0.0595
  616TMC3    C6 9180   3.233   0.252  15.843 -0.4067  0.7688 -0.6316
  616TMC3     C 9181   3.207   4.564  15.872  0.6856  0.0054  0.0517
  616TMC3     O 9182   3.315   4.512  15.894 -0.1662  0.4070 -0.5068
  616TMC3     H 9183   3.424   4.705  15.851  0.4701 -0.6190 -1.2343
  616TMC3    H1 9184   2.985   0.022  15.881  0.4991 -0.7976  0.9115
  616TMC3    H2 9185   3.245   0.359  15.842  1.8014  0.5111 -2.0415
  616TMC3    C7 9186   3.008   0.279  15.920 -0.1303 -0.8816 -0.7578
  616TMC3    C8 9187   3.466   0.247  15.814 -0.3230  0.1158  0.4856
  616TMC3    O1 9188   2.929   0.216  15.991  0.3855 -0.2941 -0.2705
  616TMC3    O2 9189   3.471   0.365  15.782 -0.4131  0.2116  0.1444
  617MPD2     C 9190   0.901   2.362  13.734  0.2924  0.3959  0.5148
  617MPD2    C1 9191   0.961   2.315  13.854  0.4504 -0.0053  0.9505
  617MPD2    C2 9192   0.880   2.275  13.954 -0.4544  0.1598 -0.6498
  617MPD2    C3 9193   0.739   2.278  13.943  0.3450  0.4317  0.2309
  617MPD2    C4 9194   0.682   2.324  13.821  0.2780  0.4046 -0.1004
  617MPD2    C5 9195   0.764   2.364  13.722  0.2632 -0.2483  0.1660
  617MPD2     H 9196   0.927   2.253  14.049 -0.5060  1.7817 -0.2508
  617MPD2    H1 9197   0.575   2.331  13.803  0.2380  0.0971  0.0302
  617MPD2    H2 9198   0.973   2.394  13.659 -0.7127 -0.5988 -0.8696
  617MPD2    H3 9199   0.722   2.396  13.628  0.0401 -0.4041  0.2136
  617MPD2     N 9200   0.650   2.223  14.039  0.6016 -0.4160  0.0461
  617MPD2    H5 9201   0.554   2.214  14.007  0.8429 -0.8152 -0.5690
  617MPD2    N1 9202   1.100   2.300  13.859 -0.1015 -0.2672  0.4694
  617MPD2    H7 9203   1.150   2.345  13.783 -1.0745  0.5061  0.2840
  618TMC3    C1 9204   1.314   2.207  13.897  0.5134 -0.1055 -0.8914
  618TMC3    C2 9205   1.387   2.146  13.994  0.1859  0.2718 -0.4913
  618TMC3    C3 9206   1.484   2.061  13.960 -0.0736 -0.0916 -0.2300
  618TMC3    C4 9207   1.318   2.169  13.766 -0.7681  0.0424 -0.0316
  618TMC3    C5 9208   1.415   2.078  13.740 -0.0711 -0.2086 -0.6806
  618TMC3    C6 9209   1.496   2.022  13.828 -0.2564 -0.1670 -0.6802
  618TMC3     C 9210   1.179   2.234  13.951  0.1285  0.4786  0.6321
  618TMC3     O 9211   1.146   2.197  14.062 -1.1168 -0.5738 -0.3702
  618TMC3     H 9212   1.366   2.163  14.099 -0.5817 -0.9742 -0.4386
  618TMC3    H1 9213   1.246   2.204  13.693  0.6753  0.1028 -1.4208
  618TMC3    H2 9214   1.567   1.946  13.799  1.1832  0.1827  1.8350
  618TMC3    C7 9215   1.426   2.043  13.603 -0.1912 -0.1163  1.0659
  618TMC3    C8 9216   1.548   1.993  14.070  0.3643  0.1634 -0.0826
  618TMC3    O1 9217   1.323   2.064  13.532  0.0014  0.5449  0.0995
  618TMC3    O2 9218   1.529   2.036  14.184  0.0576  0.2067  0.1533
  619MPD2     C 9219   2.909   3.013  13.804 -0.1382  0.5876 -0.3461
  619MPD2    C1 9220   2.889   3.106  13.707  0.0656  0.4735 -0.1267
  619MPD2    C2 9221   2.759   3.144  13.677  0.1270  0.0976 -0.9316
  619MPD2    C3 9222   2.652   3.082  13.740  0.7088  0.6750 -0.1378
  619MPD2    C4 9223   2.676   2.989  13.840  0.2196 -0.2720  0.9272
  619MPD2    C5 9224   2.801   2.957  13.877  0.2087 -0.1546 -0.6532
  619MPD2     H 9225   2.752   3.212  13.593 -2.5892 -2.9897 -3.2326
  619MPD2    H1 9226   2.591   2.947  13.893  0.9266 -2.4369  0.3625
  619MPD2    H2 9227   3.008   2.980  13.834 -0.6383  0.8467  1.5962
  619MPD2    H3 9228   2.826   2.885  13.954 -2.4772 -0.4214 -0.0272
  619MPD2     N 9229   2.515   3.099  13.702 -0.0394 -0.3669 -0.1978
  619MPD2    H5 9230   2.450   3.031  13.740 -0.8119 -0.1919 -1.2393
  619MPD2    N1 9231   2.989   3.167  13.623  0.5651  0.2165 -0.1928
  619MPD2    H7 9232   2.957   3.246  13.569  1.9657  0.9426  0.0394
  620TMC3    C1 9233   3.187   3.241  13.528  0.5775  0.0263 -0.3265
  620TMC3    C2 9234   3.099   3.278  13.428 -0.3959  0.0722 -0.1583
  620TMC3    C3 9235   3.075   3.413  13.417 -0.5816  0.0318  0.2774
  620TMC3    C4 9236   3.254   3.332  13.604  0.5305  0.4580 -0.1950
  620TMC3    C5 9237   3.226   3.458  13.588 -0.4899 -0.0078 -0.3767
  620TMC3    C6 9238   3.143   3.505  13.492  0.4465  0.1779  0.1340
  620TMC3     C 9239   3.128   3.147  13.620 -0.1993 -0.3806 -0.1376
  620TMC3     O 9240   3.197   3.093  13.707  0.2160 -0.1546 -0.1148
  620TMC3     H 9241   3.042   3.199  13.380 -1.3773 -0.4717  1.8829
  620TMC3    H1 9242   3.307   3.294  13.691  1.7353  1.6846 -0.4027
  620TMC3    H2 9243   3.128   3.611  13.474  0.2954  0.5097  2.1629
  620TMC3    C7 9244   3.291   3.548  13.691 -0.1108  0.4926  0.0954
  620TMC3    C8 9245   2.937   3.455  13.406 -0.5160 -0.2966 -0.2753
  620TMC3    O1 9246   3.408   3.524  13.720 -0.3327  0.1016  0.5016
  620TMC3    O2 9247   2.858   3.377  13.462  0.5098 -0.3143 -0.1155
  621MPD2     C 9248   3.246   4.000   9.633 -0.2259  0.0998 -0.0716
  621MPD2    C1 9249   3.263   4.011   9.772  0.1883  0.4066 -0.1522
  621MPD2    C2 9250   3.284   4.137   9.818 -0.1479  0.8490 -0.0605
  621MPD2    C3 9251   3.276   4.253   9.740 -0.4389  0.4132 -0.1502
  621MPD2    C4 9252   3.257   4.241   9.605  0.3845 -0.2364  0.0526
  621MPD2    C5 9253   3.226   4.113   9.555 -0.3817 -0.0218  0.2629
  621MPD2     H 9254   3.313   4.145   9.922 -2.5686 -0.7955  0.7525
  621MPD2    H1 9255   3.246   4.322   9.535  0.3191 -0.0591  0.2665
  621MPD2    H2 9256   3.238   3.904   9.583 -3.1676 -0.7198  1.9973
  621MPD2    H3 9257   3.192   4.106   9.452  0.0767  0.5485  0.0715
  621MPD2     N 9258   3.300   4.378   9.807  0.1849 -0.1957  0.3039
  621MPD2    H5 9259   3.311   4.367   9.908  0.8955  2.2592  0.4899
  621MPD2    N1 9260   3.289   3.898   9.857  0.0730  0.2305 -0.5180
  621MPD2    H7 9261   3.312   3.926   9.952 -0.5738 -0.6278 -0.1083
  622TMC3    C1 9262   3.339   3.680   9.928 -0.0840  0.4910  0.8387
  622TMC3    C2 9263   3.358   3.730  10.048 -0.8560  0.2297  0.0239
  622TMC3    C3 9264   3.428   3.670  10.139  0.6634 -0.2815 -0.2500
  622TMC3    C4 9265   3.392   3.555   9.904 -0.2681 -0.2964  0.4968
  622TMC3    C5 9266   3.468   3.492   9.998  1.0207 -0.3292 -0.5246
  622TMC3    C6 9267   3.491   3.549  10.120 -0.1352 -0.6462 -0.0595
  622TMC3     C 9268   3.286   3.770   9.820  0.4080 -0.4747 -0.0315
  622TMC3     O 9269   3.251   3.716   9.717  0.3084  0.0943  0.2427
  622TMC3     H 9270   3.322   3.830  10.071  1.6026  0.7360  1.5513
  622TMC3    H1 9271   3.387   3.520   9.802  0.0501  0.0435  0.3696
  622TMC3    H2 9272   3.559   3.502  10.191  0.0814  0.9488  0.7857
  622TMC3    C7 9273   3.506   3.346   9.986  0.7550 -0.5065 -0.0541
  622TMC3    C8 9274   3.399   3.700  10.280 -0.2148  0.0856 -0.2342
  622TMC3    O1 9275   3.570   3.290  10.077 -0.0648  0.0605 -0.4460
  622TMC3    O2 9276   3.485   3.668  10.360  0.1265 -0.2923  0.7073
  623MPD2     C 9277   2.106   4.629  15.990 -0.4206 -0.4721 -0.5873
  623MPD2    C1 9278   2.029   4.568  16.087  0.0459 -0.1716 -0.0938
  623MPD2    C2 9279   2.099   4.568  16.207 -0.0848  0.2309 -0.1350
  623MPD2    C3 9280   2.214   4.634  16.237 -0.3197  0.0971 -0.5028
  623MPD2    C4 9281   2.285   4.685  16.132 -0.1860 -0.1922  0.7987
  623MPD2    C5 9282   2.230   4.671  16.005  0.1432  0.1517 -0.0019
  623MPD2     H 9283   2.042   4.532  16.293 -0.1573  2.5199  0.7646
  623MPD2    H1 9284   2.375   0.011  16.143  0.0240 -0.5967  1.3380
  623MPD2    H2 9285   2.071   4.633  15.887  1.0120 -3.0506 -1.1820
  623MPD2    H3 9286   2.287   4.704  15.919 -1.9959 -3.6145 -2.8553
  623MPD2     N 9287   2.250   4.632  16.380 -0.0903  0.5609 -0.0676
  623MPD2    H5 9288   2.181   4.579  16.433 -0.6232  2.5409  1.2194
  623MPD2    N1 9289   1.900   4.519  16.070  0.1512 -0.1957 -0.2778
  623MPD2    H7 9290   1.858   4.464  16.143  1.1977  1.1843  1.3632
  624TMC3    C1 9291   2.472   4.646  16.785  0.3100 -0.2524  0.2510
  624TMC3    C2 9292   2.360   4.603  16.853  0.6581  0.0653 -0.6360
  624TMC3    C3 9293   2.245   4.629  16.782 -0.0193  0.3490 -0.2182
  624TMC3    C4 9294   2.473   4.680  16.654 -0.0723 -0.6125  0.2543
  624TMC3    C5 9295   2.355   4.677  16.585 -0.1565  0.5355  0.3331
  624TMC3    C6 9296   2.235   4.668  16.649 -0.2870 -0.2710  1.2419
  624TMC3     C 9297   2.600   4.649  16.856 -0.3848  0.2176  0.3065
  624TMC3     O 9298   2.617   4.570  16.949  0.7571  0.2778 -0.4507
  624TMC3     H 9299   2.369   4.574  16.957 -0.3865  0.3691 -0.4589
  624TMC3    H1 9300   2.565   4.702  16.601  0.1966 -0.1906  0.8927
  624TMC3    H2 9301   2.144   4.688  16.595 -0.4910 -2.2540  0.8549
  624TMC3    C7 9302   2.363   4.688  16.440 -0.3021 -0.1202  0.5646
  624TMC3    C8 9303   2.120   4.574  16.833 -0.9169  0.4102 -0.0356
  624TMC3    O1 9304   2.456   0.009  16.388 -0.1891 -0.0423 -0.0582
  624TMC3    O2 9305   2.021   4.588  16.758  0.5682 -0.1670  0.9292
  625MPD2     C 9306   2.733   1.042   0.470  0.8778 -0.3904  0.7177
  625MPD2    C1 9307   2.679   1.106   0.581  0.3361  0.2880 -0.3766
  625MPD2    C2 9308   2.770   1.182   0.654  0.2520 -0.0958  0.1323
  625MPD2    C3 9309   2.905   1.188   0.635 -0.0515 -0.4595 -0.5360
  625MPD2    C4 9310   2.953   1.121   0.524  0.2968  0.6371  0.4600
  625MPD2    C5 9311   2.864   1.056   0.444  0.4922  0.4489  0.4026
  625MPD2     H 9312   2.737   1.237   0.741  0.1674  2.8672 -1.8043
  625MPD2    H1 9313   3.054   1.108   0.488  0.2978  1.5587  0.1178
  625MPD2    H2 9314   2.677   0.978   0.403  0.9999 -0.3605  0.5880
  625MPD2    H3 9315   2.899   1.001   0.357 -0.9728 -2.0076  1.3482
  625MPD2     N 9316   2.978   1.280   0.718 -0.1388  0.0188 -0.3397
  625MPD2    H5 9317   2.930   1.309   0.802  1.0185  2.1718 -0.4203
  625MPD2    N1 9318   2.536   1.131   0.607 -0.1013  0.5961  0.7313
  625MPD2    H7 9319   2.504   1.197   0.676 -0.0026 -0.4037  1.7243
  626TMC3    C1 9320   2.304   1.147   0.534  0.5910 -0.3468  0.8551
  626TMC3    C2 9321   2.228   1.156   0.423 -0.3745  0.0992 -0.0237
  626TMC3    C3 9322   2.099   1.194   0.432 -0.7085  0.2489 -0.1285
  626TMC3    C4 9323   2.248   1.193   0.650  0.9817  0.5211  0.1551
  626TMC3    C5 9324   2.114   1.237   0.652 -0.5339  0.5302 -0.3507
  626TMC3    C6 9325   2.033   1.237   0.546  0.2486 -0.1468 -0.0195
  626TMC3     C 9326   2.432   1.083   0.526 -0.4784 -0.4041  0.1252
  626TMC3     O 9327   2.459   1.025   0.420  0.3018 -0.7475 -0.1750
  626TMC3     H 9328   2.273   1.123   0.330 -0.0613  0.3618  0.0336
  626TMC3    H1 9329   2.313   1.193   0.737  1.1589 -0.1542  0.0253
  626TMC3    H2 9330   1.925   1.244   0.542  0.3738  2.1888  0.5393
  626TMC3    C7 9331   2.051   1.236   0.787 -0.3654  0.2029 -0.4705
  626TMC3    C8 9332   2.036   1.223   0.306  0.2984 -0.0169 -0.7792
  626TMC3    O1 9333   2.115   1.173   0.867 -0.4915 -0.1608 -0.3989
  626TMC3    O2 9334   2.081   1.159   0.207 -0.3219 -0.2131 -0.6341
  627MPD2     C 9335   0.879   0.995  14.151  0.0043  0.3457  0.1839
  627MPD2    C1 9336   0.898   0.979  14.286 -0.3284  0.8911 -0.2047
  627MPD2    C2 9337   0.825   0.884  14.354 -0.0286  0.8287  0.0035
  627MPD2    C3 9338   0.731   0.812  14.291  0.8891 -0.0019  0.1292
  627MPD2    C4 9339   0.726   0.821  14.146  0.4200  0.1320  0.2358
  627MPD2    C5 9340   0.798   0.910  14.071 -0.4626  0.4583 -0.5121
  627MPD2     H 9341   0.832   0.870  14.462 -1.3832  0.9801  0.1076
  627MPD2    H1 9342   0.660   0.755  14.093 -0.1074  1.9988 -1.4421
  627MPD2    H2 9343   0.948   1.064  14.103  0.9077  0.0353  1.0316
  627MPD2    H3 9344   0.800   0.912  13.963 -1.6261 -1.3208 -0.5799
  627MPD2     N 9345   0.647   0.718  14.358  0.6186 -0.0207  0.4550
  627MPD2    H5 9346   0.665   0.693  14.455  1.3378 -0.5072  0.2013
  627MPD2    N1 9347   0.991   1.055  14.365 -0.5624 -0.4229 -0.4108
  627MPD2    H7 9348   0.988   1.043  14.466  1.1448 -1.0122 -0.4403
  628TMC3    C1 9349   1.152   1.205  14.439 -0.5462 -0.3862  0.1903
  628TMC3    C2 9350   1.228   1.128  14.521  0.2467 -0.2056 -0.0086
  628TMC3    C3 9351   1.348   1.186  14.562  0.0896 -0.4536  0.4002
  628TMC3    C4 9352   1.176   1.335  14.416 -0.1553 -0.2555  0.5127
  628TMC3    C5 9353   1.290   1.389  14.469  0.2165 -0.0861  0.0979
  628TMC3    C6 9354   1.382   1.310  14.525 -0.3789 -0.0693  0.4921
  628TMC3     C 9355   1.076   1.153  14.326 -0.0970 -0.3566 -0.6302
  628TMC3     O 9356   1.079   1.214  14.218  0.3567 -0.3544  0.1187
  628TMC3     H 9357   1.210   1.021  14.531  1.0440 -0.2148  1.3548
  628TMC3    H1 9358   1.102   1.390  14.360 -0.9490 -0.0854  1.7354
  628TMC3    H2 9359   1.468   1.358  14.571  0.6126 -0.0279 -1.4330
  628TMC3    C7 9360   1.275   1.517  14.534  0.0410 -0.0690  0.1848
  628TMC3    C8 9361   1.457   1.107  14.612  0.3780  0.2111 -0.4184
  628TMC3    O1 9362   1.344   1.523  14.637 -0.4171  0.4729  0.5518
  628TMC3    O2 9363   1.568   1.153  14.588  0.2660 -0.0018  0.2561
  629MPD2     C 9364   3.985   0.227  15.838 -0.0539 -0.1058 -0.3970
  629MPD2    C1 9365   3.932   0.122  15.915  0.1231  0.7924  0.3810
  629MPD2    C2 9366   3.795   0.097  15.909 -0.2616 -0.1892  0.2318
  629MPD2    C3 9367   3.715   0.189  15.840 -0.0716  0.5155  0.0403
  629MPD2    C4 9368   3.765   0.298  15.779  0.5345  0.5837 -0.1710
  629MPD2    C5 9369   3.900   0.318  15.777 -0.1261  0.0878 -0.3141
  629MPD2     H 9370   3.746   0.021  15.969 -0.0199 -0.6405 -0.1420
  629MPD2    H1 9371   3.707   0.374  15.728 -0.4652  0.7718  1.2447
  629MPD2    H2 9372   4.092   0.249  15.835  0.1755 -1.5952 -2.9029
  629MPD2    H3 9373   3.940   0.400  15.718  0.6744  0.6248  0.9712
  629MPD2     N 9374   3.572   0.160  15.851  0.2733  0.0296  0.1134
  629MPD2    H5 9375   3.547   0.069  15.888  0.8117  0.1643  0.8163
  629MPD2    N1 9376   4.031   0.042  15.980 -0.0139  0.0224 -0.2119
  629MPD2    H7 9377   4.127   0.072  15.969  0.1921 -1.0661 -1.2608
  630TMC3    C1 9378   4.102   4.640  16.162  0.9893  0.0250 -0.2745
  630TMC3    C2 9379   4.215   4.621  16.092  0.2865 -0.0685 -0.2235
  630TMC3    C3 9380   4.312   4.557  16.154 -0.7176  0.0081  0.2451
  630TMC3    C4 9381   4.086   4.623  16.296 -0.6173  0.4456 -0.6788
  630TMC3    C5 9382   4.182   4.558  16.368  0.2511 -0.5527 -0.5512
  630TMC3    C6 9383   4.286   4.508  16.284  0.4044  0.2466 -0.0633
  630TMC3     C 9384   3.990   4.704  16.089  0.6029 -0.6102 -0.4305
  630TMC3     O 9385   3.878   4.686  16.142  0.2062 -0.2124 -0.0968
  630TMC3     H 9386   4.226   4.641  15.986 -1.0337  0.4120 -0.2615
  630TMC3    H1 9387   3.989   4.639  16.340 -0.0329 -0.0381  0.7875
  630TMC3    H2 9388   4.368   4.452  16.327 -1.8740 -1.8381  1.5796
  630TMC3    C7 9389   4.222   4.610  16.492 -0.2847  0.2543 -0.4612
  630TMC3    C8 9390   4.448   4.613  16.152 -0.1726 -0.1328 -0.0144
  630TMC3    O1 9391   4.136   4.639  16.573  0.3804 -0.5698  0.5942
  630TMC3    O2 9392   4.519   4.578  16.245  0.1450 -0.0871 -0.1849
  631MPD2     C 9393   1.839   4.453  15.380 -0.4650  1.4949 -0.6336
  631MPD2    C1 9394   1.926   4.532  15.309 -0.2557 -0.6136  1.3667
  631MPD2    C2 9395   2.065   4.503  15.309  0.0563  0.6756 -0.1977
  631MPD2    C3 9396   2.119   4.403  15.393  0.4414  0.0900 -0.2006
  631MPD2    C4 9397   2.033   4.328  15.466 -0.3660  0.0650  0.0222
  631MPD2    C5 9398   1.896   4.353  15.454  0.3376  0.0945  0.1126
  631MPD2     H 9399   2.131   4.561  15.245 -0.5632  1.1129 -0.4451
  631MPD2    H1 9400   2.059   4.244  15.529 -0.8357  0.4007  0.6648
  631MPD2    H2 9401   1.736   4.476  15.402 -0.6199 -0.5655  0.8164
  631MPD2    H3 9402   1.831   4.282  15.504  0.0542  0.8328  0.7945
  631MPD2     N 9403   2.252   4.362  15.378  0.0191 -0.2166 -0.2382
  631MPD2    H5 9404   2.306   4.407  15.305 -1.8037  1.3908 -0.6056
  631MPD2    N1 9405   1.869   4.642  15.237  0.1698 -0.0475 -0.2699
  631MPD2    H7 9406   1.767   4.642  15.228  0.2743  0.6077 -1.4899
  632TMC3    C1 9407   1.860   0.113  15.126  0.5059 -0.2664 -0.0917
  632TMC3    C2 9408   1.728   0.117  15.151 -0.5403 -0.2550 -0.1104
  632TMC3    C3 9409   1.654   0.207  15.083  0.3946 -0.1991 -0.3065
  632TMC3    C4 9410   1.918   0.193  15.032 -0.6415  0.2857  0.0221
  632TMC3    C5 9411   1.850   0.293  14.980 -0.2122  0.0629 -0.2977
  632TMC3    C6 9412   1.717   0.299  15.005  0.1977 -0.3560 -0.5865
  632TMC3     C 9413   1.938   0.005  15.173  0.2217  0.0196  0.5356
  632TMC3     O 9414   2.061   0.015  15.164  0.4290 -0.1909  0.0082
  632TMC3     H 9415   1.680   0.055  15.226 -3.3125  2.9859  0.7882
  632TMC3    H1 9416   2.017   0.163  15.000 -0.1864 -0.6896  2.3700
  632TMC3    H2 9417   1.666   0.380  14.955  1.9694  0.9312 -0.2700
  632TMC3    C7 9418   1.925   0.382  14.891  0.4504  0.2825  0.1377
  632TMC3    C8 9419   1.520   0.230  15.114  0.6747  0.5811  0.6408
  632TMC3    O1 9420   1.869   0.428  14.790 -0.4256 -0.1275  0.2198
  632TMC3    O2 9421   1.471   0.338  15.088  0.8596  0.4856  0.1835
  633MPD2     C 9422   2.263   2.625  17.301 -0.1713 -0.6265  0.0312
  633MPD2    C1 9423   2.251   2.597  17.171 -0.1158  0.5085  0.3700
  633MPD2    C2 9424   2.169   2.491  17.127 -0.4399  0.3397 -0.1729
  633MPD2    C3 9425   2.111   2.403  17.216 -0.1256 -0.1948  0.1537
  633MPD2    C4 9426   2.131   2.426  17.350  0.0101 -0.3974  0.1053
  633MPD2    C5 9427   2.212   2.535  17.388 -0.6505  0.1130 -0.0248
  633MPD2     H 9428   2.182   2.473  17.021  2.4041 -1.2435  0.4537
  633MPD2    H1 9429   2.105   2.355  17.428 -0.9631 -0.2596 -0.0901
  633MPD2    H2 9430   2.323   2.707  17.342 -0.6192 -0.2972  0.0276
  633MPD2    H3 9431   2.224   2.549  17.495 -1.2126  0.3703  0.0035
  633MPD2     N 9432   2.032   2.297  17.165 -0.4354 -0.5526 -0.4073
  633MPD2    H5 9433   2.008   2.221  17.228  0.1169  0.1738  0.6866
  633MPD2    N1 9434   2.290   2.685  17.066 -0.2474 -0.1428  0.3880
  633MPD2    H7 9435   2.271   2.656  16.970 -0.5599  0.4526  0.2714
  634TMC3    C1 9436   2.347   2.881  16.959  1.0793  1.2338  0.1126
  634TMC3    C2 9437   2.403   2.812  16.855  0.7268 -0.2709  0.3571
  634TMC3    C3 9438   2.377   2.858  16.727  0.0431  0.4327  0.3109
  634TMC3    C4 9439   2.275   2.999  16.949 -0.7622 -0.4937  0.4797
  634TMC3    C5 9440   2.271   3.049  16.816 -0.5249 -0.6485  0.1560
  634TMC3    C6 9441   2.308   2.970  16.709 -0.6745 -0.3336 -0.9178
  634TMC3     C 9442   2.331   2.815  17.089  0.1769 -0.0218  0.6294
  634TMC3     O 9443   2.338   2.872  17.199  0.8048 -0.1530  0.2509
  634TMC3     H 9444   2.458   2.720  16.867 -0.1042 -0.7125  0.7881
  634TMC3    H1 9445   2.231   3.042  17.038  1.1612  1.8198  0.3127
  634TMC3    H2 9446   2.301   3.018  16.612  0.1074  1.2238 -0.2121
  634TMC3    C7 9447   2.208   3.173  16.796 -0.4819  0.4881 -0.3759
  634TMC3    C8 9448   2.415   2.785  16.613  0.1121  0.1901 -0.8798
  634TMC3    O1 9449   2.196   3.205  16.677  0.0629 -0.4465  0.2911
  634TMC3    O2 9450   2.455   2.676  16.638  0.2754 -0.2248 -0.0891
  635TMC3    C1 9451   1.721   0.243   1.236  0.8806 -0.0518 -0.8498
  635TMC3    C2 9452   1.734   0.108   1.275 -0.8668 -0.3835  0.2058
  635TMC3    C3 9453   1.631   0.055   1.349 -0.3768 -0.1210  0.6047
  635TMC3    C4 9454   1.610   0.322   1.262  0.2910  0.0213 -0.7520
  635TMC3    C5 9455   1.512   0.265   1.330  0.7219 -0.2545 -0.3012
  635TMC3    C6 9456   1.517   0.130   1.378 -0.2641  0.2765  1.2659
  635TMC3     C 9457   1.852   0.295   1.173  0.1271  0.0420 -0.7038
  635TMC3     O 9458   1.940   0.211   1.180 -0.5047  0.6713 -0.5883
  635TMC3     H 9459   1.824   0.050   1.257 -0.0651  0.7657  0.5165
  635TMC3    H1 9460   1.615   0.430   1.252 -0.1271  0.0895 -0.2183
  635TMC3    H2 9461   1.428   0.078   1.410 -1.7192  0.2606 -2.9319
  635TMC3    C7 9462   1.381   0.326   1.327 -0.9693 -0.9997 -0.1936
  635TMC3    C8 9463   1.645   4.659   1.413 -0.7145 -0.1484 -0.6694
  635TMC3    O1 9464   1.309   0.288   1.416  0.2227  0.6725 -0.4673
  635TMC3    O2 9465   1.725   4.585   1.359 -0.4972 -0.0685 -0.1703
  636MPD2     C 9466   3.155   3.145  15.836  0.2373 -0.3580  0.4750
  636MPD2    C1 9467   3.228   3.210  15.937  0.1689 -0.6823 -0.2360
  636MPD2    C2 9468   3.302   3.128  16.025 -0.7631  0.3282  0.2030
  636MPD2    C3 9469   3.286   2.987  16.019  0.3109 -0.2790 -0.4041
  636MPD2    C4 9470   3.212   2.929  15.919 -0.2988 -0.1816  0.0371
  636MPD2    C5 9471   3.153   3.005  15.826 -0.3699 -0.3827 -0.5246
  636MPD2     H 9472   3.378   3.167  16.092 -0.4334 -0.4126  0.2641
  636MPD2    H1 9473   3.180   2.826  15.912 -0.5401  0.0701 -2.6619
  636MPD2    H2 9474   3.096   3.200  15.764  1.6837 -1.4586 -1.5559
  636MPD2    H3 9475   3.084   2.949  15.764 -1.7576 -1.5378  2.0490
  636MPD2     N 9476   3.355   2.906  16.118 -0.7592  0.2580  0.2500
  636MPD2    H5 9477   3.410   2.962  16.182 -1.3187  2.1285 -0.8903
  636MPD2    N1 9478   3.243   3.350  15.941 -0.7694 -0.0741  0.2973
  636MPD2    H7 9479   3.320   3.383  15.999 -1.2533 -0.2690  1.0525
  637TMC3    C1 9480   3.441   2.717  16.226 -0.1442  0.0794  0.3396
  637TMC3    C2 9481   3.464   2.789  16.336  0.1250  0.0512  0.2703
  637TMC3    C3 9482   3.586   2.793  16.397  0.7697  0.0968  0.5880
  637TMC3    C4 9483   3.533   2.636  16.176  0.3656  0.2003 -0.3587
  637TMC3    C5 9484   3.663   2.642  16.231 -0.3734  0.6753 -0.3629
  637TMC3    C6 9485   3.686   2.711  16.349  0.1691  0.4675 -0.3070
  637TMC3     C 9486   3.358   2.767  16.121  0.3906 -0.4927  0.4817
  637TMC3     O 9487   3.307   2.681  16.049  0.2863 -0.1740 -0.4741
  637TMC3     H 9488   3.381   2.848  16.372  0.2362  0.3251  0.0812
  637TMC3    H1 9489   3.504   2.586  16.084  0.6785 -0.4209 -0.1140
  637TMC3    H2 9490   3.784   2.719  16.395  1.9704 -0.8162 -3.8997
  637TMC3    C7 9491   3.752   2.700  16.135  0.4944  0.1808  0.1200
  637TMC3    C8 9492   3.630   2.926  16.421  0.4789  0.4958  0.0848
  637TMC3    O1 9493   3.816   2.795  16.181  0.1356 -0.2205 -0.2409
  637TMC3    O2 9494   3.575   3.016  16.358 -0.8624  0.2548  0.2687
  638MPD2     C 9495   2.663   2.125  14.960  0.6432  0.2764 -0.3974
  638MPD2    C1 9496   2.595   2.035  14.876  0.0235  0.6746 -0.0413
  638MPD2    C2 9497   2.551   1.912  14.908 -0.2197  0.2492  0.8494
  638MPD2    C3 9498   2.581   1.862  15.032  0.1966 -0.3496 -0.3171
  638MPD2    C4 9499   2.641   1.954  15.121 -0.3814  0.4016 -0.3685
  638MPD2    C5 9500   2.686   2.076  15.086 -0.5952  0.1956 -0.5502
  638MPD2     H 9501   2.517   1.836  14.838  2.3296  0.5016 -0.6620
  638MPD2    H1 9502   2.662   1.929  15.224  3.1205  2.2011 -0.6741
  638MPD2    H2 9503   2.692   2.226  14.935 -0.1486  1.3725  3.0634
  638MPD2    H3 9504   2.731   2.140  15.162 -0.5087 -1.5681  0.8783
  638MPD2     N 9505   2.563   1.728  15.064  0.1666  0.0981  0.5905
  638MPD2    H5 9506   2.529   1.664  14.993 -2.0532  2.3995 -0.4091
  638MPD2    N1 9507   2.587   2.083  14.747  0.2868 -0.7309 -0.5640
  638MPD2    H7 9508   2.649   2.159  14.721  0.0533  0.2381  1.6980
  639TMC3    C1 9509   2.610   1.525  15.174  0.0943 -0.1869 -0.1564
  639TMC3    C2 9510   2.512   1.458  15.103  0.9212 -0.1605  0.3226
  639TMC3    C3 9511   2.502   1.327  15.131 -0.1150 -0.1807  0.4157
  639TMC3    C4 9512   2.691   1.463  15.267 -0.2615 -0.1467 -0.2908
  639TMC3    C5 9513   2.680   1.328  15.294 -0.1100  0.0012  0.0297
  639TMC3    C6 9514   2.580   1.258  15.225  0.5590 -0.2219 -0.0132
  639TMC3     C 9515   2.618   1.669  15.179  0.0906 -0.2932 -0.1187
  639TMC3     O 9516   2.676   1.718  15.278  0.7103 -0.2377  0.3752
  639TMC3     H 9517   2.442   1.499  15.031  0.2191  0.9280  1.6065
  639TMC3    H1 9518   2.758   1.521  15.329 -0.5991 -2.0829  1.8760
  639TMC3    H2 9519   2.559   1.153  15.238 -1.0679 -0.2182 -2.5533
  639TMC3    C7 9520   2.783   1.246  15.342  0.3137 -0.5025  0.1300
  639TMC3    C8 9521   2.435   1.252  15.020 -0.2435 -0.2008  0.5193
  639TMC3    O1 9522   2.752   1.139  15.401  0.2025 -0.2962  0.3299
  639TMC3    O2 9523   2.433   1.303  14.906  0.2272 -0.3182  0.0592
  640MPD2     C 9524   3.326   0.792  10.242 -0.3820  0.6759 -0.2170
  640MPD2    C1 9525   3.288   0.861  10.131 -0.6951 -0.6142  0.5602
  640MPD2    C2 9526   3.222   0.986  10.154  0.0697 -1.1376  0.5679
  640MPD2    C3 9527   3.204   1.040  10.279  0.2295 -0.0709 -0.3426
  640MPD2    C4 9528   3.235   0.960  10.387  0.3271 -0.4688  0.1004
  640MPD2    C5 9529   3.291   0.840  10.365  0.1156  0.3413  0.3455
  640MPD2     H 9530   3.191   1.038  10.064  0.7459 -2.8232 -0.6388
  640MPD2    H1 9531   3.219   0.984  10.491 -2.4625  0.3770 -0.5273
  640MPD2    H2 9532   3.376   0.696  10.232 -0.7482  0.2753  1.7051
  640MPD2    H3 9533   3.320   0.787  10.454  0.5883  0.1256  0.0651
  640MPD2     N 9534   3.159   1.174  10.297  0.0725  0.8627 -0.3288
  640MPD2    H5 9535   3.142   1.198  10.393  0.5278  1.2569 -0.3480
  640MPD2    N1 9536   3.318   0.807  10.001  0.5543 -0.0570  0.9550
  640MPD2    H7 9537   3.360   0.714  10.001 -0.7328 -0.6394 -1.5067
  641TMC3    C1 9538   3.344   0.799   9.765  0.9437  0.0510  1.5856
  641TMC3    C2 9539   3.410   0.680   9.779  0.0953 -0.3369 -0.1916
  641TMC3    C3 9540   3.482   0.640   9.667 -0.0292  0.1494  0.1172
  641TMC3    C4 9541   3.341   0.877   9.648  0.2506  0.4071 -0.4478
  641TMC3    C5 9542   3.410   0.826   9.543  0.1476 -0.8391  1.0818
  641TMC3    C6 9543   3.479   0.705   9.547 -0.1950  0.0715 -0.4292
  641TMC3     C 9544   3.301   0.867   9.885 -0.2057  0.0127 -0.2368
  641TMC3     O 9545   3.239   0.975   9.867 -0.2808  0.0805  0.2264
  641TMC3     H 9546   3.371   0.598   9.838 -0.1928  0.0763  0.1969
  641TMC3    H1 9547   3.306   0.980   9.652 -0.5871  0.0548  1.3913
  641TMC3    H2 9548   3.529   0.659   9.463  1.5839  0.7928  0.2239
  641TMC3    C7 9549   3.459   0.913   9.442  0.0870  0.1219  0.6724
  641TMC3    C8 9550   3.538   0.505   9.658 -0.4193 -0.5404 -0.0761
  641TMC3    O1 9551   3.570   0.884   9.393  0.3371 -0.0928  0.5863
  641TMC3    O2 9552   3.560   0.465   9.546 -0.6608  0.2291 -0.2424
  642TMC3    C1 9553   4.329   1.331  12.249 -0.0494  0.9330  0.0473
  642TMC3    C2 9554   4.376   1.450  12.300 -0.5224  0.2897  0.7402
  642TMC3    C3 9555   4.451   1.440  12.409  0.4182 -0.7655  1.2619
  642TMC3    C4 9556   4.356   1.213  12.312 -0.3967  0.0943  0.1966
  642TMC3    C5 9557   4.436   1.206  12.424 -0.0136  0.2761  0.0470
  642TMC3    C6 9558   4.477   1.326  12.478 -0.2960  0.6800  0.6829
  642TMC3     C 9559   4.223   1.333  12.147  0.4650  0.1663 -0.5695
  642TMC3     O 9560   4.158   1.233  12.139  0.1274 -0.2082  0.1405
  642TMC3     H 9561   4.373   1.547  12.252  0.7473  0.1491  0.3689
  642TMC3    H1 9562   4.317   1.124  12.266  0.2386 -0.9845  1.7444
  642TMC3    H2 9563   4.545   1.308  12.560  0.0584  2.0957  0.7063
  642TMC3    C7 9564   4.423   1.095  12.514  0.5321  0.1990  0.8729
  642TMC3    C8 9565   4.520   1.556  12.456 -0.3589 -0.3970  0.3020
  642TMC3    O1 9566   4.430   1.127  12.632 -0.0180 -0.3416 -0.7279
  642TMC3    O2 9567   4.546   1.643  12.375 -0.0586 -0.8950  0.1681
  643TMC3    C1 9568   4.022   0.806   0.460 -0.0411 -0.2270 -0.3717
  643TMC3    C2 9569   3.887   0.841   0.450 -0.1539  0.2954  0.5590
  643TMC3    C3 9570   3.811   0.751   0.371 -0.1724 -0.5479  0.3733
  643TMC3    C4 9571   4.087   0.708   0.393  0.9077 -0.8011  0.8819
  643TMC3    C5 9572   4.016   0.633   0.308  0.6719 -0.8280  0.8979
  643TMC3    C6 9573   3.880   0.649   0.305 -0.0335  0.3702 -0.5330
  643TMC3     C 9574   4.100   0.904   0.527 -0.9324 -0.1810 -0.0896
  643TMC3     O 9575   4.045   1.012   0.541 -1.0087 -0.4318  0.7397
  643TMC3     H 9576   3.834   0.921   0.500 -0.9744  0.3193 -0.3341
  643TMC3    H1 9577   4.192   0.683   0.402  1.4605  1.3288  0.4745
  643TMC3    H2 9578   3.831   0.593   0.226 -1.0030  0.8749 -0.2794
  643TMC3    C7 9579   4.064   0.652   0.172 -0.7133 -0.0814 -0.4026
  643TMC3    C8 9580   3.705   0.795   0.288  0.9473 -0.6251  0.1351
  643TMC3    O1 9581   4.146   0.741   0.166 -0.3349  0.7648  0.1868
  643TMC3    O2 9582   3.646   0.715   0.220 -0.2758 -0.8466  0.5963
  644MPD2     C 9583   3.104   1.483   9.629 -0.3767 -0.3253 -0.3888
  644MPD2    C1 9584   3.217   1.532   9.573  1.1479  0.2831 -0.6372
  644MPD2    C2 9585   3.208   1.645   9.500  0.9839  0.6735 -1.1205
  644MPD2    C3 9586   3.094   1.723   9.513  0.0483 -0.0193 -0.7562
  644MPD2    C4 9587   2.993   1.684   9.599 -0.6002  0.7579 -0.5140
  644MPD2    C5 9588   3.001   1.566   9.659  0.2745  0.1782  0.3630
  644MPD2     H 9589   3.285   1.690   9.439  1.2014  2.5937  0.5565
  644MPD2    H1 9590   2.898   1.732   9.619 -0.7420 -0.1809  1.0070
  644MPD2    H2 9591   3.108   1.383   9.671 -1.1145  0.5467  1.7722
  644MPD2    H3 9592   2.933   1.536   9.738 -0.4960 -1.1294 -0.8070
  644MPD2     N 9593   3.076   1.837   9.428 -0.4080  0.2782  0.8372
  644MPD2    H5 9594   3.158   1.855   9.372  0.0098  0.0790  1.3868
  644MPD2    N1 9595   3.339   1.451   9.573 -1.0015  0.5833  0.1361
  644MPD2    H7 9596   3.340   1.378   9.644  0.9729 -0.7831 -1.2924
  645TMC3    C1 9597   2.945   1.988   9.292 -0.1161 -0.0884 -0.0250
  645TMC3    C2 9598   3.052   2.008   9.208  0.1594 -0.2562  1.3738
  645TMC3    C3 9599   3.032   2.095   9.101 -0.9782  0.3780  0.1256
  645TMC3    C4 9600   2.821   2.055   9.272  0.0635  0.2382 -0.5098
  645TMC3    C5 9601   2.814   2.149   9.174  0.5577 -0.7751 -0.0893
  645TMC3    C6 9602   2.909   2.164   9.078  0.4530  0.2823  0.7650
  645TMC3     C 9603   2.953   1.898   9.407 -0.1146 -0.1060  0.8806
  645TMC3     O 9604   2.850   1.885   9.467 -0.0660  0.1275  0.4056
  645TMC3     H 9605   3.135   1.939   9.211  1.1948  0.8404 -2.2384
  645TMC3    H1 9606   2.752   2.043   9.354  1.2155 -1.2268  0.2342
  645TMC3    H2 9607   2.888   2.221   8.989  1.8520 -0.2208  0.1059
  645TMC3    C7 9608   2.692   2.227   9.177 -0.1640 -0.2618  0.1353
  645TMC3    C8 9609   3.138   2.098   9.006 -0.6200 -0.4671 -0.6531
  645TMC3    O1 9610   2.604   2.195   9.258 -0.1118  0.2080  0.0874
  645TMC3    O2 9611   3.219   2.008   9.003  0.2451  0.3004 -0.3470
  646MPD2     C 9612   3.074   0.602  14.589  0.1944 -0.5850  0.2758
  646MPD2    C1 9613   2.972   0.516  14.610 -0.3389  0.5676  0.4980
  646MPD2    C2 9614   2.846   0.545  14.559 -0.3590  0.2103 -0.0839
  646MPD2    C3 9615   2.829   0.666  14.490  1.3697  0.2723  0.0243
  646MPD2    C4 9616   2.935   0.751  14.461  0.1072 -0.1128 -0.3441
  646MPD2    C5 9617   3.051   0.716  14.518 -0.1768 -0.2566 -0.4477
  646MPD2     H 9618   2.768   0.474  14.582  0.1721  0.0931  1.3371
  646MPD2    H1 9619   2.924   0.846  14.411 -0.4389  0.1070  0.1948
  646MPD2    H2 9620   3.174   0.602  14.632  0.2826  1.5432  0.0967
  646MPD2    H3 9621   3.133   0.788  14.522 -1.0331  0.7469 -0.9110
  646MPD2     N 9622   2.702   0.699  14.452  0.5159 -0.1549 -0.8480
  646MPD2    H5 9623   2.628   0.639  14.487  0.4519 -0.1074 -0.9032
  646MPD2    N1 9624   3.001   0.402  14.683 -0.2239 -0.2599  0.7906
  646MPD2    H7 9625   3.101   0.391  14.693 -0.2087 -0.8560 -0.0004
  647TMC3    C1 9626   2.989   0.225  14.843  0.1567 -0.6349 -0.3490
  647TMC3    C2 9627   2.920   0.219  14.965  0.5767 -0.2697 -0.8257
  647TMC3    C3 9628   2.989   0.209  15.080 -0.4174 -0.3279 -0.4656
  647TMC3    C4 9629   3.123   0.218  14.836  0.3331  0.5828 -0.2760
  647TMC3    C5 9630   3.195   0.216  14.947  0.5434 -1.2179  0.3444
  647TMC3    C6 9631   3.122   0.213  15.065  0.9604  0.3776  0.2345
  647TMC3     C 9632   2.923   0.321  14.754 -0.2949 -0.5770  0.5156
  647TMC3     O 9633   2.800   0.311  14.761 -0.1362  0.1359 -0.2137
  647TMC3     H 9634   2.811   0.217  14.967  0.5365  0.6512 -2.3671
  647TMC3    H1 9635   3.179   0.209  14.744  1.1382 -2.7170  0.5652
  647TMC3    H2 9636   3.188   0.190  15.148 -0.1662 -3.1394  0.1674
  647TMC3    C7 9637   3.318   0.142  14.945 -0.4886  0.1265 -0.2214
  647TMC3    C8 9638   2.970   0.110  15.185 -0.5982  0.6818  0.8097
  647TMC3    O1 9639   3.415   0.194  14.996 -0.0762 -0.2217  0.0779
  647TMC3    O2 9640   3.020   0.140  15.292  0.1053  0.9639  0.3233
  648TMC3    C1 9641   2.486   3.054  15.999 -0.9279  1.1803  1.1379
  648TMC3    C2 9642   2.525   2.948  15.916  0.1420 -0.2063  0.4391
  648TMC3    C3 9643   2.432   2.905  15.819 -0.2188 -0.0524 -0.1194
  648TMC3    C4 9644   2.368   3.129  15.973  0.1343 -0.4584 -1.0608
  648TMC3    C5 9645   2.297   3.084  15.863  0.1926 -0.2069 -0.4175
  648TMC3    C6 9646   2.317   2.967  15.793  0.8939 -0.4504 -0.3653
  648TMC3     C 9647   2.559   3.077  16.124  0.3347  0.5908  0.1043
  648TMC3     O 9648   2.526   3.168  16.195  0.3446  0.2314 -0.5879
  648TMC3     H 9649   2.623   2.908  15.938 -1.0242 -3.6620 -0.7470
  648TMC3    H1 9650   2.324   3.207  16.035 -0.7326 -1.5545 -0.2848
  648TMC3    H2 9651   2.255   2.939  15.709 -0.9826 -0.1330  0.9236
  648TMC3    C7 9652   2.161   3.130  15.847  0.5205  0.1199 -0.4927
  648TMC3    C8 9653   2.472   2.792  15.745 -0.4692  0.3010 -0.4024
  648TMC3    O1 9654   2.076   3.043  15.832  0.5245  0.0894  0.8119
  648TMC3    O2 9655   2.558   2.720  15.790  0.2120 -0.2081  0.1368
  649TMC3    C1 9656   1.583   3.930  12.842  0.8401  0.1421 -0.1223
  649TMC3    C2 9657   1.685   3.897  12.762  0.0352 -0.5900 -0.2620
  649TMC3    C3 9658   1.730   3.766  12.757  0.0877  0.2458 -0.2959
  649TMC3    C4 9659   1.530   3.837  12.931 -0.0052  0.3664 -0.0951
  649TMC3    C5 9660   1.580   3.707  12.921  0.5062  0.2739 -0.3790
  649TMC3    C6 9661   1.672   3.670  12.832  0.8557 -0.2297 -0.0945
  649TMC3     C 9662   1.520   4.060  12.836  0.0544  0.0417  0.1900
  649TMC3     O 9663   1.415   4.067  12.900  0.3532  0.0384 -0.0681
  649TMC3     H 9664   1.729   3.969  12.694  1.4511 -2.1403 -0.9711
  649TMC3    H1 9665   1.455   3.874  13.000  0.5894  1.6844 -0.1588
  649TMC3    H2 9666   1.690   3.563  12.825  3.0031  0.1152 -0.0201
  649TMC3    C7 9667   1.523   3.607  13.004  0.8692 -0.0680  0.4882
  649TMC3    C8 9668   1.846   3.727  12.677 -0.5586 -0.4103 -0.7020
  649TMC3    O1 9669   1.405   3.608  13.034 -0.4098  0.4369 -0.1208
  649TMC3    O2 9670   1.916   3.643  12.726 -0.4207  0.7680 -0.4194
  650TMC3    C1 9671   4.115   1.154  12.708  0.1646 -0.2509  0.2176
  650TMC3    C2 9672   4.096   1.289  12.682 -0.4268 -0.3101 -0.5046
  650TMC3    C3 9673   4.044   1.333  12.558 -0.3534  0.6379 -0.1609
  650TMC3    C4 9674   4.103   1.062  12.611  1.0518  0.1084 -0.1884
  650TMC3    C5 9675   4.051   1.103  12.495 -0.3898  0.2372  0.1797
  650TMC3    C6 9676   4.022   1.233  12.460 -0.3248  0.2372  0.8100
  650TMC3     C 9677   4.146   1.122  12.844  0.2698  0.1017 -0.6448
  650TMC3     O 9678   4.153   1.216  12.918  0.2713 -0.2250 -0.2765
  650TMC3     H 9679   4.118   1.363  12.758  3.5370  0.4337 -2.3799
  650TMC3    H1 9680   4.120   0.956  12.623 -0.9691 -0.1559  0.3942
  650TMC3    H2 9681   3.999   1.264  12.359  0.5244  0.6040  0.7314
  650TMC3    C7 9682   4.032   1.001  12.396  0.0260  0.4053 -0.5482
  650TMC3    C8 9683   4.044   1.469  12.503 -0.0769  0.7558  0.2622
  650TMC3    O1 9684   4.112   0.911  12.392 -0.0009  0.1344 -0.0487
  650TMC3    O2 9685   3.979   1.483  12.398  0.3946 -0.1218 -0.3565
  651MPD2     C 9686   2.658   3.086  10.178  0.8724 -0.5638  1.0289
  651MPD2    C1 9687   2.667   3.148  10.297 -0.3220 -0.5932 -0.0597
  651MPD2    C2 9688   2.792   3.172  10.355 -0.5600 -0.1389 -0.1878
  651MPD2    C3 9689   2.912   3.130  10.299  0.2470 -0.1005  0.4524
  651MPD2    C4 9690   2.897   3.076  10.168 -0.4987 -0.4502 -0.3005
  651MPD2    C5 9691   2.773   3.054  10.109  0.2010  0.0918  0.0590
  651MPD2     H 9692   2.795   3.233  10.444 -3.1016  1.3454 -1.1157
  651MPD2    H1 9693   2.985   3.043  10.114 -1.1286  3.9017 -3.9560
  651MPD2    H2 9694   2.562   3.056  10.139  0.5952 -0.9199  1.9992
  651MPD2    H3 9695   2.753   3.003  10.016 -1.0486  1.7352 -0.5674
  651MPD2     N 9696   3.039   3.154  10.356  0.4223  0.2496 -0.1618
  651MPD2    H5 9697   3.041   3.190  10.451  0.4985  0.5864 -0.2877
  651MPD2    N1 9698   2.557   3.175  10.377  0.4595  0.4673 -0.4012
  651MPD2    H7 9699   2.576   3.234  10.458 -0.6711  0.4099 -0.1046
  652TMC3    C1 9700   3.499   3.236  10.360  0.4512 -0.6078  0.2093
  652TMC3    C2 9701   3.398   3.154  10.333  0.1447  0.2150 -0.7387
  652TMC3    C3 9702   3.272   3.184  10.386  0.9183  0.1791 -0.5633
  652TMC3    C4 9703   3.483   3.341  10.448 -0.5746  0.2905  0.2339
  652TMC3    C5 9704   3.358   3.368  10.499  0.2061  0.7787 -0.1800
  652TMC3    C6 9705   3.248   3.295  10.462  0.2722 -0.4339 -0.1401
  652TMC3     C 9706   3.634   3.190  10.367 -0.3004  0.1676 -0.0286
  652TMC3     O 9707   3.657   3.098  10.442  0.4267  0.0606  0.0991
  652TMC3     H 9708   3.415   3.061  10.280  2.0883  1.0658 -1.6295
  652TMC3    H1 9709   3.564   3.400  10.490  1.6372 -1.6468 -1.3421
  652TMC3    H2 9710   3.156   3.314  10.515  1.2482  0.6162  1.1750
  652TMC3    C7 9711   3.361   3.444  10.623 -0.2121  0.0285 -0.4443
  652TMC3    C8 9712   3.161   3.125  10.302 -0.1821  0.0396  0.3336
  652TMC3    O1 9713   3.267   3.427  10.695 -0.0191  0.0005 -0.6574
  652TMC3    O2 9714   3.198   3.082  10.195 -0.6813  0.3678  0.1599
  653MPD2     C 9715   1.954   2.598  17.663  1.1722 -0.2348 -0.0838
  653MPD2    C1 9716   1.895   2.702  17.589  0.7825 -0.9109  0.4406
  653MPD2    C2 9717   1.828   2.670  17.474 -0.0535 -0.7602 -0.2479
  653MPD2    C3 9718   1.805   2.542  17.430  0.4237  0.2445  0.2027
  653MPD2    C4 9719   1.858   2.439  17.509 -0.5103  0.0195  0.0390
  653MPD2    C5 9720   1.922   2.470  17.625 -0.0486 -0.3505  0.1480
  653MPD2     H 9721   1.770   2.739  17.414 -0.2812 -0.7730 -0.0422
  653MPD2    H1 9722   1.847   2.335  17.483  1.7784 -0.6838  1.8370
  653MPD2    H2 9723   2.016   2.616   0.012  0.0383 -0.2938  0.7491
  653MPD2    H3 9724   1.976   2.398  17.685  0.2176  0.2222  0.5836
  653MPD2     N 9725   1.714   2.523  17.322  0.3447  0.1286 -0.0983
  653MPD2    H5 9726   1.672   2.601  17.273  0.4036 -0.5054 -1.1564
  653MPD2    N1 9727   1.909   2.836  17.624 -0.3930 -0.1901  0.2605
  653MPD2    H7 9728   1.877   2.905  17.556 -0.7316  0.8644  1.4750
  654TMC3    C1 9729   1.606   2.419  17.142  0.4454  0.4083 -0.0505
  654TMC3    C2 9730   1.632   2.538  17.069  0.1732  0.4430  0.7708
  654TMC3    C3 9731   1.600   2.534  16.937  0.5045  0.2008 -0.9219
  654TMC3    C4 9732   1.554   2.304  17.083  0.0462 -0.1223  0.6882
  654TMC3    C5 9733   1.522   2.311  16.954 -0.3130 -0.2619  0.4092
  654TMC3    C6 9734   1.544   2.422  16.882 -0.4870 -0.1703 -0.2543
  654TMC3     C 9735   1.677   2.403  17.266 -0.4764 -0.2447 -0.2683
  654TMC3     O 9736   1.697   2.293  17.306  0.5695 -0.5374 -0.6017
  654TMC3     H 9737   1.685   2.626  17.101 -0.1468  1.1721 -0.6957
  654TMC3    H1 9738   1.539   2.217  17.147  0.4085 -0.4072  0.3779
  654TMC3    H2 9739   1.499   2.433  16.784 -0.2527 -1.5449 -0.5174
  654TMC3    C7 9740   1.499   2.184  16.877  0.1961  0.3507  0.5130
  654TMC3    C8 9741   1.583   2.661  16.870  0.1782 -0.7240 -0.3213
  654TMC3    O1 9742   1.466   2.193  16.762 -0.2927  0.0898  0.2748
  654TMC3    O2 9743   1.551   2.757  16.944  0.6429 -0.5658  0.3102
  655MPD2     C 9744   2.788   2.951  15.601 -0.2185 -0.3614  0.2794
  655MPD2    C1 9745   2.711   3.052  15.554 -0.1130 -0.7116  0.1923
  655MPD2    C2 9746   2.653   3.043  15.430  0.3946  0.0394 -0.2676
  655MPD2    C3 9747   2.663   2.927  15.354  1.3195  0.5010  0.2365
  655MPD2    C4 9748   2.741   2.824  15.403  0.0850  0.1718 -0.2227
  655MPD2    C5 9749   2.803   2.838  15.523  0.8145  0.3002 -0.3724
  655MPD2     H 9750   2.604   3.133  15.394 -3.2563 -0.8827  2.3632
  655MPD2    H1 9751   2.760   2.742  15.334  0.8610  0.8689 -0.8351
  655MPD2    H2 9752   2.845   2.957  15.693  0.7916  0.5545 -0.4045
  655MPD2    H3 9753   2.861   2.754  15.560 -1.1441 -1.4638 -1.3299
  655MPD2     N 9754   2.603   2.916  15.223  0.3444 -0.3158 -0.1937
  655MPD2    H5 9755   2.611   2.831  15.168 -0.4916  1.5307 -3.1880
  655MPD2    N1 9756   2.702   3.176  15.622 -0.0572 -0.2208  0.7309
  655MPD2    H7 9757   2.662   3.254  15.571  1.1244  1.0090  1.6789
  656TMC3    C1 9758   2.743   3.342  15.788 -0.0797 -0.0276 -0.3459
  656TMC3    C2 9759   2.667   3.367  15.904 -0.0382  0.3009 -0.6691
  656TMC3    C3 9760   2.575   3.468  15.900  0.3847 -0.3445  0.2735
  656TMC3    C4 9761   2.717   3.410  15.674  0.1637  0.1521  0.0071
  656TMC3    C5 9762   2.613   3.499  15.669 -1.0039 -0.4195  0.2528
  656TMC3    C6 9763   2.532   3.522  15.778  0.1638 -0.1522  0.0533
  656TMC3     C 9764   2.740   3.201  15.754  0.1209  0.0223 -0.1257
  656TMC3     O 9765   2.748   3.119  15.842 -0.4366  0.0168  0.3248
  656TMC3     H 9766   2.668   3.305  15.992 -0.2190  1.6133  0.2665
  656TMC3    H1 9767   2.791   3.398  15.596 -1.4814  0.1582 -1.5624
  656TMC3    H2 9768   2.458   3.601  15.776  0.9893  0.6419  0.8646
  656TMC3    C7 9769   2.541   3.460  15.548 -0.5816 -0.9564  0.0179
  656TMC3    C8 9770   2.472   3.446  15.997 -0.8041  0.0071  0.2799
  656TMC3    O1 9771   2.594   3.423  15.447 -0.9614 -0.7949  0.4170
  656TMC3    O2 9772   2.363   3.423  15.946 -0.7223 -0.1122 -0.2154
  657TMC3    C1 9773   1.515   2.467  15.131  0.7413  0.1995 -0.4408
  657TMC3    C2 9774   1.593   2.542  15.218 -0.5122 -0.4075 -0.1302
  657TMC3    C3 9775   1.556   2.670  15.241  0.5074 -0.7753 -0.4667
  657TMC3    C4 9776   1.408   2.528  15.070 -0.7645 -0.1931 -0.2203
  657TMC3    C5 9777   1.396   2.663  15.074  0.1712  0.6500 -0.7989
  657TMC3    C6 9778   1.468   2.738  15.164  0.1497 -0.2638  0.0793
  657TMC3     C 9779   1.562   2.339  15.083  0.2894 -0.3244 -0.5025
  657TMC3     O 9780   1.486   2.270  15.021 -0.6448  0.1990 -0.1049
  657TMC3     H 9781   1.671   2.499  15.281 -0.5614 -2.3604 -1.3820
  657TMC3    H1 9782   1.343   2.461  15.016  0.6903 -1.3513 -0.5472
  657TMC3    H2 9783   1.447   2.840  15.194  0.4260 -0.5685  1.2920
  657TMC3    C7 9784   1.274   2.720  15.018  0.0174  0.2280  0.0099
  657TMC3    C8 9785   1.576   2.738  15.368 -0.5874 -0.0868  0.5808
  657TMC3    O1 9786   1.188   2.637  14.985  0.3220 -0.2688  0.0021
  657TMC3    O2 9787   1.520   2.843  15.390  0.1441 -0.2817 -0.3759
  658MPD2     C 9788   2.977   2.720  14.728  0.6979 -0.3255 -0.1025
  658MPD2    C1 9789   2.847   2.716  14.682 -0.4519 -0.7430 -0.7338
  658MPD2    C2 9790   2.820   2.653  14.560  0.1004 -0.7099  0.2417
  658MPD2    C3 9791   2.917   2.585  14.490  0.0441  0.1941  0.0417
  658MPD2    C4 9792   3.046   2.594  14.540 -0.2108  0.4205 -1.3139
  658MPD2    C5 9793   3.074   2.668  14.650  0.3937 -0.0767  0.2910
  658MPD2     H 9794   2.721   2.637  14.519 -1.2783 -0.3577  3.4540
  658MPD2    H1 9795   3.130   2.549  14.487  1.1206 -0.7703  1.8140
  658MPD2    H2 9796   3.008   2.774  14.817 -0.1302 -2.6715  1.6095
  658MPD2    H3 9797   3.175   2.673  14.690  0.2108  0.2703  0.7139
  658MPD2     N 9798   2.882   2.522  14.363 -0.1750  0.1827 -0.0616
  658MPD2    H5 9799   2.784   2.529  14.338 -0.5144 -0.6518  1.0149
  658MPD2    N1 9800   2.750   2.779  14.766 -0.1681  0.0777  0.2497
  658MPD2    H7 9801   2.794   2.836  14.838  0.8095 -0.7668  0.3170
  659TMC3    C1 9802   2.536   2.882  14.818 -0.3825 -0.8986 -0.2832
  659TMC3    C2 9803   2.578   2.912  14.948  0.3667  0.6227 -0.2088
  659TMC3    C3 9804   2.509   2.998  15.024  0.0479  0.0930 -0.7632
  659TMC3    C4 9805   2.425   2.950  14.769 -0.1622 -0.5534  0.5074
  659TMC3    C5 9806   2.368   3.051  14.837  0.3883 -0.0734  0.3573
  659TMC3    C6 9807   2.410   3.074  14.966 -0.1737  0.2090  0.1584
  659TMC3     C 9808   2.623   2.805  14.724  0.0559  0.9117 -0.1896
  659TMC3     O 9809   2.553   2.746  14.637 -0.0921  0.0730 -0.0834
  659TMC3     H 9810   2.660   2.854  14.987  1.5248  2.1374 -0.3990
  659TMC3    H1 9811   2.384   2.925  14.672  1.5810  2.3318 -0.9835
  659TMC3    H2 9812   2.373   3.161  15.019  2.0430  1.0232  0.3684
  659TMC3    C7 9813   2.231   3.076  14.834 -0.4648 -0.1738  0.5083
  659TMC3    C8 9814   2.512   3.004  15.168  0.6362 -0.5236 -0.0010
  659TMC3    O1 9815   2.163   2.976  14.849  0.2718  0.1324 -0.7290
  659TMC3    O2 9816   2.449   3.094  15.224  0.3477 -0.2156  0.3237
  660MPD2     C 9817   1.081   2.037  12.504  0.4988  0.2750 -0.0968
  660MPD2    C1 9818   0.953   2.081  12.517 -0.7788 -0.5107  0.0327
  660MPD2    C2 9819   0.882   2.032  12.624 -0.0679  0.3065  0.9613
  660MPD2    C3 9820   0.933   1.945  12.720  0.1513 -0.0406 -0.0115
  660MPD2    C4 9821   1.062   1.903  12.705  0.2893 -0.1388 -0.3352
  660MPD2    C5 9822   1.131   1.950  12.597 -0.2417  0.1876 -0.5198
  660MPD2     H 9823   0.780   2.064  12.642  0.1556  2.1607 -1.0171
  660MPD2    H1 9824   1.121   1.838  12.769 -0.9011 -2.2321 -1.3719
  660MPD2    H2 9825   1.147   2.060  12.421  2.6702 -2.6110  0.8009
  660MPD2    H3 9826   1.235   1.923  12.589 -0.1785  0.5017 -0.7552
  660MPD2     N 9827   0.851   1.901  12.830  0.3351  0.5083 -0.1238
  660MPD2    H5 9828   0.880   1.829  12.896  0.2502  0.9807  0.4278
  660MPD2    N1 9829   0.903   2.170  12.420 -0.1416  0.1770 -0.8068
  660MPD2    H7 9830   0.939   2.160  12.325 -2.0617 -0.0528 -1.5195
  661TMC3    C1 9831   0.712   2.267  12.328  0.0535  0.4167  0.8766
  661TMC3    C2 9832   0.764   2.274  12.203  0.0944  0.3024  0.0019
  661TMC3    C3 9833   0.703   2.202  12.102 -0.4451  0.5178 -0.2943
  661TMC3    C4 9834   0.579   2.230  12.349  0.0458 -0.2973  0.2237
  661TMC3    C5 9835   0.519   2.168  12.243  0.3398  0.1720  0.5695
  661TMC3    C6 9836   0.586   2.146  12.128 -0.3896  0.3772  0.6438
  661TMC3     C 9837   0.800   2.253  12.448 -0.9208  0.2314 -0.1891
  661TMC3     O 9838   0.755   2.288  12.556 -0.1285  0.0459 -0.2133
  661TMC3     H 9839   0.867   2.298  12.178  0.2222 -0.8159 -0.5705
  661TMC3    H1 9840   0.541   2.212  12.449  2.3760  2.1122  1.5491
  661TMC3    H2 9841   0.535   2.099  12.044  2.5559 -0.9463 -0.3778
  661TMC3    C7 9842   0.401   2.095  12.282  0.6103 -0.0578  0.4849
  661TMC3    C8 9843   0.760   2.213  11.965 -0.2413  0.1599 -0.0022
  661TMC3    O1 9844   0.328   2.138  12.373  0.3679  0.3110  0.2133
  661TMC3    O2 9845   0.735   2.115  11.900 -0.3762 -0.1928  0.1813
  662MPD2     C 9846   1.410   1.494  16.821  0.4643  0.7867 -0.1967
  662MPD2    C1 9847   1.441   1.452  16.951  0.3408 -0.3263  0.3645
  662MPD2    C2 9848   1.375   1.514  17.055 -0.2124 -0.0818 -0.2833
  662MPD2    C3 9849   1.284   1.618  17.022  0.5483  0.5579 -0.5883
  662MPD2    C4 9850   1.262   1.659  16.897  0.4335 -0.7108  0.3721
  662MPD2    C5 9851   1.330   1.599  16.797  0.2431  0.4445 -0.6950
  662MPD2     H 9852   1.393   1.482  17.157 -2.9104 -0.6027  0.0300
  662MPD2    H1 9853   1.189   1.737  16.879 -1.0483 -2.4454 -1.2193
  662MPD2    H2 9854   1.464   1.452  16.737  2.5478 -0.8150  1.9305
  662MPD2    H3 9855   1.331   1.647  16.700 -0.2740 -0.7072 -1.2770
  662MPD2     N 9856   1.192   1.667  17.119 -0.2019 -0.3513  0.5631
  662MPD2    H5 9857   1.110   1.717  17.084 -0.4617 -0.7416  0.6088
  662MPD2    N1 9858   1.511   1.333  16.980  0.2237  0.5259  0.2071
  662MPD2    H7 9859   1.498   1.297  17.074  0.6440  0.4841  0.2481
  663TMC3    C1 9860   1.582   1.117  16.960 -0.1022 -0.1054 -0.0407
  663TMC3    C2 9861   1.610   1.131  17.094 -0.0490 -0.4595 -0.1003
  663TMC3    C3 9862   1.561   1.049  17.189 -0.4527  0.1448  0.6662
  663TMC3    C4 9863   1.502   1.015  16.911  0.3728 -0.6652  0.4680
  663TMC3    C5 9864   1.438   0.949  17.011 -0.0343  0.3538  0.1712
  663TMC3    C6 9865   1.467   0.954  17.147 -0.6992 -0.5974  0.6746
  663TMC3     C 9866   1.562   1.243  16.892 -1.0345  0.0841 -0.2072
  663TMC3     O 9867   1.591   1.246  16.770 -0.4115 -0.3473 -0.1709
  663TMC3     H 9868   1.687   1.200  17.126  0.1847 -0.4662 -0.6474
  663TMC3    H1 9869   1.470   1.016  16.807 -0.3370 -1.7140  0.6770
  663TMC3    H2 9870   1.407   0.904  17.222  0.6522  0.0358  2.1826
  663TMC3    C7 9871   1.343   0.851  16.966  0.4872  0.0564  0.1131
  663TMC3    C8 9872   1.516   1.121  17.304  0.1311 -0.0338 -0.3155
  663TMC3    O1 9873   1.260   0.885  16.875  0.3300 -0.6584  0.4495
  663TMC3    O2 9874   1.509   1.243  17.294 -0.2891  0.0687 -0.2349
  664MPD2     C 9875   3.636   0.207  17.199  0.9052 -0.0843 -0.5685
  664MPD2    C1 9876   3.753   0.191  17.267 -0.4826 -0.0659  0.0821
  664MPD2    C2 9877   3.754   0.135  17.393  1.2518  0.2340 -0.2577
  664MPD2    C3 9878   3.636   0.097  17.449  0.3602 -0.3465  0.0104
  664MPD2    C4 9879   3.515   0.107  17.380 -0.9471  0.7649 -0.7291
  664MPD2    C5 9880   3.519   0.171  17.256  0.2423  0.4071 -0.4061
  664MPD2     H 9881   3.852   0.125  17.439  0.3806 -1.3223  1.2685
  664MPD2    H1 9882   3.421   0.070  17.420 -0.1648 -0.3214  0.0987
  664MPD2    H2 9883   3.634   0.258  17.103  1.3462 -0.2903 -0.6908
  664MPD2    H3 9884   3.433   0.183  17.190  0.6085 -0.0745 -0.9748
  664MPD2     N 9885   3.646   0.026  17.572  0.7673 -0.1315 -0.1787
  664MPD2    H5 9886   3.738   0.022  17.615  1.0592 -1.8248 -0.9600
  664MPD2    N1 9887   3.877   0.223  17.206  0.1259  0.0673  0.3434
  664MPD2    H7 9888   3.962   0.183  17.244 -0.8433  1.1624  3.6893
  665TMC3    C1 9889   3.606   4.581  17.710  0.0335 -0.8979 -0.1396
  665TMC3    C2 9890   3.538   4.546   0.085  0.0797  0.2882 -0.0952
  665TMC3    C3 9891   3.615   4.466   0.170  0.1915  0.1850  0.0727
  665TMC3    C4 9892   3.736   4.543  17.679  0.1088  0.2278  0.2280
  665TMC3    C5 9893   3.803   4.469   0.038 -0.6003 -0.4119 -0.5201
  665TMC3    C6 9894   3.744   4.428   0.154 -0.3802 -0.1542 -0.7505
  665TMC3     C 9895   3.548   4.675  17.621 -0.4476 -0.0561  0.3441
  665TMC3     O 9896   3.431   4.667  17.601  0.4525 -0.0835 -0.0566
  665TMC3     H 9897   3.437   4.572   0.116  0.3886 -0.3636  1.4462
  665TMC3    H1 9898   3.781   4.561  17.582  0.1650  0.1466  0.2390
  665TMC3    H2 9899   3.799   4.354   0.211  1.3495  1.9365  0.2934
  665TMC3    C7 9900   3.942   4.472   0.038  0.2363 -0.0595 -0.7919
  665TMC3    C8 9901   3.568   4.446   0.305 -0.0513 -0.4365 -0.3516
  665TMC3    O1 9902   3.995   4.481  17.662 -0.2657 -0.2993 -0.4913
  665TMC3    O2 9903   3.655   4.401   0.383 -0.5884 -0.0211  0.1302
  666TMC3    C1 9904   3.353   4.599   9.848  0.1477 -0.2648  0.2207
  666TMC3    C2 9905   3.424   4.556   9.955  0.1998 -0.0213 -0.3940
  666TMC3    C3 9906   3.485   4.648  10.036 -0.9228 -0.0329 -0.1142
  666TMC3    C4 9907   3.335   4.732   9.822  0.6029 -0.6696 -0.1741
  666TMC3    C5 9908   3.409   0.086   9.900  0.2339  0.4683 -0.2118
  666TMC3    C6 9909   3.478   0.048  10.008 -0.2639  0.5247 -0.2282
  666TMC3     C 9910   3.309   4.503   9.756 -0.3360  0.5151 -0.5435
  666TMC3     O 9911   3.272   4.542   9.646  0.4848 -0.0989 -0.1595
  666TMC3     H 9912   3.453   4.454   9.978 -1.6181 -0.4787 -0.1595
  666TMC3    H1 9913   3.272   0.028   9.739 -0.3764 -4.6130 -0.8923
  666TMC3    H2 9914   3.535   0.122  10.063  2.9875 -0.2665 -2.5294
  666TMC3    C7 9915   3.361   0.219   9.910 -0.1939 -0.4703  0.0804
  666TMC3    C8 9916   3.584   4.590  10.132 -0.4967 -0.4715  0.4966
  666TMC3    O1 9917   3.405   0.290   9.998 -0.6972 -0.2950  1.2687
  666TMC3    O2 9918   3.583   4.466  10.156  0.0503  0.1674  0.3281
  667MPD2     C 9919   0.058   0.095  15.113 -0.3814 -0.7600 -0.5568
  667MPD2    C1 9920   0.089   4.723  15.193  0.2530 -0.4880 -0.2194
  667MPD2    C2 9921   4.725   4.630  15.217 -0.2343 -0.7274  0.0962
  667MPD2    C3 9922   4.599   4.638  15.159 -0.3688 -0.1573  0.2558
  667MPD2    C4 9923   4.570   0.012  15.082  0.4109  0.1617  0.0432
  667MPD2    C5 9924   4.668   0.106  15.054 -0.1011  0.6568  0.3054
  667MPD2     H 9925   0.014   4.552  15.288  0.3466 -1.7910 -1.2683
  667MPD2    H1 9926   4.475   0.024  15.031  1.5796  1.0710 -1.9485
  667MPD2    H2 9927   0.123   0.182  15.105  1.0767 -1.8866 -0.9185
  667MPD2    H3 9928   4.633   0.194  15.002 -2.3201  0.6754  1.8340
  667MPD2     N 9929   4.496   4.549  15.180  0.3545 -0.6353 -0.1974
  667MPD2    H5 9930   4.411   4.549  15.123 -0.1606 -3.3585  0.5540
  667MPD2    N1 9931   0.226   4.726  15.236  0.1859 -0.2883 -0.0537
  667MPD2    H7 9932   0.276   0.076  15.209 -2.4475  0.1574 -3.5907
  668TMC3    C1 9933   0.431   4.645  15.314 -0.0623  0.1546 -0.2561
  668TMC3    C2 9934   0.500   0.006  15.238  0.3250  0.3096 -0.2260
  668TMC3    C3 9935   0.622   0.059  15.284  0.4500  0.0386  0.3781
  668TMC3    C4 9936   0.482   4.593  15.425  0.2748  0.2724  0.1989
  668TMC3    C5 9937   0.605   4.642  15.463 -0.2979  0.3293  0.1026
  668TMC3    C6 9938   0.673   0.003  15.395  0.8017 -0.1737 -0.6994
  668TMC3     C 9939   0.291   4.625  15.305  0.1337  0.6580 -0.0657
  668TMC3     O 9940   0.249   4.523  15.353 -1.0614  0.6387 -0.3147
  668TMC3     H 9941   0.462   0.045  15.144 -0.8979  1.8930  0.9249
  668TMC3    H1 9942   0.433   4.512  15.478 -1.6334  0.7066 -0.9023
  668TMC3    H2 9943   0.766   0.038  15.439  0.4393  0.8145 -0.7254
  668TMC3    C7 9944   0.666   4.593  15.590  0.5823  0.3087  0.2978
  668TMC3    C8 9945   0.693   0.173  15.229  0.1671 -0.1574  0.7325
  668TMC3    O1 9946   0.746   4.670  15.634  0.3417  0.3775 -0.2776
  668TMC3    O2 9947   0.779   0.227  15.297 -0.1853  0.0975 -0.8503
  669TMC3    C1 9948   2.523   4.493  14.685 -0.3546 -0.0035  0.1955
  669TMC3    C2 9949   2.433   4.466  14.584  0.1468  0.1287  0.2362
  669TMC3    C3 9950   2.452   4.513  14.455 -0.2065  0.2797  0.7919
  669TMC3    C4 9951   2.637   4.563  14.661 -0.1209  0.3940 -0.3425
  669TMC3    C5 9952   2.658   4.607  14.536  0.4941  0.7920  0.6080
  669TMC3    C6 9953   2.571   4.576  14.428 -0.4352  0.0703  0.3502
  669TMC3     C 9954   2.511   4.404  14.796  0.0977 -0.1683  0.3290
  669TMC3     O 9955   2.399   4.361  14.823  0.6688  0.6991  0.1265
  669TMC3     H 9956   2.352   4.398  14.606 -0.3900  0.3532 -1.0525
  669TMC3    H1 9957   2.701   4.585  14.746  1.9579  0.9676 -2.0640
  669TMC3    H2 9958   2.598   4.614  14.330 -0.7552  2.4227  1.1595
  669TMC3    C7 9959   2.766   4.696  14.518  1.2541 -0.0784  0.5124
  669TMC3    C8 9960   2.394   4.433  14.349 -0.2498 -0.3310  0.2111
  669TMC3    O1 9961   2.866   4.692  14.593  0.1401  0.0076  0.4648
  669TMC3    O2 9962   2.372   4.311  14.366 -0.4776  0.0986  0.0589
  670MPD2     C 9963   0.718   2.143  13.174 -0.3821  0.5882  0.6665
  670MPD2    C1 9964   0.846   2.113  13.214 -0.2935 -0.0498  0.0092
  670MPD2    C2 9965   0.868   2.063  13.341  0.6120 -0.1883 -0.0593
  670MPD2    C3 9966   0.766   2.058  13.432  0.5559 -0.0004  0.5544
  670MPD2    C4 9967   0.639   2.107  13.398 -0.0715  0.4856  0.0809
  670MPD2    C5 9968   0.622   2.140  13.266  0.0280 -0.1512 -0.3828
  670MPD2     H 9969   0.971   2.040  13.367  0.8719  0.3909 -0.5678
  670MPD2    H1 9970   0.553   2.105  13.463 -0.6726  0.9448 -0.6997
  670MPD2    H2 9971   0.685   2.150  13.071 -0.2237 -1.9477  0.4414
  670MPD2    H3 9972   0.521   2.168  13.236 -0.1114 -0.2497 -0.0118
  670MPD2     N 9973   0.786   2.013  13.564 -0.4648  0.4563 -0.0786
  670MPD2    H5 9974   0.884   1.993  13.582 -0.4042 -1.0375 -2.0395
  670MPD2    N1 9975   0.959   2.117  13.131  0.2317  0.2728  0.0531
  670MPD2    H7 9976   1.050   2.088  13.165  0.2263  0.2955  0.0871
  671TMC3    C1 9977   0.740   1.965  13.796 -0.0763  0.6129 -0.0345
  671TMC3    C2 9978   0.875   1.979  13.824  0.1980  0.0124  0.0347
  671TMC3    C3 9979   0.925   1.912  13.932  0.2202 -0.4378 -0.1190
  671TMC3    C4 9980   0.675   1.890  13.884  0.2652 -0.2059  0.1372
  671TMC3    C5 9981   0.737   1.799  13.969 -0.4485  0.9655 -1.1992
  671TMC3    C6 9982   0.862   1.817  14.006  0.3526  0.3336  0.3989
  671TMC3     C 9983   0.687   2.003  13.665  0.2844  0.4868 -0.3978
  671TMC3     O 9984   0.566   2.005  13.664 -0.1203  0.4441 -0.2447
  671TMC3     H 9985   0.935   2.038  13.756 -0.3697  2.6161  1.8074
  671TMC3    H1 9986   0.570   1.868  13.869  0.1032  2.2805 -2.2109
  671TMC3    H2 9987   0.914   1.744  14.067  0.8893  0.4142  0.0293
  671TMC3    C7 9988   0.665   1.676  14.004 -0.1716  0.3962 -0.1354
  671TMC3    C8 9989   1.070   1.890  13.931 -0.2646  0.5440  0.5453
  671TMC3    O1 9990   0.580   1.649  13.918 -0.2512 -0.1805 -0.1194
  671TMC3    O2 9991   1.120   1.862  13.818 -0.5070  0.1752  1.1788
  672MPD2     C 9992   1.711   2.218   1.051 -0.0755  0.0164 -0.4048
  672MPD2    C1 9993   1.814   2.172   0.975  0.8312 -0.1725  0.4157
  672MPD2    C2 9994   1.941   2.230   0.995  0.2034 -0.4588  0.3542
  672MPD2    C3 9995   1.959   2.339   1.075  0.4208  0.3298  0.3312
  672MPD2    C4 9996   1.857   2.391   1.141 -0.5582  0.2097  0.0237
  672MPD2    C5 9997   1.735   2.325   1.128  0.4558  0.5452  0.5074
  672MPD2     H 9998   2.016   2.178   0.937  0.5307 -1.3075  1.5484
  672MPD2    H1 9999   1.859   2.481   1.201 -1.1815  0.2503 -0.0088
  672MPD2    H210000   1.613   2.171   1.044 -0.5923  0.7913  1.8264
  672MPD2    H310001   1.658   2.359   1.196 -0.5905 -0.2049 -0.3155
  672MPD2     N10002   2.082   2.400   1.099  0.3643 -0.2125  0.1169
  672MPD2    H510003   2.083   2.479   1.162 -1.2046  0.3136 -0.5210
  672MPD2    N110004   1.793   2.075   0.877 -0.1320 -0.2152 -0.1619
  672MPD2    H710005   1.870   2.064   0.812 -0.4716 -1.0153 -0.4246
  673TMC3    C110006   1.687   1.963   0.699 -0.2965 -0.3333 -0.6202
  673TMC3    C210007   1.803   1.927   0.641  0.4677 -0.0065  0.5256
  673TMC3    C310008   1.794   1.890   0.510  0.1539  0.1250 -1.0319
  673TMC3    C410009   1.573   1.978   0.623 -0.3536 -0.3435 -0.1544
  673TMC3    C510010   1.574   1.940   0.494  0.5232 -0.4484 -0.2870
  673TMC3    C610011   1.681   1.890   0.440  0.1814 -0.6812  0.4767
  673TMC3     C10012   1.677   2.019   0.831 -0.0064  0.3828 -0.6747
  673TMC3     O10013   1.569   2.024   0.887 -0.2253  0.7712  0.3923
  673TMC3     H10014   1.894   1.916   0.698  1.2863 -0.4650 -0.8475
  673TMC3    H110015   1.480   2.012   0.665  0.0228  0.2482  0.1898
  673TMC3    H210016   1.676   1.867   0.335  0.9284  0.4489  0.1999
  673TMC3    C710017   1.479   2.014   0.412  0.8229  0.0900 -0.4376
  673TMC3    C810018   1.894   1.799   0.457 -0.4061  0.4550 -0.6254
  673TMC3    O110019   1.433   1.959   0.315 -0.4027 -0.2243  0.0836
  673TMC3    O210020   1.872   1.750   0.350 -0.1141 -0.1315  0.1196
  674MPD2     C10021   1.492   2.775  17.717  0.1482  0.2413  0.5052
  674MPD2    C110022   1.441   2.660  17.671  0.0645 -0.0406 -0.3612
  674MPD2    C210023   1.304   2.644  17.676  0.0735  0.3808  0.0349
  674MPD2    C310024   1.226   2.732   0.008  0.1264  0.0531  0.3720
  674MPD2    C410025   1.281   2.855   0.037 -0.4405 -0.0340 -0.1949
  674MPD2    C510026   1.411   2.880   0.021 -0.2248 -0.2701  0.6699
  674MPD2     H10027   1.264   2.545  17.656 -1.8438  1.2295 -0.3892
  674MPD2    H110028   1.220   2.938   0.070  0.5543  0.3973  0.5746
  674MPD2    H210029   1.599   2.791  17.711  0.5014 -1.9451  1.1161
  674MPD2    H310030   1.453   2.979   0.030  2.7291 -1.4418 -0.2431
  674MPD2     N10031   1.107   2.674   0.066  0.0439  0.4039  0.8663
  674MPD2    H510032   1.079   2.584   0.028  1.5757 -0.5977  2.1380
  674MPD2    N110033   1.526   2.546  17.671  0.2232  0.0869 -0.4312
  674MPD2    H710034   1.625   2.565  17.676 -0.0922  2.0255 -1.3704
  675TMC3    C110035   1.589   2.329  17.679 -0.0671  0.3938  0.1111
  675TMC3    C210036   1.560   2.205  17.628  0.1462 -0.2655  0.6138
  675TMC3    C310037   1.588   2.097  17.703  0.2353  0.5771 -0.1654
  675TMC3    C410038   1.638   2.354   0.068 -0.3908  0.5968 -0.0422
  675TMC3    C510039   1.671   2.237   0.134 -0.3677 -0.3170  0.3227
  675TMC3    C610040   1.645   2.110   0.086 -0.3318 -0.4960 -0.1154
  675TMC3     C10041   1.494   2.429  17.623 -0.3927 -0.1514  0.1389
  675TMC3     O10042   1.391   2.379  17.580  0.0797 -0.1086 -0.6050
  675TMC3     H10043   1.510   2.188  17.534  1.6123  2.5578 -0.6757
  675TMC3    H110044   1.656   2.454   0.106  1.8063 -0.6365  2.2006
  675TMC3    H210045   1.679   2.025   0.146  0.6790 -0.4859 -0.6818
  675TMC3    C710046   1.767   2.246   0.248 -0.1018 -0.5305  0.4897
  675TMC3    C810047   1.529   1.966  17.671 -0.2505  0.3819 -0.0188
  675TMC3    O110048   1.817   2.142   0.282  0.3799  0.1789  0.2158
  675TMC3    O210049   1.522   1.946  17.552  0.1701 -0.1972  0.0221
  676MPD2     C10050   4.237   0.439  11.416  0.6286  0.4841  0.5178
  676MPD2    C110051   4.137   0.476  11.507 -0.1422 -0.4309  0.5977
  676MPD2    C210052   4.002   0.486  11.461 -0.0646  0.2798  0.1770
  676MPD2    C310053   3.975   0.454  11.322  1.2266  0.0251  0.3079
  676MPD2    C410054   4.077   0.438  11.234 -0.4397  0.3660 -0.7890
  676MPD2    C510055   4.209   0.430  11.279 -0.1860  0.2567 -0.2843
  676MPD2     H10056   3.930   0.509  11.539  0.3349 -1.5740  1.0882
  676MPD2    H110057   4.051   0.431  11.129 -0.2873  0.6726 -0.8464
  676MPD2    H210058   4.337   0.452  11.455  0.5887  2.5292 -0.0275
  676MPD2    H310059   4.289   0.417  11.208  1.2031 -0.8636  1.4776
  676MPD2     N10060   3.842   0.457  11.272 -0.0734 -0.0767 -0.2477
  676MPD2    H510061   3.830   0.411  11.182 -0.9904 -1.9764  0.8285
  676MPD2    N110062   4.166   0.531  11.640 -0.3205  0.1115 -0.3768
  676MPD2    H710063   4.086   0.526  11.702  0.0610 -2.6193 -0.0909
  677TMC3    C110064   4.269   0.632  11.816  0.2293  0.4509  0.1194
  677TMC3    C210065   4.204   0.545  11.901 -0.0041  0.0656  0.0935
  677TMC3    C310066   4.229   0.571  12.030  0.3121 -0.9372  0.4089
  677TMC3    C410067   4.355   0.731  11.858  0.1539  0.2695  0.2470
  677TMC3    C510068   4.367   0.756  11.992 -0.2970 -0.3671 -0.1347
  677TMC3    C610069   4.304   0.675  12.087 -0.1258  0.4674  0.5681
  677TMC3     C10070   4.275   0.605  11.681 -0.3502  0.0398 -0.0879
  677TMC3     O10071   4.358   0.660  11.612 -0.5331  0.1718 -0.0476
  677TMC3     H10072   4.137   0.461  11.883  1.2055 -0.3094 -2.5757
  677TMC3    H110073   4.423   0.775  11.785  0.3587  0.5386  0.6003
  677TMC3    H210074   4.318   0.679  12.194 -0.5817 -0.8114  0.6798
  677TMC3    C710075   4.438   0.875  12.043 -0.7265 -0.3872 -0.1014
  677TMC3    C810076   4.244   0.441  12.093 -0.2708  0.2566 -0.0955
  677TMC3    O110077   4.442   0.893  12.163  0.4303  0.0553  0.1593
  677TMC3    O210078   4.278   0.353  12.017  0.8122 -0.2902  0.1534
  678MPD2     C10079   0.524   4.680   1.156 -0.2702 -0.1748 -0.6862
  678MPD2    C110080   0.540   4.720   1.025 -0.2669  0.5835 -0.7318
  678MPD2    C210081   0.441   0.068   0.959  0.2269  0.0341 -0.2514
  678MPD2    C310082   0.320   0.089   1.024  0.4835 -0.6298  0.1656
  678MPD2    C410083   0.304   0.043   1.153 -0.0608  0.3611  0.4653
  678MPD2    C510084   0.408   4.715   1.216 -0.7836  0.3415 -0.1732
  678MPD2     H10085   0.448   0.096   0.854 -0.6111 -0.2914 -0.4006
  678MPD2    H110086   0.221   0.069   1.217 -0.2834  1.1126 -0.1203
  678MPD2    H210087   0.602   4.632   1.213  0.6510  0.8686 -1.0708
  678MPD2    H310088   0.389   4.685   1.318 -2.2080  2.4867  0.2159
  678MPD2     N10089   0.226   0.173   0.969  0.1431  0.3368  0.0507
  678MPD2    H510090   0.255   0.205   0.877  0.4720 -2.7448 -0.9257
  678MPD2    N110091   0.660   4.693   0.953 -0.1181  0.5602  0.0207
  678MPD2    H710092   0.679   0.021   0.875  1.4599 -0.0760 -0.0967
  679TMC3    C110093   1.080   4.462   0.886 -0.4001 -0.0659 -0.1551
  679TMC3    C210094   0.956   4.478   0.940 -0.7439  0.0796  0.2167
  679TMC3    C310095   0.865   4.577   0.906 -0.3780  0.5997  0.4354
  679TMC3    C410096   1.116   4.539   0.777 -0.2101  0.1776  0.0132
  679TMC3    C510097   1.024   4.639   0.736 -0.1698  0.2190  0.5583
  679TMC3    C610098   0.897   4.656   0.796  0.0591  0.2224 -0.3315
  679TMC3     C10099   1.183   4.387   0.955  0.8750 -0.1830  1.6478
  679TMC3     O10100   1.286   4.385   0.890 -0.3685 -0.1162 -0.5413
  679TMC3     H10101   0.919   4.416   1.021 -2.8831  0.9949 -0.0474
  679TMC3    H110102   1.203   4.521   0.716  0.3001  3.5032 -0.2432
  679TMC3    H210103   0.831   4.734   0.762 -1.0270 -1.6922 -2.6324
  679TMC3    C710104   1.068   0.002   0.629  0.0208  0.1949  0.0393
  679TMC3    C810105   0.738   4.587   0.985 -0.3134 -0.4471  0.8158
  679TMC3    O110106   0.987   0.088   0.604 -0.6090 -0.4694  0.4148
  679TMC3    O210107   0.718   4.495   1.069 -0.9511  0.5414 -0.8016
  680MPD2     C10108   0.611   3.310  13.499 -0.4008  0.0197  0.1054
  680MPD2    C110109   0.729   3.366  13.543  0.0088 -0.5699  0.3760
  680MPD2    C210110   0.725   3.490  13.597  0.1483 -0.0266 -0.6141
  680MPD2    C310111   0.615   3.561  13.627  0.5676  0.1472 -0.0927
  680MPD2    C410112   0.494   3.509  13.587 -0.8233 -0.0028 -0.3575
  680MPD2    C510113   0.491   3.375  13.523 -0.1919 -0.9143  0.7392
  680MPD2     H10114   0.823   3.534  13.609  0.1214  0.0332 -0.6132
  680MPD2    H110115   0.394   3.544  13.611 -1.6534 -1.9882 -0.8413
  680MPD2    H210116   0.607   3.207  13.464  0.9337  0.1085 -0.3217
  680MPD2    H310117   0.404   3.318  13.492 -1.4975  0.7947  1.2358
  680MPD2     N10118   0.626   3.695  13.678  0.3058  0.5378 -0.3554
  680MPD2    H510119   0.556   3.768  13.664 -0.9704 -0.3349  1.5610
  680MPD2    N110120   0.857   3.308  13.537  0.3696  0.0001 -0.8499
  680MPD2    H710121   0.934   3.364  13.572  1.3071 -1.2432 -0.9283
  681TMC3    C110122   1.002   3.135  13.553  0.1764 -0.1849  0.4737
  681TMC3    C210123   0.997   3.102  13.686  0.3425 -0.0781  0.1007
  681TMC3    C310124   1.102   3.118  13.770  0.0801  0.0035 -1.1356
  681TMC3    C410125   1.112   3.204  13.505  0.3590  0.0612  0.4147
  681TMC3    C510126   1.222   3.215  13.589 -0.1408  0.1068  0.1156
  681TMC3    C610127   1.217   3.173  13.724  0.2263 -1.0022  0.3234
  681TMC3     C10128   0.876   3.178  13.500  0.4162  0.0863  0.1715
  681TMC3     O10129   0.801   3.089  13.477 -0.1685  0.2126  0.3061
  681TMC3     H10130   0.903   3.069  13.729  0.3937  3.0836  2.6426
  681TMC3    H110131   1.109   3.233  13.401  0.4069 -1.2785  0.0348
  681TMC3    H210132   1.304   3.175  13.789  0.2509  1.8404  0.2205
  681TMC3    C710133   1.358   3.239  13.535  0.1178  0.0509 -0.1288
  681TMC3    C810134   1.061   3.137  13.912 -0.3290 -0.1408  0.1028
  681TMC3    O110135   1.446   3.248  13.617  0.1062 -0.0429  0.5199
  681TMC3    O210136   0.956   3.081  13.941  0.3636  0.2072 -0.4123
  682MPD2     C10137   2.896   0.945  10.839  0.5074 -0.1717 -1.0012
  682MPD2    C110138   2.934   0.820  10.798 -0.4367 -0.2359 -1.1154
  682MPD2    C210139   2.972   0.730  10.900 -0.0904 -0.4525 -0.3205
  682MPD2    C310140   2.976   0.770  11.036 -0.2268 -0.6343 -0.0187
  682MPD2    C410141   2.965   0.897  11.063 -0.5824  0.8391 -0.0672
  682MPD2    C510142   2.926   0.989  10.970  0.2106 -0.1041  0.1883
  682MPD2     H10143   2.988   0.626  10.874  2.5091  0.2855 -1.7709
  682MPD2    H110144   2.964   0.922  11.169 -1.2227  1.4240 -0.2045
  682MPD2    H210145   2.870   1.022  10.767  0.2434  1.5870  0.9671
  682MPD2    H310146   2.897   1.091  10.993 -1.3649 -0.6329  0.4889
  682MPD2     N10147   2.980   0.679  11.146  0.2280 -0.0200  0.4857
  682MPD2    H510148   2.981   0.721  11.238 -1.7521  0.1713  0.4161
  682MPD2    N110149   2.932   0.786  10.658 -0.3515 -0.0169  0.1447
  682MPD2    H710150   2.960   0.694  10.627  0.3174 -0.7947  3.0613
  683TMC3    C110151   2.882   0.464  11.485  0.1118  0.4240  0.3018
  683TMC3    C210152   2.781   0.364  11.482  0.0369 -0.1242  0.1822
  683TMC3    C310153   2.729   0.334  11.352 -0.5139  0.6704 -0.3198
  683TMC3    C410154   2.933   0.527  11.376  0.6878 -0.2934 -0.7292
  683TMC3    C510155   2.876   0.494  11.255  0.0513 -0.1081 -0.3843
  683TMC3    C610156   2.772   0.405  11.243 -0.0487  0.1250  0.3156
  683TMC3     C10157   2.948   0.488  11.612 -0.3623  0.8437 -0.4658
  683TMC3     O10158   3.010   0.593  11.625  0.5687 -0.4166  0.3297
  683TMC3     H10159   2.721   0.337  11.568  0.4797 -1.2793  0.1240
  683TMC3    H110160   3.027   0.580  11.384 -1.0585  2.6565  0.3662
  683TMC3    H210161   2.718   0.391  11.151  2.1727 -0.6325 -0.8865
  683TMC3    C710162   2.915   0.557  11.135 -0.2538 -1.0008 -0.8667
  683TMC3    C810163   2.644   0.215  11.339 -0.6993 -0.7586 -0.0586
  683TMC3    O110164   2.878   0.495  11.035  0.0508  0.2645  0.2942
  683TMC3    O210165   2.572   0.201  11.238  0.0382 -0.6614 -0.5383
  684MPD2     C10166   1.599   4.541  16.568  0.2599 -0.3699 -0.1602
  684MPD2    C110167   1.525   4.603  16.470  0.0621 -1.2548  0.3419
  684MPD2    C210168   1.474   4.725  16.499  0.7926 -0.1918 -0.7903
  684MPD2    C310169   1.497   0.048  16.623 -0.0794 -0.6763  0.3700
  684MPD2    C410170   1.580   4.724  16.720  0.3047  0.1192  0.6946
  684MPD2    C510171   1.622   4.592  16.692  0.0755 -0.3625 -0.0574
  684MPD2     H10172   1.426   0.039  16.415 -0.6825 -0.2403  0.0226
  684MPD2    H110173   1.605   0.036  16.815  1.6632  2.1364 -0.6508
  684MPD2    H210174   1.637   4.440  16.565  1.6968  0.1352  0.9730
  684MPD2    H310175   1.677   4.542  16.772  0.0179  0.4623  0.4964
  684MPD2     N10176   1.444   0.181  16.653 -0.6512 -0.4037  0.2728
  684MPD2    H510177   1.476   0.237  16.732 -1.4427  0.9176 -0.3440
  684MPD2    N110178   1.504   4.558  16.336  0.9421  0.3536 -0.0661
  684MPD2    H710179   1.464   4.623  16.270  1.4621 -0.3765 -1.0930
  685TMC3    C110180   1.530   4.438  16.157  0.0532  0.1406 -0.4231
  685TMC3    C210181   1.429   4.513  16.096  0.4070 -0.1969  0.1159
  685TMC3    C310182   1.458   4.570  15.981  0.0569 -0.8470  0.0388
  685TMC3    C410183   1.652   4.415  16.094 -0.5757  0.0606 -0.6415
  685TMC3    C510184   1.683   4.496  15.987  0.4813 -0.3255 -0.3505
  685TMC3    C610185   1.582   4.560  15.925 -0.2141  0.0997 -0.4348
  685TMC3     C10186   1.526   4.427  16.298  0.2100 -0.1336 -0.2305
  685TMC3     O10187   1.582   4.335  16.353  0.0008  0.6355  0.1836
  685TMC3     H10188   1.332   4.513  16.144 -0.0530  0.9037 -0.8199
  685TMC3    H110189   1.721   4.345  16.139 -0.4746 -0.4267 -1.5579
  685TMC3    H210190   1.610   4.627  15.844 -0.5227 -1.9317 -2.2060
  685TMC3    C710191   1.815   4.541  15.967 -0.0110  0.1484 -0.6678
  685TMC3    C810192   1.349   4.627  15.898 -0.4127  1.4610 -0.1794
  685TMC3    O110193   1.851   4.571  15.860  0.4034  0.2707  0.0300
  685TMC3    O210194   1.360   4.629  15.777 -0.3185 -0.1544  0.3551
  686MPD2     C10195   2.710   0.142  15.724 -0.4808 -0.2628 -0.5473
  686MPD2    C110196   2.714   0.018  15.778 -0.8074 -0.6459  0.0557
  686MPD2    C210197   2.717   4.635  15.702  0.2973 -0.4694 -0.2508
  686MPD2    C310198   2.709   4.652  15.570  0.5440  0.2969 -0.4956
  686MPD2    C410199   2.700   0.042  15.514  0.6246 -0.6137 -0.5490
  686MPD2    C510200   2.694   0.153  15.590  0.2308  0.0373 -0.0122
  686MPD2     H10201   2.720   4.537  15.748 -0.8125 -0.4659 -0.1718
  686MPD2    H110202   2.693   0.050  15.406 -0.3009 -2.8663 -0.6498
  686MPD2    H210203   2.709   0.230  15.787  0.6455  0.3535 -1.3930
  686MPD2    H310204   2.686   0.252  15.547 -3.5622 -1.0289 -1.7277
  686MPD2     N10205   2.710   4.533  15.494  0.3441 -0.5019  0.2375
  686MPD2    H510206   2.723   4.451  15.551  1.5440 -0.4463  0.0468
  686MPD2    N110207   2.705   0.016  15.924  0.3920 -0.3072 -0.3145
  686MPD2    H710208   2.720   0.103  15.974 -1.3682 -1.0212  1.4705
  687TMC3    C110209   2.651   4.379  15.334 -0.4589  0.2504  0.1657
  687TMC3    C210210   2.516   4.358  15.327  0.0741  0.4187  0.2249
  687TMC3    C310211   2.458   4.267  15.420  0.3095  0.1653 -0.8019
  687TMC3    C410212   2.726   4.290  15.410  0.1613 -0.2129  0.2106
  687TMC3    C510213   2.670   4.198  15.497 -0.0307  0.8076 -0.5165
  687TMC3    C610214   2.534   4.189  15.502  0.6839 -0.0125 -0.0052
  687TMC3     C10215   2.676   4.518  15.358  0.3378 -0.2569  0.8488
  687TMC3     O10216   2.613   4.593  15.283 -0.3858  0.0901 -0.0678
  687TMC3     H10217   2.464   4.415  15.252 -2.3648 -0.7368  1.0406
  687TMC3    H110218   2.833   4.305  15.417  0.2774 -1.0855  0.2528
  687TMC3    H210219   2.491   4.122  15.576  0.0448  0.5618  0.1539
  687TMC3    C710220   2.724   4.213  15.633  0.1894  0.7173 -0.2476
  687TMC3    C810221   2.321   4.273  15.458  0.7261  0.4481  0.4366
  687TMC3    O110222   2.677   4.306  15.696 -0.0320 -0.1547 -0.0358
  687TMC3    O210223   2.284   4.215  15.559  0.4305  0.1047 -0.4403
  688MPD2     C10224   2.149   3.539  17.456  0.5513 -0.1386  0.2309
  688MPD2    C110225   2.175   3.402  17.435  0.1470  0.6645 -0.2112
  688MPD2    C210226   2.279   3.365  17.358 -0.7421 -0.3870  0.2036
  688MPD2    C310227   2.363   3.455  17.294  0.0558  0.5847  0.0599
  688MPD2    C410228   2.336   3.590  17.316  0.0733 -0.2064 -0.7950
  688MPD2    C510229   2.227   3.627  17.393  0.0643 -0.4640  0.1265
  688MPD2     H10230   2.309   3.261  17.347  0.0829  0.2132 -3.3160
  688MPD2    H110231   2.399   3.664  17.269  1.2810 -0.0801  1.0397
  688MPD2    H210232   2.070   3.577  17.520 -1.1083 -3.3737  0.1357
  688MPD2    H310233   2.222   3.733  17.417 -1.0480 -0.4435 -0.2319
  688MPD2     N10234   2.474   3.422  17.211  0.6141  0.3316 -0.9790
  688MPD2    H510235   2.555   3.481  17.193  0.5303  0.6755 -0.2331
  688MPD2    N110236   2.100   3.306  17.508  0.6305 -0.1014  0.3859
  688MPD2    H710237   2.141   3.214  17.515  0.8420 -0.1084 -0.8940
  689TMC3    C110238   1.973   3.234  17.683 -0.5246  0.7856 -0.6891
  689TMC3    C210239   1.917   3.279   0.069 -0.2139 -0.1713 -0.1428
  689TMC3    C310240   1.886   3.191   0.169 -0.3097 -0.1532  0.3100
  689TMC3    C410241   1.996   3.102  17.671  0.5449  0.5441  0.1863
  689TMC3    C510242   1.959   3.019   0.033  0.3830  0.3134 -0.0751
  689TMC3    C610243   1.913   3.057   0.154  0.3704 -0.3091  0.1579
  689TMC3     C10244   1.983   3.323  17.574  0.6498  0.4307  0.2429
  689TMC3     O10245   1.904   3.412  17.562  0.3830 -0.5342  0.1571
  689TMC3     H10246   1.892   3.384   0.079 -3.3871 -0.7749 -1.7164
  689TMC3    H110247   2.025   3.049  17.581  0.8673  1.7478 -0.4184
  689TMC3    H210248   1.888   2.985   0.232  1.7538  0.3809  1.2239
  689TMC3    C710249   1.954   2.881   0.015  0.1625  0.2571  0.1868
  689TMC3    C810250   1.839   3.229   0.300 -0.0740 -1.0908  0.0017
  689TMC3    O110251   1.970   2.817   0.117 -0.3443 -0.4110  0.0546
  689TMC3    O210252   1.887   3.169   0.396  0.8417  0.1586 -0.8010
  690MPD2     C10253   3.765   1.087  15.422 -0.1697 -0.2442  0.5874
  690MPD2    C110254   3.792   0.985  15.331  0.2159 -0.6161  0.4133
  690MPD2    C210255   3.926   0.951  15.308  0.2203  0.4016  0.3849
  690MPD2    C310256   4.030   0.998  15.379  0.2814 -0.4269  0.1127
  690MPD2    C410257   4.000   1.102  15.468 -0.0079 -0.6283 -0.1164
  690MPD2    C510258   3.870   1.141  15.489 -0.1992 -0.7906  0.2009
  690MPD2     H10259   3.950   0.881  15.229 -0.4678  0.2887  0.2744
  690MPD2    H110260   4.065   1.175  15.515  2.5381 -0.7834 -3.4445
  690MPD2    H210261   3.665   1.123  15.444  0.6314  1.2159  1.8086
  690MPD2    H310262   3.853   1.233  15.544 -0.2902 -1.3248  1.0645
  690MPD2     N10263   4.158   0.962  15.340  0.1759  0.0627  0.1131
  690MPD2    H510264   4.172   0.903  15.258 -0.1673 -1.1664  0.9265
  690MPD2    N110265   3.701   0.890  15.282 -0.2621  0.8726 -0.0275
  690MPD2    H710266   3.730   0.816  15.219  0.6739  2.0573 -0.9627
  691TMC3    C110267   3.516   0.764  15.253  0.3785 -0.5439  0.2457
  691TMC3    C210268   3.394   0.723  15.295 -0.6934 -0.2892 -0.0937
  691TMC3    C310269   3.343   0.606  15.249 -0.2957  0.7147  0.0521
  691TMC3    C410270   3.598   0.683  15.175  0.0038  0.3174 -0.0166
  691TMC3    C510271   3.550   0.555  15.142 -0.0248 -0.0120  0.2865
  691TMC3    C610272   3.422   0.523  15.173  0.1958  0.0374 -0.1050
  691TMC3     C10273   3.564   0.883  15.308 -0.5826 -0.0481 -0.3645
  691TMC3     O10274   3.492   0.949  15.385  0.7330  0.3693  0.2976
  691TMC3     H10275   3.333   0.781  15.364  1.2612  1.5015  0.1322
  691TMC3    H110276   3.694   0.711  15.135 -1.5150  2.3978 -2.1918
  691TMC3    H210277   3.376   0.430  15.141  0.3638  0.0901 -0.5010
  691TMC3    C710278   3.647   0.453  15.156 -0.2400  0.3893  0.2495
  691TMC3    C810279   3.202   0.569  15.271 -0.0618  0.0817  0.0345
  691TMC3    O110280   3.762   0.477  15.132  0.1910  0.0030  0.1900
  691TMC3    O210281   3.175   0.462  15.222 -0.3700 -0.7504  0.1912
  692TMC3    C110282   0.980   1.385  15.809  0.2288  0.1457 -0.6944
  692TMC3    C210283   1.101   1.422  15.856  0.3396  0.1736  0.1974
  692TMC3    C310284   1.185   1.328  15.912  0.3366 -0.1559 -0.6401
  692TMC3    C410285   0.936   1.265  15.843 -0.4750 -0.2617  0.6658
  692TMC3    C510286   1.017   1.179  15.906 -0.5125 -0.5946 -0.0422
  692TMC3    C610287   1.144   1.203  15.942 -1.2008 -0.1278 -0.3831
  692TMC3     C10288   0.883   1.489  15.779  0.2208 -0.1094  0.0158
  692TMC3     O10289   0.772   1.442  15.768  0.8682  1.2957  0.2004
  692TMC3     H10290   1.154   1.514  15.836 -1.0087  1.5947  3.0468
  692TMC3    H110291   0.840   1.221  15.819 -0.4898  0.5492 -0.7550
  692TMC3    H210292   1.212   1.121  15.964 -1.0031  0.4481  1.1937
  692TMC3    C710293   0.971   1.038  15.914  0.7776  0.8627  0.3365
  692TMC3    C810294   1.260   1.390  16.023 -0.6268 -0.6324 -1.0757
  692TMC3    O110295   0.898   0.995  15.829  0.1783  0.1663 -0.2418
  692TMC3    O210296   1.287   1.322  16.123  0.7885  0.5611  0.1034
  693MPD2     C10297   0.337   4.569  10.339  0.9417  0.0640 -0.0111
  693MPD2    C110298   0.245   4.572  10.437  0.0764  0.3449 -0.0655
  693MPD2    C210299   0.287   4.515  10.560 -0.1857 -0.3087 -0.0790
  693MPD2    C310300   0.419   4.468  10.583 -0.5961  0.4716 -0.0991
  693MPD2    C410301   0.504   4.479  10.481  0.0168  0.1318  0.0219
  693MPD2    C510302   0.467   4.531  10.365  0.9112 -0.1466  1.0942
  693MPD2     H10303   0.217   4.498  10.641 -1.5886 -0.3697 -1.3017
  693MPD2    H110304   0.603   4.435  10.492  0.9667  1.2024 -4.2248
  693MPD2    H210305   0.321   4.616  10.243 -0.4478 -1.5243 -0.5597
  693MPD2    H310306   0.527   4.535  10.275 -0.7615 -0.2911 -0.0349
  693MPD2     N10307   0.467   4.421  10.709  0.0388 -0.0486 -0.4739
  693MPD2    H510308   0.563   4.387  10.717  0.1721  0.4487  0.0341
  693MPD2    N110309   0.114   4.631  10.425  0.2838 -0.0933  0.3609
  693MPD2    H710310   0.073   4.641  10.517  1.3287 -0.3316  0.8526
  694TMC3    C110311   4.660   4.729  10.338 -1.0823 -0.3401 -0.3319
  694TMC3    C210312   4.561   4.684  10.253  0.3325  0.0542 -0.1814
  694TMC3    C310313   4.429   4.690  10.299  0.4076  0.5522  0.1687
  694TMC3    C410314   4.635   0.039  10.468  0.6838  0.0069 -0.1197
  694TMC3    C510315   4.501   0.042  10.502 -0.2074 -0.0219 -0.5064
  694TMC3    C610316   4.400   0.001  10.421  0.5441  0.6498  0.2515
  694TMC3     C10317   0.057   4.678  10.313 -0.2202 -0.2917  0.5811
  694TMC3     O10318   0.099   4.671  10.203 -0.8891  0.4259  0.0750
  694TMC3     H10319   4.590   4.648  10.155  1.1705 -0.1239  0.1259
  694TMC3    H110320   4.717   0.083  10.523  0.2203  0.7391 -0.0125
  694TMC3    H210321   4.297   0.007  10.454  0.7139  0.2141  0.8565
  694TMC3    C710322   4.459   0.031  10.643 -0.0087  0.4256  0.3948
  694TMC3    C810323   4.361   4.566  10.272  0.2317 -0.3757  0.1074
  694TMC3    O110324   4.356   4.707  10.665 -0.3466 -0.5467 -0.6797
  694TMC3    O210325   4.353   4.482  10.359  0.1511  0.3024  0.3642
  695MPD2     C10326   1.018   0.936  13.565 -0.1818  0.2779 -0.3596
  695MPD2    C110327   1.014   1.025  13.670 -0.1215  0.3628  0.0406
  695MPD2    C210328   0.894   1.073  13.710 -0.5882 -0.4307 -0.9721
  695MPD2    C310329   0.782   1.052  13.634  0.4623 -0.7497 -0.3197
  695MPD2    C410330   0.794   0.982  13.519 -0.5241 -0.2918 -0.0256
  695MPD2    C510331   0.911   0.918  13.487  0.3802  0.2384  0.5471
  695MPD2     H10332   0.906   1.155  13.780 -0.8746  0.2475 -1.7209
  695MPD2    H110333   0.704   0.982  13.458  0.9508  2.3030 -2.2387
  695MPD2    H210334   1.114   0.897  13.533 -0.5943 -1.9526  1.1099
  695MPD2    H310335   0.920   0.859  13.397 -2.6071 -1.8821  1.6466
  695MPD2     N10336   0.661   1.106  13.682  0.5196  0.1484  0.1419
  695MPD2    H510337   0.673   1.141  13.776  0.0937 -1.7216  0.8984
  695MPD2    N110338   1.128   1.085  13.728  0.8745 -0.2016  0.0345
  695MPD2    H710339   1.107   1.159  13.795  0.4840 -0.6905  0.4559
  696TMC3    C110340   0.432   1.169  13.697  0.0594  0.8173  1.1240
  696TMC3    C210341   0.419   1.146  13.831 -1.2205  1.3952  0.0500
  696TMC3    C310342   0.306   1.193  13.894 -0.4405 -0.4182  0.4547
  696TMC3    C410343   0.333   1.234  13.626 -0.6113 -0.1039 -0.0188
  696TMC3    C510344   0.222   1.278  13.687 -0.1592  0.2955 -0.3930
  696TMC3    C610345   0.205   1.264  13.824 -0.3294 -0.1740 -0.4431
  696TMC3     C10346   0.538   1.105  13.619 -0.7217 -0.2886  0.8164
  696TMC3     O10347   0.509   1.076  13.502 -0.2684 -0.5854  0.1485
  696TMC3     H10348   0.492   1.093  13.891 -1.2288  0.9976 -0.2880
  696TMC3    H110349   0.356   1.269  13.526  0.1381 -0.5521 -0.0027
  696TMC3    H210350   0.116   1.301  13.873 -0.5706  0.3386 -1.2603
  696TMC3    C710351   0.187   1.417  13.653 -0.1933 -0.2129 -0.2921
  696TMC3    C810352   0.336   1.258  14.024  0.1893  1.0814 -0.5949
  696TMC3    O110353   0.146   1.445  13.540  0.3174  0.3622 -0.1524
  696TMC3    O210354   0.293   1.374  14.029  0.3025 -0.4832 -0.0814
  697MPD2     C10355   0.309   2.854  15.527  0.0479 -0.5449 -0.2463
  697MPD2    C110356   0.273   2.883  15.402  0.4092  0.5555 -0.0752
  697MPD2    C210357   0.355   2.956  15.315  0.7758  0.2397  0.2623
  697MPD2    C310358   0.482   2.995  15.361  0.1311 -0.4651 -0.1752
  697MPD2    C410359   0.517   2.964  15.490  0.1610 -0.1143  0.5375
  697MPD2    C510360   0.437   2.891  15.572  0.0342 -0.3841  0.4673
  697MPD2     H10361   0.326   2.991  15.216  1.8578  0.7328  0.1155
  697MPD2    H110362   0.618   2.976  15.529 -0.3463  1.8039  1.2498
  697MPD2    H210363   0.253   2.789  15.593  1.0408 -2.0314 -0.8680
  697MPD2    H310364   0.471   2.843  15.663 -1.4593  1.7310  2.1237
  697MPD2     N10365   0.563   3.065  15.267  0.0912  0.0638  0.0567
  697MPD2    H510366   0.522   3.092  15.178 -1.1062 -0.1169  0.5523
  697MPD2    N110367   0.146   2.850  15.356 -0.5464  0.8261 -0.2073
  697MPD2    H710368   0.124   2.875  15.260 -2.2358  2.4561  0.5946
  698TMC3    C110369   0.737   3.216  15.202 -0.3709 -0.0320  0.5459
  698TMC3    C210370   0.800   3.327  15.244  0.0465  0.3378  0.2634
  698TMC3    C310371   0.850   3.410  15.156 -0.2369  0.6124  0.2226
  698TMC3    C410372   0.703   3.196  15.063  0.6834  0.4462 -0.3552
  698TMC3    C510373   0.749   3.295  14.977 -0.0146 -0.3302  0.6127
  698TMC3    C610374   0.827   3.399  15.021  0.2296 -0.0964 -0.4314
  698TMC3     C10375   0.680   3.129  15.298  0.1827 -0.2320  0.2915
  698TMC3     O10376   0.742   3.126  15.405  0.1632 -0.0207  0.3512
  698TMC3     H10377   0.816   3.355  15.347 -0.4780  1.4046  0.0526
  698TMC3    H110378   0.665   3.102  15.025 -0.3217  0.7967 -0.2412
  698TMC3    H210379   0.871   3.465  14.948  2.3081  1.1456  1.9737
  698TMC3    C710380   0.750   3.276  14.831  0.0284 -0.4400  0.6222
  698TMC3    C810381   0.937   3.517  15.209 -0.3445 -0.3260  0.0718
  698TMC3    O110382   0.845   3.305  14.762  0.3127  0.3631  0.7030
  698TMC3    O210383   0.957   3.509  15.327  0.2835 -0.2172  0.1415
  699TMC3    C110384   0.643   1.879  12.951  0.4920 -0.7991  0.3545
  699TMC3    C210385   0.683   1.752  12.981 -0.6126 -0.1183  0.2022
  699TMC3    C310386   0.586   1.668  13.032  0.1782 -0.0847 -0.0103
  699TMC3    C410387   0.513   1.921  12.964  0.0441 -0.2847 -0.1326
  699TMC3    C510388   0.425   1.834  13.028  0.4865  0.1898 -0.2103
  699TMC3    C610389   0.460   1.703  13.056  0.4411  0.8332  0.0456
  699TMC3     C10390   0.731   1.956  12.860  1.2018 -0.8346 -0.1142
  699TMC3     O10391   0.678   2.063  12.835  0.2430 -0.3670  0.4234
  699TMC3     H10392   0.785   1.720  13.001 -0.0378  1.4643 -0.1308
  699TMC3    H110393   0.476   2.019  12.937  0.8044  0.2830  0.8800
  699TMC3    H210394   0.386   1.629  13.083  0.4611  0.2481 -1.5253
  699TMC3    C710395   0.294   1.884  13.072 -0.5717  0.0267  0.3547
  699TMC3    C810396   0.621   1.522  13.032 -0.5281 -0.6916 -0.5306
  699TMC3    O110397   0.263   1.993  13.029 -0.1827  0.0027  0.1252
  699TMC3    O210398   0.534   1.450  13.075  0.0535  0.6444  0.2172
  700TMC3    C110399   0.232   3.318  17.474 -0.2501 -0.4611 -0.8983
  700TMC3    C210400   0.340   3.257  17.415 -0.0941  0.3366 -0.7163
  700TMC3    C310401   0.470   3.284  17.447 -0.4579  0.3172 -0.4963
  700TMC3    C410402   0.257   3.404  17.573 -0.6787 -1.0798 -0.4279
  700TMC3    C510403   0.386   3.433  17.604 -0.8793 -0.1138  0.0732
  700TMC3    C610404   0.493   3.372  17.548  0.2615  0.3664 -0.6896
  700TMC3     C10405   0.142   3.370  17.370  1.3942  0.3367  0.2504
  700TMC3     O10406   0.131   3.294  17.276 -0.1671 -0.0768 -0.2598
  700TMC3     H10407   0.324   3.188  17.333  0.0591 -2.0597  1.2820
  700TMC3    H110408   0.180   3.424  17.647 -0.3239 -0.5891 -0.1887
  700TMC3    H210409   0.592   3.398  17.584 -0.1113  0.8428 -0.0183
  700TMC3    C710410   0.400   3.573  17.633  0.0474 -0.3565  0.1737
  700TMC3    C810411   0.574   3.237  17.346 -0.2315  0.5659  0.0090
  700TMC3    O110412   0.514   3.616  17.648 -0.7756  0.3007 -0.4960
  700TMC3    O210413   0.531   3.219  17.230  0.1335 -0.7264  0.0427
  701TMC3    C110414   4.256   2.706  15.875 -0.3699  0.0797 -0.1262
  701TMC3    C210415   4.171   2.744  15.771 -0.0287 -0.0269  0.0753
  701TMC3    C310416   4.214   2.850  15.695 -1.2849 -0.5143 -0.3912
  701TMC3    C410417   4.372   2.766  15.908 -0.2167 -0.1098  0.1789
  701TMC3    C510418   4.405   2.878  15.835  0.0901  0.3544 -0.2460
  701TMC3    C610419   4.329   2.916  15.728 -0.8202 -0.1087 -0.6757
  701TMC3     C10420   4.193   2.640  15.980 -0.3201 -0.4972 -0.1624
  701TMC3     O10421   4.255   2.620  16.084 -0.2858 -0.1966  0.5232
  701TMC3     H10422   4.070   2.710  15.750  0.4425 -1.4682  0.1345
  701TMC3    H110423   4.422   2.727  15.996 -0.7219  2.0172  1.3889
  701TMC3    H210424   4.362   3.001  15.669 -3.5168  1.8544  0.6044
  701TMC3    C710425   4.544   2.925  15.833 -0.3404 -0.3222 -0.7093
  701TMC3    C810426   4.163   2.890  15.558  0.9170  0.5737 -0.3996
  701TMC3    O110427   4.572   3.022  15.764  0.0917 -0.2652  0.2469
  701TMC3    O210428   4.219   2.987  15.505  0.2797  0.2075 -0.1693
  702MPD2     C10429   3.558   0.639  10.628  0.0397 -0.1964  0.7088
  702MPD2    C110430   3.641   0.694  10.734 -0.3041  0.2412 -0.0126
  702MPD2    C210431   3.770   0.733  10.706  0.6502 -0.1207 -0.0089
  702MPD2    C310432   3.820   0.709  10.580 -0.0319  0.5127  0.2002
  702MPD2    C410433   3.741   0.658  10.474  0.4749 -0.1222 -0.4525
  702MPD2    C510434   3.614   0.625  10.505 -0.0092  0.2208 -0.0664
  702MPD2     H10435   3.825   0.778  10.788 -0.1101  1.8658 -0.5853
  702MPD2    H110436   3.773   0.654  10.371  1.9989 -0.0535  0.0286
  702MPD2    H210437   3.460   0.600  10.653  0.4098 -0.7966  1.2148
  702MPD2    H310438   3.551   0.581  10.429 -0.7007 -0.9580  1.1908
  702MPD2     N10439   3.957   0.731  10.565  0.3364  0.4564 -0.4195
  702MPD2    H510440   4.005   0.770  10.646 -2.0902 -0.6934  1.5538
  702MPD2    N110441   3.601   0.691  10.870 -0.3362  0.4041  0.0153
  702MPD2    H710442   3.675   0.732  10.926 -0.4973  2.4967 -1.3031
  703TMC3    C110443   4.179   0.709  10.506  0.6264  0.0516  0.0767
  703TMC3    C210444   4.204   0.688  10.637 -0.3194 -0.4082  0.5971
  703TMC3    C310445   4.331   0.715  10.681 -0.0748  0.4482 -0.0992
  703TMC3    C410446   4.279   0.736  10.419 -0.1047  0.0323 -0.1088
  703TMC3    C510447   4.407   0.767  10.464 -0.0506 -0.1466  0.3158
  703TMC3    C610448   4.434   0.746  10.597 -0.1781  0.2909 -0.1401
  703TMC3     C10449   4.043   0.701  10.459 -0.1185  0.6632  0.0965
  703TMC3     O10450   4.012   0.650  10.349 -0.5898  0.3498 -0.2530
  703TMC3     H10451   4.126   0.647  10.701  0.3124 -0.9284  1.0367
  703TMC3    H110452   4.245   0.753  10.318 -0.8531 -0.1523  0.1143
  703TMC3    H210453   4.533   0.763  10.639  0.1835  0.1225 -0.9306
  703TMC3    C710454   4.524   0.759  10.375  0.3633 -0.5804 -0.5976
  703TMC3    C810455   4.354   0.721  10.830  0.7321  0.9241  0.3210
  703TMC3    O110456   4.633   0.769  10.427  0.2681 -0.5966  0.5517
  703TMC3    O210457   4.470   0.730  10.875 -0.1381 -0.6455 -0.3290
  704TMC3    C110458   1.568   3.127  12.344 -0.2831 -0.0848  0.8588
  704TMC3    C210459   1.585   3.154  12.210  0.8441 -0.2307  0.4281
  704TMC3    C310460   1.709   3.175  12.163  0.5835 -0.4327  0.1629
  704TMC3    C410461   1.672   3.112  12.432  0.5235 -0.8046 -0.2483
  704TMC3    C510462   1.797   3.146  12.377 -0.1850 -0.2089  0.1595
  704TMC3    C610463   1.815   3.173  12.246 -0.0135 -0.1794 -0.2639
  704TMC3     C10464   1.435   3.113  12.400  0.5778  0.4543 -0.3873
  704TMC3     O10465   1.427   3.065  12.512  0.4299 -0.5854  0.5847
  704TMC3     H10466   1.504   3.154  12.139 -0.1305  2.6287  1.5315
  704TMC3    H110467   1.655   3.094  12.538  0.5337  1.1553  0.0887
  704TMC3    H210468   1.913   3.186  12.203  0.4347 -0.9819  0.5239
  704TMC3    C710469   1.905   3.076  12.453 -0.2479 -0.0331  0.2440
  704TMC3    C810470   1.743   3.089  12.051  1.0536  0.4338  0.1783
  704TMC3    O110471   1.876   3.033  12.563 -0.0854  0.4223 -0.5088
  704TMC3    O210472   1.658   3.002  12.029  0.0041 -0.1609  0.1233
  705MPD2     C10473   1.142   1.102  16.646  0.3087 -0.3156 -0.1774
  705MPD2    C110474   1.187   1.210  16.576  0.5041 -0.3426 -0.6692
  705MPD2    C210475   1.110   1.322  16.554 -0.6205  0.4204 -0.3845
  705MPD2    C310476   0.982   1.309  16.602 -0.2969  0.0549  0.4252
  705MPD2    C410477   0.938   1.197  16.665 -0.0491 -0.2662  0.2929
  705MPD2    C510478   1.016   1.091  16.692  0.0206 -0.3403  0.2298
  705MPD2     H10479   1.150   1.397  16.486 -0.4196 -0.0396 -0.7745
  705MPD2    H110480   0.835   1.202  16.697 -0.3765  0.3549 -0.8517
  705MPD2    H210481   1.199   1.010  16.655  3.6802  1.6818 -0.9196
  705MPD2    H310482   0.972   0.998  16.727  1.0109 -0.0207  2.3618
  705MPD2     N10483   0.879   1.391  16.564 -0.5242  0.0520 -0.4410
  705MPD2    H510484   0.782   1.365  16.582 -0.3758 -0.4274 -0.3489
  705MPD2    N110485   1.315   1.217  16.526  0.2609  0.1361 -0.3266
  705MPD2    H710486   1.347   1.297  16.473  0.3513 -0.1923 -0.7744
  706TMC3    C110487   1.648   1.045  16.264 -0.2221 -0.0086  0.3285
  706TMC3    C210488   1.688   1.161  16.209  0.3764  0.4786 -0.2142
  706TMC3    C310489   1.648   1.269  16.292  0.4915  0.5846  0.2660
  706TMC3    C410490   1.567   1.026  16.367 -0.1579 -0.0449 -0.4581
  706TMC3    C510491   1.527   1.139  16.435  0.8284 -0.2534  0.2989
  706TMC3    C610492   1.567   1.266  16.404  0.2006 -0.0014  0.4000
  706TMC3     C10493   1.695   0.922  16.202  0.2663  0.6923  0.5852
  706TMC3     O10494   1.703   0.824  16.272 -0.0130  0.2831 -0.6388
  706TMC3     H10495   1.762   1.173  16.131  2.1454 -0.5131  1.2934
  706TMC3    H110496   1.531   0.927  16.391  1.2050 -0.8398 -1.6311
  706TMC3    H210497   1.538   1.353  16.463  1.7293  0.8104 -0.0512
  706TMC3    C710498   1.406   1.115  16.516  0.1298 -0.5054  0.0871
  706TMC3    C810499   1.686   1.398  16.224  0.4264  0.3694  0.5723
  706TMC3    O110500   1.410   0.999  16.567 -0.6396 -0.4205 -0.1195
  706TMC3    O210501   1.694   1.395  16.101  0.0503 -0.3741 -0.0756
  707TMC3    C110502   2.681   4.189   1.479  0.2374 -0.6246  0.0599
  707TMC3    C210503   2.756   4.074   1.491  0.0788 -0.0447  0.8285
  707TMC3    C310504   2.779   4.015   1.610 -0.1634  0.4068  0.2387
  707TMC3    C410505   2.607   4.231   1.589 -0.4532 -0.2987  0.5288
  707TMC3    C510506   2.619   4.163   1.706 -0.2478 -0.6328 -0.2303
  707TMC3    C610507   2.708   4.056   1.722  0.3446 -0.5070 -0.6726
  707TMC3     C10508   2.747   4.294   1.404 -0.8567 -0.1589 -0.2912
  707TMC3     O10509   2.834   4.253   1.328  0.1077 -0.7105  0.0853
  707TMC3     H10510   2.807   4.045   1.400  1.7056  0.4042  1.5918
  707TMC3    H110511   2.523   4.295   1.565 -0.8201 -0.3793  1.6127
  707TMC3    H210512   2.724   4.010   1.819 -0.2013  0.1420 -0.2719
  707TMC3    C710513   2.518   4.179   1.814  0.1211 -0.1064 -0.7637
  707TMC3    C810514   2.900   3.940   1.624 -0.1919  0.1822  0.2970
  707TMC3    O110515   2.487   4.082   1.878 -0.2795 -0.0400 -0.5349
  707TMC3    O210516   2.905   3.853   1.713  0.0083  0.8754  0.4996
  708MPD2     C10517   3.955   4.224  13.502 -0.2209  0.4078  0.1383
  708MPD2    C110518   3.889   4.190  13.620  0.2466  0.5522 -0.4730
  708MPD2    C210519   3.947   4.107  13.718 -0.4278 -0.5543 -0.8416
  708MPD2    C310520   4.076   4.058  13.694  0.0379  0.2996  0.0152
  708MPD2    C410521   4.147   4.108  13.585  0.2494 -0.2896  0.6155
  708MPD2    C510522   4.083   4.188  13.490  0.7433  0.1473 -0.5222
  708MPD2     H10523   3.898   4.079  13.810  1.7418 -2.4685 -0.2917
  708MPD2    H110524   4.252   4.087  13.571  0.1703 -0.2840  0.0026
  708MPD2    H210525   3.918   4.287  13.422 -1.5664  0.7255  1.0101
  708MPD2    H310526   4.142   4.228  13.408  2.1359 -0.4925  0.1725
  708MPD2     N10527   4.151   3.978  13.790  0.0922  0.0556 -0.0580
  708MPD2    H510528   4.249   3.951  13.785  0.1738  0.0881  1.3105
  708MPD2    N110529   3.765   4.258  13.648  0.4578 -0.0975  0.3355
  708MPD2    H710530   3.716   4.298  13.569  0.7278 -0.9484 -0.2565
  709TMC3    C110531   3.582   4.332  13.775 -0.1054 -0.6534  0.4564
  709TMC3    C210532   3.597   4.464  13.747  0.3077 -0.1634  0.4921
  709TMC3    C310533   3.562   4.550  13.849  0.3090 -0.4784 -0.2191
  709TMC3    C410534   3.521   4.291  13.889 -0.7833 -0.5638  0.4182
  709TMC3    C510535   3.488   4.378  13.989 -0.2248  0.5344 -0.1638
  709TMC3    C610536   3.516   4.511  13.968 -0.1572 -0.3618  0.4766
  709TMC3     C10537   3.705   4.260  13.772  0.0024  0.1493  0.2825
  709TMC3     O10538   3.747   4.216  13.879  0.0381 -0.2271  0.0790
  709TMC3     H10539   3.646   4.490  13.653  1.2143  1.7765  1.5112
  709TMC3    H110540   3.513   4.184  13.906 -1.5004 -0.8612 -1.7658
  709TMC3    H210541   3.523   4.586  14.046 -1.6711  2.4948 -2.1412
  709TMC3    C710542   3.512   4.331  14.124 -0.4835 -0.2426 -0.1978
  709TMC3    C810543   3.557   4.694  13.827  0.5868  0.7956 -0.5859
  709TMC3    O110544   3.465   4.388  14.222  0.2599  0.1138  0.0597
  709TMC3    O210545   3.482   0.022  13.901 -0.2421  0.2308 -0.5351
  710TMC3    C110546   1.006   0.823   0.335 -0.4077 -0.5228 -0.0205
  710TMC3    C210547   1.105   0.876   0.256 -0.9263 -0.4629  0.0605
  710TMC3    C310548   1.197   0.789   0.202  0.3830  0.0121 -0.4786
  710TMC3    C410549   1.008   0.688   0.377 -0.5938  0.5445 -0.6930
  710TMC3    C510550   1.110   0.610   0.325 -0.1981  0.2879  0.2056
  710TMC3    C610551   1.206   0.657   0.239 -0.7942  0.5774  0.1958
  710TMC3     C10552   0.914   0.911   0.407 -1.5368 -0.2202  0.2117
  710TMC3     O10553   0.944   1.030   0.425  0.0163  0.0790 -0.7049
  710TMC3     H10554   1.103   0.980   0.226 -0.9060  0.1173  2.0766
  710TMC3    H110555   0.936   0.657   0.452  2.1235 -2.0657  0.8511
  710TMC3    H210556   1.287   0.601   0.195 -1.0931 -0.5774  1.1479
  710TMC3    C710557   1.122   0.483   0.386  0.4915  0.1071 -0.7699
  710TMC3    C810558   1.288   0.842   0.099  0.4484 -0.3086  0.0938
  710TMC3    O110559   1.020   0.434   0.431 -0.0198  0.2838 -0.3863
  710TMC3    O210560   1.324   0.765   0.015  0.2419 -0.2096 -0.5568
  711TMC3    C110561   0.622   1.656  14.909  0.0620 -0.1233  0.3430
  711TMC3    C210562   0.637   1.591  15.025  0.2688 -0.3549  0.4573
  711TMC3    C310563   0.678   1.657  15.137  0.0997 -0.2253  0.6230
  711TMC3    C410564   0.624   1.795  14.907  0.0610 -1.3298  0.0408
  711TMC3    C510565   0.649   1.860  15.021  0.6744 -0.8803  0.9031
  711TMC3    C610566   0.686   1.795  15.139  0.0606  0.2375 -0.5584
  711TMC3     C10567   0.577   1.580  14.792 -0.3708 -0.1961  0.2957
  711TMC3     O10568   0.508   1.641  14.709 -0.7291 -0.0504  0.0923
  711TMC3     H10569   0.601   1.489  15.040 -2.4619  0.5280 -0.0507
  711TMC3    H110570   0.615   1.852  14.815  1.6804  0.1038  0.7747
  711TMC3    H210571   0.709   1.850  15.230 -0.2849  1.0550 -0.9662
  711TMC3    C710572   0.699   1.996  15.004 -0.2288  0.1914  0.8647
  711TMC3    C810573   0.757   1.573  15.224  0.4584 -0.3976 -1.1468
  711TMC3    O110574   0.652   2.046  14.903  0.3492  0.1866  0.7012
  711TMC3    O210575   0.727   1.455  15.220  0.0908 -0.3742  0.1783
  712MPD2     C10576   1.903   2.520  13.713  0.2611  0.4164 -0.0818
  712MPD2    C110577   1.862   2.594  13.598  0.0457 -0.4766 -0.7553
  712MPD2    C210578   1.923   2.713  13.564 -0.1884 -0.6536  0.1995
  712MPD2    C310579   2.020   2.763  13.643  0.1691 -0.0064  0.8826
  712MPD2    C410580   2.063   2.685  13.747  0.0331  0.0944 -0.1178
  712MPD2    C510581   2.008   2.571  13.787  0.3348 -0.3772  0.0029
  712MPD2     H10582   1.895   2.763  13.472 -0.0514 -2.1327 -0.6381
  712MPD2    H110583   2.140   2.715  13.817  0.6474 -0.5627 -0.5069
  712MPD2    H210584   1.860   2.427  13.748  1.4653  0.8445  2.5035
  712MPD2    H310585   2.044   2.522  13.877 -1.1342  1.2465  1.4814
  712MPD2     N10586   2.090   2.883  13.624 -0.4685 -0.3118 -0.1214
  712MPD2    H510587   2.164   2.899  13.692  0.7175  1.1465 -1.7439
  712MPD2    N110588   1.755   2.548  13.524 -0.4381  0.0584  0.1121
  712MPD2    H710589   1.742   2.607  13.442  0.3199  2.9380  2.0472
  713TMC3    C110590   2.134   3.098  13.538  0.5512  0.7433  0.8733
  713TMC3    C210591   2.254   3.085  13.602  0.2823 -0.3335  0.4769
  713TMC3    C310592   2.327   3.202  13.602  0.3023 -0.0161 -0.1548
  713TMC3    C410593   2.081   3.210  13.501  0.0766  0.8991 -0.2887
  713TMC3    C510594   2.142   3.327  13.520  0.2120  0.4944 -0.1990
  713TMC3    C610595   2.272   3.320  13.568  0.4788  1.0456  0.1916
  713TMC3     C10596   2.061   2.974  13.523 -0.2757 -0.8969 -0.2070
  713TMC3     O10597   1.970   2.969  13.440  0.1023 -0.6271 -0.1614
  713TMC3     H10598   2.301   2.989  13.623  0.3620 -0.5074 -0.4871
  713TMC3    H110599   1.981   3.211  13.458  0.1320 -0.1043 -0.4526
  713TMC3    H210600   2.333   3.410  13.571  1.6735  0.2386 -0.0082
  713TMC3    C710601   2.103   3.447  13.445 -0.3883 -0.0521  0.5264
  713TMC3    C810602   2.472   3.200  13.620 -0.0904 -0.0482 -0.2896
  713TMC3    O110603   2.188   3.529  13.414 -0.1532  0.2331  0.0967
  713TMC3    O210604   2.536   3.298  13.578  0.5880  0.6327  0.4069
  714MPD2     C10605   4.425   2.044   1.413 -0.4236  0.4215 -0.7728
  714MPD2    C110606   4.436   1.920   1.356 -1.1481  0.0066  0.0300
  714MPD2    C210607   4.339   1.875   1.270  0.2040 -0.1110 -0.6675
  714MPD2    C310608   4.236   1.958   1.226 -0.1988 -0.2217  0.1574
  714MPD2    C410609   4.220   2.075   1.290 -0.2007 -0.7873 -0.5951
  714MPD2    C510610   4.311   2.114   1.386 -0.5212  0.0599 -0.1791
  714MPD2     H10611   4.345   1.776   1.227  0.3368 -0.3443 -0.1152
  714MPD2    H110612   4.124   2.126   1.292  0.5913  0.6815 -0.4948
  714MPD2    H210613   4.503   2.083   1.477 -2.3784  0.7946  1.4156
  714MPD2    H310614   4.285   2.202   1.444 -0.9378  0.0840 -0.4006
  714MPD2     N10615   4.143   1.904   1.137 -0.0019  0.1715 -0.5436
  714MPD2    H510616   4.163   1.811   1.100  0.9766 -0.1249  0.7450
  714MPD2    N110617   4.556   1.852   1.379 -0.3042  0.3387  0.5044
  714MPD2    H710618   4.616   1.899   1.447  0.2050 -3.2792  2.5646
  715TMC3    C110619   4.727   1.682   1.370  0.0683 -1.1359 -0.1338
  715TMC3    C210620   0.032   1.560   1.318 -0.7143 -0.1027  0.5316
  715TMC3    C310621   0.148   1.505   1.362  0.2544 -0.7638  0.6364
  715TMC3    C410622   0.071   1.753   1.456 -0.3260 -0.3946 -0.0836
  715TMC3    C510623   0.190   1.694   1.500  0.2649 -0.5631  0.0953
  715TMC3    C610624   0.232   1.569   1.450 -1.2018 -0.9980  0.2143
  715TMC3     C10625   4.603   1.737   1.317 -0.4326 -0.1562 -0.3617
  715TMC3     O10626   4.554   1.673   1.227 -0.0582 -0.4131  0.2525
  715TMC3     H10627   4.698   1.508   1.252 -2.3273  0.8124  1.4829
  715TMC3    H110628   0.045   1.855   1.484  3.0666  0.7255 -1.0416
  715TMC3    H210629   0.326   1.527   1.484 -0.8421 -1.6843 -1.6485
  715TMC3    C710630   0.290   1.759   1.582 -0.2227 -0.0416 -0.6110
  715TMC3    C810631   0.187   1.382   1.298 -0.0274  0.4666 -0.2224
  715TMC3    O110632   0.387   1.694   1.615 -0.3258  0.4605 -0.4447
  715TMC3    O210633   0.097   1.335   1.229  0.3009 -0.5407 -0.6527
  716MPD2     C10634   3.713   0.329   9.917 -0.0303  0.1927  0.1957
  716MPD2    C110635   3.657   0.344   9.796  0.1056 -0.6655  0.5393
  716MPD2    C210636   3.667   0.242   9.701 -0.0683  0.1735  0.3311
  716MPD2    C310637   3.756   0.137   9.727  0.6873  0.0202  0.2705
  716MPD2    C410638   3.831   0.124   9.844  0.3587  0.2687  0.2828
  716MPD2    C510639   3.802   0.221   9.938  0.5671 -0.5817  0.7675
  716MPD2     H10640   3.615   0.251   9.607 -0.4412  0.1201  0.5333
  716MPD2    H110641   3.897   0.041   9.867  0.1476  0.0542  0.1215
  716MPD2    H210642   3.690   0.396   9.999 -0.2312 -0.3655  0.6002
  716MPD2    H310643   3.852   0.215  10.034 -0.5130 -0.2919  1.3544
  716MPD2     N10644   3.778   0.046   9.624 -0.4904  0.0733 -0.3880
  716MPD2    H510645   3.717   0.049   9.543 -0.1292 -0.0970 -0.6627
  716MPD2    N110646   3.579   0.462   9.779  0.2906 -0.4450  0.1323
  716MPD2    H710647   3.565   0.521   9.861  2.2024  1.1001 -0.6422
  717TMC3    C110648   3.882   4.616   9.497  0.4957 -0.4990 -0.0704
  717TMC3    C210649   3.817   4.672   9.390  0.3782 -0.1028  0.0750
  717TMC3    C310650   3.799   4.608   9.271  0.1454  0.3627 -0.0802
  717TMC3    C410651   3.929   4.490   9.487  0.7301 -0.2248 -0.2556
  717TMC3    C510652   3.908   4.419   9.370  0.2559 -0.1492 -0.1721
  717TMC3    C610653   3.841   4.478   9.263 -0.8512 -0.2957 -0.0760
  717TMC3     C10654   3.875   4.681   9.624  0.4525 -0.2009 -0.5296
  717TMC3     O10655   3.967   4.646   9.701 -0.3559 -0.1851  0.0495
  717TMC3     H10656   3.811   0.046   9.388  1.6116 -0.0279  0.1046
  717TMC3    H110657   3.960   4.442   9.580  3.4474  0.2735 -0.9193
  717TMC3    H210658   3.825   4.418   9.174  0.2246 -0.3660 -0.2205
  717TMC3    C710659   3.965   4.288   9.350  0.0628 -0.1008 -0.7911
  717TMC3    C810660   3.687   4.658   9.196 -0.4305 -0.3588 -0.2187
  717TMC3    O110661   3.940   4.221   9.246 -0.3607  0.1703 -1.1194
  717TMC3    O210662   3.631   0.011   9.256  0.1754  0.6839 -0.1092
  718MPD2     C10663   3.892   3.214  13.131  0.1230  0.1137  0.4391
  718MPD2    C110664   3.872   3.259  13.007 -0.4395 -0.8195  0.3305
  718MPD2    C210665   3.753   3.240  12.939  0.3301 -0.5186 -0.2224
  718MPD2    C310666   3.655   3.155  12.982  0.4631 -0.1402 -0.0320
  718MPD2    C410667   3.669   3.115  13.112  0.5149  0.3603  0.7506
  718MPD2    C510668   3.790   3.136  13.181  0.1148 -0.6638 -0.7015
  718MPD2     H10669   3.739   3.280  12.839  0.2215  0.9765  0.3958
  718MPD2    H110670   3.587   3.063  13.160 -0.0696  0.0031 -0.6112
  718MPD2    H210671   3.986   3.225  13.184  0.2346 -0.5490  0.3884
  718MPD2    H310672   3.794   3.092  13.280 -2.1740  2.1796  0.6615
  718MPD2     N10673   3.540   3.130  12.903  0.0973  0.1895 -0.2502
  718MPD2    H510674   3.536   3.186  12.819  0.9464  0.2245 -0.2734
  718MPD2    N110675   3.980   3.327  12.943 -0.1553  0.3961 -0.9256
  718MPD2    H710676   4.072   3.309  12.982 -1.3078 -1.1042  1.1180
  719TMC3    C110677   4.072   3.456  12.784 -0.0582  0.5146  0.2523
  719TMC3    C210678   4.076   3.348  12.702 -0.0076 -0.3354 -0.1897
  719TMC3    C310679   4.107   3.351  12.563  0.2829  0.0925 -0.0173
  719TMC3    C410680   4.104   3.576  12.732 -0.2472 -1.1722  0.2476
  719TMC3    C510681   4.151   3.580  12.602 -0.2103 -0.0703 -0.6077
  719TMC3    C610682   4.146   3.475  12.512 -0.1463 -0.3865  1.3761
  719TMC3     C10683   3.964   3.442  12.872  0.7852  0.5904  0.2372
  719TMC3     O10684   3.861   3.496  12.842  0.5370  0.7880  0.3171
  719TMC3     H10685   4.039   3.252  12.737 -1.6987  0.8831  1.3853
  719TMC3    H110686   4.089   3.663  12.796 -1.6871  0.9257 -2.9350
  719TMC3    H210687   4.176   3.483  12.408 -2.0364  1.1832  0.9787
  719TMC3    C710688   4.174   3.707  12.541  0.1466  0.2172 -0.1732
  719TMC3    C810689   4.010   3.281  12.484 -0.1699 -0.3827 -0.6351
  719TMC3    O110690   4.179   3.703  12.418  0.2237  0.0098  0.2345
  719TMC3    O210691   3.985   3.169  12.522 -0.0085  0.4626 -0.0539
  720MPD2     C10692   1.662   0.330  13.873 -0.2903 -0.6680 -0.3058
  720MPD2    C110693   1.755   0.403  13.802 -0.0003  0.0700 -0.4697
  720MPD2    C210694   1.886   0.413  13.851  0.0068 -0.3163  0.5004
  720MPD2    C310695   1.923   0.334  13.961  0.0082  0.0767  0.1438
  720MPD2    C410696   1.840   0.246  14.023  0.4349 -0.0791 -0.0136
  720MPD2    C510697   1.710   0.256  13.976  0.3032 -0.3682 -0.9748
  720MPD2     H10698   1.961   0.468  13.797 -0.2312 -1.3883 -0.9360
  720MPD2    H110699   1.861   0.176  14.103  1.8062 -1.9908 -2.0596
  720MPD2    H210700   1.555   0.335  13.855 -0.3534  0.6062  0.4460
  720MPD2    H310701   1.651   0.178  14.023  0.4949 -1.3324 -2.3428
  720MPD2     N10702   2.065   0.333  13.990 -0.1042 -0.8771 -0.1025
  720MPD2    H510703   2.116   0.397  13.930  2.0081 -1.9735  0.5661
  720MPD2    N110704   1.732   0.480  13.684  0.2694 -0.3162 -0.1743
  720MPD2    H710705   1.806   0.536  13.643  0.1837  0.6580  0.9894
  721TMC3    C110706   2.255   0.317  14.122  0.8162 -1.0377 -0.1370
  721TMC3    C210707   2.290   0.324  14.256  0.4776  0.1132 -0.4043
  721TMC3    C310708   2.381   0.421  14.291 -0.0326 -0.1189  0.4005
  721TMC3    C410709   2.318   0.386  14.027  0.0043  0.0898 -0.6374
  721TMC3    C510710   2.422   0.472  14.067 -0.0868 -0.2140 -0.0759
  721TMC3    C610711   2.450   0.491  14.200  0.0498 -0.3770  0.4950
  721TMC3     C10712   2.125   0.256  14.090 -0.2243  0.4674 -0.5263
  721TMC3     O10713   2.078   0.189  14.175 -0.5021 -0.9147  0.0110
  721TMC3     H10714   2.241   0.262  14.329 -0.6206  1.8934  0.3779
  721TMC3    H110715   2.298   0.376  13.921  1.3708  1.7614 -1.0614
  721TMC3    H210716   2.535   0.549  14.235  0.1618 -1.4570  2.0004
  721TMC3    C710717   2.513   0.541  13.976  0.1604  0.1769 -0.0245
  721TMC3    C810718   2.403   0.439  14.434  0.1387 -0.1183 -0.3329
  721TMC3    O110719   2.598   0.613  14.026 -0.1246 -0.0295 -0.3029
  721TMC3    O210720   2.511   0.479  14.466 -0.4538 -0.4241 -0.0575
  722MPD2     C10721   0.886   3.414  13.204 -0.0860 -0.1800 -0.3638
  722MPD2    C110722   0.859   3.536  13.262  0.0816  0.6832 -0.5197
  722MPD2    C210723   0.732   3.581  13.259 -1.2022  0.7414  0.4715
  722MPD2    C310724   0.629   3.505  13.220 -0.4792 -0.1984  0.5603
  722MPD2    C410725   0.652   3.389  13.163  0.1167 -0.1600 -0.2777
  722MPD2    C510726   0.781   3.338  13.157 -0.0323 -0.2228  0.8333
  722MPD2     H10727   0.710   3.680  13.296 -2.4559  0.2470  1.0694
  722MPD2    H110728   0.577   3.314  13.140 -0.8647  1.0933 -1.1135
  722MPD2    H210729   0.984   3.369  13.193 -0.0941  0.3426 -2.5137
  722MPD2    H310730   0.803   3.234  13.136 -1.4394 -0.4902  0.6532
  722MPD2     N10731   0.510   3.581  13.217  0.4422 -0.2203 -0.9002
  722MPD2    H510732   0.509   3.670  13.266 -1.5221 -0.4564 -0.5128
  722MPD2    N110733   0.957   3.615  13.321 -0.3913  0.5132 -0.2713
  722MPD2    H710734   0.923   3.705  13.353  0.0268  0.1576  1.1858
  723TMC3    C110735   0.292   3.632  13.178  0.6803 -0.2703 -0.6671
  723TMC3    C210736   0.203   3.651  13.077  0.5672  0.2130  0.1316
  723TMC3    C310737   0.095   3.733  13.093 -0.1599  0.7138  0.7607
  723TMC3    C410738   0.278   3.697  13.299 -0.0168  0.4618 -0.6020
  723TMC3    C510739   0.167   3.777  13.312  0.0432  0.2093 -0.4545
  723TMC3    C610740   0.070   3.799  13.210 -0.0314  0.8392 -0.1849
  723TMC3     C10741   0.397   3.535  13.159 -0.8767  0.0692 -0.5281
  723TMC3     O10742   0.389   3.450  13.069 -0.4711 -0.3538 -0.1640
  723TMC3     H10743   0.226   3.597  12.986 -2.6987  1.4843 -1.4295
  723TMC3    H110744   0.343   3.681  13.384 -0.6311 -1.2041 -0.4488
  723TMC3    H210745   4.719   3.864  13.225  1.6368  2.8465  0.6126
  723TMC3    C710746   0.167   3.867  13.429 -0.0064  0.3479 -0.0079
  723TMC3    C810747   0.024   3.782  12.980  0.0895 -0.2943  0.0647
  723TMC3    O110748   0.109   3.969  13.408  0.3170 -0.3153 -0.0528
  723TMC3    O210749   4.687   3.877  13.003  0.8794 -0.0495  0.6046
  724TMC3    C110750   1.170   1.140  10.301  0.1737  0.2279 -0.0971
  724TMC3    C210751   1.233   1.132  10.181  0.0724  0.1741  0.2997
  724TMC3    C310752   1.283   1.245  10.127  0.5187 -0.1828 -0.0085
  724TMC3    C410753   1.133   1.259  10.352  0.0969  0.0093  0.4691
  724TMC3    C510754   1.177   1.375  10.289 -0.1874 -0.2602 -0.2339
  724TMC3    C610755   1.257   1.370  10.175 -0.0970  0.1616  0.0255
  724TMC3     C10756   1.098   1.027  10.355  0.1299  0.2911  0.0965
  724TMC3     O10757   1.079   1.016  10.474 -0.1082 -0.3173  0.2634
  724TMC3     H10758   1.289   1.039  10.176  2.1978  1.3693  1.9817
  724TMC3    H110759   1.075   1.266  10.443 -0.8715 -1.0675 -0.0654
  724TMC3    H210760   1.298   1.456  10.125 -1.7786  0.4945 -0.7783
  724TMC3    C710761   1.150   1.513  10.333 -0.4189  0.8222  0.4877
  724TMC3    C810762   1.363   1.227  10.009 -0.1183  0.3797  0.0817
  724TMC3    O110763   1.149   1.586  10.232  0.1706 -0.2607  0.4996
  724TMC3    O210764   1.333   1.140   9.934 -1.0246  0.2171  0.1142
  725TMC3    C110765   2.938   0.554  12.766 -0.2908  0.0846 -0.0366
  725TMC3    C210766   2.935   0.564  12.632 -0.2009 -0.3618  0.2067
  725TMC3    C310767   2.908   0.450  12.563 -0.0070  0.2012  0.3795
  725TMC3    C410768   2.928   0.442  12.838  0.0857  0.4692  0.2436
  725TMC3    C510769   2.921   0.331  12.762  0.1235 -0.3030  0.5158
  725TMC3    C610770   2.911   0.331  12.630  1.3101 -0.3426  0.0571
  725TMC3     C10771   3.016   0.659  12.835  0.1862  0.0722  0.0077
  725TMC3     O10772   2.980   0.683  12.947 -0.4411  0.4379  0.2284
  725TMC3     H10773   2.932   0.663  12.590  1.0621  0.7575  2.7325
  725TMC3    H110774   2.944   0.440  12.945 -1.3409 -2.1866  0.4025
  725TMC3    H210775   2.893   0.241  12.573  0.3088  1.2069 -2.0864
  725TMC3    C710776   2.957   0.211  12.833 -1.1707  0.2585 -0.3598
  725TMC3    C810777   2.893   0.450  12.416  0.9126  0.0086  0.2151
  725TMC3    O110778   2.914   0.189  12.944 -0.1036  0.4231  0.0677
  725TMC3    O210779   2.889   0.337  12.367  0.5211  0.8774 -0.5051
  726MPD2     C10780   4.685   2.785  10.779 -0.2948  0.0360  0.1721
  726MPD2    C110781   4.668   2.702  10.672 -0.4606  0.6272  0.7574
  726MPD2    C210782   4.674   2.571  10.692 -0.4543 -0.3592  0.2529
  726MPD2    C310783   4.695   2.509  10.819 -0.6352 -0.2475 -0.1960
  726MPD2    C410784   4.705   2.592  10.930 -0.1675  0.0725  0.1556
  726MPD2    C510785   4.706   2.731  10.908  0.2394 -0.1661 -0.0754
  726MPD2     H10786   4.681   2.499  10.612  0.8367 -1.2273  1.1310
  726MPD2    H110787   4.712   2.554  11.031 -1.6936 -1.4163 -0.2909
  726MPD2    H210788   4.672   2.892  10.772 -0.3444 -0.0213 -0.6113
  726MPD2    H310789   4.720   2.805  10.986 -0.1111 -1.3228  1.0706
  726MPD2     N10790   4.699   2.368  10.840  0.0987 -0.0671 -0.1095
  726MPD2    H510791   4.718   2.340  10.935 -0.2622  2.1832  0.6220
  726MPD2    N110792   4.665   2.750  10.536  0.1227  0.2801  0.6994
  726MPD2    H710793   4.652   2.680  10.464  0.9815  1.4601 -0.6233
  727TMC3    C110794   0.004   2.891  10.356  0.3169 -0.2114  0.1635
  727TMC3    C210795   0.080   2.991  10.317  0.5098 -0.1814  0.5850
  727TMC3    C310796   0.075   3.039  10.191  0.6355 -0.7516 -0.3765
  727TMC3    C410797   4.662   2.827  10.269 -0.3891 -0.0681 -0.0774
  727TMC3    C510798   4.665   2.868  10.137  0.8605 -0.5579  0.0523
  727TMC3    C610799   0.003   2.977  10.093 -0.4233  0.4949  0.2747
  727TMC3     C10800   4.726   2.872  10.506 -0.7370 -0.1633  0.3269
  727TMC3     O10801   0.017   2.971  10.572 -0.3871 -0.4141  0.1666
  727TMC3     H10802   0.138   3.046  10.390  0.6296  1.0991 -0.4573
  727TMC3    H110803   4.595   2.746  10.298 -2.4653  2.6705  2.9416
  727TMC3    H210804   0.012   3.011   9.990  0.9841  0.6858  0.4615
  727TMC3    C710805   4.589   2.783  10.047  0.2273  0.2633  0.4053
  727TMC3    C810806   0.180   3.139  10.155 -1.0138  0.0883  0.6059
  727TMC3    O110807   4.550   2.674  10.089  0.1150  0.5926  0.6123
  727TMC3    O210808   0.270   3.145  10.233  0.1522 -0.1920 -0.3987
  728TMC3    C110809   4.384   0.920  15.349 -0.0024  0.1352  0.5491
  728TMC3    C210810   4.508   0.950  15.401 -0.0534 -0.3121  0.2388
  728TMC3    C310811   4.615   0.946  15.314 -1.0210 -0.9007 -0.3029
  728TMC3    C410812   4.369   0.857  15.229 -1.2246 -0.1571 -0.1275
  728TMC3    C510813   4.479   0.864  15.146  0.1425 -0.6085  0.4972
  728TMC3    C610814   4.602   0.914  15.184 -0.2258  0.1998 -0.6795
  728TMC3     C10815   4.272   0.982  15.418 -0.5723 -0.7816  0.0341
  728TMC3     O10816   4.279   1.033  15.527 -0.3123 -1.2590  0.2149
  728TMC3     H10817   4.523   0.998  15.497  3.6794 -0.2093 -0.3850
  728TMC3    H110818   4.284   0.805  15.186 -1.8241  1.9303 -1.4446
  728TMC3    H210819   4.691   0.913  15.122 -1.6661  1.6840 -2.7509
  728TMC3    C710820   4.462   0.800  15.016  0.2543 -0.3163  0.6611
  728TMC3    C810821   0.007   0.916  15.373 -0.3494 -0.0828  0.6298
  728TMC3    O110822   4.401   0.695  15.029 -0.4126  0.0863  0.0392
  728TMC3    O210823   0.110   0.947  15.318 -0.4901 -0.8132  0.8497
  729MPD2     C10824   2.124   2.173  16.204  0.3393 -0.1917  0.6137
  729MPD2    C110825   2.209   2.103  16.283 -0.2686 -0.0392  0.1610
  729MPD2    C210826   2.163   2.073  16.410 -0.2267 -0.8894  0.1690
  729MPD2    C310827   2.033   2.093  16.447 -0.4154 -0.3802  0.6727
  729MPD2    C410828   1.940   2.152  16.364  0.3682  0.4410  0.3692
  729MPD2    C510829   1.993   2.196  16.247  0.3719  0.2620  0.2189
  729MPD2     H10830   2.230   2.024  16.480 -0.0213  1.2385  1.4507
  729MPD2    H110831   1.840   2.187  16.385  0.3178 -0.4171  1.5111
  729MPD2    H210832   2.149   2.205  16.103 -2.4791 -1.2805 -0.4233
  729MPD2    H310833   1.925   2.248  16.180  0.7139  0.4844  0.0404
  729MPD2     N10834   1.991   2.049  16.573 -0.7163  0.2336  0.4354
  729MPD2    H510835   2.056   1.990  16.624 -0.1029 -0.0526 -0.6866
  729MPD2    N110836   2.341   2.076  16.230 -0.3342  0.4364  0.3163
  729MPD2    H710837   2.355   2.106  16.134 -1.4719 -0.5481 -0.1511
  730TMC3    C110838   1.891   2.058  16.782 -0.0879  0.1927 -0.0961
  730TMC3    C210839   1.984   1.960  16.819 -0.3676  0.1936 -0.3354
  730TMC3    C310840   2.039   1.968  16.940  0.7568  0.5689 -0.0971
  730TMC3    C410841   1.858   2.164  16.870  0.4005 -0.7906 -0.0378
  730TMC3    C510842   1.921   2.161  16.997  0.3620 -0.0987  0.3035
  730TMC3    C610843   1.996   2.055  17.040 -0.3824  0.4447 -0.4351
  730TMC3     C10844   1.879   2.088  16.639 -0.0500 -0.8432 -0.0894
  730TMC3     O10845   1.808   2.183  16.609 -0.3317 -1.0736 -0.6559
  730TMC3     H10846   1.998   1.880  16.748  0.4581 -1.4999  1.7332
  730TMC3    H110847   1.799   2.246  16.834 -0.5979 -1.4646  0.0642
  730TMC3    H210848   2.038   2.049  17.139 -1.9096  0.4372  0.2229
  730TMC3    C710849   1.988   2.290  17.033  0.1762  0.3907 -0.1254
  730TMC3    C810850   2.181   1.990  16.909 -0.9946  0.2807  0.4580
  730TMC3    O110851   1.999   2.372  16.946  0.0094  0.0936 -0.7558
  730TMC3    O210852   2.211   1.966  16.794  0.3392  0.5147 -0.7792
  731MPD2     C10853   2.487   0.467  12.702  0.2872  0.2067  0.1849
  731MPD2    C110854   2.548   0.342  12.685  0.3347 -0.2205 -0.1225
  731MPD2    C210855   2.588   0.267  12.796  0.4858  0.5275 -0.1652
  731MPD2    C310856   2.585   0.324  12.925  0.1269  0.1704  0.8102
  731MPD2    C410857   2.530   0.452  12.940  0.0399 -1.0291 -0.5100
  731MPD2    C510858   2.486   0.520  12.826 -0.4536 -0.5083 -0.3599
  731MPD2     H10859   2.637   0.171  12.790  2.5292  1.5972 -0.8079
  731MPD2    H110860   2.540   0.500  13.036  0.2063  0.9410 -1.5065
  731MPD2    H210861   2.441   0.523  12.621 -0.9134 -0.7479  0.2173
  731MPD2    H310862   2.436   0.616  12.833  0.4368 -0.0257 -0.6050
  731MPD2     N10863   2.614   0.240  13.034 -0.6597 -0.1355 -0.9236
  731MPD2    H510864   2.618   0.141  13.011 -1.9269 -0.0203 -1.6219
  731MPD2    N110865   2.542   0.297  12.551 -1.0559  0.0300 -0.4202
  731MPD2    H710866   2.490   0.356  12.487  0.6706  2.6124  0.5290
  732TMC3    C110867   2.602   0.166  12.360 -0.0537 -0.0938 -0.1343
  732TMC3    C210868   2.487   0.200  12.299  0.0410  0.7930 -0.8420
  732TMC3    C310869   2.472   0.170  12.172  0.3913  0.6346  0.3548
  732TMC3    C410870   2.707   0.100  12.302 -0.0556  0.4452  0.1810
  732TMC3    C510871   2.689   0.082  12.167 -0.1982  0.3265  0.2113
  732TMC3    C610872   2.569   0.097  12.106  0.3001  0.7366  0.4174
  732TMC3     C10873   2.611   0.185  12.506  0.0250 -0.5396  0.4205
  732TMC3     O10874   2.688   0.107  12.562 -0.3387 -0.1503  0.4327
  732TMC3     H10875   2.417   0.256  12.360  0.5460  2.8002 -2.1022
  732TMC3    H110876   2.797   0.086  12.360  0.3691 -0.4994 -0.7059
  732TMC3    H210877   2.548   0.059  12.007  0.1377 -1.0794  1.1620
  732TMC3    C710878   2.802   0.048  12.086  0.2331 -0.0880  0.0175
  732TMC3    C810879   2.379   0.250  12.086  0.0038  0.1796 -0.4610
  732TMC3    O110880   2.790   0.043  11.964  0.2010  0.5295 -0.4467
  732TMC3    O210881   2.419   0.261  11.973 -0.1930 -0.4322  0.1473
  733TMC3    C110882   3.138   3.043  12.714  1.2220 -0.1692  0.1459
  733TMC3    C210883   3.212   3.016  12.822 -0.0861  0.0339  0.1566
  733TMC3    C310884   3.350   3.030  12.807  0.4298 -0.6005  0.6138
  733TMC3    C410885   3.190   3.065  12.587  0.0035  0.5048  0.0036
  733TMC3    C510886   3.324   3.071  12.574 -0.2341 -0.1170 -1.0642
  733TMC3    C610887   3.404   3.065  12.686  0.2319 -0.1178 -0.1733
  733TMC3     C10888   2.997   3.009  12.719 -0.7249 -0.5064 -0.0050
  733TMC3     O10889   2.922   3.043  12.626  0.4977  0.2777 -0.3882
  733TMC3     H10890   3.167   3.009  12.921 -0.6374 -0.9922 -0.1683
  733TMC3    H110891   3.120   3.091  12.508 -0.3468  1.4333  0.6168
  733TMC3    H210892   3.513   3.067  12.681  0.3202 -5.0128 -0.1419
  733TMC3    C710893   3.376   3.114  12.447 -0.4587 -0.3291  0.0874
  733TMC3    C810894   3.435   3.040  12.919  0.2951 -0.0833 -0.1794
  733TMC3    O110895   3.289   3.167  12.378 -0.0838  0.1367 -0.0751
  733TMC3    O210896   3.405   2.963  13.012  0.6937  0.0729  0.2473
  734MPD2     C10897   0.153   0.668  12.675 -0.0499  0.1948  0.0063
  734MPD2    C110898   0.229   0.569  12.620  0.2631  0.1769  0.5446
  734MPD2    C210899   0.322   0.602  12.519  0.3073  0.1516 -0.5209
  734MPD2    C310900   0.337   0.734  12.478 -0.3240 -1.0559  0.5624
  734MPD2    C410901   0.268   0.833  12.546 -0.5092  0.5207  0.3362
  734MPD2    C510902   0.180   0.805  12.646  0.0219 -0.2948 -0.6530
  734MPD2     H10903   0.385   0.532  12.465 -2.0348 -1.3534 -1.3242
  734MPD2    H110904   0.277   0.936  12.514 -0.4421  0.6100  0.6393
  734MPD2    H210905   0.079   0.630  12.745  0.9262  0.2779  1.0909
  734MPD2    H310906   0.117   0.884  12.685  1.2852 -0.0832  0.9282
  734MPD2     N10907   0.413   0.756  12.359 -0.2855 -0.1203 -0.2001
  734MPD2    H510908   0.460   0.677  12.317 -1.5769 -0.7914 -0.4016
  734MPD2    N110909   0.209   0.436  12.659  0.0794 -0.3372  0.2251
  734MPD2    H710910   0.151   0.402  12.735  0.7752  0.0856  0.9374
  735TMC3    C110911   0.222   0.204  12.639 -0.0816 -0.5008 -0.3323
  735TMC3    C210912   0.150   0.149  12.539  0.6077 -0.2778  0.6359
  735TMC3    C310913   0.163   0.013  12.505  0.4529  0.2981 -0.0443
  735TMC3    C410914   0.312   0.126  12.701  0.7409  0.8258  0.3222
  735TMC3    C510915   0.324   4.733  12.659  0.8031 -0.5442  0.7406
  735TMC3    C610916   0.250   4.669  12.569  0.4540  0.0029  0.6576
  735TMC3     C10917   0.273   0.333  12.599  0.9777  0.5528 -0.1346
  735TMC3     O10918   0.321   0.325  12.485  0.2941 -0.0633 -1.0100
  735TMC3     H10919   0.077   0.216  12.493  1.8001  0.8142  0.3251
  735TMC3    H110920   0.394   0.175  12.754  0.2244  0.7070  1.2306
  735TMC3    H210921   0.293   4.573  12.541  2.3569  0.7325  1.0392
  735TMC3    C710922   0.443   4.662  12.700 -0.0731 -0.0698  0.2733
  735TMC3    C810923   0.163   0.006  12.359 -1.0605  0.3430 -0.1070
  735TMC3    O110924   0.434   4.600  12.805 -0.0199 -0.5068 -0.0886
  735TMC3    O210925   0.133   4.634  12.302 -0.1170  0.2805  0.0339
  736MPD2     C10926   0.654   4.460  12.662  0.4071 -0.3714 -0.2909
  736MPD2    C110927   0.638   4.568  12.579  0.6805  0.1605  0.5799
  736MPD2    C210928   0.727   4.589  12.475  0.2924 -0.5364 -0.2244
  736MPD2    C310929   0.838   4.507  12.452  0.0692 -0.2577 -0.4090
  736MPD2    C410930   0.845   4.390  12.527  0.3022 -0.5492  0.5377
  736MPD2    C510931   0.757   4.378  12.631 -0.7128  0.5844 -0.5013
  736MPD2     H10932   0.704   4.670  12.406 -0.1701 -1.2014 -0.8501
  736MPD2    H110933   0.934   4.329  12.514 -0.0098 -0.8484 -0.1898
  736MPD2    H210934   0.600   4.443  12.754  2.8274 -1.1059  1.0032
  736MPD2    H310935   0.785   4.290  12.688 -1.3307 -1.0496 -2.7029
  736MPD2     N10936   0.935   4.536  12.356 -0.1569  0.2338  0.3178
  736MPD2    H510937   0.993   4.459  12.326 -1.5664 -0.3820 -0.7857
  736MPD2    N110938   0.538   4.664  12.606  0.3277  0.4262 -0.1252
  736MPD2    H710939   0.528   4.732  12.532 -1.0894  0.2266 -0.1090
  737TMC3    C110940   1.029   4.658  12.189  0.3244  0.4549 -0.3210
  737TMC3    C210941   0.977   0.007  12.091 -0.6900  0.1442  0.4799
  737TMC3    C310942   1.018   4.729  11.963 -0.4819 -0.1638  0.3572
  737TMC3    C410943   1.120   4.562  12.157  0.9369  0.1883 -0.3339
  737TMC3    C510944   1.175   4.568  12.029 -0.3958  0.2358 -0.2144
  737TMC3    C610945   1.118   4.639  11.929 -0.2335  0.0621 -0.0126
  737TMC3     C10946   0.956   4.661  12.309 -0.1303  0.5027 -0.2607
  737TMC3     O10947   0.897   0.028  12.341 -0.2977 -0.1391  0.2815
  737TMC3     H10948   0.904   0.085  12.105 -0.3038  0.2641  1.8274
  737TMC3    H110949   1.158   4.503  12.240 -1.2965  1.4509  1.5989
  737TMC3    H210950   1.140   4.618  11.825 -4.0329  0.0785 -0.8136
  737TMC3    C710951   1.276   4.473  11.995  0.1055 -0.6842 -0.5958
  737TMC3    C810952   0.949   0.073  11.860  0.1862 -0.2372  0.1403
  737TMC3    O110953   1.294   4.377  12.063 -0.1475  0.0706 -0.2557
  737TMC3    O210954   0.864   0.154  11.891 -0.0404  0.1871  0.1805
  738MPD2     C10955   1.130   3.731  15.277  0.0700  0.7380  0.3150
  738MPD2    C110956   1.104   3.692  15.149 -0.0772  0.0440 -0.0589
  738MPD2    C210957   1.171   3.755  15.046 -0.1206  0.3391  0.6886
  738MPD2    C310958   1.260   3.858  15.072  0.3990 -0.1415 -0.1064
  738MPD2    C410959   1.293   3.887  15.200  0.8006 -0.1515 -0.3366
  738MPD2    C510960   1.221   3.831  15.297 -0.0695  0.7932 -0.0356
  738MPD2     H10961   1.160   3.720  14.944  3.1234 -2.1798  1.2084
  738MPD2    H110962   1.367   3.962  15.226  1.0596 -0.5436  0.0676
  738MPD2    H210963   1.089   3.686  15.366  2.5879  0.3112  1.2550
  738MPD2    H310964   1.259   3.865  15.393  1.6487  1.1988 -0.8759
  738MPD2     N10965   1.328   3.932  14.966  0.0566  0.0427  0.0342
  738MPD2    H510966   1.399   4.002  14.986  1.3549 -1.2046 -0.2458
  738MPD2    N110967   1.012   3.588  15.116 -0.8107 -0.2460 -0.3822
  738MPD2    H710968   1.002   3.555  15.020  0.2764 -0.0552 -0.5622
  739TMC3    C110969   1.355   4.020  14.745 -0.7128  0.2263  0.3043
  739TMC3    C210970   1.298   4.031  14.620 -0.3552 -0.1996 -0.0529
  739TMC3    C310971   1.358   4.120  14.529 -0.0515  0.3952 -0.1232
  739TMC3    C410972   1.471   4.079  14.776 -0.0840 -0.6201 -0.4422
  739TMC3    C510973   1.532   4.159  14.680 -0.3339  0.1094 -0.4242
  739TMC3    C610974   1.477   4.177  14.556  0.3584  0.2236 -0.7944
  739TMC3     C10975   1.284   3.928  14.839  0.2679  0.2307 -0.1172
  739TMC3     O10976   1.191   3.871  14.785 -0.3436 -0.3401  0.0916
  739TMC3     H10977   1.199   3.994  14.599  0.1774 -1.0548 -1.0778
  739TMC3    H110978   1.516   4.051  14.871 -1.0434  0.1833  0.2509
  739TMC3    H210979   1.531   4.240  14.485  0.3731  0.5195 -0.5234
  739TMC3    C710980   1.648   4.239  14.711 -0.3269  0.0449 -0.3187
  739TMC3    C810981   1.300   4.128  14.400 -1.2581 -0.3056 -0.3538
  739TMC3    O110982   1.681   4.325  14.631 -0.5497 -0.7974  0.0184
  739TMC3    O210983   1.226   4.034  14.371 -0.6127  0.0235  0.1603
  740TMC3    C110984   1.711   0.564  14.253 -0.5720  0.7598  0.6329
  740TMC3    C210985   1.736   0.469  14.347  0.5055  0.2287  0.2851
  740TMC3    C310986   1.869   0.427  14.362  0.3134 -0.6681  0.3097
  740TMC3    C410987   1.805   0.623  14.174  0.6546 -1.1904 -0.2437
  740TMC3    C510988   1.932   0.575  14.188 -0.3958  0.4436 -0.4495
  740TMC3    C610989   1.963   0.487  14.288 -0.0511  0.3705 -0.2872
  740TMC3     C10990   1.596   0.649  14.273  0.3034 -0.1757 -0.5771
  740TMC3     O10991   1.573   0.737  14.192  0.1001 -0.4718  0.4929
  740TMC3     H10992   1.651   0.415  14.385  0.0231 -0.9341 -2.4552
  740TMC3    H110993   1.775   0.703  14.107  3.4255 -0.2446 -0.3680
  740TMC3    H210994   2.070   0.469  14.301  0.0505  0.8640 -0.4434
  740TMC3    C710995   2.044   0.642  14.119 -0.2817  0.1025  1.0952
  740TMC3    C810996   1.902   0.310  14.429 -0.1308 -0.4187  0.1521
  740TMC3    O110997   2.154   0.634  14.171 -0.2285 -0.2603  0.2727
  740TMC3    O210998   2.022   0.300  14.452 -0.8699 -0.0690  0.2641
  741TMC3    C110999   0.984   4.458  14.319 -0.2161 -0.0710 -0.2468
  741TMC3    C211000   0.908   4.350  14.275 -0.4321  0.3140  0.6316
  741TMC3    C311001   0.906   4.235  14.350 -0.2203 -1.1592  0.0031
  741TMC3    C411002   1.062   4.453  14.426  0.3957  0.4589 -0.0244
  741TMC3    C511003   1.056   4.333  14.491 -0.6009  0.4847  0.8570
  741TMC3    C611004   0.982   4.224  14.464  0.5998  0.2407 -0.3538
  741TMC3     C11005   0.969   4.580  14.236  0.3649 -0.3071  0.4711
  741TMC3     O11006   0.865   4.591  14.172  0.3674 -0.4658  0.1631
  741TMC3     H11007   0.836   4.368  14.196  0.7531  1.0370 -0.2878
  741TMC3    H111008   1.126   4.538  14.450 -0.6772  0.5979  2.3089
  741TMC3    H211009   0.979   4.133  14.523  0.5849  0.8393  0.5707
  741TMC3    C711010   1.116   4.339  14.619 -0.1644 -0.4568 -0.5404
  741TMC3    C811011   0.782   4.165  14.343 -0.5208  0.5222 -0.6506
  741TMC3    O111012   1.209   4.419  14.618  0.0310 -0.4015  0.4023
  741TMC3    O211013   0.695   4.210  14.264 -0.2064 -0.3543  0.1893
  742TMC3    C111014   0.799   2.754  15.489  0.0638  0.5204 -0.5481
  742TMC3    C211015   0.736   2.737  15.368  0.0227 -0.7729 -0.1889
  742TMC3    C311016   0.788   2.804  15.264 -0.0076  0.5246  0.3591
  742TMC3    C411017   0.898   2.836  15.510  0.5078  0.3193 -0.5054
  742TMC3    C511018   0.954   2.895  15.396 -0.0697  0.5381 -0.0632
  742TMC3    C611019   0.895   2.877  15.274 -0.4666 -0.3790 -0.3941
  742TMC3     C11020   0.726   2.694  15.598  0.1010  0.1124  0.5435
  742TMC3     O11021   0.617   2.640  15.569 -0.0128  0.1105  0.3626
  742TMC3     H11022   0.663   2.658  15.356  1.7079 -2.4914  0.7120
  742TMC3    H111023   0.959   2.839  15.600 -0.0404  0.0272 -0.1282
  742TMC3    H211024   0.947   2.914  15.186  2.9273  0.2294  1.8982
  742TMC3    C711025   1.080   2.969  15.410 -0.0797  0.4772  0.1507
  742TMC3    C811026   0.756   2.767  15.133 -0.0442  0.3408 -0.0270
  742TMC3    O111027   1.164   2.968  15.318  0.3087  0.2543 -0.1426
  742TMC3    O211028   0.773   2.850  15.045  0.3801  0.1704  0.1697
  743MPD2     C11029   4.071   4.180   1.396 -0.8130 -0.0156  0.3983
  743MPD2    C111030   4.047   4.157   1.259 -0.0827 -0.3597  0.0051
  743MPD2    C211031   4.150   4.148   1.164 -0.1006 -0.5940 -0.6611
  743MPD2    C311032   4.284   4.174   1.203 -0.0083 -0.1665 -0.4641
  743MPD2    C411033   4.308   4.210   1.337  0.4252  0.2370 -0.5359
  743MPD2    C511034   4.203   4.209   1.429 -0.6247  0.1244 -0.0711
  743MPD2     H11035   4.129   4.137   1.058  1.0877  0.1990 -0.9682
  743MPD2    H111036   4.404   4.233   1.383  0.3501  0.0557 -0.2879
  743MPD2    H211037   3.985   4.194   1.460 -0.1645  0.2876  1.2070
  743MPD2    H311038   4.235   4.215   1.532  1.9411 -1.6237 -0.7698
  743MPD2     N11039   4.384   4.170   1.106  0.8532  0.2388 -0.7219
  743MPD2    H511040   4.361   4.130   1.015 -0.1204  1.1489 -0.8674
  743MPD2    N111041   3.906   4.140   1.234 -0.6314  0.8084 -0.7961
  743MPD2    H711042   3.842   4.182   1.300  0.7967 -0.9934  1.7095
  744TMC3    C111043   3.733   4.128   1.078 -0.0876  0.3950 -0.0929
  744TMC3    C211044   3.646   4.143   1.178 -0.5361  0.0005 -0.1700
  744TMC3    C311045   3.514   4.156   1.155 -0.2592 -0.4309  0.1082
  744TMC3    C411046   3.687   4.113   0.951  0.3122  0.3482 -0.0671
  744TMC3    C511047   3.560   4.155   0.924  0.2407 -0.6268  0.2701
  744TMC3    C611048   3.471   4.179   1.028 -0.2800  0.7490 -0.7278
  744TMC3     C11049   3.866   4.097   1.108  0.7616  0.0125  0.1710
  744TMC3     O11050   3.931   4.029   1.031 -0.1342  0.0593 -0.3944
  744TMC3     H11051   3.665   4.123   1.283 -1.1408 -0.6431 -0.1814
  744TMC3    H111052   3.765   4.118   0.876 -1.1137  0.3118 -1.5399
  744TMC3    H211053   3.364   4.193   1.012 -0.6931 -1.2489  0.1676
  744TMC3    C711054   3.545   4.234   0.801  0.5478  0.7789 -0.4381
  744TMC3    C811055   3.415   4.121   1.252 -0.2192  0.2956 -0.2763
  744TMC3    O111056   3.643   4.283   0.742 -0.4172 -0.4663 -0.1810
  744TMC3    O211057   3.312   4.173   1.224  0.0993  0.1424  0.8844
  745TMC3    C111058   1.560   2.436  13.447 -0.1096 -0.0238 -0.2308
  745TMC3    C211059   1.448   2.382  13.496 -0.2609  0.1703  0.6353
  745TMC3    C311060   1.333   2.427  13.437 -0.2359 -0.8151 -0.3847
  745TMC3    C411061   1.572   2.491  13.321  0.2464 -0.3151  0.2006
  745TMC3    C511062   1.459   2.515  13.254 -0.1369  0.0120  0.4172
  745TMC3    C611063   1.337   2.478  13.308 -0.2556 -0.6812  0.2374
  745TMC3     C11064   1.673   2.439  13.541 -0.1971 -0.4545 -0.9741
  745TMC3     O11065   1.662   2.382  13.649 -0.0104  0.3649  0.0573
  745TMC3     H11066   1.442   2.364  13.602 -1.1501  0.8556  0.7057
  745TMC3    H111067   1.668   2.487  13.272 -0.2247  1.3494 -0.8528
  745TMC3    H211068   1.249   2.531  13.272 -0.6724 -1.2491  0.4244
  745TMC3    C711069   1.446   2.561  13.118  0.2501  0.6735 -0.5898
  745TMC3    C811070   1.254   2.503  13.534  1.0407 -0.3417 -0.1939
  745TMC3    O111071   1.336   2.561  13.069  0.1814  0.2695 -0.0653
  745TMC3    O211072   1.231   2.438  13.636 -0.5898 -0.0299  0.3428
  746TMC3    C111073   3.604   0.507  11.260  0.2689  1.6960  0.2431
  746TMC3    C211074   3.624   0.553  11.135 -0.7380  0.0989  0.1567
  746TMC3    C311075   3.505   0.603  11.068 -0.1785 -0.1866  0.9695
  746TMC3    C411076   3.482   0.503  11.322 -0.2982  0.4240 -0.6931
  746TMC3    C511077   3.373   0.526  11.242 -0.4282 -0.0865 -0.2183
  746TMC3    C611078   3.382   0.590  11.126 -0.1684  0.5931 -0.3120
  746TMC3     C11079   3.723   0.484  11.336 -0.2789 -0.1700  0.5268
  746TMC3     O11080   3.714   0.503  11.457 -0.6273  0.7485  0.1073
  746TMC3     H11081   3.721   0.565  11.087  0.5341 -1.8604  2.2262
  746TMC3    H111082   3.459   0.467  11.422  0.0167  0.2461 -0.6839
  746TMC3    H211083   3.293   0.619  11.070 -1.3958  0.5208  1.6230
  746TMC3    C711084   3.266   0.422  11.238  0.3114 -0.7951 -0.1998
  746TMC3    C811085   3.496   0.632  10.923 -0.2745 -0.0259  0.0144
  746TMC3    O111086   3.214   0.391  11.136 -0.8576 -0.0628 -0.3787
  746TMC3    O211087   3.387   0.620  10.869 -0.3517 -1.0445  1.2045
  747TMC3    C111088   1.803   4.594  11.097  0.1509  0.6538 -0.2682
  747TMC3    C211089   1.774   4.511  11.199 -0.1214 -0.1043  0.2946
  747TMC3    C311090   1.723   4.569  11.313  0.1455  0.0832 -1.1064
  747TMC3    C411091   1.781   4.728  11.095  0.9649 -0.8221  0.2712
  747TMC3    C511092   1.741   0.048  11.208 -0.6950  0.2744  0.2173
  747TMC3    C611093   1.704   4.706  11.323 -0.7362  0.0155 -0.0728
  747TMC3     C11094   1.862   4.537  10.981  0.0539  0.4287 -0.4577
  747TMC3     O11095   1.930   4.613  10.914  0.1377 -0.5483 -0.0179
  747TMC3     H11096   1.801   4.406  11.193 -1.8347 -0.5106 -0.1929
  747TMC3    H111097   1.806   0.052  11.007  1.9466  0.2209  1.2479
  747TMC3    H211098   1.668   0.025  11.410 -0.8146 -1.3885  0.7643
  747TMC3    C711099   1.691   0.183  11.209  0.6225  0.0390  1.0554
  747TMC3    C811100   1.723   4.485  11.426 -0.0131 -0.5080  0.3724
  747TMC3    O111101   1.627   0.218  11.309 -0.0264 -0.1887 -0.0664
  747TMC3    O211102   1.776   4.377  11.414  0.3458  0.2354 -0.0575
  748MPD2     C11103   3.491   0.542   0.589  0.3550  0.5576 -0.4211
  748MPD2    C111104   3.446   0.665   0.631 -0.3892  0.2411  0.5274
  748MPD2    C211105   3.545   0.745   0.695  0.1093 -0.1209 -0.7591
  748MPD2    C311106   3.674   0.709   0.704  0.0772 -0.5193  0.9028
  748MPD2    C411107   3.708   0.583   0.675 -0.1601 -0.4302 -0.2242
  748MPD2    C511108   3.614   0.506   0.616  0.9030  0.1424  0.2356
  748MPD2     H11109   3.508   0.842   0.726  0.0734  0.1928 -1.7622
  748MPD2    H111110   3.812   0.554   0.666  0.2585  0.2826  2.5009
  748MPD2    H211111   3.416   0.476   0.548 -0.0126  0.7012  0.0264
  748MPD2    H311112   3.649   0.412   0.574  2.8388 -0.1259  2.4073
  748MPD2     N11113   3.780   0.799   0.746  0.1463 -0.4333 -0.1286
  748MPD2    H511114   3.870   0.760   0.770  0.0634 -0.6324 -0.1322
  748MPD2    N111115   3.310   0.693   0.619  0.0216 -0.0776  0.5413
  748MPD2    H711116   3.253   0.627   0.567  0.6180 -2.9001  3.5100
  749TMC3    C111117   3.896   0.979   0.836 -0.2103 -0.4285  0.1657
  749TMC3    C211118   3.971   0.893   0.918 -0.4507 -0.0099 -0.2881
  749TMC3    C311119   4.085   0.943   0.970 -0.2018  0.3479 -0.5132
  749TMC3    C411120   3.932   1.109   0.824 -0.0509 -0.4121  0.3453
  749TMC3    C511121   4.048   1.155   0.881  0.1556 -0.3211  0.1010
  749TMC3    C611122   4.125   1.074   0.965  0.3991  0.0629  0.1013
  749TMC3     C11123   3.772   0.932   0.780  0.1157  0.0829 -0.1886
  749TMC3     O11124   3.677   1.011   0.760  0.3294  0.1411 -0.1736
  749TMC3     H11125   3.943   0.792   0.945  1.1426 -0.6125 -0.8496
  749TMC3    H111126   3.868   1.177   0.770 -0.1009  0.4612  1.5098
  749TMC3    H211127   4.215   1.110   1.012 -0.9875 -1.5768  3.9668
  749TMC3    C711128   4.103   1.288   0.847 -0.1400  0.0076 -0.0165
  749TMC3    C811129   4.151   0.859   1.065  0.0524  0.1426  0.0104
  749TMC3    O111130   4.191   1.327   0.920  0.2912  0.3184  0.2624
  749TMC3    O211131   4.176   0.910   1.176  0.3104 -0.3580 -0.4370
  750MPD2     C11132   3.802   1.895  10.959  0.0409  0.2596  0.7435
  750MPD2    C111133   3.700   1.858  11.048  0.2863 -0.3795 -0.0929
  750MPD2    C211134   3.635   1.734  11.027  0.1303  0.4739  0.4035
  750MPD2    C311135   3.670   1.651  10.923 -0.1015  0.0821  0.5005
  750MPD2    C411136   3.785   1.679  10.854 -0.8381 -0.6602 -0.3653
  750MPD2    C511137   3.837   1.806  10.857  0.0157  0.1723 -0.7180
  750MPD2     H11138   3.557   1.698  11.093 -0.6640 -0.6085 -1.1425
  750MPD2    H111139   3.833   1.621  10.776  0.4348 -0.6232  0.3919
  750MPD2    H211140   3.855   1.990  10.960  0.0905  0.2213  1.7296
  750MPD2    H311141   3.920   1.832  10.793  0.4025 -0.9393 -0.6641
  750MPD2     N11142   3.618   1.523  10.904 -0.0998 -0.1121  0.0364
  750MPD2    H511143   3.668   1.470  10.832 -2.6675 -3.3856  0.6862
  750MPD2    N111144   3.668   1.943  11.154 -0.6142 -0.7757 -0.4498
  750MPD2    H711145   3.708   2.037  11.156 -0.2018 -0.9728  0.3785
  751TMC3    C111146   3.443   1.380  10.859  0.3178  0.2347  0.2720
  751TMC3    C211147   3.324   1.373  10.794  0.5125  0.5430  0.7930
  751TMC3    C311148   3.294   1.259  10.721 -0.5541  0.4540 -0.2695
  751TMC3    C411149   3.533   1.280  10.843  1.0954 -0.0000 -0.3132
  751TMC3    C511150   3.504   1.172  10.768  0.7901  0.1228  0.0603
  751TMC3    C611151   3.383   1.152  10.709  0.1536 -0.5085  0.5973
  751TMC3     C11152   3.487   1.495  10.921 -0.0957 -0.0388  1.0142
  751TMC3     O11153   3.396   1.568  10.959  0.0272  0.0814  0.0312
  751TMC3     H11154   3.246   1.448  10.786  1.9773  1.8263 -1.4288
  751TMC3    H111155   3.626   1.271  10.896  1.7292  2.4927 -1.0089
  751TMC3    H211156   3.350   1.065  10.653 -2.2746 -0.3507  1.7544
  751TMC3    C711157   3.622   1.103  10.713 -0.3737 -0.4073 -0.0664
  751TMC3    C811158   3.153   1.242  10.679 -0.1907 -0.3727  0.0311
  751TMC3    O111159   3.729   1.128  10.766 -0.3666 -0.0843  0.1301
  751TMC3    O211160   3.125   1.212  10.565  0.0444 -0.4296  0.0257
  752TMC3    C111161   2.749   1.894  17.251 -0.6155  0.1173  0.3994
  752TMC3    C211162   2.802   1.851  17.370 -0.6114 -0.1712  0.3840
  752TMC3    C311163   2.717   1.798  17.460  0.5923  0.7645 -0.0669
  752TMC3    C411164   2.619   1.881  17.222  1.0944 -0.3866  0.6590
  752TMC3    C511165   2.532   1.825  17.313 -0.0351 -0.3066 -0.0573
  752TMC3    C611166   2.584   1.781  17.433 -1.3505 -0.1892 -0.2007
  752TMC3     C11167   2.844   1.950  17.154  0.1402 -0.0904 -0.1292
  752TMC3     O11168   2.956   1.970  17.197 -0.2847 -0.0790  0.1985
  752TMC3     H11169   2.909   1.859  17.385 -0.4309 -1.8792 -0.0156
  752TMC3    H111170   2.567   1.924  17.136 -2.4433 -0.9714  2.4803
  752TMC3    H211171   2.522   1.710  17.486 -1.5479 -0.8157 -1.2618
  752TMC3    C711172   2.396   1.813  17.274  0.3551 -0.3628 -0.2084
  752TMC3    C811173   2.770   1.750  17.581 -0.3353  0.5655  0.0664
  752TMC3    O111174   2.374   1.804  17.155  0.1637 -0.0771  0.0399
  752TMC3    O211175   2.711   1.655  17.636 -0.2269 -0.0779  0.5541
  753TMC3    C111176   4.354   2.592  13.386  0.1940 -0.1273 -0.2714
  753TMC3    C211177   4.337   2.587  13.524  0.4215  0.8247  0.7964
  753TMC3    C311178   4.303   2.465  13.590  0.1769 -0.3247  1.2188
  753TMC3    C411179   4.370   2.477  13.320  0.7832 -0.2349  0.3994
  753TMC3    C511180   4.341   2.360  13.379  0.4643  0.4066  1.1006
  753TMC3    C611181   4.305   2.353  13.516 -1.0600  0.9467 -0.1518
  753TMC3     C11182   4.429   2.711  13.346 -0.7976  0.3329  0.0410
  753TMC3     O11183   4.480   2.785  13.432 -0.0032 -0.5341  0.0124
  753TMC3     H11184   4.344   2.678  13.582 -0.4626  0.6060  1.2460
  753TMC3    H111185   4.405   2.478  13.217 -0.3631  1.4892  0.0468
  753TMC3    H211186   4.290   2.259  13.567 -0.1772  1.4574  1.0516
  753TMC3    C711187   4.340   2.233  13.307 -0.0418  0.0178  0.5133
  753TMC3    C811188   4.306   2.458  13.733  0.1531  0.7372  0.3199
  753TMC3    O111189   4.331   2.135  13.381 -0.2719 -0.0118 -0.1496
  753TMC3    O211190   4.219   2.386  13.784  0.5131  0.0304 -0.0397
  754MPD2     C11191   4.007   1.151  13.411 -0.4128  0.0107  0.1951
  754MPD2    C111192   3.944   1.163  13.536 -0.3805  0.1349 -0.7972
  754MPD2    C211193   3.803   1.170  13.546 -0.1536  0.7028 -1.1885
  754MPD2    C311194   3.731   1.164  13.424 -0.2087  0.1290  0.0896
  754MPD2    C411195   3.797   1.146  13.308 -0.7691  0.7389  0.4048
  754MPD2    C511196   3.930   1.132  13.300  0.4202  0.6688  0.0593
  754MPD2     H11197   3.761   1.181  13.645  0.2314  1.1912 -1.0821
  754MPD2    H111198   3.753   1.129  13.210 -0.1178 -0.4488  0.3271
  754MPD2    H211199   4.115   1.143  13.410 -0.4002  0.1850  0.1180
  754MPD2    H311200   3.978   1.114  13.204 -0.2500 -0.0775 -0.1376
  754MPD2     N11201   3.586   1.170  13.408  0.6136 -0.6647 -0.8876
  754MPD2    H511202   3.545   1.168  13.315 -3.0091  2.2522  0.6435
  754MPD2    N111203   4.032   1.184  13.648  0.1592 -0.5222  0.2994
  754MPD2    H711204   4.131   1.180  13.627  0.3306  1.1238  0.8081
  755MPD2     C11205   2.606   1.489  13.386 -0.3053 -0.2207 -0.2533
  755MPD2    C111206   2.662   1.468  13.510  0.1637 -0.1397 -0.4749
  755MPD2    C211207   2.773   1.395  13.524 -0.2504 -0.5396 -0.1810
  755MPD2    C311208   2.828   1.331  13.413  0.1849 -0.1388  0.0040
  755MPD2    C411209   2.773   1.337  13.291 -0.0806 -0.7012 -0.2110
  755MPD2    C511210   2.656   1.418  13.284 -0.2135  0.2532  0.6271
  755MPD2     H11211   2.809   1.375  13.624 -1.9242 -1.3520  0.2625
  755MPD2    H111212   2.816   1.295  13.201  1.3191  0.2306  0.0357
  755MPD2    H211213   2.522   1.556  13.369  0.5214  0.7097 -0.7038
  755MPD2    H311214   2.608   1.422  13.186 -1.0214 -0.0055  1.0124
  755MPD2     N11215   2.943   1.252  13.417 -0.1446  0.0982  0.8096
  755MPD2    H511216   2.965   1.199  13.333  0.1128  2.8756 -0.8663
  755MPD2    N111217   2.598   1.537  13.622 -0.1717 -0.1152 -0.5331
  755MPD2    H711218   2.630   1.528  13.718  0.2970 -1.7029 -0.8316
  756MPD2     C11219   4.149   2.051   9.231 -0.2298  0.4487  0.1165
  756MPD2    C111220   4.031   2.067   9.305 -0.0621  0.1405 -0.1712
  756MPD2    C211221   3.924   2.115   9.250  0.1976 -0.6904  0.5809
  756MPD2    C311222   3.919   2.161   9.119 -0.3806 -0.8134  0.5363
  756MPD2    C411223   4.036   2.155   9.046  0.1237  0.5642 -0.3283
  756MPD2    C511224   4.154   2.100   9.097 -0.3229 -0.7076  0.0285
  756MPD2     H11225   3.833   2.134   9.307 -0.6727 -1.0740 -0.6791
  756MPD2    H111226   4.037   2.190   8.944  2.2330  1.3918 -0.0332
  756MPD2    H211227   4.238   2.007   9.274  0.1258  2.3361  1.2756
  756MPD2    H311228   4.246   2.088   9.041 -0.6233  2.3105 -1.1069
  756MPD2     N11229   3.796   2.214   9.064  0.2849  0.4606 -0.3008
  756MPD2    H511230   3.720   2.214   9.130  0.2515 -0.1174 -0.3368
  756MPD2    N111231   4.027   2.025   9.442  0.7032  0.4983  0.8338
  756MPD2    H711232   3.936   2.041   9.485 -1.6307 -0.2197 -3.9123
  757MPD2     C11233   3.040   2.273   9.489  0.1107  0.1826  0.5742
  757MPD2    C111234   3.156   2.196   9.490 -0.7464  0.2899 -0.7216
  757MPD2    C211235   3.253   2.217   9.391 -0.0189  0.2382 -0.0708
  757MPD2    C311236   3.243   2.326   9.303 -0.5736 -0.5700  0.2631
  757MPD2    C411237   3.133   2.405   9.314 -0.5043 -1.2536 -0.5878
  757MPD2    C511238   3.029   2.376   9.404  0.4540 -0.3863 -0.2013
  757MPD2     H11239   3.349   2.166   9.384 -0.1250  0.2265 -1.4235
  757MPD2    H111240   3.109   2.487   9.247 -0.3963 -0.7726 -0.0298
  757MPD2    H211241   2.955   2.262   9.556 -0.2044 -0.6845  0.0447
  757MPD2    H311242   2.940   2.437   9.398  0.6051 -0.4612 -3.1083
  757MPD2     N11243   3.347   2.350   9.208  0.7754 -0.3104 -0.0438
  757MPD2    H511244   3.428   2.289   9.208  2.3830  1.8104  1.2992
  757MPD2    N111245   3.174   2.100   9.597  1.1846  0.2376  0.1915
  757MPD2    H711246   3.097   2.102   9.663 -0.3799 -0.4023 -1.6211
  758MPD2     C11247   3.736   1.440  15.823 -0.0658 -0.0428  0.0769
  758MPD2    C111248   3.822   1.394  15.916 -0.4774  0.6520  0.5744
  758MPD2    C211249   3.772   1.345  16.029 -0.3834 -0.1109  0.3722
  758MPD2    C311250   3.636   1.353  16.057 -0.3212  0.3494 -0.6342
  758MPD2    C411251   3.547   1.407  15.965 -0.3469 -0.0230 -0.1266
  758MPD2    C511252   3.599   1.451  15.849 -0.7211 -0.2269  0.0307
  758MPD2     H11253   3.839   1.310  16.106  0.6635 -0.7252 -0.8249
  758MPD2    H111254   3.439   1.407  15.970 -0.3961  0.0673 -1.1223
  758MPD2    H211255   3.762   1.475  15.723 -0.4901 -0.7380 -0.2795
  758MPD2    H311256   3.529   1.494  15.778  0.0001 -0.8804 -1.0784
  758MPD2     N11257   3.582   1.337  16.190 -0.0094  0.4688  0.0160
  758MPD2    H511258   3.494   1.379  16.218 -0.0135  0.5260 -0.0844
  758MPD2    N111259   3.955   1.392  15.877 -0.1886  0.1308  0.0732
  758MPD2    H711260   3.981   1.450  15.797 -3.2417 -0.4427 -1.3558
  759MPD2     C11261   2.267   4.325  10.600  0.5517 -0.1290 -0.6234
  759MPD2    C111262   2.379   4.284  10.524  0.0677 -0.2054  0.2198
  759MPD2    C211263   2.454   4.381  10.465  0.4478  0.2238  0.2821
  759MPD2    C311264   2.427   4.517  10.482 -0.0727  0.3970 -0.0821
  759MPD2    C411265   2.333   4.553  10.570 -0.2469  0.0801  0.2427
  759MPD2    C511266   2.257   4.458  10.627 -0.5931 -0.3059  0.3508
  759MPD2     H11267   2.544   4.354  10.411  0.8303  0.8655  0.5970
  759MPD2    H111268   2.311   4.656  10.598 -1.6041 -0.9633  3.0637
  759MPD2    H211269   2.201   4.251  10.643  0.8295  0.1263  0.2537
  759MPD2    H311270   2.182   4.503  10.692  0.3201  1.9058 -0.1156
  759MPD2     N11271   2.498   4.614  10.411 -0.1796  0.6458 -0.5189
  759MPD2    H511272   2.577   4.587  10.353  0.7250 -0.8398  1.4564
  759MPD2    N111273   2.435   4.152  10.511 -0.1603 -0.1464 -0.8012
  759MPD2    H711274   2.524   4.146  10.463  0.0090 -1.3884 -0.3230
  760MPD2     C11275   1.844   1.493  11.968 -0.0181  0.8488 -0.3019
  760MPD2    C111276   1.970   1.552  12.002  0.7468 -0.0108  0.1385
  760MPD2    C211277   2.086   1.479  11.994  0.1928  0.1461  0.7949
  760MPD2    C311278   2.087   1.355  11.938 -0.1492 -0.1431 -0.0271
  760MPD2    C411279   1.969   1.285  11.913 -0.0440  0.5811  0.2798
  760MPD2    C511280   1.849   1.358  11.928 -0.1220 -0.5097  0.2712
  760MPD2     H11281   2.176   1.516  12.042  0.8830  0.2813 -0.6045
  760MPD2    H111282   1.958   1.185  11.873 -0.7732  1.5196 -1.9052
  760MPD2    H211283   1.754   1.554  11.967 -0.5669 -0.0058 -2.9720
  760MPD2    H311284   1.760   1.305  11.898  0.0813 -0.6589 -0.0719
  760MPD2     N11285   2.209   1.288  11.914 -0.0683  0.2552 -0.2558
  760MPD2    H511286   2.202   1.191  11.884  1.5408  0.0304  0.0842
  760MPD2    N111287   1.982   1.682  12.046  1.0951 -0.4800 -0.1167
  760MPD2    H711288   2.069   1.707  12.092  1.1502  0.4010 -0.6905
  761MPD2     C11289   3.082   1.245  11.189  0.4779  0.3801  0.0887
  761MPD2    C111290   3.177   1.180  11.112 -0.6034 -0.8229 -0.9779
  761MPD2    C211291   3.165   1.184  10.975  0.6835 -0.0056  0.1344
  761MPD2    C311292   3.071   1.270  10.916  0.2550 -0.5404  0.4647
  761MPD2    C411293   2.977   1.332  10.992 -0.2184  0.2632 -0.4507
  761MPD2    C511294   2.985   1.313  11.127  0.4376 -0.3495  0.1029
  761MPD2     H11295   3.221   1.119  10.910  0.6375 -1.3314  1.4065
  761MPD2    H111296   2.890   1.391  10.964  1.3004  2.0630 -1.4442
  761MPD2    H211297   3.094   1.253  11.296  0.3629 -3.1723  0.3559
  761MPD2    H311298   2.905   1.349  11.190 -0.0172 -0.8302 -0.2006
  761MPD2     N11299   3.059   1.279  10.774 -0.1206 -0.4965  0.2099
  761MPD2    H511300   2.967   1.292  10.733 -0.1120 -1.7759 -0.2094
  761MPD2    N111301   3.266   1.100  11.184  0.5028 -0.5312  0.0458
  761MPD2    H711302   3.273   1.126  11.282  1.3692 -1.1307  0.1468
  762MPD2     C11303   4.138   0.790  11.300  0.7912 -0.6596 -0.4339
  762MPD2    C111304   4.046   0.801  11.197 -0.3013  0.7032  0.3852
  762MPD2    C211305   4.076   0.787  11.062 -0.3606 -1.6844  0.2590
  762MPD2    C311306   4.213   0.765  11.027  0.5751 -0.2146 -0.1291
  762MPD2    C411307   4.306   0.754  11.129 -0.3229 -0.1145  0.5062
  762MPD2    C511308   4.272   0.762  11.267  0.1309  0.7494  0.1206
  762MPD2     H11309   4.005   0.784  10.980  0.9895 -0.4543 -0.9627
  762MPD2    H111310   4.409   0.732  11.105 -0.6657 -0.9973 -0.1441
  762MPD2    H211311   4.106   0.804  11.403 -1.4480  0.5878 -1.2987
  762MPD2    H311312   4.346   0.759  11.346  0.2708  1.4026  0.0166
  762MPD2     N11313   4.239   0.746  10.894 -1.2103  0.0838 -0.3529
  762MPD2    H511314   4.156   0.767  10.839  0.2723  1.8765 -1.9169
  762MPD2    N111315   3.921   0.848  11.243 -0.2558  0.1479 -0.1811
  762MPD2    H711316   3.919   0.887  11.336 -3.1393  2.8047 -1.3292
  763MPD2     C11317   0.872   1.363  16.150  0.8384  0.4606 -1.0253
  763MPD2    C111318   0.752   1.432  16.123 -0.6246 -0.5446  0.0947
  763MPD2    C211319   0.751   1.566  16.138 -0.0783  0.4794 -0.2967
  763MPD2    C311320   0.859   1.628  16.197  0.5464  0.1771 -0.4686
  763MPD2    C411321   0.975   1.563  16.223  0.8122 -0.6570 -0.4267
  763MPD2    C511322   0.983   1.428  16.198 -0.2447  0.6033  0.1900
  763MPD2     H11323   0.661   1.615  16.104 -1.2562 -0.3815  1.5643
  763MPD2    H111324   1.058   1.609  16.274  0.1297 -0.2766  0.3455
  763MPD2    H211325   0.882   1.257  16.134 -0.2487 -0.2290  2.8762
  763MPD2    H311326   1.064   1.362  16.225 -3.7037 -2.6941  2.4956
  763MPD2     N11327   0.878   1.767  16.218 -0.1425 -0.0831 -0.0813
  763MPD2    H511328   0.967   1.799  16.254 -0.0308 -1.6805  1.0396
  763MPD2    N111329   0.646   1.363  16.053  0.6616 -0.0890  0.3725
  763MPD2    H711330   0.567   1.415  16.015  1.2558  0.0387 -0.6780
  764MPD2     C11331   4.152   3.017   0.009 -0.3150  0.5963  0.4741
  764MPD2    C111332   4.069   2.941  17.666 -0.5437  0.4426 -0.3385
  764MPD2    C211333   3.992   2.853  17.719  0.0459  0.0694  0.2285
  764MPD2    C311334   3.975   2.850   0.118  0.2663  1.2482 -0.0503
  764MPD2    C411335   4.060   2.920   0.197 -0.3276  0.1550  0.0195
  764MPD2    C511336   4.152   3.009   0.141  0.1000 -0.1754 -0.5271
  764MPD2     H11337   3.927   2.796  17.654 -2.3210  1.6243  1.2306
  764MPD2    H111338   4.062   2.907   0.305 -0.0311 -1.7314 -0.2110
  764MPD2    H211339   4.223   3.088  17.706  1.0506 -2.1859 -2.0921
  764MPD2    H311340   4.226   3.066   0.196  0.3092 -1.8416  0.9333
  764MPD2     N11341   3.874   2.773   0.171 -0.7224  0.1212 -0.3040
  764MPD2    H511342   3.815   2.728   0.102  0.6506  0.3103 -1.5878
  764MPD2    N111343   4.063   2.949  17.523  0.5543 -0.2696 -0.4722
  764MPD2    H711344   4.000   2.884  17.477 -1.5895  0.4797  1.4124
  765MPD2     C11345   2.745   0.654  15.473 -0.2297 -0.5755  0.1012
  765MPD2    C111346   2.828   0.752  15.517 -0.6422  0.1943 -0.4770
  765MPD2    C211347   2.960   0.752  15.475  0.3198 -0.1620 -0.2574
  765MPD2    C311348   3.003   0.656  15.388  0.0797 -0.6743 -0.7044
  765MPD2    C411349   2.916   0.562  15.340  0.4511 -0.3759 -0.7261
  765MPD2    C511350   2.784   0.560  15.379 -0.1211 -0.3949 -0.1659
  765MPD2     H11351   3.035   0.819  15.514 -2.0651  2.9884 -1.1488
  765MPD2    H111352   2.953   0.490  15.268 -1.5154  0.8598 -2.9652
  765MPD2    H211353   2.645   0.649  15.515  0.3009  0.8195  1.5010
  765MPD2    H311354   2.714   0.485  15.346 -2.7850  1.3828  1.4783
  765MPD2     N11355   3.134   0.657  15.353  0.0670 -0.1254  0.0856
  765MPD2    H511356   3.192   0.726  15.400 -0.2245  0.8786 -1.0408
  765MPD2    N111357   2.772   0.863  15.593  0.4515  0.1906 -0.8264
  765MPD2    H711358   2.672   0.860  15.607  0.5685  1.1693  0.2021
  766MPD2     C11359   2.327   0.874  15.394 -0.1133  0.4891  0.2467
  766MPD2    C111360   2.455   0.937  15.387  0.2295  1.0814 -0.8634
  766MPD2    C211361   2.545   0.897  15.290 -0.2770  0.8809 -0.0356
  766MPD2    C311362   2.508   0.816  15.176 -0.4708  0.4382  0.2805
  766MPD2    C411363   2.387   0.755  15.192 -0.3568  0.5380  0.6377
  766MPD2    C511364   2.302   0.780  15.298 -0.3165 -0.0381 -0.4730
  766MPD2     H11365   2.647   0.934  15.297 -0.4617  1.1431  1.1781
  766MPD2    H111366   2.350   0.694  15.110 -2.5065  0.2044  1.8327
  766MPD2    H211367   2.260   0.898  15.476 -0.9608 -0.5296 -0.1439
  766MPD2    H311368   2.203   0.735  15.298 -1.2198  1.9519 -1.9445
  766MPD2     N11369   2.587   0.804  15.063  0.0366 -0.2387  0.1016
  766MPD2    H511370   2.560   0.741  14.989  0.8393  1.6240 -1.7608
  766MPD2    N111371   2.502   1.030  15.483 -0.4893  0.2571  0.1305
  766MPD2    H711372   2.597   1.066  15.484  0.1583 -1.4778  0.7568
  767MPD2     C11373   2.213   0.966  15.049  0.5763  0.2439 -0.0271
  767MPD2    C111374   2.304   1.044  14.987 -0.5361  0.6215  0.2118
  767MPD2    C211375   2.340   1.015  14.857  0.2321  0.5462 -0.1517
  767MPD2    C311376   2.264   0.922  14.780 -0.8290  0.6774 -0.1789
  767MPD2    C411377   2.156   0.860  14.843 -0.3100  0.8148 -0.9885
  767MPD2    C511378   2.129   0.879  14.977  0.4416  0.0388 -0.2687
  767MPD2     H11379   2.420   1.076  14.816  0.4604 -0.0201 -0.5488
  767MPD2    H111380   2.099   0.787  14.788  1.1268 -0.7077 -0.4388
  767MPD2    H211381   2.188   0.973  15.155 -1.0971  0.8238 -0.4612
  767MPD2    H311382   2.049   0.827  15.028  2.6458 -0.7900  2.3787
  767MPD2     N11383   2.304   0.888  14.646 -0.3144 -0.2748 -0.5193
  767MPD2    H511384   2.390   0.923  14.606 -0.2893  0.6577  0.3430
  767MPD2    N111385   2.373   1.144  15.065  0.1901  0.4186 -0.3523
  767MPD2    H711386   2.332   1.153  15.157 -0.4766 -0.3747 -0.5614
  768MPD2     C11387   3.247   4.168  10.809  0.1972 -0.0561  0.0566
  768MPD2    C111388   3.235   4.250  10.917  0.1322 -0.1062 -0.5227
  768MPD2    C211389   3.324   4.242  11.028  0.1880  0.3587  0.3416
  768MPD2    C311390   3.432   4.153  11.024  0.1611  0.4926  0.5378
  768MPD2    C411391   3.433   4.063  10.916  0.5418  0.7747  0.2086
  768MPD2    C511392   3.347   4.080  10.806  0.5415 -0.3104  0.0543
  768MPD2     H11393   3.300   4.303  11.114 -0.1369 -1.0231  1.2313
  768MPD2    H111394   3.502   3.980  10.918  0.4204  0.7391  3.0502
  768MPD2    H211395   3.185   4.169  10.721 -0.7468 -0.8824  0.7073
  768MPD2    H311396   3.354   4.016  10.719  0.3267  1.6779 -1.4104
  768MPD2     N11397   3.528   4.150  11.134 -0.6235 -0.1521  0.0093
  768MPD2    H511398   3.606   4.085  11.129 -2.4534 -2.3576 -0.0838
  768MPD2    N111399   3.119   4.329  10.937 -0.5014 -0.4740 -0.6938
  768MPD2    H711400   3.122   4.379  11.025  0.0224 -1.2215 -0.2773
  769MPD2     C11401   3.799   2.901  15.202 -0.1736 -0.1331  0.1054
  769MPD2    C111402   3.779   2.791  15.278 -0.1806  0.7793  0.6778
  769MPD2    C211403   3.865   2.761  15.383 -0.3640  0.3253 -0.2681
  769MPD2    C311404   3.983   2.829  15.402 -0.1861 -1.2322  0.1620
  769MPD2    C411405   4.015   2.929  15.313  0.3004  0.3783 -0.9369
  769MPD2    C511406   3.920   2.965  15.216 -0.3550 -0.0772  0.8800
  769MPD2     H11407   3.842   2.682  15.453 -0.7496  1.9523  1.4335
  769MPD2    H111408   4.104   2.991  15.309  1.1194 -0.8435 -1.4596
  769MPD2    H211409   3.738   2.932  15.119  0.2762  1.8325  0.5204
  769MPD2    H311410   3.944   3.056  15.164 -2.8399  0.3923  0.5391
  769MPD2     N11411   4.060   2.805  15.512  1.1507 -0.6720 -0.2977
  769MPD2    H511412   4.027   2.726  15.567  0.8118 -0.2783  0.0584
  769MPD2    N111413   3.649   2.737  15.266  0.4331  0.1895  0.1755
  769MPD2    H711414   3.600   2.760  15.179  0.4329  0.7267  0.3164
  770MPD2     C11415   3.293   1.749  15.363 -0.5859  0.0416 -0.7123
  770MPD2    C111416   3.392   1.789  15.285  0.1630 -0.2797  0.5895
  770MPD2    C211417   3.420   1.921  15.267  0.2890  0.0210 -0.4232
  770MPD2    C311418   3.359   2.014  15.339  0.2570 -0.0049  0.1599
  770MPD2    C411419   3.263   1.977  15.435 -0.3193 -0.0553  0.1718
  770MPD2    C511420   3.240   1.842  15.450 -0.2157  0.1695  0.3505
  770MPD2     H11421   3.483   1.957  15.187  0.9508 -0.2777 -0.0363
  770MPD2    H111422   3.211   2.043  15.504 -0.4134  1.8249 -1.6850
  770MPD2    H211423   3.265   1.645  15.369  2.5309 -0.7600  0.1222
  770MPD2    H311424   3.168   1.802  15.520 -2.3820  0.8131 -1.5029
  770MPD2     N11425   3.374   2.151  15.306  0.1808 -0.1091 -0.2276
  770MPD2    H511426   3.419   2.176  15.218 -0.7509 -2.1521 -1.3003
  770MPD2    N111427   3.465   1.690  15.213 -0.5337  0.0495  0.3065
  770MPD2    H711428   3.436   1.593  15.220  3.4326 -1.0667  1.3032
  771MPD2     C11429   0.827   0.302  13.584 -0.1628  0.0101  0.4274
  771MPD2    C111430   0.690   0.321  13.555 -0.0643  0.1827  0.1163
  771MPD2    C211431   0.596   0.243  13.616 -0.4270 -0.5597  0.1458
  771MPD2    C311432   0.629   0.154  13.714  0.1598  0.2398 -0.1888
  771MPD2    C411433   0.762   0.147  13.755  0.4143 -0.2573 -0.6416
  771MPD2    C511434   0.859   0.222  13.690 -0.0867  0.6310 -0.0999
  771MPD2     H11435   0.492   0.263  13.593  0.1107  2.6495  0.4938
  771MPD2    H111436   0.796   0.076  13.829  4.5798  3.0523  0.6008
  771MPD2    H211437   0.905   0.357  13.533  0.7189 -0.4211  1.3084
  771MPD2    H311438   0.962   0.207  13.723 -1.7218 -2.3429  3.6925
  771MPD2     N11439   0.531   0.071  13.760  0.1315  0.2993 -0.0387
  771MPD2    H511440   0.441   0.081  13.715  0.3276  1.0286 -0.2616
  771MPD2    N111441   0.646   0.421  13.457 -0.2144 -0.1823  0.4949
  771MPD2    H711442   0.548   0.420  13.431 -0.4488  0.8093  1.3458
  772MPD2     C11443   0.028   0.662  13.159  0.2142  0.2630  0.7718
  772MPD2    C111444   0.104   0.621  13.271 -0.0543 -0.8650 -0.4151
  772MPD2    C211445   0.030   0.563  13.380  0.1098  0.2553  0.0033
  772MPD2    C311446   4.625   0.539  13.370 -0.4958  0.6712 -0.1250
  772MPD2    C411447   4.559   0.586  13.260 -0.5159 -0.6872  1.3804
  772MPD2    C511448   4.626   0.645  13.161 -0.4788  0.5339 -0.6310
  772MPD2     H11449   0.077   0.542  13.475  1.3354 -0.2583 -0.7213
  772MPD2    H111450   4.452   0.575  13.249 -0.2937  0.0984 -1.6700
  772MPD2    H211451   0.078   0.696  13.069 -0.9083  0.7621  0.3385
  772MPD2    H311452   4.566   0.660  13.072 -0.3610 -0.0006 -0.8003
  772MPD2     N11453   4.545   0.469  13.464 -0.4446  0.1413  0.3170
  772MPD2    H511454   4.444   0.471  13.449  0.3386  0.4671 -4.8915
  772MPD2    N111455   0.242   0.649  13.273 -0.6368 -0.2521 -0.0219
  772MPD2    H711456   0.281   0.613  13.359  1.0588  2.0756  0.1772
  773MPD2     C11457   4.372   1.493   0.323  0.4275 -0.6332 -0.0080
  773MPD2    C111458   4.305   1.413   0.235 -0.0203  0.5872  0.2547
  773MPD2    C211459   4.344   1.284   0.229  0.4923  0.1105  0.4892
  773MPD2    C311460   4.448   1.234   0.300  0.5803  0.0412 -0.6827
  773MPD2    C411461   4.518   1.316   0.383  0.0816  0.2982 -0.5562
  773MPD2    C511462   4.475   1.445   0.397 -0.4160  0.1928 -0.2081
  773MPD2     H11463   4.291   1.217   0.162  1.9576 -0.7376  0.1823
  773MPD2    H111464   4.611   1.290   0.434 -0.2850  1.5064  0.6977
  773MPD2    H211465   4.356   1.598   0.346  1.6048 -0.3129 -0.5976
  773MPD2    H311466   4.519   1.520   0.461 -0.8012  1.3099 -1.2695
  773MPD2     N11467   4.480   1.096   0.279  0.0834  0.3209 -0.0058
  773MPD2    H511468   4.411   1.044   0.226  1.1825  0.1729 -1.3282
  773MPD2    N111469   4.195   1.454   0.152  0.0614 -0.2482  0.2364
  773MPD2    H711470   4.153   1.379   0.098  0.4550  0.3232 -0.8601
  774MPD2     C11471   3.377   1.185  14.050 -0.4624  0.4179  0.8065
  774MPD2    C111472   3.448   1.096  13.993  0.3184 -0.4977 -0.6202
  774MPD2    C211473   3.586   1.119  13.993 -0.3801  0.1666 -0.3627
  774MPD2    C311474   3.638   1.238  14.045  0.2788 -0.1044  0.1756
  774MPD2    C411475   3.551   1.326  14.113  0.6921 -0.3586 -0.3904
  774MPD2    C511476   3.424   1.293  14.117 -0.1359 -0.8224 -0.2477
  774MPD2     H11477   3.652   1.051  13.941 -0.7103 -0.9251  0.6480
  774MPD2    H111478   3.577   1.421  14.160  0.1405  0.4618 -1.7506
  774MPD2    H211479   3.270   1.175  14.064 -0.8658 -0.8117 -2.9734
  774MPD2    H311480   3.357   1.357  14.173  0.5175 -0.0536 -0.3446
  774MPD2     N11481   3.776   1.257  14.026 -0.0632  0.6517 -0.2242
  774MPD2    H511482   3.829   1.191  13.969 -0.2453  0.0051  0.3596
  774MPD2    N111483   3.403   0.986  13.922 -0.8359  0.1359  0.0008
  774MPD2    H711484   3.472   0.922  13.884 -0.3085 -0.2499  1.5977
  775MPD2     C11485   4.098   2.152  15.644 -1.1207 -0.0983  0.2034
  775MPD2    C111486   4.197   2.217  15.711 -0.6876  0.3472  0.5828
  775MPD2    C211487   4.267   2.313  15.643 -0.2087  0.0751  0.3810
  775MPD2    C311488   4.235   2.350  15.507  0.5519  0.2409 -0.0487
  775MPD2    C411489   4.141   2.268  15.437 -0.6345  0.7476 -0.4960
  775MPD2    C511490   4.068   2.178  15.513  0.1811 -0.1275  0.4494
  775MPD2     H11491   4.347   2.362  15.698  0.4488 -0.4953 -0.0513
  775MPD2    H111492   4.099   2.291  15.340  0.9265 -3.7500 -2.2066
  775MPD2    H211493   4.037   2.081  15.697 -0.9982 -1.1230 -1.0182
  775MPD2    H311494   3.987   2.130  15.458  1.2783 -0.1545 -1.1493
  775MPD2     N11495   4.306   2.452  15.430  0.2265  0.3267  0.9567
  775MPD2    H511496   4.280   2.459  15.332  1.2278 -1.6538  0.5409
  775MPD2    N111497   4.211   2.186  15.852 -0.1950 -0.0001  0.3355
  775MPD2    H711498   4.142   2.126  15.895 -0.2047  0.9819  1.6951
  776MPD2     C11499   3.597   2.611  11.683 -0.1768  0.1592  0.0732
  776MPD2    C111500   3.606   2.543  11.564 -0.9154  0.3365 -0.8623
  776MPD2    C211501   3.575   2.616  11.452 -0.0462  0.2426 -0.2358
  776MPD2    C311502   3.538   2.750  11.456 -0.5108  0.3557 -0.4767
  776MPD2    C411503   3.549   2.813  11.571 -0.2238  0.3367  0.0760
  776MPD2    C511504   3.570   2.743  11.686  0.4700 -0.0324 -0.0808
  776MPD2     H11505   3.565   2.566  11.357  1.7343  1.8735 -1.2703
  776MPD2    H111506   3.526   2.919  11.582 -0.4128  0.2219  0.7742
  776MPD2    H211507   3.615   2.568  11.780  0.7721  0.3550 -0.0212
  776MPD2    H311508   3.582   2.799  11.779  1.4819  2.1571 -1.5365
  776MPD2     N11509   3.508   2.830  11.341  0.2017  0.0204  0.7917
  776MPD2    H511510   3.517   2.931  11.348  3.7155 -0.3446  1.4706
  776MPD2    N111511   3.629   2.401  11.563  0.0706  0.0079  0.0051
  776MPD2    H711512   3.590   2.343  11.637 -0.0246  1.4132  1.0347
  777MPD2     C11513   4.388   4.508   0.294  0.0622 -0.4831  0.8811
  777MPD2    C111514   4.290   4.532   0.388  0.0423 -0.0716 -0.1135
  777MPD2    C211515   4.159   4.536   0.336 -0.0844 -0.4710  0.1281
  777MPD2    C311516   4.132   4.506   0.205  0.5319  0.4126 -0.7021
  777MPD2    C411517   4.234   4.489   0.117  0.5323  0.2794  0.0849
  777MPD2    C511518   4.359   4.490   0.166 -0.2843 -0.4631  0.0428
  777MPD2     H11519   4.077   4.561   0.402  1.1031  3.4405  0.1056
  777MPD2    H111520   4.224   4.459   0.013  0.6033  2.3841 -0.5182
  777MPD2    H211521   4.490   4.512   0.329  0.2726  0.7190  0.1529
  777MPD2    H311522   4.436   4.456   0.098 -0.4443 -2.0715  0.6685
  777MPD2     N11523   3.995   4.495   0.164 -0.0513  1.0015 -0.1043
  777MPD2    H511524   3.927   4.521   0.235 -0.9344  0.1028 -0.6190
  777MPD2    N111525   4.327   4.564   0.518  0.4887 -0.2291 -0.0800
  777MPD2    H711526   4.425   4.556   0.545  0.4082  0.8961  0.5449
  778MPD2     C11527   0.682   0.419  15.075  0.5503  0.4960 -0.7766
  778MPD2    C111528   0.693   0.297  15.020 -0.3331 -0.5245  0.4472
  778MPD2    C211529   0.725   0.290  14.889 -0.6703  0.4160  0.5201
  778MPD2    C311530   0.747   0.401  14.810 -0.5617  0.1777 -0.5039
  778MPD2    C411531   0.726   0.522  14.861  0.5339  0.2164 -0.0625
  778MPD2    C511532   0.694   0.531  14.992  0.0436 -0.1153  0.2364
  778MPD2     H11533   0.733   0.191  14.845  0.6913  1.4398 -1.5049
  778MPD2    H111534   0.741   0.610  14.800 -0.5011 -1.3606 -2.5823
  778MPD2    H211535   0.649   0.425  15.178 -0.8053 -2.6004 -1.0265
  778MPD2    H311536   0.676   0.631  15.030 -1.2316 -0.3730  0.2980
  778MPD2     N11537   0.807   0.380  14.684  0.0197 -0.0410  0.6582
  778MPD2    H511538   0.841   0.288  14.660 -1.7647 -0.5525  0.1582
  778MPD2    N111539   0.674   0.178  15.096  0.3159  0.4558  0.0478
  778MPD2    H711540   0.642   0.096  15.045 -1.3215  0.6797  0.7087
  779MPD2     C11541   4.683   3.488  13.867 -0.0648 -0.1199 -0.5122
  779MPD2    C111542   4.716   3.489  14.000  0.3455 -0.4808 -0.1369
  779MPD2    C211543   4.726   3.613  14.063  0.1468  0.5937 -0.5932
  779MPD2    C311544   4.709   3.733  13.999  0.2378  0.0763  0.3925
  779MPD2    C411545   4.680   3.726  13.864 -0.1404  0.1916  0.0928
  779MPD2    C511546   4.660   3.606  13.803 -0.5325  0.0170 -0.1351
  779MPD2     H11547   0.016   3.611  14.169 -0.6667 -1.0179 -0.4231
  779MPD2    H111548   4.664   3.816  13.806 -0.5366  1.4014  2.1260
  779MPD2    H211549   4.675   3.398  13.807 -0.4030 -0.0804 -0.5298
  779MPD2    H311550   4.628   3.593  13.700  1.0076  0.2861 -0.6449
  779MPD2     N11551   4.723   3.855  14.068 -0.7606 -0.2369 -0.8839
  779MPD2    H511552   0.039   3.845  14.155 -1.6112  1.1074 -0.2292
  779MPD2    N111553   4.723   3.370  14.068 -0.3491 -0.4941 -0.5476
  779MPD2    H711554   4.703   3.282  14.021 -0.5399 -0.1299 -1.1402
  780MPD2     C11555   0.780   3.633   0.905 -0.2208 -0.8747 -0.7231
  780MPD2    C111556   0.668   3.708   0.880  0.6333  0.5671  0.0547
  780MPD2    C211557   0.675   3.773   0.755  0.1111 -0.0551  0.4129
  780MPD2    C311558   0.786   3.787   0.673 -0.1614 -0.2251 -0.2145
  780MPD2    C411559   0.901   3.725   0.719  0.0921  0.7343  0.3788
  780MPD2    C511560   0.893   3.639   0.828  0.1029  0.0279 -0.0576
  780MPD2     H11561   0.583   3.819   0.719 -0.8875 -2.4772 -0.1883
  780MPD2    H111562   0.997   3.718   0.669 -0.2037 -1.7557  0.1997
  780MPD2    H211563   0.772   3.556   0.981  0.7657 -2.0315 -1.8074
  780MPD2    H311564   0.976   3.573   0.850  0.6647  0.6146 -0.4400
  780MPD2     N11565   0.769   3.861   0.550  0.7513 -0.2316 -0.2447
  780MPD2    H511566   0.680   3.908   0.537  0.5941 -0.7298 -0.9705
  780MPD2    N111567   0.549   3.692   0.957  0.4954  0.6070  0.2938
  780MPD2    H711568   0.563   3.621   1.028  0.8569  1.7160  1.3117
  781MPD2     C11569   1.837   1.001  12.084  0.6786  0.4085 -0.5145
  781MPD2    C111570   1.731   1.084  12.078 -0.3875 -0.2494 -0.1929
  781MPD2    C211571   1.654   1.094  11.963 -0.5140 -0.6969  0.0829
  781MPD2    C311572   1.688   1.010  11.856  0.0695  0.6889 -0.4505
  781MPD2    C411573   1.784   0.910  11.877  0.4394  0.9712 -0.8144
  781MPD2    C511574   1.859   0.908  11.983  0.0594 -0.4311  0.1747
  781MPD2     H11575   1.563   1.153  11.965 -0.3011 -0.2457 -3.2947
  781MPD2    H111576   1.822   0.850  11.795  0.7067  0.7784 -0.5518
  781MPD2    H211577   1.899   1.004  12.173 -1.3862 -0.5710  0.9471
  781MPD2    H311578   1.945   0.843  11.985  0.8859  0.6451 -0.2449
  781MPD2     N11579   1.615   1.020  11.733  0.4298 -0.3746 -0.0727
  781MPD2    H511580   1.540   1.088  11.730  1.3896  0.7216  0.9496
  781MPD2    N111581   1.707   1.162  12.197  0.2188 -0.2473 -0.1310
  781MPD2    H711582   1.769   1.149  12.276 -0.6132  1.9220  0.8753
  782MPD2     C11583   4.724   1.572  10.273 -0.2475  0.0813  0.1305
  782MPD2    C111584   4.639   1.552  10.379  0.3427 -0.1762  0.1862
  782MPD2    C211585   4.644   1.638  10.486  0.3228  0.0584 -0.1589
  782MPD2    C311586   0.011   1.731  10.494  0.7911  0.4102 -0.3211
  782MPD2    C411587   0.099   1.746  10.391  0.5770 -0.3547  0.0128
  782MPD2    C511588   0.081   1.675  10.273  0.2616 -0.2538  0.5688
  782MPD2     H11589   4.566   1.619  10.558 -1.8109  1.6512 -2.0617
  782MPD2    H111590   0.188   1.808  10.394 -0.3121  0.9107  0.5336
  782MPD2    H211591   4.716   1.503  10.189 -0.4306  0.3629 -0.0813
  782MPD2    H311592   0.146   1.686  10.186  0.7878 -0.8204  0.8896
  782MPD2     N11593   0.018   1.817  10.607  0.2862  0.1335  0.1958
  782MPD2    H511594   0.075   1.901  10.598  2.0252 -0.9578  1.0765
  782MPD2    N111595   4.557   1.437  10.393  0.2317 -0.1041  0.4661
  782MPD2    H711596   4.499   1.427  10.476  1.9693 -0.1002  1.6903
  783MPD2     C11597   3.624   0.979  10.356  0.6255  0.1123 -0.4022
  783MPD2    C111598   3.677   1.017  10.478 -1.2304 -0.1616 -0.1220
  783MPD2    C211599   3.812   1.048  10.485 -0.3425  0.1488  0.3424
  783MPD2    C311600   3.897   1.036  10.375 -1.0202  0.3306  0.6583
  783MPD2    C411601   3.847   0.993  10.262  0.0148  0.0069 -0.5712
  783MPD2    C511602   3.707   0.970  10.252  0.7913 -0.3402 -0.3011
  783MPD2     H11603   3.849   1.068  10.585 -0.6062  2.3612  0.0115
  783MPD2    H111604   3.913   0.965  10.180  0.6968  0.7359 -0.2735
  783MPD2    H211605   3.517   0.977  10.337 -0.0300  3.0635  3.0384
  783MPD2    H311606   3.666   0.954  10.153 -0.6748  0.2356  0.2153
  783MPD2     N11607   4.029   1.071  10.393  0.2306 -0.1670  0.2062
  783MPD2    H511608   4.057   1.117  10.479  0.7538  1.7073 -0.9711
  783MPD2    N111609   3.592   1.037  10.590 -1.0966 -0.3992  0.2954
  783MPD2    H711610   3.494   1.030  10.567 -0.7612 -2.0994 -0.6022
  784MPD2     C11611   2.315   1.524   0.515 -0.5687  0.0451 -0.2224
  784MPD2    C111612   2.313   1.616   0.622 -0.2560  0.3500  0.0229
  784MPD2    C211613   2.212   1.707   0.619  0.1933 -0.3014  0.0123
  784MPD2    C311614   2.108   1.703   0.531 -0.4433  0.3585  0.2214
  784MPD2    C411615   2.112   1.614   0.426  0.0552  0.4760  0.3625
  784MPD2    C511616   2.215   1.519   0.427 -0.1940  0.4255  1.5579
  784MPD2     H11617   2.220   1.777   0.702 -0.2557  2.5050 -2.3245
  784MPD2    H111618   2.033   1.603   0.352  0.4393  1.8163 -0.2631
  784MPD2    H211619   2.398   1.455   0.507 -1.5717 -1.2511  0.6106
  784MPD2    H311620   2.219   1.445   0.348  1.0518  0.8021  1.2813
  784MPD2     N11621   2.002   1.792   0.537  0.0660 -0.1981 -0.3273
  784MPD2    H511622   2.009   1.856   0.615  1.0071 -0.2873 -0.3404
  784MPD2    N111623   2.416   1.632   0.720  0.6339 -0.9462 -0.5891
  784MPD2    H711624   2.419   1.724   0.762  0.5970 -0.4840 -1.5910
  785MPD2     C11625   2.384   1.341  11.569 -0.4601  0.0658 -0.3288
  785MPD2    C111626   2.299   1.231  11.562 -0.3863  0.7016  0.2481
  785MPD2    C211627   2.362   1.107  11.531  0.0507  0.0261 -0.2778
  785MPD2    C311628   2.496   1.101  11.501  0.5988  0.5394 -0.4340
  785MPD2    C411629   2.575   1.215  11.507  1.0982  0.2332  0.4140
  785MPD2    C511630   2.520   1.333  11.544 -0.0387 -0.1522  0.5729
  785MPD2     H11631   2.300   1.018  11.523  2.3212 -1.7605  1.8359
  785MPD2    H111632   2.682   1.206  11.492  1.1185  2.5874 -0.9915
  785MPD2    H211633   2.344   1.440  11.590 -0.7815 -0.0387 -0.4632
  785MPD2    H311634   2.580   1.423  11.540 -1.3073  0.6622 -0.0576
  785MPD2     N11635   2.534   0.973  11.457 -0.1333 -0.4765  0.1512
  785MPD2    H511636   2.467   0.898  11.466 -0.0781 -0.4665  0.6842
  785MPD2    N111637   2.157   1.236  11.564 -0.2290 -0.4660  0.1601
  785MPD2    H711638   2.109   1.154  11.529 -1.0419  0.0954 -0.0535
  786MPD2     C11639   0.595   2.399  14.804 -0.5966  0.3604  0.8161
  786MPD2    C111640   0.679   2.507  14.780 -0.1694  0.0583 -0.0144
  786MPD2    C211641   0.721   2.593  14.885 -0.1445  0.2252  0.2724
  786MPD2    C311642   0.680   2.563  15.016  0.2305 -0.4957  0.2618
  786MPD2    C411643   0.613   2.451  15.044  0.0099  0.0720 -0.6553
  786MPD2    C511644   0.570   2.367  14.940 -0.4574 -0.1302 -0.0968
  786MPD2     H11645   0.786   2.678  14.867  2.3918 -2.2584 -2.3699
  786MPD2    H111646   0.578   2.424  15.143  1.9987  1.3796  0.4103
  786MPD2    H211647   0.548   2.333  14.733  0.8495 -0.2000  0.3796
  786MPD2    H311648   0.512   2.279  14.967  1.5624 -1.4355 -0.0238
  786MPD2     N11649   0.702   2.646  15.128  0.2518 -0.6714 -0.2282
  786MPD2    H511650   0.685   2.597  15.214 -1.1096  0.0536 -0.0847
  786MPD2    N111651   0.718   2.539  14.647  0.0063 -0.1280 -0.5238
  786MPD2    H711652   0.787   2.612  14.632  2.0115 -1.4634  2.1335
  787MPD2     C11653   1.330   2.318  14.337 -0.6450 -0.0567  0.2650
  787MPD2    C111654   1.278   2.441  14.302 -0.0739  0.0047 -0.3370
  787MPD2    C211655   1.361   2.557  14.308 -0.3720 -0.1302  0.1774
  787MPD2    C311656   1.496   2.547  14.339 -0.4652 -0.2800 -0.6228
  787MPD2    C411657   1.549   2.423  14.359  0.0321  0.2705 -0.4846
  787MPD2    C511658   1.471   2.312  14.357 -0.8940  0.3824  0.3774
  787MPD2     H11659   1.316   2.656  14.303  0.3955  0.1494 -1.2270
  787MPD2    H111660   1.647   2.404  14.401  0.8359 -0.4755 -2.6996
  787MPD2    H211661   1.268   2.231  14.322  0.6451 -1.0114  0.4815
  787MPD2    H311662   1.522   2.223  14.390 -1.4310 -0.1494 -0.2264
  787MPD2     N11663   1.576   2.660  14.352 -0.4053  0.1614 -0.1193
  787MPD2    H511664   1.525   2.743  14.327 -1.7418  0.2213  2.8581
  787MPD2    N111665   1.134   2.448  14.297  1.1254 -0.5647  0.7039
  787MPD2    H711666   1.079   2.365  14.317  0.8518  0.1647  3.0097
  788MPD2     C11667   2.923   2.012   0.806  0.0497 -0.1220 -0.1352
  788MPD2    C111668   2.901   1.895   0.737 -0.7494 -0.0068  0.2492
  788MPD2    C211669   2.829   1.895   0.620  0.2452  0.0018  0.7843
  788MPD2    C311670   2.811   2.013   0.556  0.4242 -0.8787 -0.0981
  788MPD2    C411671   2.840   2.132   0.626  0.0167 -0.2751 -0.1901
  788MPD2    C511672   2.897   2.134   0.751 -0.5134  0.3658 -0.3079
  788MPD2     H11673   2.798   1.802   0.574  0.3086  0.7661 -0.8110
  788MPD2    H111674   2.819   2.227   0.578 -1.8288 -0.7646 -0.3462
  788MPD2    H211675   2.975   2.025   0.900  1.8405 -3.3054 -0.7089
  788MPD2    H311676   2.919   2.226   0.803 -0.3187 -0.0189  0.2962
  788MPD2     N11677   2.745   2.015   0.432 -0.2927 -0.1101 -0.1644
  788MPD2    H511678   2.695   1.933   0.400  0.0536 -1.3112  2.3851
  788MPD2    N111679   2.952   1.773   0.789 -0.8641 -0.2445 -0.0572
  788MPD2    H711680   2.933   1.692   0.730 -0.9074 -1.1581  1.1976
  789MPD2     C11681   3.434   1.076  16.576  0.2635 -0.2293 -0.0593
  789MPD2    C111682   3.310   1.100  16.523 -0.0424 -0.0581 -0.5575
  789MPD2    C211683   3.227   1.196  16.583  0.0124  0.0932  0.2144
  789MPD2    C311684   3.261   1.266  16.694  0.2775 -0.2354  0.8124
  789MPD2    C411685   3.387   1.246  16.748 -0.4525  0.3443 -0.5755
  789MPD2    C511686   3.474   1.152  16.688 -0.2871 -0.8707  0.2423
  789MPD2     H11687   3.130   1.222  16.544 -0.3430  0.4858  1.3697
  789MPD2    H111688   3.416   1.295  16.840 -0.6166  1.3407 -1.0624
  789MPD2    H211689   3.508   1.004  16.542 -0.5915 -1.1462  0.0416
  789MPD2    H311690   3.568   1.131  16.737 -0.6234 -0.3252  1.1275
  789MPD2     N11691   3.159   1.356  16.743  0.1985  0.1421  0.7050
  789MPD2    H511692   3.072   1.364  16.691  0.4733 -2.2944 -0.1271
  789MPD2    N111693   3.261   1.039  16.403 -0.1556  0.0203  0.0622
  789MPD2    H711694   3.163   1.053  16.383  0.2734  2.3439 -0.4652
  790MPD2     C11695   4.019   2.376  13.329  0.2793  0.3398 -0.6326
  790MPD2    C111696   3.985   2.259  13.280  0.5098  0.0719  0.1314
  790MPD2    C211697   3.960   2.239  13.146 -0.4379 -0.1493  0.8401
  790MPD2    C311698   3.974   2.351  13.060  0.2279 -0.4347 -0.5445
  790MPD2    C411699   4.004   2.476  13.122 -0.1943 -0.1508 -0.3422
  790MPD2    C511700   4.039   2.479  13.252  0.6209 -0.3400  0.1096
  790MPD2     H11701   3.931   2.143  13.105  1.8526  0.1739 -1.5088
  790MPD2    H111702   4.015   2.563  13.058 -0.4406  0.4491  0.4337
  790MPD2    H211703   4.035   2.389  13.436 -2.1888  4.3322 -0.7664
  790MPD2    H311704   4.077   2.576  13.283 -0.2570  0.7720 -2.2410
  790MPD2     N11705   3.948   2.342  12.919  0.0918  0.3837 -0.5285
  790MPD2    H511706   3.902   2.258  12.885 -0.8908  0.8231 -0.2866
  790MPD2    N111707   3.982   2.159  13.387 -0.0205  0.7692  0.1754
  790MPD2    H711708   4.016   2.184  13.479  1.5559 -0.7517 -0.0038
  791MPD2     C11709   3.357   2.381  12.475  0.0768 -0.5408  0.1849
  791MPD2    C111710   3.428   2.289  12.539 -0.0298 -0.3493 -0.3517
  791MPD2    C211711   3.363   2.187  12.606  0.1052  0.2762  0.1571
  791MPD2    C311712   3.223   2.182  12.616 -0.5704 -0.0434 -0.2307
  791MPD2    C411713   3.151   2.283  12.550 -0.1215  0.0201 -0.2490
  791MPD2    C511714   3.224   2.383  12.481 -0.5161 -0.7682 -0.3410
  791MPD2     H11715   3.413   2.113  12.667 -1.4507 -1.4062 -0.6001
  791MPD2    H111716   3.043   2.291  12.553 -0.0452  0.0750  2.6231
  791MPD2    H211717   3.408   2.463  12.425 -0.8412 -0.2210 -0.2251
  791MPD2    H311718   3.174   2.465  12.432 -0.7652 -1.5375 -1.3627
  791MPD2     N11719   3.177   2.083  12.703 -0.7138 -0.4005 -0.3991
  791MPD2    H511720   3.236   2.013  12.746 -1.4283  0.8665  2.6539
  791MPD2    N111721   3.566   2.299  12.533  0.2277  0.1790  0.2624
  791MPD2    H711722   3.591   2.376  12.472 -3.5638  0.0376 -1.4375
  792MPD2     C11723   3.899   2.894  11.227  0.2153  0.4726  0.1746
  792MPD2    C111724   3.892   2.934  11.091  0.2498  0.2030  0.4691
  792MPD2    C211725   3.823   2.854  11.005 -0.6312 -0.3218 -0.6369
  792MPD2    C311726   3.783   2.727  11.034 -0.7297  0.1793 -0.1159
  792MPD2    C411727   3.805   2.681  11.157 -0.1803  0.0403 -0.0563
  792MPD2    C511728   3.855   2.763  11.254  0.0541  0.2279  0.2167
  792MPD2     H11729   3.810   2.900  10.907  0.3434 -0.5735 -0.8773
  792MPD2    H111730   3.775   2.578  11.175  0.7827 -0.2274  0.0103
  792MPD2    H211731   3.949   2.941  11.310  1.1559 -1.6416  0.7951
  792MPD2    H311732   3.867   2.725  11.355  1.1101  0.8133  0.3078
  792MPD2     N11733   3.746   2.637  10.934  0.1393 -0.0963 -0.8842
  792MPD2    H511734   3.716   2.544  10.961  1.0439 -0.6450 -1.7942
  792MPD2    N111735   3.957   3.050  11.035  0.5983 -0.2668 -0.3239
  792MPD2    H711736   3.926   3.070  10.941 -1.0766  2.2352  0.7648
  793MPD2     C11737   3.540   2.182   9.964  0.4184  0.3150 -0.5069
  793MPD2    C111738   3.677   2.192   9.982  0.0896  0.7573 -0.2258
  793MPD2    C211739   3.716   2.267  10.081  0.2521  0.5663 -0.3658
  793MPD2    C311740   3.632   2.330  10.171 -0.4353 -0.2247  0.7581
  793MPD2    C411741   3.496   2.311  10.166 -0.0690  0.3856 -0.5085
  793MPD2    C511742   3.450   2.241  10.058  0.1137  0.6255  0.3255
  793MPD2     H11743   3.822   2.286  10.096  0.4244 -0.4658 -0.3345
  793MPD2    H111744   3.419   2.347  10.233  0.2144  0.6744 -0.3404
  793MPD2    H211745   3.489   2.125   9.887  0.2944 -1.7922  1.1217
  793MPD2    H311746   3.344   2.227  10.042  0.5168 -0.2798 -1.5427
  793MPD2     N11747   3.687   2.373  10.292  0.8059  0.1688 -0.7063
  793MPD2    H511748   3.787   2.358  10.298  0.9113  1.1643  0.0564
  793MPD2    N111749   3.779   2.128   9.906 -0.0352 -0.1926  0.8049
  793MPD2    H711750   3.873   2.161   9.930  0.0015  2.0101 -2.3818
  794MPD2     C11751   3.994   1.835  17.148 -0.0567  0.4743 -0.1623
  794MPD2    C111752   3.891   1.833  17.239  0.1350 -0.6254 -0.0949
  794MPD2    C211753   3.770   1.892  17.207  1.2635 -0.0737  0.3029
  794MPD2    C311754   3.753   1.945  17.074 -0.4351 -0.6782 -0.8054
  794MPD2    C411755   3.854   1.928  16.982 -0.0547 -1.3225  0.3410
  794MPD2    C511756   3.977   1.878  17.021  0.5123  0.0603  0.3876
  794MPD2     H11757   3.682   1.890  17.271  0.4193  0.8864 -0.8177
  794MPD2    H111758   3.834   1.968  16.884 -0.3877  2.0961  1.8157
  794MPD2    H211759   4.091   1.795  17.177 -1.1137 -1.1762  1.0719
  794MPD2    H311760   4.054   1.867  16.947  0.7220  0.2910  0.5713
  794MPD2     N11761   3.632   2.002  17.030 -0.5692 -0.6114 -0.6259
  794MPD2    H511762   3.614   2.010  16.930  1.2701 -2.3213 -1.1079
  794MPD2    N111763   3.902   1.768  17.366 -0.2310 -0.0575 -0.0645
  794MPD2    H711764   3.818   1.749  17.420 -0.9108  0.5307 -0.9016
  795MPD2     C11765   1.785   3.793  13.257  0.5490 -0.1354 -0.4279
  795MPD2    C111766   1.717   3.708  13.338 -0.2889 -0.7331  0.2862
  795MPD2    C211767   1.779   3.597  13.383 -0.2060  0.7791  0.4830
  795MPD2    C311768   1.906   3.570  13.359 -0.1418  0.4115 -0.3144
  795MPD2    C411769   1.977   3.647  13.269  0.6870 -0.1729  0.8067
  795MPD2    C511770   1.915   3.759  13.218 -0.1341 -0.1835 -0.4987
  795MPD2     H11771   1.733   3.529  13.454 -1.6755  1.3589  0.0790
  795MPD2    H111772   2.079   3.622  13.241  1.1549  3.3987 -0.7200
  795MPD2    H211773   1.734   3.878  13.215 -0.8489  0.0667  1.6622
  795MPD2    H311774   1.964   3.831  13.153  0.3181  0.0657  0.1137
  795MPD2     N11775   1.966   3.472  13.434  0.0671  0.1449  0.0457
  795MPD2    H511776   1.913   3.416  13.500  2.8710 -1.4345  0.9412
  795MPD2    N111777   1.579   3.726  13.367  0.8689  0.1107  0.1511
  795MPD2    H711778   1.532   3.653  13.420  0.6119  0.3877  0.3071
  796MPD2     C11779   0.956   0.577  16.173  0.2093 -0.3182 -0.7279
  796MPD2    C111780   1.054   0.654  16.222  0.0139 -0.5213 -0.0965
  796MPD2    C211781   1.069   0.785  16.174 -0.1114  0.6719 -0.1514
  796MPD2    C311782   0.999   0.839  16.061 -0.3337 -0.0661  0.3770
  796MPD2    C411783   0.913   0.750  16.007  0.1915  0.2934 -0.6568
  796MPD2    C511784   0.893   0.626  16.065  0.3618 -0.6535 -0.3885
  796MPD2     H11785   1.151   0.846  16.212 -0.1590 -0.1680  1.3065
  796MPD2    H111786   0.853   0.777  15.921  0.6409 -0.4603 -1.2046
  796MPD2    H211787   0.934   0.479  16.212 -0.2813 -0.5742 -1.6610
  796MPD2    H311788   0.822   0.558  16.018 -0.3718  0.4398 -0.8703
  796MPD2     N11789   1.027   0.976  16.022  0.3587 -0.2275 -1.0962
  796MPD2    H511790   1.091   1.027  16.082 -1.2886  1.8078 -1.0544
  796MPD2    N111791   1.131   0.594  16.326 -0.3115  0.0148  0.6523
  796MPD2    H711792   1.106   0.503  16.362  0.9813 -0.1758  1.0560
  797MPD2     C11793   2.367   0.228  17.549  0.0341 -0.9266 -0.5295
  797MPD2    C111794   2.419   0.352  17.556 -0.1352  0.0972  0.1016
  797MPD2    C211795   2.339   0.468  17.527  0.8225  0.3639 -0.0380
  797MPD2    C311796   2.204   0.445  17.501 -0.5253 -0.0758  0.4331
  797MPD2    C411797   2.155   0.312  17.486  0.5358 -0.1369 -0.0526
  797MPD2    C511798   2.240   0.207  17.503 -0.4340 -0.1690  0.5303
  797MPD2     H11799   2.378   0.569  17.526  0.7189  0.4063  0.4126
  797MPD2    H111800   2.050   0.289  17.468  0.1295  0.6129  1.3190
  797MPD2    H211801   2.408   0.133  17.581  1.7876  0.6500  1.9983
  797MPD2    H311802   2.205   0.105  17.502 -1.1574  0.0919 -0.7940
  797MPD2     N11803   2.124   0.558  17.491 -0.1082  0.3617 -0.4102
  797MPD2    H511804   2.172   0.646  17.504 -0.2146  0.0688  1.8560
  797MPD2    N111805   2.556   0.385  17.581 -0.3978 -0.7685 -0.8875
  797MPD2    H711806   2.589   0.481  17.586  2.5189 -1.7609 -0.8876
  798MPD2     C11807   2.582   1.086  17.440 -0.7172  0.7633  0.2679
  798MPD2    C111808   2.509   0.971  17.454 -0.4119  0.2603 -0.2878
  798MPD2    C211809   2.573   0.850  17.481 -0.0890 -0.2484 -0.5391
  798MPD2    C311810   2.711   0.849  17.497 -0.0563 -0.1535 -0.0436
  798MPD2    C411811   2.784   0.965  17.481  0.2155  0.0980 -0.4393
  798MPD2    C511812   2.719   1.074  17.444 -0.5043 -0.0307  0.9688
  798MPD2     H11813   2.523   0.756  17.495  2.3780 -1.3517  0.8748
  798MPD2    H111814   2.891   0.959  17.494  0.1555  0.8799  0.3530
  798MPD2    H211815   2.539   1.183  17.418 -0.5736  0.4061 -1.5757
  798MPD2    H311816   2.772   1.166  17.425 -1.9464  0.7196  0.5925
  798MPD2     N11817   2.763   0.723  17.522  0.4899 -0.4877  0.0608
  798MPD2    H511818   2.692   0.650  17.533  0.1603 -0.1800 -0.0406
  798MPD2    N111819   2.371   0.985  17.436  0.3197 -0.3494 -0.1694
  798MPD2    H711820   2.333   1.074  17.406 -2.4438 -1.7298 -0.7627
  799MPD2     C11821   1.158   1.748  14.668  0.9846 -0.2869 -0.1490
  799MPD2    C111822   1.108   1.696  14.551  0.2906 -0.3093 -0.0026
  799MPD2    C211823   0.990   1.750  14.503  0.0612 -0.1927 -0.2304
  799MPD2    C311824   0.921   1.844  14.568 -0.5500 -0.1436 -0.3851
  799MPD2    C411825   0.977   1.902  14.678  0.0753 -0.7291 -0.0335
  799MPD2    C511826   1.097   1.854  14.731 -0.2315 -0.1487  0.6539
  799MPD2     H11827   0.950   1.706  14.412 -1.8275  1.4884 -0.2040
  799MPD2    H111828   0.944   1.991  14.731  2.6118 -0.5695  1.3110
  799MPD2    H211829   1.249   1.714  14.715  1.1772  1.6486  0.8931
  799MPD2    H311830   1.137   1.896  14.822  0.3915  0.0883  0.2716
  799MPD2     N11831   0.792   1.888  14.528 -0.0489 -0.4771  0.7404
  799MPD2    H511832   0.751   1.966  14.577  0.2026 -0.8154  1.4890
  799MPD2    N111833   1.181   1.597  14.478  0.1471 -0.4330  0.6668
  799MPD2    H711834   1.142   1.570  14.389  1.8779  0.4970 -0.3713
  800MPD2     C11835   1.282   2.857  13.869  0.3133  0.4470  0.6155
  800MPD2    C111836   1.367   2.887  13.761  0.1357 -0.1863 -1.0734
  800MPD2    C211837   1.347   2.826  13.639 -0.0347 -0.0616 -0.0296
  800MPD2    C311838   1.261   2.720  13.629 -0.2218 -0.4969 -0.2268
  800MPD2    C411839   1.168   2.700  13.732 -0.1460 -0.3300 -0.4793
  800MPD2    C511840   1.184   2.765  13.851 -0.3760  0.2289  0.1294
  800MPD2     H11841   1.414   2.839  13.555  0.7639 -0.3512  0.5495
  800MPD2    H111842   1.079   2.640  13.716  0.4637 -1.6860  1.2276
  800MPD2    H211843   1.296   2.890  13.972  0.5948 -1.7672  1.2883
  800MPD2    H311844   1.110   2.761  13.930 -0.5785 -0.1335 -0.0820
  800MPD2     N11845   1.277   2.633  13.516  0.1371  0.0692  0.0124
  800MPD2    H511846   1.340   2.665  13.442 -0.2162 -0.8573 -0.6961
  800MPD2    N111847   1.489   2.950  13.786  0.1162 -0.1916 -0.7830
  800MPD2    H711848   1.541   2.983  13.706 -0.0902  3.0059  0.3698
  801MPD2     C11849   1.772   3.629  13.826 -0.6214  0.6491  0.3373
  801MPD2    C111850   1.732   3.517  13.900  0.0078  0.2502 -0.6263
  801MPD2    C211851   1.668   3.542  14.020  0.1460  0.1934  0.2272
  801MPD2    C311852   1.648   3.673  14.066  0.0077 -0.8216  0.8259
  801MPD2    C411853   1.671   3.781  13.982  0.0093 -0.1311 -0.3038
  801MPD2    C511854   1.739   3.757  13.863  0.2408  0.3125  0.2253
  801MPD2     H11855   1.650   3.459  14.088  1.0783 -1.5943 -1.6748
  801MPD2    H111856   1.648   3.884  14.008  0.1948 -0.6430  1.8138
  801MPD2    H211857   1.818   3.614  13.730  0.6667 -2.5158  1.4531
  801MPD2    H311858   1.757   3.848  13.806 -1.7473  1.8988  2.1325
  801MPD2     N11859   1.603   3.698  14.196 -0.0730  0.0957  0.1426
  801MPD2    H511860   1.562   3.616  14.240  2.1753 -0.3879  1.3123
  801MPD2    N111861   1.758   3.381  13.872  0.2837  0.0087 -0.2622
  801MPD2    H711862   1.727   3.314  13.941 -2.7047  1.8825  0.1984
  802MPD2     C11863   1.704   0.073   0.137 -0.7234 -0.1611  0.1902
  802MPD2    C111864   1.602   4.730   0.100 -0.0234  0.6766 -0.4591
  802MPD2    C211865   1.619   4.596   0.075  0.2039 -0.2161  0.3540
  802MPD2    C311866   1.744   4.543   0.074 -0.0740  0.1145 -0.3473
  802MPD2    C411867   1.852   4.610   0.110  0.4521  0.5313  1.2343
  802MPD2    C511868   1.832   0.014   0.133 -0.7873  0.4927 -1.2478
  802MPD2     H11869   1.532   4.533   0.064 -2.2396  2.9416  1.6416
  802MPD2    H111870   1.950   4.565   0.116  0.3202  0.0546 -0.2790
  802MPD2    H211871   1.694   0.181   0.140  0.5483  0.0212 -1.4907
  802MPD2    H311872   1.915   0.077   0.160 -1.3406  0.7208 -0.0724
  802MPD2     N11873   1.754   4.412   0.019 -0.3382  0.5862  0.2865
  802MPD2    H511874   1.663   4.379  17.727 -0.9316  2.5984 -0.1345
  802MPD2    N111875   1.468   0.038   0.113  0.1672 -0.2431  0.2550
  802MPD2    H711876   1.394   4.704   0.097 -0.4879  0.1641  1.6025
  803MPD2     C11877   1.612   2.059  11.978 -0.0320  0.2057 -0.2966
  803MPD2    C111878   1.676   2.180  11.980  0.1521 -0.5386  0.5790
  803MPD2    C211879   1.710   2.232  12.101 -0.1381  0.6296 -0.6548
  803MPD2    C311880   1.703   2.160  12.218  0.6151  0.7472 -0.7745
  803MPD2    C411881   1.635   2.039  12.214  0.2742  0.5427 -0.7752
  803MPD2    C511882   1.589   1.988  12.098  0.5811 -0.0937  0.5747
  803MPD2     H11883   1.747   2.334  12.104 -1.1439  0.9675  0.3040
  803MPD2    H111884   1.624   1.980  12.304 -0.4243  1.9112  0.0189
  803MPD2    H211885   1.576   2.017  11.885 -0.4182 -0.4743  0.1551
  803MPD2    H311886   1.536   1.893  12.098  2.1110 -0.9531 -1.2968
  803MPD2     N11887   1.756   2.209  12.340  0.2444  0.0244 -0.3480
  803MPD2    H511888   1.748   2.150  12.422 -2.6495 -1.2273 -1.5459
  803MPD2    N111889   1.692   2.252  11.867 -0.5559  0.0980 -0.4521
  803MPD2    H711890   1.714   2.349  11.887  0.5834 -0.3098  0.2889
  804MPD2     C11891   1.775   3.767  17.232 -0.3245  0.8931 -0.2929
  804MPD2    C111892   1.790   3.715  17.358 -0.4717  0.0142 -0.6352
  804MPD2    C211893   1.874   3.790  17.443 -0.5299 -0.0802  0.3430
  804MPD2    C311894   1.952   3.888  17.391 -0.0935 -0.0499  0.0923
  804MPD2    C411895   1.950   3.924  17.257 -0.6192  0.3277 -0.5660
  804MPD2    C511896   1.851   3.869  17.183  0.7580  0.5100  0.1793
  804MPD2     H11897   1.877   3.773  17.550  0.2591  2.8410  0.7849
  804MPD2    H111898   2.024   3.988  17.211 -1.5079  1.4467 -0.4330
  804MPD2    H211899   1.704   3.728  17.160 -0.6128  1.1645 -0.1535
  804MPD2    H311900   1.838   3.895  17.079  0.0395  1.1014  0.4176
  804MPD2     N11901   2.044   3.933  17.488  0.3235 -0.0085 -0.0839
  804MPD2    H511902   2.038   3.884  17.577  0.9636  0.1685  0.0589
  804MPD2    N111903   1.718   3.599  17.410  0.0594  0.4174 -0.2424
  804MPD2    H711904   1.743   3.573  17.505  0.4150  2.2163  0.1605
  805MPD2     C11905   0.967   1.468  15.392  0.8019 -0.0776  0.1459
  805MPD2    C111906   0.958   1.598  15.358  0.4218 -0.4903  0.4132
  805MPD2    C211907   1.053   1.690  15.391 -0.8209  0.0176  0.0614
  805MPD2    C311908   1.145   1.657  15.491 -0.2491  0.1486 -0.4408
  805MPD2    C411909   1.155   1.525  15.519  0.6982 -0.3552  0.6970
  805MPD2    C511910   1.068   1.429  15.474  0.0053  0.3133  0.0987
  805MPD2     H11911   1.049   1.788  15.345  0.3863  0.4081  0.7765
  805MPD2    H111912   1.230   1.500  15.593  0.3955 -3.0351  0.1041
  805MPD2    H211913   0.906   1.387  15.354  0.0615 -0.2127  1.6449
  805MPD2    H311914   1.071   1.325  15.506  1.1389  0.3407  0.1000
  805MPD2     N11915   1.217   1.760  15.554 -0.3113  0.0976  0.2186
  805MPD2    H511916   1.201   1.855  15.521  0.8272  0.0492 -0.4619
  805MPD2    N111917   0.852   1.642  15.281  0.3041 -0.0836  0.3788
  805MPD2    H711918   0.840   1.743  15.278  0.0404 -0.0981  0.9996
  806MPD2     C11919   1.246   1.543   0.027 -0.4797 -1.1589  0.5105
  806MPD2    C111920   1.297   1.580   0.151  0.4276  0.0683  0.2705
  806MPD2    C211921   1.383   1.696   0.149 -0.7601  0.5296 -0.4130
  806MPD2    C311922   1.420   1.766   0.033  0.0820  0.0703  0.1653
  806MPD2    C411923   1.379   1.708  17.648 -1.0070  0.4852 -0.4473
  806MPD2    C511924   1.294   1.603  17.651  0.1749 -0.6912  0.1730
  806MPD2     H11925   1.415   1.735   0.245  2.0622  1.0704 -1.5796
  806MPD2    H111926   1.411   1.752  17.554 -1.1686 -1.3680 -1.3622
  806MPD2    H211927   1.166   1.469   0.028 -0.1070 -1.5411  2.1127
  806MPD2    H311928   1.258   1.560  17.558 -0.6631  1.8127 -0.6837
  806MPD2     N11929   1.494   1.885   0.039  0.5213 -0.0764  0.1394
  806MPD2    H511930   1.496   1.927   0.131 -0.7429  1.0656 -0.3374
  806MPD2    N111931   1.261   1.507   0.268  0.4985  0.4305  0.8979
  806MPD2    H711932   1.193   1.435   0.251  0.0844  1.0751 -0.1734
  807MPD2     C11933   1.416   0.816   0.507  0.3318 -0.1221  0.1335
  807MPD2    C111934   1.300   0.837   0.583  0.0202  0.7989  0.0313
  807MPD2    C211935   1.244   0.739   0.665 -1.0040  0.3108 -0.1926
  807MPD2    C311936   1.320   0.623   0.684 -1.0628  0.6637 -0.1288
  807MPD2    C411937   1.437   0.607   0.617  0.0885 -0.2911 -0.0915
  807MPD2    C511938   1.481   0.703   0.524 -0.2297  0.6580 -0.1445
  807MPD2     H11939   1.145   0.751   0.707 -1.9330 -2.1840 -1.6481
  807MPD2    H111940   1.490   0.514   0.631  1.3670  0.1235 -2.1725
  807MPD2    H211941   1.463   0.887   0.441  1.4100 -0.5551  0.4416
  807MPD2    H311942   1.564   0.680   0.459  0.9996  0.4563  1.5054
  807MPD2     N11943   1.262   0.517   0.753 -0.6997 -0.5666 -0.0612
  807MPD2    H511944   1.165   0.525   0.781 -0.5911  1.1153 -0.2009
  807MPD2    N111945   1.247   0.971   0.589  0.2709  0.7135  0.2709
  807MPD2    H711946   1.178   0.995   0.659 -0.2404 -0.9113  0.3101
  808MPD2     C11947   1.666   2.481   9.974 -1.2027 -0.7040  0.2931
  808MPD2    C111948   1.792   2.437   9.933 -0.1005 -0.0290  0.3448
  808MPD2    C211949   1.908   2.508   9.964  0.6010  0.3140  0.0440
  808MPD2    C311950   1.898   2.619  10.045  0.2893 -0.0657 -0.1628
  808MPD2    C411951   1.774   2.662  10.090 -0.3288 -1.3341  0.1780
  808MPD2    C511952   1.662   2.595  10.054 -0.2031 -0.6569 -0.0246
  808MPD2     H11953   2.002   2.472   9.924  0.0981 -0.9554 -0.0054
  808MPD2    H111954   1.765   2.756  10.144  1.9895 -0.2967 -1.2125
  808MPD2    H211955   1.573   2.428   9.957 -1.6530 -0.0063  0.5925
  808MPD2    H311956   1.569   2.638  10.089  0.3281  1.1218 -0.7752
  808MPD2     N11957   2.003   2.702  10.073 -0.1874 -0.1932 -0.5572
  808MPD2    H511958   1.985   2.795  10.108  1.8916  0.0397 -0.1360
  808MPD2    N111959   1.814   2.320   9.861  0.2753 -0.1499 -0.9432
  808MPD2    H711960   1.913   2.301   9.852  0.7294  2.9632 -2.5492
  809MPD2     C11961   2.704   2.581   9.393 -0.2037 -0.1928 -0.5029
  809MPD2    C111962   2.752   2.700   9.459  1.0598 -0.0296 -0.6609
  809MPD2    C211963   2.690   2.745   9.578  0.2214 -0.4153 -0.4683
  809MPD2    C311964   2.574   2.680   9.624  0.3298  0.0214  0.5039
  809MPD2    C411965   2.528   2.566   9.556 -0.2329 -0.5991 -0.3600
  809MPD2    C511966   2.595   2.517   9.445  0.5928 -0.2249 -0.2695
  809MPD2     H11967   2.741   2.826   9.630  0.5541 -1.6883  1.1874
  809MPD2    H111968   2.441   2.516   9.596  0.6190 -1.0936  0.8777
  809MPD2    H211969   2.748   2.534   9.305 -1.2264 -1.5943 -0.2758
  809MPD2    H311970   2.553   2.425   9.406  3.1758 -0.4099 -2.6589
  809MPD2     N11971   2.497   2.726   9.735 -0.0497  0.1918 -0.2020
  809MPD2    H511972   2.423   2.663   9.764  0.6600 -0.5065  0.0874
  809MPD2    N111973   2.855   2.776   9.405  0.6941  0.1712 -0.5414
  809MPD2    H711974   2.876   2.862   9.455  0.4167  0.1935 -0.4646
  810MPD2     C11975   0.672   2.976  10.971  0.0081  0.1551 -0.4529
  810MPD2    C111976   0.593   2.975  10.856  0.2141  0.6675  0.2978
  810MPD2    C211977   0.588   3.096  10.788 -0.0018  0.4552  0.4332
  810MPD2    C311978   0.672   3.207  10.825  0.6045  0.3458  0.2133
  810MPD2    C411979   0.750   3.199  10.935 -0.4154  0.1033  0.5861
  810MPD2    C511980   0.752   3.079  11.005  0.0178  0.2960  0.3425
  810MPD2     H11981   0.521   3.098  10.702  0.2907  2.6311  0.2449
  810MPD2    H111982   0.812   3.277  10.977  0.3098  0.8807 -1.9670
  810MPD2    H211983   0.691   2.886  11.029 -1.0863  0.7471  0.8188
  810MPD2    H311984   0.827   3.069  11.082  0.4511  1.6428  0.0907
  810MPD2     N11985   0.688   3.328  10.742 -0.0211  0.1785 -0.1460
  810MPD2    H511986   0.750   3.401  10.775 -1.2982  0.9932  0.4719
  810MPD2    N111987   0.518   2.858  10.811  0.9898  0.6374 -0.4155
  810MPD2    H711988   0.477   2.868  10.718 -1.7364  2.5301  1.0138
  811MPD2     C11989   0.120   2.487  10.175  0.6911 -0.1063 -0.3136
  811MPD2    C111990   0.189   2.584  10.251 -0.4086  0.2397  1.1078
  811MPD2    C211991   0.245   2.690  10.186  0.1851 -0.0354  0.4717
  811MPD2    C311992   0.234   2.705  10.046 -0.7495 -0.2921 -0.4452
  811MPD2    C411993   0.157   2.617   9.978 -0.2849 -0.8276  0.2999
  811MPD2    C511994   0.101   2.509  10.042  0.6323 -0.2819  0.2304
  811MPD2     H11995   0.315   2.756  10.234 -4.2270  3.4325  2.1038
  811MPD2    H111996   0.146   2.638   9.872  0.2667  0.2128  0.4433
  811MPD2    H211997   0.081   2.395  10.216 -1.0046  0.1036 -1.4534
  811MPD2    H311998   0.053   2.434   9.980 -1.8125  1.1454  0.3488
  811MPD2     N11999   0.293   2.823   9.992 -0.0630 -0.0941 -0.3196
  811MPD2    H512000   0.354   2.869  10.058 -1.4598 -0.2730  1.0760
  811MPD2    N112001   0.210   2.554  10.390 -0.5890  0.1485 -0.5417
  811MPD2    H712002   0.148   2.480  10.420  0.1542  0.0933  0.8722
  812MPD2     C12003   4.478   2.910  11.562 -0.0641  0.0427  0.7596
  812MPD2    C112004   4.450   2.949  11.693  0.3869  0.6029  0.0065
  812MPD2    C212005   4.520   2.896  11.801  0.7890 -0.2313 -0.7784
  812MPD2    C312006   4.615   2.804  11.779 -0.9453  0.2554 -0.0260
  812MPD2    C412007   4.626   2.752  11.654  0.1782 -0.1795 -0.2379
  812MPD2    C512008   4.564   2.806  11.551  0.7825  0.4438 -0.7530
  812MPD2     H12009   4.499   2.922  11.905 -3.5591  0.3100 -1.7969
  812MPD2    H112010   4.705   2.680  11.635 -0.2145 -1.0757  1.5109
  812MPD2    H212011   4.430   2.948  11.472  0.2156 -0.1534  0.5262
  812MPD2    H312012   4.581   2.762  11.453 -0.5843  0.2171 -0.8927
  812MPD2     N12013   4.683   2.745  11.891 -0.3844  0.3171  0.2079
  812MPD2    H512014   4.665   2.786  11.983 -1.4657 -3.1933  1.5541
  812MPD2    N112015   4.354   3.052  11.710  0.7024  0.9939 -0.3193
  812MPD2    H712016   4.315   3.089  11.625 -4.4036 -0.0936  1.5684
  813MPD2     C12017   4.247   4.446  12.983 -0.2454  0.7245 -0.5529
  813MPD2    C112018   4.133   4.490  13.053  0.3285  0.4496 -0.4417
  813MPD2    C212019   4.049   4.394  13.100 -0.4894  0.3525  0.0202
  813MPD2    C312020   4.079   4.255  13.098  0.8734 -0.5325  0.6787
  813MPD2    C412021   4.198   4.223  13.034 -0.0026  0.6639  0.2957
  813MPD2    C512022   4.283   4.315  12.985  0.2650 -0.0332  0.5642
  813MPD2     H12023   3.952   4.425  13.135 -0.6758 -2.4282  1.9954
  813MPD2    H112024   4.232   4.122  13.012  0.8527  1.2997 -1.2688
  813MPD2    H212025   4.315   4.519  12.941 -1.2003  0.6432 -2.2898
  813MPD2    H312026   4.378   4.277  12.951  1.6211  1.5644  2.5445
  813MPD2     N12027   3.984   4.166  13.144  0.2461 -0.1797 -0.0532
  813MPD2    H512028   3.892   4.202  13.165  0.5766  0.9861 -0.6126
  813MPD2    N112029   4.110   4.626  13.091  0.0072 -0.3862  0.0299
  813MPD2    H712030   4.031   4.650  13.150 -0.2227  1.5669 -1.0647
  814MPD2     C12031   4.572   0.613  12.626  1.0789 -0.4596 -0.1310
  814MPD2    C112032   4.554   0.625  12.489  0.5981  0.2659  0.2277
  814MPD2    C212033   4.507   0.741  12.429  0.8925 -0.0610 -0.2252
  814MPD2    C312034   4.481   0.851  12.505  0.3923  0.1866  0.3277
  814MPD2    C412035   4.496   0.838  12.641 -0.2299  0.4329  0.2134
  814MPD2    C512036   4.553   0.724  12.699 -0.0985 -1.0288  0.1139
  814MPD2     H12037   4.499   0.742  12.321  1.1250  0.4001 -0.2410
  814MPD2    H112038   4.485   0.918  12.713 -0.3602  0.5213  0.0959
  814MPD2    H212039   4.605   0.524  12.679  2.2284 -1.1190 -1.9781
  814MPD2    H312040   4.574   0.718  12.805  2.1214  0.8627 -0.2239
  814MPD2     N12041   4.446   0.978  12.449 -0.0855  0.5481  0.5547
  814MPD2    H512042   4.458   0.997  12.350 -3.5930  0.4889  0.1289
  814MPD2    N112043   4.573   0.512  12.406 -0.3273  0.5423 -0.2888
  814MPD2    H712044   4.553   0.536  12.310 -0.1987 -0.6562 -0.6154
  815MPD2     C12045   4.699   4.724  11.508 -0.2684 -0.3409 -0.3421
  815MPD2    C112046   4.654   4.601  11.465 -0.3830 -0.2444 -0.0060
  815MPD2    C212047   4.559   4.535  11.537 -0.2691  0.0546  0.2130
  815MPD2    C312048   4.510   4.585  11.652  0.1950 -0.0925 -0.2977
  815MPD2    C412049   4.554   4.710  11.696 -0.6907 -0.0421  0.5450
  815MPD2    C512050   4.654   0.041  11.630  0.2162  0.4483  0.1903
  815MPD2     H12051   4.528   4.434  11.512 -1.7281  0.2064  1.3690
  815MPD2    H112052   4.529   0.019  11.792 -1.0827  1.9536 -0.4660
  815MPD2    H212053   0.046   0.047  11.467  0.3274 -0.4256  0.7020
  815MPD2    H312054   4.691   0.134  11.671  0.6852  0.7743 -0.9874
  815MPD2     N12055   4.420   4.502  11.727  0.8144 -0.1505  0.2716
  815MPD2    H512056   4.409   4.410  11.687 -5.5094  1.4676 -1.7193
  815MPD2    N112057   4.711   4.539  11.352  0.2207 -0.0484 -0.1292
  815MPD2    H712058   0.048   4.593  11.304  0.9069 -0.3194  0.5960
  816MPD2     C12059   0.919   3.147  17.414 -0.2007 -0.2757 -0.5036
  816MPD2    C112060   0.815   3.197  17.342 -0.4199  0.0307  0.2086
  816MPD2    C212061   0.835   3.220  17.205 -0.0873 -0.5571  0.0233
  816MPD2    C312062   0.965   3.211  17.147  0.1487 -0.0867 -0.4781
  816MPD2    C412063   1.062   3.167  17.227 -0.0534 -0.1251 -0.5444
  816MPD2    C512064   1.036   3.125  17.352 -0.8496  0.1492 -0.5395
  816MPD2     H12065   0.752   3.241  17.138 -1.4391  0.1108  1.9152
  816MPD2    H112066   1.163   3.149  17.192  0.2937  0.1080  0.3351
  816MPD2    H212067   0.909   3.119  17.518 -0.4726 -1.8982 -0.9537
  816MPD2    H312068   1.113   3.071  17.406 -0.1772  2.1346  0.4820
  816MPD2     N12069   0.976   3.234  17.008  0.1978 -0.3006  0.2358
  816MPD2    H512070   0.889   3.268  16.968 -0.0618  0.2011  1.2380
  816MPD2    N112071   0.691   3.222  17.407 -0.0025  0.2510  0.7133
  816MPD2    H712072   0.685   3.229  17.508  1.7620  1.3389  0.7251
  817MPD2     C12073   3.824   0.652   9.936 -0.4363 -0.3510  0.2622
  817MPD2    C112074   3.889   0.661   9.819 -0.4879 -0.1370 -0.2120
  817MPD2    C212075   3.852   0.774   9.743 -0.3516 -0.3298 -0.9734
  817MPD2    C312076   3.760   0.869   9.777 -0.3318  0.4969 -0.0729
  817MPD2    C412077   3.687   0.849   9.890  0.1918  0.6326  0.7314
  817MPD2    C512078   3.721   0.740   9.961 -0.1843 -0.0160 -0.2252
  817MPD2     H12079   3.911   0.797   9.655  2.8387 -2.6112  0.5548
  817MPD2    H112080   3.606   0.913   9.923  0.1890 -0.6921  3.2724
  817MPD2    H212081   3.831   0.573  10.010 -1.2870 -0.6037  0.0760
  817MPD2    H312082   3.662   0.728  10.051 -1.0280  0.0712 -0.7667
  817MPD2     N12083   3.727   0.978   9.693  0.1125  0.2017  0.6226
  817MPD2    H512084   3.772   0.971   9.602  0.7751  1.6860  0.8394
  817MPD2    N112085   3.983   0.560   9.780  0.1454 -0.2737  0.3409
  817MPD2    H712086   4.034   0.569   9.693 -2.2275 -0.6232 -1.0727
  818MPD2     C12087   3.051   0.623   9.831  0.8070  0.3113 -0.6721
  818MPD2    C112088   3.090   0.558   9.950 -0.4506  0.0117  0.0492
  818MPD2    C212089   3.161   0.443   9.938 -0.6325 -0.1539  0.5984
  818MPD2    C312090   3.196   0.382   9.815  0.1493 -0.4899  0.2277
  818MPD2    C412091   3.154   0.441   9.696 -0.3536  0.4040  0.4389
  818MPD2    C512092   3.093   0.567   9.712  0.3471  0.1472 -0.4779
  818MPD2     H12093   3.188   0.397  10.032 -0.7770 -0.4226  0.5103
  818MPD2    H112094   3.158   0.392   9.600  2.3361  0.6010  0.4545
  818MPD2    H212095   2.994   0.715   9.822 -0.7669 -0.3300  2.7146
  818MPD2    H312096   3.056   0.623   9.627 -1.4048 -0.9582 -0.4483
  818MPD2     N12097   3.274   0.263   9.812  0.2045 -0.5641  0.2189
  818MPD2    H512098   3.273   0.215   9.722 -0.4266  0.0762 -0.1208
  818MPD2    N112099   3.047   0.590  10.080 -0.4221  0.7785 -0.0922
  818MPD2    H712100   3.059   0.521  10.153 -0.6877  0.0111 -0.7637
  819MPD2     C12101   1.823   2.112  15.665  0.3979 -0.4686  0.2015
  819MPD2    C112102   1.774   1.986  15.634 -0.3677 -0.1766  0.2416
  819MPD2    C212103   1.808   1.878  15.714  0.3896  0.0348 -0.2728
  819MPD2    C312104   1.881   1.899  15.830 -0.1841 -0.1952  0.7798
  819MPD2    C412105   1.916   2.029  15.864  0.8057 -0.3703  0.6856
  819MPD2    C512106   1.887   2.129  15.782 -0.2666 -0.1306 -0.8634
  819MPD2     H12107   1.777   1.781  15.677  2.8889 -0.9469  0.1811
  819MPD2    H112108   1.973   2.052  15.954 -0.1267  2.5439  0.5247
  819MPD2    H212109   1.796   2.206  15.619 -2.8185 -0.3419  2.2906
  819MPD2    H312110   1.920   2.227  15.814  0.7841 -0.5469 -0.6642
  819MPD2     N12111   1.920   1.787  15.908  0.2898 -0.1118 -0.0862
  819MPD2    H512112   1.883   1.694  15.892 -2.2291  1.0772 -1.1303
  819MPD2    N112113   1.696   1.974  15.511  0.0220 -0.0324  0.0273
  819MPD2    H712114   1.666   2.052  15.455  0.5139 -0.5247 -0.9272
  820MPD2     C12115   0.897   2.212  14.932  0.3379 -0.5496  0.2961
  820MPD2    C112116   0.906   2.113  15.030  0.3381  1.3447 -0.1146
  820MPD2    C212117   1.034   2.092  15.091 -0.3389 -0.7698  0.2227
  820MPD2    C312118   1.146   2.163  15.060  0.1009 -0.5520  0.1651
  820MPD2    C412119   1.134   2.252  14.957  0.0908  0.3462  0.7303
  820MPD2    C512120   1.009   2.273  14.891  0.3738  0.0880  0.4318
  820MPD2     H12121   1.047   2.016  15.168  1.5502  0.1441  0.8040
  820MPD2    H112122   1.224   2.287  14.907 -0.1995 -0.8130 -0.6083
  820MPD2    H212123   0.801   2.238  14.888  0.4742  0.5434  0.6296
  820MPD2    H312124   1.002   2.320  14.794 -0.7286  0.2190  0.5799
  820MPD2     N12125   1.266   2.136  15.119 -0.3469  0.6807  0.5303
  820MPD2    H512126   1.350   2.168  15.072  0.1865  0.9195  1.6522
  820MPD2    N112127   0.812   2.022  15.071  0.7390  0.4023 -0.2751
  820MPD2    H712128   0.846   1.953  15.138  0.2442 -0.0315 -0.4669
  821MPD2     C12129   1.492   2.749  12.880 -0.5657  0.4925 -0.2523
  821MPD2    C112130   1.591   2.694  12.955 -0.0741  0.3522  0.1470
  821MPD2    C212131   1.719   2.746  12.935  0.0941 -0.0452  0.5429
  821MPD2    C312132   1.749   2.838  12.839  0.2689 -0.5704 -0.1507
  821MPD2    C412133   1.644   2.880  12.761  0.2420  0.4051  0.8659
  821MPD2    C512134   1.523   2.830  12.775  0.1790  0.5653 -0.0914
  821MPD2     H12135   1.803   2.711  12.995 -2.5335  0.4339  4.4921
  821MPD2    H112136   1.661   2.942  12.674  0.3063 -2.4565 -1.1594
  821MPD2    H212137   1.392   2.712  12.897 -0.2219 -0.5542 -0.5222
  821MPD2    H312138   1.436   2.854  12.715 -0.1287 -0.1983  0.0435
  821MPD2     N12139   1.875   2.895  12.815  0.0419 -0.5211  0.8167
  821MPD2    H512140   1.876   2.964  12.740  1.8085 -0.8457  0.5286
  821MPD2    N112141   1.566   2.605  13.064  0.5107  0.5371  0.1533
  821MPD2    H712142   1.648   2.575  13.116 -1.3987 -2.9989  1.1443
  822MPD2     C12143   1.909   3.276  15.879  0.2958  0.0985 -0.1680
  822MPD2    C112144   2.032   3.331  15.909  0.1120  0.5329 -0.6870
  822MPD2    C212145   2.035   3.459  15.969  0.1508  0.1828  0.1604
  822MPD2    C312146   1.923   3.517  16.028 -0.0793  0.6960 -0.0899
  822MPD2    C412147   1.799   3.456  16.007  0.0129 -0.6911  0.3404
  822MPD2    C512148   1.796   3.342  15.928  0.2813 -0.7486 -0.5778
  822MPD2     H12149   2.131   3.510  15.978  0.4488 -0.6988  1.9355
  822MPD2    H112150   1.708   3.504  16.038 -0.6010 -1.8057  0.2553
  822MPD2    H212151   1.899   3.189  15.816  2.0708 -0.0248 -0.2918
  822MPD2    H312152   1.700   3.303  15.896 -0.2768 -0.0595  0.2349
  822MPD2     N12153   1.924   3.635  16.104  0.1738  0.1795  0.2209
  822MPD2    H512154   1.839   3.664  16.153 -0.0374  1.5853 -0.9857
  822MPD2    N112155   2.155   3.263  15.878  0.5380 -0.4909 -0.3259
  822MPD2    H712156   2.236   3.320  15.898  1.1069 -1.4414  0.0700
  823MPD2     C12157   2.016   3.623  16.942 -0.0006  0.1897  0.6856
  823MPD2    C112158   2.037   3.572  16.815  0.8072 -0.1618 -0.7583
  823MPD2    C212159   2.088   3.445  16.804 -0.2091 -0.3359  0.6972
  823MPD2    C312160   2.143   3.378  16.918  0.1375  0.3968 -0.1233
  823MPD2    C412161   2.134   3.434  17.045 -0.4292 -0.1922  0.5008
  823MPD2    C512162   2.069   3.561  17.051  0.1197 -0.1787  0.3935
  823MPD2     H12163   2.095   3.406  16.703  2.8611  0.1187  0.7412
  823MPD2    H112164   2.166   3.387  17.138  3.2065  0.0197 -0.6720
  823MPD2    H212165   1.996   3.726  16.966 -2.7574  0.0879 -1.1803
  823MPD2    H312166   2.071   3.604  17.150 -1.3528 -0.4666  0.5438
  823MPD2     N12167   2.199   3.245  16.914 -0.1882 -0.8348 -0.2623
  823MPD2    H512168   2.245   3.210  16.997 -0.9535 -0.2143  0.4193
  823MPD2    N112169   1.996   3.660  16.709  0.5846 -0.3833  0.5659
  823MPD2    H712170   1.974   3.755  16.737  0.4445 -0.1982 -0.1764
  824MPD2     C12171   2.319   2.667  15.428 -0.6707  0.2969 -0.7169
  824MPD2    C112172   2.398   2.664  15.538 -1.2685  0.0593 -0.2473
  824MPD2    C212173   2.477   2.552  15.565 -0.2350 -0.7250  0.7247
  824MPD2    C312174   2.469   2.442  15.481  0.1385  0.4512 -0.3339
  824MPD2    C412175   2.379   2.441  15.371 -0.2026  0.0926 -0.3990
  824MPD2    C512176   2.307   2.554  15.355 -0.1364  0.3465 -0.2427
  824MPD2     H12177   2.547   2.554  15.647 -0.2310 -1.6098  0.7407
  824MPD2    H112178   2.366   2.357  15.303 -2.7099 -0.3322  0.5789
  824MPD2    H212179   2.254   2.752  15.411 -1.9180 -0.2365  1.3301
  824MPD2    H312180   2.235   2.563  15.274  1.0676 -1.8642 -1.5633
  824MPD2     N12181   2.566   2.339  15.502 -0.8920 -0.6012  0.3521
  824MPD2    H512182   2.628   2.343  15.582 -0.8174  2.4235  0.1579
  824MPD2    N112183   2.402   2.774  15.627  0.0049  0.7329 -0.4608
  824MPD2    H712184   2.345   2.853  15.599  0.0449  0.7668 -0.4468
  825MPD2     C12185   3.237   2.595  15.622 -0.0766  0.0671 -0.3817
  825MPD2    C112186   3.138   2.597  15.533 -0.0509 -0.0450  0.6548
  825MPD2    C212187   3.113   2.715  15.452 -0.2751  0.2814 -0.5608
  825MPD2    C312188   3.193   2.829  15.480  0.2571 -0.2953  0.1547
  825MPD2    C412189   3.295   2.819  15.570 -0.5280 -0.6340  0.1107
  825MPD2    C512190   3.316   2.704  15.639 -0.6730  0.1128  0.0915
  825MPD2     H12191   3.025   2.727  15.391 -2.6241 -1.6127  2.4083
  825MPD2    H112192   3.358   2.904  15.591 -2.4387  0.3953  1.6699
  825MPD2    H212193   3.254   2.508  15.685  0.6438  0.7417  0.3501
  825MPD2    H312194   3.399   2.687  15.708  0.6542  3.5089 -0.6353
  825MPD2     N12195   3.161   2.958  15.431  0.0779 -0.6541 -0.4933
  825MPD2    H512196   3.220   3.032  15.467 -1.3066  0.2912 -0.1418
  825MPD2    N112197   3.062   2.474  15.529 -0.2703 -0.0158  0.4713
  825MPD2    H712198   3.086   2.405  15.600 -1.4536 -1.4302 -0.5159
  826MPD2     C12199   3.057   2.121  13.591  0.1459  0.7150 -0.0039
  826MPD2    C112200   2.980   2.010  13.621 -0.0389 -0.2027 -0.3440
  826MPD2    C212201   2.845   2.026  13.640 -0.2429  0.2479 -0.2082
  826MPD2    C312202   2.786   2.152  13.626 -0.2532 -0.0332  0.7976
  826MPD2    C412203   2.865   2.259  13.597 -0.2204  0.3136  0.4075
  826MPD2    C512204   3.003   2.248  13.588 -0.1010  0.0422 -0.2774
  826MPD2     H12205   2.779   1.943  13.662  1.2585 -0.5643  1.1751
  826MPD2    H112206   2.817   2.355  13.581 -0.1093  0.6494  2.1270
  826MPD2    H212207   3.161   2.108  13.562  0.2504  0.9928  0.2492
  826MPD2    H312208   3.059   2.329  13.542 -0.0314 -0.9463 -1.9314
  826MPD2     N12209   2.648   2.169  13.629 -0.2589  0.4166 -0.3206
  826MPD2    H512210   2.612   2.260  13.603 -3.2145 -0.8541 -0.6376
  826MPD2    N112211   3.047   1.887  13.607 -0.1788  0.3974 -0.7867
  826MPD2    H712212   3.143   1.900  13.579 -0.3424  0.9165 -1.1146
  827MPD2     C12213   3.625   3.885   9.784  0.1265 -0.1607 -0.2698
  827MPD2    C112214   3.694   3.794   9.865  0.3406 -0.1043  0.2318
  827MPD2    C212215   3.717   3.665   9.810  0.1050  0.0098  0.0845
  827MPD2    C312216   3.675   3.626   9.684 -0.8129  0.9233  1.1204
  827MPD2    C412217   3.617   3.724   9.601  0.7235  0.5617 -0.2814
  827MPD2    C512218   3.586   3.841   9.657 -0.2219  0.5287 -0.5774
  827MPD2     H12219   3.769   3.590   9.869  0.3429  0.3423  0.2949
  827MPD2    H112220   3.585   3.694   9.502  1.2934 -1.5595  0.1675
  827MPD2    H212221   3.608   3.989   9.806  1.7942 -0.2456  1.4773
  827MPD2    H312222   3.542   3.915   9.591  3.1078  1.4433 -1.7449
  827MPD2     N12223   3.691   3.493   9.646 -0.5436 -0.2281 -0.4882
  827MPD2    H512224   3.749   3.432   9.704 -0.0478 -0.0369 -0.7847
  827MPD2    N112225   3.737   3.834   9.996 -0.5277 -0.5774  0.2121
  827MPD2    H712226   3.701   3.924  10.027 -0.2710 -0.6590  0.7512
  828MPD2     C12227   1.883   3.393  11.756 -0.2157  0.2108 -0.6569
  828MPD2    C112228   1.828   3.517  11.791 -0.2562  0.0124  0.7316
  828MPD2    C212229   1.736   3.577  11.705  0.2271  0.6136  0.3045
  828MPD2    C312230   1.704   3.520  11.589 -0.4197  0.7941 -0.3938
  828MPD2    C412231   1.755   3.402  11.546  0.1475  0.2404  0.3791
  828MPD2    C512232   1.841   3.335  11.640 -0.4341 -0.3691 -0.1504
  828MPD2     H12233   1.704   3.676  11.735  0.2343  0.6443  0.2109
  828MPD2    H112234   1.735   3.359  11.449 -0.4015  1.0524  0.1254
  828MPD2    H212235   1.967   3.350  11.809 -0.9570 -0.5174 -0.0768
  828MPD2    H312236   1.875   3.232  11.636  3.3819  0.8283  1.5082
  828MPD2     N12237   1.623   3.582  11.491 -0.7749 -0.4015  0.7253
  828MPD2    H512238   1.595   3.540  11.403 -0.4197  1.1159 -0.0985
  828MPD2    N112239   1.849   3.582  11.916  0.1484  0.3387  0.5422
  828MPD2    H712240   1.806   3.674  11.927 -0.9058 -0.2161  1.0637
  829MPD2     C12241   1.172   4.000  11.828 -0.3557  0.4973  0.0970
  829MPD2    C112242   1.162   3.988  11.966 -0.0194  0.2629  0.6682
  829MPD2    C212243   1.270   3.953  12.045 -0.6314  0.1453  0.0339
  829MPD2    C312244   1.390   3.923  11.983 -0.2878 -0.4115  0.9064
  829MPD2    C412245   1.400   3.917  11.844 -0.3713 -0.0361 -0.7727
  829MPD2    C512246   1.289   3.955  11.772  0.4374 -0.3310  0.5852
  829MPD2     H12247   1.263   3.958  12.153  0.6566  0.7611  0.0944
  829MPD2    H112248   1.491   3.898  11.789  0.6598  2.3214  0.1373
  829MPD2    H212249   1.092   4.025  11.760  1.5461 -0.7326 -2.5891
  829MPD2    H312250   1.305   3.960  11.665  2.7956  2.2854  1.0764
  829MPD2     N12251   1.494   3.885  12.073 -0.1900 -0.0372  0.2672
  829MPD2    H512252   1.468   3.865  12.169  1.9119  0.7789  1.0180
  829MPD2    N112253   1.035   4.030  12.009 -0.2405  0.1940  0.0981
  829MPD2    H712254   0.969   4.063  11.940  1.2708  0.0643 -1.3982
  830MPD2     C12255   1.938   1.263  15.719  0.6232  0.0665 -0.3317
  830MPD2    C112256   1.993   1.345  15.820 -0.3724  0.0166 -0.2684
  830MPD2    C212257   2.049   1.470  15.789  0.1888  0.3692  0.0611
  830MPD2    C312258   2.053   1.518  15.657  0.3886 -1.1355  0.1739
  830MPD2    C412259   1.990   1.439  15.562  0.2530 -0.4665  0.9673
  830MPD2    C512260   1.937   1.319  15.594 -0.6267  0.1003 -0.3327
  830MPD2     H12261   2.102   1.531  15.861  0.5401  0.7568 -0.5274
  830MPD2    H112262   1.984   1.467  15.458 -0.7147 -1.2757  0.8073
  830MPD2    H212263   1.906   1.162  15.740 -1.3020  1.1649  2.0642
  830MPD2    H312264   1.893   1.264  15.512  2.9840 -0.6161 -1.7937
  830MPD2     N12265   2.103   1.643  15.625  0.1493 -0.4629  0.3559
  830MPD2    H512266   2.063   1.680  15.539 -0.0136  0.5030  0.8499
  830MPD2    N112267   1.984   1.286  15.951  0.3313 -0.1989 -0.4483
  830MPD2    H712268   1.972   1.186  15.941 -0.7555 -0.2376  1.1849
  831MPD2     C12269   2.461   3.568  16.339 -0.2024  0.3853 -0.1818
  831MPD2    C112270   2.421   3.502  16.228 -0.9379 -0.5902 -0.6946
  831MPD2    C212271   2.303   3.427  16.226  0.1500 -0.5957 -0.1012
  831MPD2    C312272   2.221   3.428  16.337  0.3472  0.3421  0.4536
  831MPD2    C412273   2.272   3.486  16.449  1.0195  0.6029  0.0255
  831MPD2    C512274   2.385   3.561  16.450  0.2690 -0.6671  0.1193
  831MPD2     H12275   2.267   3.369  16.141 -1.4838  0.9370 -0.4609
  831MPD2    H112276   2.219   3.483  16.544  0.7622 -0.6308 -0.1617
  831MPD2    H212277   2.550   3.630  16.335  1.0258 -1.2953  1.1312
  831MPD2    H312278   2.428   3.606  16.539 -0.9673  1.5870 -0.4328
  831MPD2     N12279   2.100   3.355  16.349 -0.4469 -0.7377 -0.1972
  831MPD2    H512280   2.034   3.394  16.415 -0.5433  0.7020 -1.1436
  831MPD2    N112281   2.509   3.500  16.120  0.4267 -0.0817  0.1364
  831MPD2    H712282   2.607   3.522  16.137  1.0296 -1.1605 -1.9112
  832MPD2     C12283   1.134   4.195  17.431  0.3260 -0.4635 -0.2340
  832MPD2    C112284   1.082   4.312  17.371  0.6038 -0.8836  0.0358
  832MPD2    C212285   0.950   4.311  17.326 -0.7341  0.5151 -0.3647
  832MPD2    C312286   0.869   4.198  17.353  0.0141  0.0749  0.3108
  832MPD2    C412287   0.926   4.098  17.425  0.2005 -0.1338  0.7871
  832MPD2    C512288   1.053   4.092  17.455  0.7641  0.3621  0.6662
  832MPD2     H12289   0.923   4.396  17.265  0.0245  0.6229 -0.5512
  832MPD2    H112290   0.878   4.004  17.450 -0.6006 -0.5788 -2.3645
  832MPD2    H212291   1.240   4.200  17.454  0.5250 -1.0987 -1.0146
  832MPD2    H312292   1.098   4.009  17.509  0.3467 -0.9799 -1.0349
  832MPD2     N12293   0.734   4.182  17.312  0.3862 -0.0946  0.2409
  832MPD2    H512294   0.689   4.093  17.331  0.9790 -0.2659  0.8747
  832MPD2    N112295   1.174   4.420  17.368  0.3596 -0.8625 -0.2102
  832MPD2    H712296   1.248   4.388  17.429  1.2069 -0.4461 -1.0201
  833MPD2     C12297   2.916   1.269  12.935  0.1080 -0.5780  0.6389
  833MPD2    C112298   2.848   1.192  12.841  0.0451  0.5803 -1.3926
  833MPD2    C212299   2.924   1.132  12.738  0.5792 -0.2166  0.3251
  833MPD2    C312300   3.060   1.145  12.732  0.0063 -0.1437  0.3892
  833MPD2    C412301   3.127   1.220  12.829  0.3402  0.6055 -0.1636
  833MPD2    C512302   3.058   1.272  12.941  0.9711  0.0662 -0.3407
  833MPD2     H12303   2.872   1.079  12.658  0.9620 -0.4789  0.2507
  833MPD2    H112304   3.235   1.225  12.836  0.4658 -0.0739 -1.5180
  833MPD2    H212305   2.863   1.336  13.002 -0.9316 -0.9823  0.2175
  833MPD2    H312306   3.106   1.344  13.006  2.7321 -1.8339  0.4721
  833MPD2     N12307   3.125   1.105  12.614 -0.1377  0.4452  0.3553
  833MPD2    H512308   3.216   1.144  12.592  0.0197 -0.5264 -0.7367
  833MPD2    N112309   2.709   1.201  12.822  0.5063 -0.1934  0.3071
  833MPD2    H712310   2.672   1.287  12.860 -2.0056  0.2698 -3.1387
  834MPD2     C12311   3.006   0.291  11.916  0.0002 -0.9374  0.0468
  834MPD2    C112312   2.993   0.402  11.836 -0.2124  0.0587 -0.4738
  834MPD2    C212313   3.017   0.531  11.893 -0.0823 -0.1517 -0.5905
  834MPD2    C312314   3.068   0.555  12.018  0.4847 -0.4367  0.7624
  834MPD2    C412315   3.074   0.443  12.096  0.2506  0.0865 -0.3762
  834MPD2    C512316   3.041   0.319  12.047 -0.1078  0.7138 -0.3472
  834MPD2     H12317   2.998   0.620  11.834 -2.3123 -1.6511 -2.1582
  834MPD2    H112318   3.101   0.446  12.201 -1.5272  0.1735  0.0709
  834MPD2    H212319   2.985   0.187  11.894 -0.4937 -0.8226 -0.0178
  834MPD2    H312320   3.049   0.244  12.126  0.6556  2.4094  1.1806
  834MPD2     N12321   3.104   0.685  12.061 -1.0216 -0.9718 -0.8976
  834MPD2    H512322   3.086   0.756  11.990  0.3703 -0.7828 -1.0587
  834MPD2    N112323   2.946   0.385  11.704  0.2746 -0.4772  0.0455
  834MPD2    H712324   2.897   0.299  11.678  0.9857 -0.8462 -0.0622
  835MPD2     C12325   2.783   4.040  10.989  0.0921 -0.0033  0.4919
  835MPD2    C112326   2.660   4.000  11.014 -0.0151 -0.0788  0.6370
  835MPD2    C212327   2.647   3.886  11.091  0.5337  0.1204  0.0277
  835MPD2    C312328   2.761   3.819  11.145 -0.5782 -0.4739  0.4660
  835MPD2    C412329   2.886   3.860  11.116 -0.1237 -0.2169 -0.0819
  835MPD2    C512330   2.894   3.959  11.024  0.3732 -0.2493  0.4640
  835MPD2     H12331   2.546   3.850  11.105  0.5761 -0.5811 -1.3871
  835MPD2    H112332   2.976   3.831  11.169  0.8399 -0.8104 -2.0120
  835MPD2    H212333   2.805   4.124  10.925 -1.0503  0.0205  0.1334
  835MPD2    H312334   2.993   3.996  10.998 -0.0652  0.1027 -0.6828
  835MPD2     N12335   2.748   3.724  11.251 -0.2644 -0.0883  0.2687
  835MPD2    H512336   2.837   3.705  11.297  0.7051  0.7590 -1.2326
  835MPD2    N112337   2.540   4.068  10.979 -0.1013 -0.0026 -0.3368
  835MPD2    H712338   2.456   4.024  11.017  0.6427 -0.6092  0.6086
  836MPD2     C12339   2.575   4.082  11.756  0.4490  0.2620 -0.1879
  836MPD2    C112340   2.589   3.959  11.818 -0.0013  0.2250 -0.5853
  836MPD2    C212341   2.613   3.950  11.957  0.1629 -0.6585  0.4875
  836MPD2    C312342   2.625   4.069  12.031 -0.5394  0.5364 -0.7543
  836MPD2    C412343   2.608   4.192  11.970  0.8200  0.1748 -0.5199
  836MPD2    C512344   2.596   4.195  11.837 -0.4434 -0.3596  0.4600
  836MPD2     H12345   2.610   3.849  11.997 -0.9688 -1.4676 -1.6643
  836MPD2    H112346   2.616   4.287  12.021 -0.4102 -0.3167  0.5878
  836MPD2    H212347   2.561   4.099  11.650 -0.6268  2.5170  0.3080
  836MPD2    H312348   2.597   4.294  11.792 -0.3350 -1.1566 -1.3008
  836MPD2     N12349   2.640   4.065  12.173  0.1450  0.1493  0.6187
  836MPD2    H512350   2.620   4.152  12.223  1.2340  0.9930 -0.4178
  836MPD2    N112351   2.584   3.842  11.734  0.2278 -0.2903  0.3271
  836MPD2    H712352   2.571   3.857  11.635  0.7794  0.3532  0.3519
  837MPD2     C12353   0.835   3.356  10.125  0.5116 -0.6200 -0.5103
  837MPD2    C112354   0.769   3.394  10.005 -0.3978 -0.0349 -0.0191
  837MPD2    C212355   0.784   3.529   9.959  0.0118  0.0944  0.2946
  837MPD2    C312356   0.841   3.625  10.039 -0.3817 -0.2001 -0.2904
  837MPD2    C412357   0.899   3.587  10.156 -0.3459  0.6945  0.5847
  837MPD2    C512358   0.900   3.453  10.195 -0.2590  0.0028  0.2391
  837MPD2     H12359   0.734   3.539   9.863  0.2363  0.9455  0.2642
  837MPD2    H112360   0.965   3.658  10.205 -1.1046  0.2975  2.1925
  837MPD2    H212361   0.835   3.255  10.165  1.2946 -0.1552  0.6821
  837MPD2    H312362   0.952   3.420  10.284 -1.1702 -2.6243 -0.2042
  837MPD2     N12363   0.815   3.764   9.994 -0.0751 -0.6077  0.2492
  837MPD2    H512364   0.768   3.783   9.906  0.2529  0.2812  0.2624
  837MPD2    N112365   0.693   3.303   9.931 -0.2227  0.2917 -0.1911
  837MPD2    H712366   0.663   3.337   9.840  0.2306  0.8658 -0.1270
  838MPD2     C12367   3.719   1.438  11.288  0.2111 -0.4624 -0.2804
  838MPD2    C112368   3.783   1.397  11.398  0.7770 -0.4900 -0.7282
  838MPD2    C212369   3.715   1.311  11.483 -0.2030 -0.7039  0.1441
  838MPD2    C312370   3.577   1.292  11.471 -0.6901 -0.3925 -0.3590
  838MPD2    C412371   3.511   1.332  11.353  0.0966  0.1683  0.4551
  838MPD2    C512372   3.582   1.423  11.274  0.5291  0.0874  0.5394
  838MPD2     H12373   3.767   1.279  11.572 -1.8616 -1.0210  1.0078
  838MPD2    H112374   3.406   1.306  11.343  0.1242 -0.8272  2.7048
  838MPD2    H212375   3.761   1.512  11.220  1.8601 -1.6641 -0.5574
  838MPD2    H312376   3.533   1.478  11.194 -0.1412 -1.2091  0.0527
  838MPD2     N12377   3.502   1.220  11.573  0.2664  0.0494 -0.6566
  838MPD2    H512378   3.550   1.181  11.653 -0.0631  0.5424 -0.2259
  838MPD2    N112379   3.917   1.449  11.424  0.3731 -0.4989  0.1134
  838MPD2    H712380   3.954   1.520  11.362 -0.7690  1.2055  1.4016
  839MPD2     C12381   4.588   1.136  12.087 -0.0576 -0.1117 -0.2222
  839MPD2    C112382   4.517   1.094  11.973 -0.1994 -0.2110 -0.2658
  839MPD2    C212383   4.496   1.183  11.868  0.2866 -0.1985 -0.5500
  839MPD2    C312384   4.521   1.319  11.888 -0.4731  0.7320  0.0833
  839MPD2    C412385   4.586   1.358  12.006  0.3590  0.3165 -0.3589
  839MPD2    C512386   4.623   1.270  12.102  0.4599 -0.3949 -0.0244
  839MPD2     H12387   4.449   1.139  11.781  0.1691  1.5750 -1.3865
  839MPD2    H112388   4.621   1.459  12.025  0.3758  0.4647 -1.1628
  839MPD2    H212389   4.601   1.080  12.179 -1.9207 -0.0694  0.0717
  839MPD2    H312390   4.673   1.300  12.193 -1.5035  2.2167  0.2249
  839MPD2     N12391   4.493   1.418  11.798  0.0534 -0.4622  0.1112
  839MPD2    H512392   4.493   1.512  11.837  2.0454 -0.7214  0.7625
  839MPD2    N112393   4.464   0.968  11.944 -0.0259  0.1693 -0.3997
  839MPD2    H712394   4.422   0.962  11.852  0.2151  0.8243 -0.5488
  840MPD2     C12395   3.935   4.386  10.061  0.2310 -0.1981  0.8101
  840MPD2    C112396   4.016   4.329  10.155 -0.2885 -0.5657 -0.6519
  840MPD2    C212397   4.131   4.391  10.190  0.8559 -0.4599  1.1057
  840MPD2    C312398   4.170   4.510  10.130  0.5631 -0.9406 -1.0578
  840MPD2    C412399   4.094   4.562  10.029  0.1406 -0.0779 -0.1990
  840MPD2    C512400   3.978   4.496   9.988 -0.1032  0.1343 -0.6376
  840MPD2     H12401   4.201   4.349  10.261  1.6969 -3.0173 -1.2448
  840MPD2    H112402   4.129   4.644   9.968  1.7628 -1.2629 -0.8656
  840MPD2    H212403   3.840   4.340  10.036  0.0101  0.6537  0.0873
  840MPD2    H312404   3.911   4.537   9.914  0.0393  1.5122 -0.0047
  840MPD2     N12405   4.276   4.590  10.164 -0.2592 -0.4057 -0.0542
  840MPD2    H512406   4.293   4.675  10.111  0.2673 -0.6798 -0.3290
  840MPD2    N112407   3.966   4.210  10.205  0.3178  0.2291 -0.0588
  840MPD2    H712408   3.874   4.178  10.176  1.1589 -1.3610 -0.9259
  841MPD2     C12409   4.303   3.754  14.624  0.2649  0.8355 -0.7231
  841MPD2    C112410   4.261   3.706  14.745  0.1033 -0.0270 -0.2787
  841MPD2    C212411   4.264   3.782  14.862  0.9107 -0.3442 -0.7290
  841MPD2    C312412   4.302   3.912  14.858  0.0323  0.3072  0.2985
  841MPD2    C412413   4.340   3.960  14.734 -0.7499  0.1027  0.3122
  841MPD2    C512414   4.336   3.890  14.622  0.4016 -0.9372 -0.5866
  841MPD2     H12415   4.225   3.736  14.952 -0.0890  2.6550  0.3651
  841MPD2    H112416   4.371   4.063  14.716 -1.2135  0.6737  2.7964
  841MPD2    H212417   4.311   3.694  14.535  1.3708  1.3984 -1.0164
  841MPD2    H312418   4.372   3.937  14.531 -3.1769 -0.9043 -1.9699
  841MPD2     N12419   4.301   3.990  14.976 -0.2257 -0.3351  0.1755
  841MPD2    H512420   4.259   3.942  15.054  0.3289  0.8563  1.2076
  841MPD2    N112421   4.209   3.573  14.752 -0.1938  0.0097 -0.2309
  841MPD2    H712422   4.186   3.537  14.845  0.8142 -0.3289 -0.1115
  842MPD2     C12423   4.545   0.037  16.517  0.3106 -0.0117  0.1339
  842MPD2    C112424   4.424   4.727  16.563 -1.1934 -0.9327 -0.2168
  842MPD2    C212425   4.379   0.040  16.683  0.6367  0.8757 -0.0264
  842MPD2    C312426   4.463   0.109  16.772 -0.3926  0.2802 -0.4578
  842MPD2    C412427   4.586   0.150  16.721 -0.6346  0.3855 -0.0525
  842MPD2    C512428   4.622   0.116  16.595 -0.4342  0.1048  0.0345
  842MPD2     H12429   4.280   0.016  16.719  0.0334  0.9197 -1.7044
  842MPD2    H112430   4.664   0.204  16.773  0.5542 -0.3956 -1.0380
  842MPD2    H212431   4.586   0.012  16.420 -0.5711 -1.4155  0.1268
  842MPD2    H312432   4.718   0.153  16.561 -0.6420 -0.3819 -1.0718
  842MPD2     N12433   4.427   0.166  16.894  0.8579 -0.0643  0.2788
  842MPD2    H512434   4.497   0.217  16.948  1.0724 -1.8070  1.6411
  842MPD2    N112435   4.350   4.649  16.477  0.3914 -0.0083  0.1102
  842MPD2    H712436   4.387   4.630  16.384 -0.1922  1.5753 -0.4597
  843MPD2     C12437   2.254   0.325   0.163 -0.1995 -0.3268 -0.5310
  843MPD2    C112438   2.389   0.334   0.193  0.2790  0.1837 -0.3633
  843MPD2    C212439   2.458   0.449   0.152  0.3945  0.0499 -0.3925
  843MPD2    C312440   2.388   0.559   0.117  0.9990  0.0567  0.3253
  843MPD2    C412441   2.252   0.556   0.092 -0.1551  0.4154  0.3638
  843MPD2    C512442   2.190   0.434   0.107 -0.1172  0.1098 -0.1477
  843MPD2     H12443   2.566   0.451   0.149  0.3386 -1.2556 -2.9306
  843MPD2    H112444   2.200   0.642   0.053 -0.2265  0.0624 -0.3325
  843MPD2    H212445   2.203   0.233   0.186 -0.5687  0.0009 -0.0459
  843MPD2    H312446   2.085   0.432   0.079  0.2569 -0.5430 -1.5115
  843MPD2     N12447   2.446   0.691   0.092 -0.4159  0.2479  0.1602
  843MPD2    H512448   2.387   0.771   0.071 -1.0901 -0.4623 -0.6481
  843MPD2    N112449   2.446   0.217   0.257  0.5893 -0.1067  0.0791
  843MPD2    H712450   2.380   0.143   0.280  0.2059  0.3646  0.4977
  844MPD2     C12451   0.696   3.598  16.641 -0.6779 -0.0332  0.1612
  844MPD2    C112452   0.619   3.710  16.668 -0.0956 -0.0245 -0.0169
  844MPD2    C212453   0.678   3.818  16.730  0.0726 -0.1925  0.1783
  844MPD2    C312454   0.814   3.806  16.776  0.0790  0.0399 -0.6470
  844MPD2    C412455   0.886   3.695  16.752 -0.0801  0.5637 -0.2208
  844MPD2    C512456   0.832   3.588  16.679 -0.0174  0.0330  0.0698
  844MPD2     H12457   0.621   3.910  16.737 -0.4626 -0.4994 -0.0837
  844MPD2    H112458   0.976   3.671  16.808 -0.7348  1.1062  1.0423
  844MPD2    H212459   0.662   3.513  16.584  2.5285 -0.1342 -1.6160
  844MPD2    H312460   0.885   3.497  16.657 -0.2297 -0.3459  1.1172
  844MPD2     N12461   0.880   3.905  16.848 -0.2685  0.3579  0.1879
  844MPD2    H512462   0.980   3.899  16.858 -0.1481  1.7585 -0.1455
  844MPD2    N112463   0.485   3.723  16.630  0.6137  0.0055 -0.5671
  844MPD2    H712464   0.445   3.816  16.619 -0.3398 -0.2019  1.1061
  845MPD2     C12465   0.701   0.239  16.962  0.1628  0.0030 -0.0879
  845MPD2    C112466   0.820   0.213  17.033  0.5004 -0.0423  0.0174
  845MPD2    C212467   0.870   0.087  17.048 -0.4264  0.2749 -0.2541
  845MPD2    C312468   0.814   4.722  16.970  0.3548 -0.4249  0.5767
  845MPD2    C412469   0.701   0.013  16.895  0.0188 -0.7665  0.1038
  845MPD2    C512470   0.639   0.135  16.901 -0.3071 -0.1732 -0.5883
  845MPD2     H12471   0.934   0.064  17.132  0.0970 -1.7952 -1.2196
  845MPD2    H112472   0.645   4.663  16.856  0.8433 -1.0786 -0.3947
  845MPD2    H212473   0.658   0.338  16.955  0.3729  0.2503  2.0680
  845MPD2    H312474   0.539   0.156  16.864  0.5926 -0.2612 -3.0632
  845MPD2     N12475   0.859   4.585  17.001 -0.5840 -0.3736 -0.2797
  845MPD2    H512476   0.936   4.570  17.066 -3.1747  1.0293  3.0898
  845MPD2    N112477   0.870   0.325  17.103  0.2307  0.4364 -0.0419
  845MPD2    H712478   0.819   0.411  17.088  0.7493  0.6132 -0.7336
  846MPD2     C12479   2.279   0.953  13.808 -0.2915  0.1749 -0.7394
  846MPD2    C112480   2.149   0.969  13.777 -0.3777  0.2489  0.8407
  846MPD2    C212481   2.069   0.889  13.847 -0.3850 -0.4190  0.1455
  846MPD2    C312482   2.112   0.790  13.934 -1.0993 -0.7093 -0.8345
  846MPD2    C412483   2.247   0.768  13.948  1.0256 -0.8045 -0.3658
  846MPD2    C512484   2.334   0.854  13.887  0.9348  0.1397  0.7731
  846MPD2     H12485   1.962   0.906  13.854  0.0363  0.9810  3.5066
  846MPD2    H112486   2.297   0.703  14.018 -1.4956 -1.7674  0.5346
  846MPD2    H212487   2.349   1.032  13.782 -0.5670  0.9135  0.7244
  846MPD2    H312488   2.440   0.842  13.906  1.2072  0.4467 -0.6055
  846MPD2     N12489   2.016   0.716  14.005  0.6054 -0.1872  0.4930
  846MPD2    H512490   1.918   0.728  13.985  0.2378 -0.4094  2.1316
  846MPD2    N112491   2.112   1.081  13.698 -0.1103  0.9397  0.0724
  846MPD2    H712492   2.189   1.145  13.684  1.8567 -1.1684  1.2278
  847MPD2     C12493   1.459   2.003  14.674  0.3786  0.7422  0.3864
  847MPD2    C112494   1.556   2.104  14.662 -0.8710  0.1328 -0.0038
  847MPD2    C212495   1.684   2.067  14.656  0.1488 -0.5260 -0.1788
  847MPD2    C312496   1.729   1.938  14.677  0.1232  0.3423 -0.1917
  847MPD2    C412497   1.639   1.836  14.688  0.1349  0.2197 -0.4196
  847MPD2    C512498   1.506   1.871  14.678  0.7290 -0.2559 -0.2330
  847MPD2     H12499   1.760   2.143  14.646  0.1849 -0.6318 -0.7302
  847MPD2    H112500   1.653   1.729  14.684 -1.4669 -0.0236  0.6643
  847MPD2    H212501   1.353   2.025  14.668  0.3496  0.5234  0.1312
  847MPD2    H312502   1.434   1.790  14.679  0.1581  0.2324 -1.2825
  847MPD2     N12503   1.877   1.917  14.688  0.3028 -0.0315  0.0652
  847MPD2    H512504   1.932   1.994  14.651 -0.9384  0.3970 -0.8753
  847MPD2    N112505   1.526   2.246  14.665 -0.6884  0.0582  0.1317
  847MPD2    H712506   1.608   2.305  14.669  0.6790 -1.7500 -1.0556
  848MPD2     C12507   0.132   4.718  17.118  0.2550 -0.0124 -0.2696
  848MPD2    C112508   0.224   4.649  17.048 -0.7577 -0.8424 -0.0241
  848MPD2    C212509   0.285   4.713  16.939  0.2575 -0.0254 -0.7910
  848MPD2    C312510   0.249   0.108  16.903 -0.3263 -0.6151 -0.2368
  848MPD2    C412511   0.164   0.184  16.986 -0.0763  0.3686  0.0514
  848MPD2    C512512   0.106   0.118  17.089 -0.1662 -0.6788  0.3116
  848MPD2     H12513   0.362   4.660  16.883  2.1630  0.5678  1.2457
  848MPD2    H112514   0.140   0.287  16.962 -2.0986  0.1839  1.2306
  848MPD2    H212515   0.083   4.668  17.200  0.5379 -0.3338 -0.2988
  848MPD2    H312516   0.027   0.166  17.146 -2.0033 -2.0793 -1.0535
  848MPD2     N12517   0.282   0.156  16.777  0.2051 -0.1228 -0.8310
  848MPD2    H512518   0.272   0.255  16.756 -0.2447 -0.4417 -2.1659
  848MPD2    N112519   0.274   4.519  17.085  0.1965 -0.0038 -0.2926
  848MPD2    H712520   0.356   4.482  17.037 -2.3955 -2.0823 -3.0570
  849MPD2     C12521   3.620   4.159  14.352  0.3988  0.3925  0.5761
  849MPD2    C112522   3.676   4.161  14.222  0.0194  0.6909 -0.2745
  849MPD2    C212523   3.779   4.074  14.186  0.2545 -0.0632 -0.0332
  849MPD2    C312524   3.844   3.996  14.281 -0.3883 -0.4242 -0.1057
  849MPD2    C412525   3.802   4.009  14.410 -0.1368  0.4947  0.0258
  849MPD2    C512526   3.695   4.089  14.444  0.2726 -0.2714  0.6746
  849MPD2     H12527   3.816   4.074  14.084  0.2633 -1.5147 -0.0315
  849MPD2    H112528   3.844   3.969  14.501 -3.4952  1.1360  1.8586
  849MPD2    H212529   3.536   4.217  14.388 -1.5138 -2.5271  0.8013
  849MPD2    H312530   3.666   4.094  14.548 -2.2292  1.4708 -0.0993
  849MPD2     N12531   3.954   3.919  14.235  0.4719  0.5901  0.5428
  849MPD2    H512532   3.972   3.929  14.136 -1.0155  2.2651  0.4414
  849MPD2    N112533   3.613   4.232  14.114 -0.4171  0.3812 -0.2059
  849MPD2    H712534   3.660   4.220  14.025  1.2884 -2.1790  1.0327
  850MPD2     C12535   1.852   3.349  15.024 -0.4879  0.2065  0.4979
  850MPD2    C112536   1.888   3.222  15.056  0.6593 -1.1356  0.5934
  850MPD2    C212537   2.010   3.177  15.000  1.2214 -0.0514 -0.8763
  850MPD2    C312538   2.078   3.253  14.905 -0.3904 -0.5634  0.2311
  850MPD2    C412539   2.046   3.385  14.888  0.6070 -0.0194  0.9034
  850MPD2    C512540   1.935   3.434  14.945  0.2876 -0.3453 -0.4612
  850MPD2     H12541   2.046   3.079  15.030 -0.3535 -0.2952  0.2348
  850MPD2    H112542   2.109   3.446  14.825  0.0719 -0.2200  0.1717
  850MPD2    H212543   1.772   3.405  15.070  0.2022  2.4705 -1.0657
  850MPD2    H312544   1.896   3.533  14.926  0.9411 -0.0005  0.0111
  850MPD2     N12545   2.200   3.211  14.845 -0.2942 -0.0319  0.6064
  850MPD2    H512546   2.255   3.279  14.794  1.1020 -0.7488  1.1418
  850MPD2    N112547   1.814   3.152  15.157 -0.2078 -0.4171  0.3003
  850MPD2    H712548   1.753   3.210  15.214 -1.2029 -0.4665 -0.7285
  851MPD2     C12549   2.091   2.655  15.901 -0.3478 -0.1043 -0.1673
  851MPD2    C112550   2.078   2.634  15.761  0.0177  0.3802  0.1119
  851MPD2    C212551   2.113   2.513  15.697 -0.6233 -0.2789  0.5566
  851MPD2    C312552   2.155   2.408  15.781 -0.7085 -0.2256  0.3063
  851MPD2    C412553   2.183   2.434  15.912  0.3944  0.1975 -0.8163
  851MPD2    C512554   2.152   2.554  15.969  0.2414  0.2648  0.1729
  851MPD2     H12555   2.115   2.510  15.589  2.1902  2.5434  0.5146
  851MPD2    H112556   2.236   2.362  15.973  0.7203 -1.2702 -2.8434
  851MPD2    H212557   2.079   2.754  15.944 -0.1165  0.0847 -0.5414
  851MPD2    H312558   2.178   2.572  16.072  1.2579 -1.5124  0.2317
  851MPD2     N12559   2.181   2.286  15.720  0.1299 -0.6532 -0.9428
  851MPD2    H512560   2.156   2.290  15.622  2.5754  0.8253 -1.4963
  851MPD2    N112561   2.029   2.748  15.699 -0.2010 -0.5470 -0.9511
  851MPD2    H712562   1.999   2.824  15.759  1.2506  0.2603 -1.2538
  852MPD2     C12563   2.518   0.798  10.704  0.6374 -0.2170 -1.0652
  852MPD2    C112564   2.534   0.889  10.797  0.0764 -0.5154 -0.0768
  852MPD2    C212565   2.516   1.022  10.771 -0.5957 -0.4933  0.7051
  852MPD2    C312566   2.492   1.069  10.642  0.5245 -0.5437  0.2942
  852MPD2    C412567   2.490   0.973  10.542 -0.1680  0.0319  0.1970
  852MPD2    C512568   2.500   0.841  10.573  0.0136 -0.6752  0.8911
  852MPD2     H12569   2.522   1.090  10.856  1.0452  0.1884  0.0348
  852MPD2    H112570   2.468   1.002  10.440  2.0543  2.7670  0.4624
  852MPD2    H212571   2.523   0.691  10.715 -0.1876  0.1270  2.8260
  852MPD2    H312572   2.497   0.772  10.489 -0.9281  1.4291 -0.8007
  852MPD2     N12573   2.487   1.206  10.627  0.7833  0.2600  0.0295
  852MPD2    H512574   2.478   1.269  10.706 -1.0372 -1.0608  0.8787
  852MPD2    N112575   2.566   0.854  10.933  0.1019 -0.6065 -0.2746
  852MPD2    H712576   2.590   0.928  10.998  2.1224 -2.0444  0.6268
  853MPD2     C12577   3.881   4.483  12.606 -0.5628  0.2934  0.3573
  853MPD2    C112578   3.892   4.623  12.615 -0.7464  0.5072  0.8659
  853MPD2    C212579   3.908   4.695  12.497  0.0918 -0.8091 -0.3859
  853MPD2    C312580   3.914   4.626  12.376 -0.6528  0.5481 -0.3607
  853MPD2    C412581   3.910   4.487  12.365  0.3749  0.2209  0.9742
  853MPD2    C512582   3.893   4.417  12.487  0.4074  0.8052 -0.1209
  853MPD2     H12583   3.909   0.069  12.503 -0.6134 -1.0114  3.4357
  853MPD2    H112584   3.910   4.438  12.268  0.8115  0.3925  0.8885
  853MPD2    H212585   3.870   4.429  12.700  0.4577 -0.2670  0.1525
  853MPD2    H312586   3.872   4.310  12.487  0.1582  0.8525 -1.0241
  853MPD2     N12587   3.919   4.691  12.249 -0.2549 -0.3390 -0.0546
  853MPD2    H512588   3.923   4.641  12.161  3.0691 -0.4170  0.1597
  853MPD2    N112589   3.871   4.680  12.737  0.0304  0.4547  0.7016
  853MPD2    H712590   3.842   4.619  12.813  0.7498 -0.3341  0.3383
  854MPD2     C12591   0.370   0.503  12.935  0.6691 -0.5738  0.0524
  854MPD2    C112592   0.495   0.538  12.894 -0.1289  0.0450 -0.5649
  854MPD2    C212593   0.603   0.467  12.938 -0.4311  0.7000 -0.0749
  854MPD2    C312594   0.591   0.356  13.014 -0.2866 -0.4581 -0.5396
  854MPD2    C412595   0.465   0.306  13.036 -0.3243 -0.0240 -0.4130
  854MPD2    C512596   0.359   0.386  13.004  1.1042 -0.0757  0.4986
  854MPD2     H12597   0.702   0.510  12.925 -0.1030 -0.5827 -1.8688
  854MPD2    H112598   0.439   0.207  13.072 -1.9306  1.1065  1.5654
  854MPD2    H212599   0.284   0.566  12.917 -0.0684 -1.0809  1.7524
  854MPD2    H312600   0.258   0.353  13.027  1.6522 -1.0713  1.4979
  854MPD2     N12601   0.706   0.298  13.087 -0.1009  0.1717  0.2388
  854MPD2    H512602   0.685   0.214  13.140 -0.4726 -1.1584 -2.0057
  854MPD2    N112603   0.502   0.658  12.815 -0.0833  0.3481  0.4096
  854MPD2    H712604   0.412   0.702  12.800 -0.2157 -0.8984 -2.3303
  855MPD2     C12605   0.451   4.419  13.573 -0.9420  0.0254  0.2812
  855MPD2    C112606   0.586   4.409  13.606 -0.1653  0.0515  0.5775
  855MPD2    C212607   0.676   4.509  13.555 -0.5372  0.3257  0.2398
  855MPD2    C312608   0.632   4.611  13.470 -0.0084 -0.0001 -0.3009
  855MPD2    C412609   0.502   4.612  13.431  0.2079  0.2606 -0.3461
  855MPD2    C512610   0.412   4.520  13.490 -0.7068 -0.1038 -0.8869
  855MPD2     H12611   0.782   4.498  13.575 -0.8907  1.4870  2.7142
  855MPD2    H112612   0.474   4.694  13.366 -0.9942  0.3820  0.3088
  855MPD2    H212613   0.378   4.344  13.601 -0.5035 -1.5522 -2.8679
  855MPD2    H312614   0.310   4.523  13.451 -0.9956 -2.3226 -0.2583
  855MPD2     N12615   0.719   4.705  13.411 -0.1815 -0.1694  0.3553
  855MPD2    H512616   0.671   0.031  13.345  0.6205 -0.1381 -0.1967
  855MPD2    N112617   0.637   4.309  13.684  0.0754  0.0828 -0.8401
  855MPD2    H712618   0.730   4.332  13.719  0.5091 -0.4211 -1.6488
  856MPD2     C12619   3.529   0.737  14.333  0.3322  0.6630  0.3509
  856MPD2    C112620   3.512   0.849  14.415 -0.2503  0.5573  0.2489
  856MPD2    C212621   3.399   0.927  14.391 -0.3590 -0.1195  0.4460
  856MPD2    C312622   3.313   0.893  14.290 -0.5667 -0.1895 -0.1474
  856MPD2    C412623   3.330   0.779  14.216 -0.7410  0.1568 -0.2879
  856MPD2    C512624   3.445   0.704  14.229 -0.2080 -0.0598 -0.5668
  856MPD2     H12625   3.396   1.027  14.432  1.5594  0.3534 -0.5631
  856MPD2    H112626   3.257   0.746  14.144  0.4477 -0.6918 -1.1144
  856MPD2    H212627   3.612   0.669  14.346 -0.5661 -0.1687  1.7668
  856MPD2    H312628   3.457   0.610  14.176  0.3816  0.2815 -1.0338
  856MPD2     N12629   3.198   0.970  14.249 -0.0322 -0.1561  0.5782
  856MPD2    H512630   3.163   0.946  14.156  0.8815  2.2195 -0.3950
  856MPD2    N112631   3.606   0.896  14.513  0.4935 -0.2374  0.0641
  856MPD2    H712632   3.577   0.983  14.556  0.6524 -0.3356  0.3687
  857MPD2     C12633   4.509   3.747  12.532  0.1133 -0.2468 -0.2780
  857MPD2    C112634   4.581   3.627  12.550  0.0535 -0.2070  0.9096
  857MPD2    C212635   4.658   3.613  12.667  0.1834  0.0960  0.1556
  857MPD2    C312636   4.668   3.718  12.763 -0.5096  0.8401  0.3281
  857MPD2    C412637   4.609   3.835  12.730  0.1068 -0.2631 -0.1680
  857MPD2    C512638   4.537   3.851  12.614 -0.1320  0.4483 -0.1096
  857MPD2     H12639   4.718   3.528  12.697 -0.6218 -0.9073 -1.1117
  857MPD2    H112640   4.636   3.923  12.788 -2.7121  0.7730 -0.4310
  857MPD2    H212641   4.445   3.750  12.445  2.2699  0.6236 -1.8216
  857MPD2    H312642   4.497   3.951  12.600 -0.0166  0.3435 -1.1500
  857MPD2     N12643   0.014   3.693  12.874 -0.0668  0.1717  0.7856
  857MPD2    H512644   0.060   3.603  12.872 -1.4803 -0.5569  1.1687
  857MPD2    N112645   4.575   3.521  12.453  0.0514 -0.0345  0.0828
  857MPD2    H712646   4.520   3.541  12.370  1.6149  3.4247 -0.1464
  858MPD2     C12647   0.829   2.446  16.638 -0.3564 -0.0958  0.2086
  858MPD2    C112648   0.833   2.309  16.659 -0.3797 -0.3965 -0.5862
  858MPD2    C212649   0.823   2.255  16.787 -0.7995 -0.5856  0.2753
  858MPD2    C312650   0.823   2.346  16.893  0.1712 -0.3068  0.2577
  858MPD2    C412651   0.830   2.481  16.868 -0.9280 -0.0208  0.1441
  858MPD2    C512652   0.837   2.530  16.745 -0.2909 -0.0421  0.5352
  858MPD2     H12653   0.825   2.147  16.786  0.8942 -0.5308 -1.7888
  858MPD2    H112654   0.827   2.543  16.957  0.1265  2.3919 -1.5217
  858MPD2    H212655   0.839   2.495  16.542 -2.4127  2.9056  1.5369
  858MPD2    H312656   0.845   2.638  16.741 -0.4619  0.0280  2.3725
  858MPD2     N12657   0.815   2.307  17.031 -0.9141  0.4025 -0.1394
  858MPD2    H512658   0.807   2.373  17.107  0.5439 -0.0926  0.4316
  858MPD2    N112659   0.853   2.216  16.548  0.8065 -0.0587 -0.6362
  858MPD2    H712660   0.834   2.119  16.568 -2.0845  1.2363  2.9560
  859MPD2     C12661   4.395   4.515  15.707  0.6861 -0.4398  0.4150
  859MPD2    C112662   4.284   4.440  15.698  0.4590  0.2077  0.1650
  859MPD2    C212663   4.255   4.351  15.796  0.0133 -0.2985  0.6142
  859MPD2    C312664   4.341   4.323  15.906  0.2099 -0.1584 -0.5033
  859MPD2    C412665   4.455   4.398  15.919 -0.5590  0.9419  0.1500
  859MPD2    C512666   4.475   4.495  15.819 -0.4128  0.0340 -0.1107
  859MPD2     H12667   4.166   4.289  15.793  0.1759 -0.4792 -0.5698
  859MPD2    H112668   4.526   4.385  15.999 -0.5629  1.3691  0.2212
  859MPD2    H212669   4.424   4.585  15.629 -0.7360  1.3047  1.4659
  859MPD2    H312670   4.568   4.551  15.822  0.6823 -1.8851  1.2564
  859MPD2     N12671   4.307   4.215  15.993  0.7572  0.2212  0.6048
  859MPD2    H512672   4.222   4.166  15.967  1.0268  0.6591 -1.0457
  859MPD2    N112673   4.199   4.491  15.590  0.6940  0.4477  0.0104
  859MPD2    H712674   4.228   4.580  15.549  0.4317  0.5855  0.1275
  860MPD2     C12675   2.150   0.401  11.958 -0.2107  0.0504 -0.7871
  860MPD2    C112676   2.143   0.332  12.078 -0.3239  0.2627 -0.5652
  860MPD2    C212677   2.016   0.308  12.132 -0.5167 -0.1965 -0.1279
  860MPD2    C312678   1.901   0.350  12.061 -0.5622 -0.3656  0.2918
  860MPD2    C412679   1.918   0.426  11.941  0.0544  0.6490  0.1537
  860MPD2    C512680   2.045   0.458  11.902 -0.0248 -0.3137  0.3481
  860MPD2     H12681   1.999   0.245  12.219  0.7737  0.1612  0.3836
  860MPD2    H112682   1.833   0.452  11.880 -1.3939 -1.0781  1.4450
  860MPD2    H212683   2.247   0.414  11.911  0.9083  0.5467  1.6334
  860MPD2    H312684   2.069   0.525  11.820 -0.4800  0.9826  1.2712
  860MPD2     N12685   1.772   0.320  12.115  0.4663  0.1443 -0.2992
  860MPD2    H512686   1.763   0.284  12.209 -1.7498 -0.0083 -0.5658
  860MPD2    N112687   2.262   0.275  12.145  0.3250 -0.0023 -0.0732
  860MPD2    H712688   2.255   0.241  12.240  0.0293  0.8507  0.2167
  861MPD2     C12689   0.301   3.036  11.054 -0.0554 -0.0202  0.0273
  861MPD2    C112690   0.335   3.169  11.057  0.5065  0.5103 -0.0649
  861MPD2    C212691   0.299   3.252  10.951 -0.2259 -0.1330 -0.3047
  861MPD2    C312692   0.231   3.194  10.842  0.2041 -0.0794 -0.8217
  861MPD2    C412693   0.195   3.063  10.844  0.4693  0.2782  0.1080
  861MPD2    C512694   0.227   2.985  10.950  0.3112 -0.6683 -0.0126
  861MPD2     H12695   0.320   3.358  10.956 -2.4236  0.3335 -0.8511
  861MPD2    H112696   0.158   3.009  10.759  0.6383 -0.4709  0.5132
  861MPD2    H212697   0.339   2.962  11.124  0.4598 -0.1538 -0.3958
  861MPD2    H312698   0.215   2.877  10.947  1.9154 -0.8373 -0.7892
  861MPD2     N12699   0.187   3.262  10.731 -0.2966 -0.9210  0.4596
  861MPD2    H512700   0.146   3.206  10.658  0.6376 -0.1253 -0.6804
  861MPD2    N112701   0.422   3.226  11.157  0.0632  0.0339 -0.3023
  861MPD2    H712702   0.442   3.325  11.147 -4.6371  0.8307 -1.7384
  862MPD2     C12703   4.400   3.177  10.223 -0.5753  0.2398 -0.0104
  862MPD2    C112704   4.458   3.147  10.352 -0.1344  1.3490 -0.1336
  862MPD2    C212705   4.419   3.028  10.425  0.2262  0.3220  0.4891
  862MPD2    C312706   4.356   2.929  10.352  0.5782 -0.7592 -0.3443
  862MPD2    C412707   4.299   2.962  10.229  0.2075 -0.3397  0.0698
  862MPD2    C512708   4.313   3.087  10.167 -0.7102  0.2239  0.1530
  862MPD2     H12709   4.453   3.004  10.525 -2.4394 -2.7609  0.6629
  862MPD2    H112710   4.249   2.883  10.174  0.9535 -0.9515  0.2601
  862MPD2    H212711   4.416   3.271  10.173 -0.6449  0.6989  0.8267
  862MPD2    H312712   4.273   3.109  10.068 -1.7866 -2.8481 -0.0861
  862MPD2     N12713   4.347   2.798  10.404 -0.3209 -0.7787  0.3636
  862MPD2    H512714   4.315   2.728  10.337  1.2013 -0.0446 -1.1274
  862MPD2    N112715   4.564   3.224  10.401  0.1715 -0.8165  0.1193
  862MPD2    H712716   4.591   3.218  10.499 -2.1218 -0.4699  0.7831
  863MPD2     C12717   4.193   1.344  16.595  0.4179  0.1418  0.3072
  863MPD2    C112718   4.092   1.314  16.681  0.6242 -0.0140  0.2176
  863MPD2    C212719   4.129   1.275  16.813  0.3245 -0.2188 -0.1231
  863MPD2    C312720   4.265   1.250  16.841 -0.0220 -0.3249  0.2447
  863MPD2    C412721   4.362   1.284  16.757  0.3258  0.3761 -0.3827
  863MPD2    C512722   4.327   1.331  16.633  0.3151 -0.7175  0.3016
  863MPD2     H12723   4.050   1.240  16.877  0.4866  0.8016  0.6345
  863MPD2    H112724   4.465   1.270  16.788  0.6554 -0.6940 -1.9580
  863MPD2    H212725   4.179   1.391  16.498 -4.3594 -1.6615  0.1261
  863MPD2    H312726   4.404   1.347  16.558  0.1837  3.3534  1.0575
  863MPD2     N12727   4.307   1.177  16.959 -0.0530  0.8483 -0.2187
  863MPD2    H512728   4.406   1.158  16.966 -0.4003 -0.9837 -0.4160
  863MPD2    N112729   3.957   1.321  16.633  0.1594  0.2646 -0.5645
  863MPD2    H712730   3.956   1.347  16.535  0.2401  0.1393 -0.5982
  864MPD2     C12731   4.332   2.077  17.406  0.3018 -0.3034  0.1987
  864MPD2    C112732   4.406   2.020  17.302  0.3101  0.1762 -0.0824
  864MPD2    C212733   4.503   2.097  17.243 -0.1220 -0.3183  0.0925
  864MPD2    C312734   4.504   2.232  17.276 -0.3499  0.7861  0.6886
  864MPD2    C412735   4.427   2.287  17.377 -0.2510 -0.2405 -0.5127
  864MPD2    C512736   4.343   2.203  17.443 -0.3505 -0.0663  0.3989
  864MPD2     H12737   4.572   2.059  17.169 -0.8817  0.1974 -0.8887
  864MPD2    H112738   4.434   2.390  17.409 -0.3283 -0.1793 -0.6954
  864MPD2    H212739   4.259   2.020  17.463  1.8143 -0.8764  1.5255
  864MPD2    H312740   4.275   2.242  17.518 -0.8764  1.6796 -0.9729
  864MPD2     N12741   4.592   2.321  17.209  0.8392  0.1078  0.5628
  864MPD2    H512742   4.585   2.421  17.228  1.5498  0.6254 -2.0307
  864MPD2    N112743   4.394   1.887  17.276 -0.3894  0.3423 -0.0793
  864MPD2    H712744   4.319   1.839  17.325 -0.3517 -1.2569 -1.5895
  865MPD2     C12745   4.440   2.734  16.343  0.5665 -0.7114 -0.2597
  865MPD2    C112746   4.406   2.621  16.417 -0.6790 -0.1866  0.2011
  865MPD2    C212747   4.450   2.617  16.544  0.6012  0.7409 -0.1427
  865MPD2    C312748   4.519   2.721  16.602 -0.0065 -0.1410 -0.5207
  865MPD2    C412749   4.543   2.840  16.532 -0.3352  0.1331  0.0750
  865MPD2    C512750   4.509   2.840  16.394 -0.0517 -0.1886  1.0773
  865MPD2     H12751   4.436   2.522  16.594 -0.1667  0.9089 -0.0407
  865MPD2    H112752   4.604   2.925  16.561 -3.0106  1.6194  1.3789
  865MPD2    H212753   4.402   2.739  16.241 -1.7203 -0.7687  0.5888
  865MPD2    H312754   4.534   2.927  16.334  0.8381 -0.7961  0.5816
  865MPD2     N12755   4.587   2.701  16.722 -0.5201  0.4490  0.0614
  865MPD2    H512756   4.656   2.771  16.746  0.8781 -1.3871  1.5039
  865MPD2    N112757   4.359   2.506  16.341  0.9696  0.1518 -0.3049
  865MPD2    H712758   4.359   2.520  16.241 -0.7217 -1.8207 -0.5704
  866MPD2     C12759   1.109   3.324  11.274 -0.1344 -0.1357  1.4665
  866MPD2    C112760   1.087   3.301  11.142  0.7637  0.2221 -0.4449
  866MPD2    C212761   1.001   3.387  11.078  0.0193 -0.1588 -0.1434
  866MPD2    C312762   0.948   3.496  11.160  0.0766 -0.5658 -0.0094
  866MPD2    C412763   0.973   3.517  11.288  0.6003 -0.4041 -0.4038
  866MPD2    C512764   1.065   3.433  11.346  0.5120 -0.2927 -0.4656
  866MPD2     H12765   0.980   3.376  10.972  0.8336 -1.7248 -0.1436
  866MPD2    H112766   0.936   3.601  11.346 -1.7976  1.0860 -4.0804
  866MPD2    H212767   1.183   3.261  11.323  0.1008 -1.4530 -0.6090
  866MPD2    H312768   1.098   3.451  11.448 -1.3168  2.1241 -0.2888
  866MPD2     N12769   0.848   3.581  11.106 -0.2131 -0.3665 -0.6323
  866MPD2    H512770   0.791   3.633  11.172  1.7828 -2.5996  2.8432
  866MPD2    N112771   1.141   3.183  11.090 -0.0983  0.0555  0.0184
  866MPD2    H712772   1.177   3.113  11.154  0.4050  0.8375  0.5910
  867MPD2     C12773   3.423   2.813  16.817 -0.6892  0.5664  0.1481
  867MPD2    C112774   3.475   2.728  16.912  0.2320  0.1688 -0.1392
  867MPD2    C212775   3.597   2.772  16.971  0.6399  0.4667 -0.0230
  867MPD2    C312776   3.652   2.889  16.934  0.1994 -0.0838 -0.2893
  867MPD2    C412777   3.592   2.971  16.841  0.2235  0.1623 -0.8576
  867MPD2    C512778   3.474   2.936  16.786 -0.1589 -0.3249 -0.0175
  867MPD2     H12779   3.649   2.703  17.037  1.2603 -2.3857 -3.5403
  867MPD2    H112780   3.641   3.061  16.805 -1.0017  1.2542  0.2297
  867MPD2    H212781   3.334   2.781  16.764  0.9482  1.2141 -3.0327
  867MPD2    H312782   3.428   2.992  16.705 -0.0058  0.4208  0.4079
  867MPD2     N12783   3.773   2.936  16.992  0.3028  0.3210  0.0950
  867MPD2    H512784   3.812   3.024  16.961 -0.2293  0.2090 -0.8777
  867MPD2    N112785   3.421   2.593  16.928 -0.1094 -0.2419  0.0427
  867MPD2    H712786   3.349   2.569  16.862  0.4956  1.9521 -1.4080
  868MPD2     C12787   0.023   1.938  13.165  0.2079 -0.0172 -0.5812
  868MPD2    C112788   0.091   1.831  13.209 -0.5226 -1.0245  0.8044
  868MPD2    C212789   0.036   1.747  13.302 -0.3308  0.5648  0.5005
  868MPD2    C312790   4.646   1.768  13.353 -0.1844  0.2351  0.1090
  868MPD2    C412791   4.577   1.878  13.311  0.8365 -0.7469  0.2038
  868MPD2    C512792   4.637   1.961  13.219 -0.6282  0.0686  0.3889
  868MPD2     H12793   0.091   1.658  13.330 -1.6387 -0.3678  0.1110
  868MPD2    H112794   4.479   1.910  13.344  0.8738 -0.6062  0.1770
  868MPD2    H212795   0.052   2.004  13.083 -1.2670 -2.2291 -2.8827
  868MPD2    H312796   4.582   2.045  13.179 -1.2485  0.3121  1.7488
  868MPD2     N12797   4.599   1.679  13.454 -0.3393  0.0967  0.1261
  868MPD2    H512798   4.663   1.613  13.497 -0.9600 -0.6627 -0.1053
  868MPD2    N112799   0.229   1.808  13.165 -0.0767  0.6715  0.3142
  868MPD2    H712800   0.275   1.726  13.203 -0.2351  0.0349 -0.8904
  869MPD2     C12801   1.834   3.910   0.412 -0.1480  0.2365  0.3812
  869MPD2    C112802   1.721   3.941   0.488 -0.7196  0.0745 -0.1558
  869MPD2    C212803   1.727   3.923   0.626  0.3797  0.0935  0.4831
  869MPD2    C312804   1.850   3.892   0.683 -0.3350  0.0111  1.0231
  869MPD2    C412805   1.960   3.874   0.602 -0.2524 -0.4832  0.6012
  869MPD2    C512806   1.952   3.879   0.471  0.2296 -0.2911  0.3505
  869MPD2     H12807   1.651   3.968   0.689 -0.9304 -1.4225  0.0077
  869MPD2    H112808   2.063   3.864   0.637 -0.7244 -1.4678  1.7002
  869MPD2    H212809   1.827   3.913   0.304  1.8230  0.7916  0.2768
  869MPD2    H312810   2.036   3.857   0.406 -1.5483 -1.6757 -1.4819
  869MPD2     N12811   1.850   3.899   0.821 -0.3895 -0.0462  0.8282
  869MPD2    H512812   1.759   3.915   0.861 -1.0945  1.0400 -1.2457
  869MPD2    N112813   1.610   3.986   0.417 -0.0112 -0.0431 -0.2573
  869MPD2    H712814   1.611   3.988   0.315  0.4657  1.5135 -0.2206
  870MPD2     C12815   1.612   2.090   1.712  0.0688 -0.2078 -0.2156
  870MPD2    C112816   1.649   2.199   1.642 -0.4210  0.0022 -0.7544
  870MPD2    C212817   1.566   2.315   1.635  0.4845  0.3807 -0.1532
  870MPD2    C312818   1.452   2.323   1.712  0.2343  1.0086 -0.1766
  870MPD2    C412819   1.421   2.207   1.789  0.1419 -0.0937 -0.4304
  870MPD2    C512820   1.490   2.091   1.777 -0.8413 -0.1054 -0.1882
  870MPD2     H12821   1.601   2.398   1.575 -0.1298  1.7152  1.3445
  870MPD2    H112822   1.329   2.206   1.845  0.6313 -1.8854  0.3543
  870MPD2    H212823   1.686   2.011   1.722  0.5988  0.3832  0.5927
  870MPD2    H312824   1.461   2.000   1.829 -1.0847  0.4528  0.6576
  870MPD2     N12825   1.378   2.441   1.706 -0.1497 -0.4732  0.1627
  870MPD2    H512826   1.403   2.508   1.634  1.3370  1.1714  2.2246
  870MPD2    N112827   1.767   2.185   1.562 -1.5056  0.4373 -0.8316
  870MPD2    H712828   1.802   2.090   1.571 -1.7801  0.4138  0.0349
  871MPD2     C12829   2.323   2.804  16.254  0.0362  0.1896  0.7858
  871MPD2    C112830   2.394   2.760  16.368 -0.0810  0.0013  0.2977
  871MPD2    C212831   2.461   2.643  16.352 -0.1456 -0.0143  0.7087
  871MPD2    C312832   2.488   2.589  16.226  0.8169 -0.0317  0.0302
  871MPD2    C412833   2.442   2.656  16.117 -0.5610 -0.3222 -0.4735
  871MPD2    C512834   2.360   2.761  16.129  0.0695 -0.1280 -0.0345
  871MPD2     H12835   2.521   2.596  16.430 -0.2133  0.0616  0.8058
  871MPD2    H112836   2.454   2.625  16.014 -1.1283 -3.3273  0.3524
  871MPD2    H212837   2.272   2.900  16.249  0.3921  0.2147 -2.3310
  871MPD2    H312838   2.312   2.795  16.038 -1.3958 -0.8691  0.4701
  871MPD2     N12839   2.559   2.464  16.221 -0.4400 -0.2847 -0.3815
  871MPD2    H512840   2.578   2.422  16.312  2.8735 -1.1594 -1.4689
  871MPD2    N112841   2.384   2.834  16.487  1.2420  0.2038  0.0040
  871MPD2    H712842   2.344   2.926  16.474  2.0307  0.6101  0.4781
  872MPD2     C12843   2.727   0.613  13.521  0.3713 -0.0615  0.0559
  872MPD2    C112844   2.798   0.622  13.642  0.4109  0.3677  0.6203
  872MPD2    C212845   2.721   0.587  13.749 -0.0500  0.3515  0.4060
  872MPD2    C312846   2.586   0.537  13.745  0.5032 -0.3802  0.3031
  872MPD2    C412847   2.537   0.512  13.623 -0.7687 -0.1012  0.4687
  872MPD2    C512848   2.607   0.558  13.511  0.0396 -0.5381 -0.3094
  872MPD2     H12849   2.765   0.603  13.847 -1.0528 -1.6274  1.1676
  872MPD2    H112850   2.442   0.460  13.615 -0.6480 -0.0199 -1.6093
  872MPD2    H212851   2.763   0.651  13.426  0.5036  0.0148  0.1366
  872MPD2    H312852   2.560   0.543  13.415 -2.3586 -0.1021  0.7927
  872MPD2     N12853   2.497   0.506  13.848  0.2365 -0.0649 -0.2597
  872MPD2    H512854   2.406   0.470  13.823 -0.1702  0.9856 -0.3265
  872MPD2    N112855   2.926   0.687  13.661  0.0932  0.3887 -0.0551
  872MPD2    H712856   2.956   0.712  13.754  0.7376  0.6738 -0.3415
  873MPD2     C12857   0.041   0.566   0.290 -0.0736 -0.6385  0.1286
  873MPD2    C112858   0.008   0.446   0.350 -0.2665  0.7059  0.3392
  873MPD2    C212859   4.725   0.333   0.264 -0.0495  0.4819 -0.0932
  873MPD2    C312860   0.039   0.334   0.139  0.0550 -0.2944 -0.2858
  873MPD2    C412861   0.092   0.450   0.084  0.3062 -0.1705 -0.2476
  873MPD2    C512862   0.102   0.564   0.167 -0.1070  0.0999  0.5878
  873MPD2     H12863   4.686   0.241   0.305  0.9403  0.3845  0.6346
  873MPD2    H112864   0.143   0.452  17.725  0.1447 -2.5268 -0.3682
  873MPD2    H212865   0.051   0.655   0.350  0.4129 -1.0318  0.6369
  873MPD2    H312866   0.149   0.654   0.130 -1.8073 -0.0731 -2.0208
  873MPD2     N12867   0.047   0.217   0.057  0.2835  0.3083  0.2489
  873MPD2    H512868   0.087   0.236  17.703 -2.2405 -0.3051 -0.9914
  873MPD2    N112869   4.710   0.435   0.481 -0.6752  0.4572 -0.2147
  873MPD2    H712870   4.686   0.523   0.525 -0.0206 -1.2108  3.4738
  874MPD2     C12871   4.626   0.089  15.914 -0.5283 -0.3483  0.1848
  874MPD2    C112872   4.599   0.027  16.033  0.0751  0.2130  0.1581
  874MPD2    C212873   4.698   0.046  16.138 -0.9843  0.1669 -0.7855
  874MPD2    C312874   0.084   0.112  16.119  0.0014  0.3114 -0.2902
  874MPD2    C412875   0.107   0.169  15.993 -0.4240 -0.8493 -0.1905
  874MPD2    C512876   0.010   0.151  15.896  0.5914 -0.1130  1.0034
  874MPD2     H12877   4.693   4.721  16.228 -0.6623  1.3267 -0.0038
  874MPD2    H112878   0.195   0.226  15.964 -0.2001 -0.5094  1.1933
  874MPD2    H212879   4.554   0.084  15.834 -1.2690 -0.9491  0.8922
  874MPD2    H312880   0.020   0.193  15.797  1.5952  1.6740  1.8618
  874MPD2     N12881   0.183   0.118  16.225 -0.6600 -0.3719 -0.1052
  874MPD2    H512882   0.181   0.045  16.296  1.9305  0.4025  0.7703
  874MPD2    N112883   4.468   4.707  16.052 -0.5956  0.6577  0.2399
  874MPD2    H712884   4.396   4.712  15.980  1.5446 -2.0298 -2.0910
  875MPD2     C12885   0.542   3.030  14.440  0.1373 -0.3622 -0.6197
  875MPD2    C112886   0.441   3.064  14.526 -0.1934  0.4689  0.1982
  875MPD2    C212887   0.474   3.119  14.640  0.3741 -0.3927 -0.4904
  875MPD2    C312888   0.609   3.146  14.668 -0.0793  0.0721 -0.1523
  875MPD2    C412889   0.709   3.113  14.576  0.2986 -0.5326 -0.1342
  875MPD2    C512890   0.678   3.048  14.468  0.4134  0.3965 -0.4209
  875MPD2     H12891   0.391   3.149  14.703  0.6300 -1.4196  0.3299
  875MPD2    H112892   0.815   3.127  14.596  0.1783  0.6747 -0.3154
  875MPD2    H212893   0.517   2.993  14.341 -0.6683 -2.6334  0.4227
  875MPD2    H312894   0.752   3.033  14.391 -0.5999 -0.3537 -1.2502
  875MPD2     N12895   0.635   3.209  14.790 -0.7829  0.0185 -0.6463
  875MPD2    H512896   0.560   3.211  14.858 -0.4791  0.3889 -0.3200
  875MPD2    N112897   0.301   3.047  14.497 -0.2622  0.1437 -0.1522
  875MPD2    H712898   0.230   3.098  14.548  0.3973 -1.1216  2.0398
  876MPD2     C12899   0.411   0.225  15.544  0.3771  0.2211 -0.1162
  876MPD2    C112900   0.286   0.200  15.525 -0.3416 -0.9890 -0.2342
  876MPD2    C212901   0.221   0.100  15.598 -0.0062  0.0204 -0.1277
  876MPD2    C312902   0.290   0.025  15.692 -0.1648 -0.5075 -0.7043
  876MPD2    C412903   0.426   0.053  15.709  0.3321 -0.2711  0.0157
  876MPD2    C512904   0.488   0.150  15.640 -0.1301 -0.0901  0.3815
  876MPD2     H12905   0.113   0.088  15.595  0.0460 -0.4076 -0.2713
  876MPD2    H112906   0.492   4.726  15.768 -1.6948 -1.1680  1.3498
  876MPD2    H212907   0.467   0.293  15.481 -1.0484  0.9853 -0.5725
  876MPD2    H312908   0.593   0.170  15.654  0.2672 -3.0653  1.7063
  876MPD2     N12909   0.226   4.659  15.764 -0.3522 -0.1627  0.5466
  876MPD2    H512910   0.128   4.645  15.744  0.0658 -2.2115 -0.1303
  876MPD2    N112911   0.223   0.287  15.435 -0.9371  0.0140  0.3433
  876MPD2    H712912   0.283   0.354  15.387  0.1693 -1.3401 -0.1714
  877MPD2     C12913   0.109   0.720  14.717 -0.0960  0.3045  0.1294
  877MPD2    C112914   0.082   0.592  14.769 -0.2130  0.2025 -0.2246
  877MPD2    C212915   0.036   0.491  14.681 -0.3158 -0.7669  0.0525
  877MPD2    C312916   0.018   0.514  14.544 -0.2028 -0.4416 -0.6032
  877MPD2    C412917   0.053   0.639  14.490  0.2101 -0.1257 -0.1733
  877MPD2    C512918   0.102   0.739  14.574  0.0745 -0.4465 -0.3372
  877MPD2     H12919   4.733   0.402  14.731 -0.0033 -1.2554 -0.5767
  877MPD2    H112920   0.050   0.658  14.384 -0.3149  1.0681  0.0527
  877MPD2    H212921   0.166   0.786  14.781 -1.4193  0.6440  0.9556
  877MPD2    H312922   0.132   0.830  14.524  0.8272  0.3267  1.5338
  877MPD2     N12923   4.695   0.420  14.456  0.0840 -0.1437 -0.0635
  877MPD2    H512924   4.682   0.458  14.363 -2.9098  0.2715  0.5450
  877MPD2    N112925   0.099   0.584  14.908  0.1591  0.0734  0.2016
  877MPD2    H712926   0.119   0.671  14.956 -2.0439  0.3241  0.6876
  878MPD2     C12927   3.663   0.354  13.526 -0.4519  0.5812  0.2295
  878MPD2    C112928   3.763   0.262  13.509  0.5632  0.3948 -0.2691
  878MPD2    C212929   3.740   0.133  13.559  0.0012  0.3309  0.3996
  878MPD2    C312930   3.639   0.113  13.647 -0.2131 -0.1453 -0.5350
  878MPD2    C412931   3.547   0.213  13.677  0.3278 -0.5193 -0.4827
  878MPD2    C512932   3.551   0.330  13.617 -0.0771  0.4534 -0.4597
  878MPD2     H12933   3.816   0.056  13.554 -0.6637 -0.3330  0.7477
  878MPD2    H112934   3.455   0.184  13.727  1.0757  0.6209  1.5363
  878MPD2    H212935   3.664   0.442  13.462  2.5481  0.9281  0.7658
  878MPD2    H312936   3.474   0.406  13.624  1.1761  1.6607  0.0889
  878MPD2     N12937   3.636   4.723  13.714  0.5813  0.2886  0.5760
  878MPD2    H512938   3.706   4.654  13.691  0.5241  0.1723  0.7506
  878MPD2    N112939   3.865   0.295  13.422 -0.8215 -0.8747  0.1030
  878MPD2    H712940   3.862   0.384  13.374  1.6668 -0.1816  1.2362
  879MPD2     C12941   0.560   0.761  16.470 -0.4621 -0.1535 -0.1138
  879MPD2    C112942   0.449   0.718  16.546 -0.1076 -0.2673 -0.2688
  879MPD2    C212943   0.356   0.636  16.480 -0.2272 -0.0967  0.1051
  879MPD2    C312944   0.374   0.595  16.347 -0.1860  0.2199  0.7081
  879MPD2    C412945   0.486   0.640  16.279 -0.3710  0.4403  0.0317
  879MPD2    C512946   0.583   0.711  16.342 -0.4793  0.0290  0.8856
  879MPD2     H12947   0.268   0.604  16.535 -1.3937  1.4025 -0.8774
  879MPD2    H112948   0.498   0.620  16.173  0.5030 -0.4521  0.2938
  879MPD2    H212949   0.637   0.823  16.515 -1.1336  0.3677  0.3221
  879MPD2    H312950   0.674   0.746  16.295 -1.6380  1.3655 -0.3402
  879MPD2     N12951   0.279   0.525  16.274  0.0622 -0.5825 -0.0072
  879MPD2    H512952   0.301   0.521  16.175  1.3968 -0.7379  0.3065
  879MPD2    N112953   0.432   0.776  16.674  0.3867  1.1795  0.0532
  879MPD2    H712954   0.501   0.846  16.700  2.7501 -0.7200 -1.0787
  880MPD2     C12955   1.352   2.490   0.271  0.2091 -1.0415 -0.1078
  880MPD2    C112956   1.422   2.494   0.391  0.4115 -0.4715 -0.3857
  880MPD2    C212957   1.457   2.374   0.445  0.3473 -0.3619 -0.0949
  880MPD2    C312958   1.433   2.255   0.383  0.4465  0.4734 -0.0990
  880MPD2    C412959   1.366   2.252   0.262 -0.4161  0.1269  0.1372
  880MPD2    C512960   1.327   2.368   0.208 -0.2832 -0.2292 -0.3857
  880MPD2     H12961   1.485   2.369   0.549  0.8618  0.8548 -0.1848
  880MPD2    H112962   1.347   2.159   0.209 -0.4309 -0.2727  0.8501
  880MPD2    H212963   1.331   2.581   0.216  0.8680 -2.0846 -2.0497
  880MPD2    H312964   1.277   2.361   0.112 -1.2224  1.2768 -0.0088
  880MPD2     N12965   1.479   2.144   0.450  0.2848  0.4267  0.0781
  880MPD2    H512966   1.546   2.158   0.526  0.9828  0.1131 -0.4798
  880MPD2    N112967   1.439   2.618   0.457 -0.5289  0.3477 -0.0830
  880MPD2    H712968   1.402   2.702   0.413  0.8231  2.2966  2.4823
  881MPD2     C12969   1.290   3.436   0.184 -0.8990  0.3823  0.0817
  881MPD2    C112970   1.405   3.360   0.185 -0.5394  0.1596  0.4354
  881MPD2    C212971   1.431   3.278   0.294  0.0597  0.2382  0.0386
  881MPD2    C312972   1.335   3.268   0.399  0.4944 -0.5650 -0.2794
  881MPD2    C412973   1.225   3.352   0.392 -0.3354 -0.6865  0.0022
  881MPD2    C512974   1.197   3.427   0.280  1.0296 -0.7938 -0.2395
  881MPD2     H12975   1.506   3.200   0.285 -0.6658 -0.2724 -1.5881
  881MPD2    H112976   1.147   3.350   0.467 -0.1374  1.0263  0.2622
  881MPD2    H212977   1.256   3.482   0.092 -2.0214  0.5667  0.5852
  881MPD2    H312978   1.106   3.486   0.276  1.7258  0.1795 -2.0708
  881MPD2     N12979   1.355   3.184   0.501  0.4837 -0.4276  0.1880
  881MPD2    H512980   1.270   3.154   0.548  0.3513 -0.2460  0.0590
  881MPD2    N112981   1.468   3.349   0.064 -0.1319 -0.5340 -0.5268
  881MPD2    H712982   1.433   3.416  17.733  1.1560  0.0119 -0.6499
  882MPD2     C12983   4.035   0.216  13.947  0.1379  0.1642 -1.0704
  882MPD2    C112984   4.077   0.272  14.067 -0.4122  0.1142 -0.5933
  882MPD2    C212985   3.982   0.310  14.164 -0.1468 -1.1081  0.2624
  882MPD2    C312986   3.855   0.310  14.130  0.2068  0.0042 -0.7364
  882MPD2    C412987   3.812   0.262  14.007 -0.0142  0.4198  0.1752
  882MPD2    C512988   3.900   0.213  13.912  0.3396 -0.2361  0.4010
  882MPD2     H12989   4.015   0.335  14.264 -1.3020  0.7576  0.1741
  882MPD2    H112990   3.707   0.257  13.983 -0.0590  2.2093  0.0076
  882MPD2    H212991   4.102   0.186  13.867  0.7174  0.2817 -0.6327
  882MPD2    H312992   3.879   0.174  13.813  1.2487 -1.3680  0.6450
  882MPD2     N12993   3.753   0.348  14.211 -0.1211 -0.5200  0.5504
  882MPD2    H512994   3.660   0.337  14.172  1.5351 -1.8762 -2.9705
  882MPD2    N112995   4.214   0.256  14.100  0.2849 -0.0276 -0.7641
  882MPD2    H712996   4.266   0.185  14.050  3.0516  1.6554 -0.3347
  883MPD2     C12997   1.447   0.348  16.182 -0.4206 -0.3081  0.6352
  883MPD2    C112998   1.450   0.478  16.143  0.0768 -0.0863 -0.1529
  883MPD2    C212999   1.533   0.560  16.218 -0.2972  0.1995 -0.0657
  883MPD2    C313000   1.610   0.512  16.326  0.0004  0.0089  0.3504
  883MPD2    C413001   1.596   0.379  16.360 -0.1222  0.1650  0.1327
  883MPD2    C513002   1.522   0.300  16.281 -0.3968 -0.1094  0.5450
  883MPD2     H13003   1.544   0.663  16.187  0.5787 -0.0802 -0.6636
  883MPD2    H113004   1.636   0.328  16.447 -0.1361 -1.0250 -0.5567
  883MPD2    H213005   1.391   0.269  16.132  1.4067 -0.8530 -0.5464
  883MPD2    H313006   1.518   0.195  16.307 -0.6403 -0.4321 -0.7994
  883MPD2     N13007   1.705   0.592  16.397 -0.3791  0.3717  0.2437
  883MPD2    H513008   1.726   0.686  16.364 -1.0444  0.1565 -0.7872
  883MPD2    N113009   1.386   0.531  16.031  0.5078  0.2592  0.3307
  883MPD2    H713010   1.374   0.632  16.028 -3.5377 -0.2299 -0.6174
  884MPD2     C13011   3.255   1.079  15.182 -0.5028  1.0103  0.0785
  884MPD2    C113012   3.255   1.219  15.189 -0.0092  0.2210 -0.1593
  884MPD2    C213013   3.137   1.287  15.228  0.5743  0.2230  0.3240
  884MPD2    C313014   3.021   1.218  15.270 -0.4228  0.4162  0.4117
  884MPD2    C413015   3.030   1.079  15.279  0.6124  0.0100  0.3426
  884MPD2    C513016   3.136   1.016  15.225  0.6641  0.6581  0.3691
  884MPD2     H13017   3.129   1.395  15.235  2.9464  0.4468 -0.5511
  884MPD2    H113018   2.944   1.024  15.317  1.2958 -0.6439  0.9464
  884MPD2    H213019   3.342   1.019  15.157 -1.0700  0.5594 -0.8353
  884MPD2    H313020   3.137   0.908  15.223  2.1105  0.7122 -1.8404
  884MPD2     N13021   2.902   1.293  15.292  0.2479 -0.2576 -0.7821
  884MPD2    H513022   2.899   1.387  15.254  3.3599  0.0252 -0.3794
  884MPD2    N113023   3.364   1.293  15.138 -0.4444  0.1769 -0.0233
  884MPD2    H713024   3.364   1.394  15.141 -2.9639  0.1863 -0.6776
  885MPD2     C13025   1.775   1.481   0.225  0.2060  0.0244 -0.6548
  885MPD2    C113026   1.867   1.381   0.201 -0.3228 -0.1808 -0.1839
  885MPD2    C213027   1.892   1.340   0.069  0.2458  0.2801 -0.1798
  885MPD2    C313028   1.819   1.402  17.702  0.2184 -0.0858 -0.4818
  885MPD2    C413029   1.724   1.492  17.734 -0.1687 -0.9374  0.8329
  885MPD2    C513030   1.705   1.526   0.126  0.0751  0.1699 -0.2452
  885MPD2     H13031   1.957   1.258   0.039  0.0996 -0.4593  1.5352
  885MPD2    H113032   1.665   1.550  17.663  0.0503 -2.5817 -0.6970
  885MPD2    H213033   1.755   1.523   0.323 -0.9137  0.1215 -0.9194
  885MPD2    H313034   1.624   1.591   0.155 -0.7786 -0.1959 -1.8155
  885MPD2     N13035   1.843   1.369  17.571  0.4131 -0.0716 -0.1016
  885MPD2    H513036   1.910   1.293  17.563  0.7361 -0.1280  3.0591
  885MPD2    N113037   1.942   1.330   0.312 -0.0825  0.8250 -0.3300
  885MPD2    H713038   1.929   1.367   0.405  0.9745  0.3631 -0.0004
  886MPD2     C13039   3.062   4.346  15.247 -0.3547 -0.2951 -0.3185
  886MPD2    C113040   3.125   4.454  15.292 -0.1475  0.2481 -0.0499
  886MPD2    C213041   3.079   4.582  15.262  0.0591 -0.1905 -0.1176
  886MPD2    C313042   2.965   4.604  15.178 -0.1275 -0.6347 -0.0177
  886MPD2    C413043   2.910   4.486  15.122  0.1162  0.6131 -0.2995
  886MPD2    C513044   2.954   4.363  15.158  0.7008 -0.5733 -0.2639
  886MPD2     H13045   3.128   4.670  15.301  1.6541 -2.0439  2.0201
  886MPD2    H113046   2.827   4.487  15.052  0.4116  0.7086 -0.6490
  886MPD2    H213047   3.105   4.247  15.255  1.8403  0.8452  1.9613
  886MPD2    H313048   2.909   4.271  15.121 -0.5953 -0.1006  0.1085
  886MPD2     N13049   2.919   4.729  15.138  0.0797  0.2300  0.5789
  886MPD2    H513050   2.853   0.003  15.061  1.2749  0.9877 -0.3594
  886MPD2    N113051   3.241   4.444  15.380 -0.0735 -0.2114 -0.4084
  886MPD2    H713052   3.275   4.533  15.415  1.5374 -1.6221  1.5357
  887MPD2     C13053   3.821   0.078  15.473 -0.4307 -0.0265  0.3766
  887MPD2    C113054   3.687   0.068  15.459  1.3129  0.1746  0.2959
  887MPD2    C213055   3.623   0.148  15.369 -0.4154 -0.0895 -0.1749
  887MPD2    C313056   3.686   0.245  15.291 -0.0371 -0.2813  0.1997
  887MPD2    C413057   3.822   0.253  15.301 -0.5943  0.3029  0.0590
  887MPD2    C513058   3.888   0.175  15.397  0.2098  0.1476 -0.9717
  887MPD2     H13059   3.521   0.125  15.339 -0.3970  0.0533 -0.3468
  887MPD2    H113060   3.874   0.319  15.234  2.3451 -0.5732  1.4690
  887MPD2    H213061   3.870   0.006  15.538 -0.1124 -0.7612 -0.6924
  887MPD2    H313062   3.996   0.183  15.401 -0.0346  1.4639  3.0490
  887MPD2     N13063   3.601   0.337  15.218  0.2321  0.4192  0.5662
  887MPD2    H513064   3.502   0.316  15.228  0.1443  1.8861  2.7654
  887MPD2    N113065   3.610   4.700  15.525 -0.2715 -0.4728 -0.1720
  887MPD2    H713066   3.511   4.693  15.503 -0.2529  1.5465 -0.8525
  888MPD2     C13067   0.876   4.460  15.022 -0.7737  0.5025 -0.0704
  888MPD2    C113068   0.880   4.504  15.153 -0.1748 -0.5792 -0.6680
  888MPD2    C213069   0.920   4.633  15.180 -0.0398 -0.7954 -0.1578
  888MPD2    C313070   0.958   4.724  15.077  0.7544  0.4146 -0.4671
  888MPD2    C413071   0.936   4.674  14.947 -0.2277 -0.6107 -0.0278
  888MPD2    C513072   0.897   4.545  14.920  0.0182 -1.1316 -0.4633
  888MPD2     H13073   0.928   4.666  15.283 -0.0856 -1.6124  0.1083
  888MPD2    H113074   0.955   4.734  14.859  0.3444  0.2795  0.7048
  888MPD2    H213075   0.852   4.361  14.986 -1.5165  0.2567  1.1021
  888MPD2    H313076   0.897   4.510  14.818  0.0824 -1.4909 -0.3392
  888MPD2     N13077   0.997   0.122  15.102  0.8581  0.3825  0.3065
  888MPD2    H513078   0.980   0.159  15.195 -1.1195 -0.1176  0.1395
  888MPD2    N113079   0.872   4.417  15.263 -0.4414 -0.5591  0.6878
  888MPD2    H713080   0.905   4.444  15.355  0.2578  1.0946 -0.0427
  889MPD2     C13081   0.280   3.788  13.763 -1.2497  0.1119  0.5196
  889MPD2    C113082   0.240   3.870  13.666  0.4208 -0.0352  0.3235
  889MPD2    C213083   0.232   4.006  13.689  0.5634  0.2077 -0.2435
  889MPD2    C313084   0.271   4.065  13.809 -0.5294  0.4887  0.7230
  889MPD2    C413085   0.316   3.984  13.912 -0.4639 -0.4770 -0.2766
  889MPD2    C513086   0.320   3.845  13.888 -0.3744  0.4736  0.0121
  889MPD2     H13087   0.211   4.074  13.607 -0.3362 -0.7660 -0.8301
  889MPD2    H113088   0.347   4.020  14.010 -3.9729 -0.1127  0.6998
  889MPD2    H213089   0.301   3.682  13.754  2.7123  1.0075 -0.6706
  889MPD2    H313090   0.355   3.771  13.958 -0.3227 -0.9749 -1.5383
  889MPD2     N13091   0.270   4.205  13.818 -0.2357  0.0233 -0.3117
  889MPD2    H513092   0.240   4.252  13.733  0.3661 -0.6921 -0.9214
  889MPD2    N113093   0.217   3.809  13.541  0.5632 -0.1753 -0.1457
  889MPD2    H713094   0.230   3.709  13.530  2.0816 -0.2772  2.5968
  890MPD2     C13095   4.462   0.782  14.509 -0.2036  0.6129 -0.4052
  890MPD2    C113096   4.536   0.889  14.543 -0.1524 -0.3292  0.1357
  890MPD2    C213097   4.551   0.920  14.676 -0.3818  0.1970  0.3610
  890MPD2    C313098   4.503   0.834  14.770  0.2532 -0.4400  0.1901
  890MPD2    C413099   4.434   0.722  14.738  0.3090 -0.5323 -0.4852
  890MPD2    C513100   4.405   0.703  14.603 -0.4567 -0.1891  0.3578
  890MPD2     H13101   4.611   1.002  14.713  0.1012 -0.5496  1.2205
  890MPD2    H113102   4.403   0.642  14.803  1.5547  0.7735  1.7207
  890MPD2    H213103   4.443   0.751  14.407 -1.4885 -1.3133  0.4143
  890MPD2    H313104   4.344   0.621  14.568 -0.7408  0.5090 -0.8105
  890MPD2     N13105   4.506   0.870  14.906 -0.5333 -0.1882 -0.4478
  890MPD2    H513106   4.534   0.964  14.930 -0.4473 -0.0995 -0.9019
  890MPD2    N113107   4.592   0.970  14.446  0.2321  0.1698 -0.1729
  890MPD2    H713108   4.624   1.062  14.473  0.5749 -0.3473  1.1853
  891MPD2     C13109   2.867   0.173  16.829  0.9670  0.7461 -0.1881
  891MPD2    C113110   2.804   0.059  16.880  0.2821  0.4789  0.7785
  891MPD2    C213111   2.872   4.716  16.973  0.0727  0.5766  0.5261
  891MPD2    C313112   2.994   0.017  17.028 -0.1847 -0.2792  0.0368
  891MPD2    C413113   3.050   0.139  16.976 -0.0537  0.1753  0.0824
  891MPD2    C513114   2.988   0.209  16.875 -0.2848 -0.0457 -0.8588
  891MPD2     H13115   2.832   4.620  17.005 -0.9587  0.5259 -0.9313
  891MPD2    H113116   3.139   0.182  17.020  0.9325 -0.1306 -1.6378
  891MPD2    H213117   2.822   0.240  16.756  1.1736  1.2381  0.1417
  891MPD2    H313118   3.038   0.299  16.843 -1.9335  0.3677 -2.2446
  891MPD2     N13119   3.068   4.665  17.118 -0.1836 -0.2858 -0.1005
  891MPD2    H513120   3.007   4.590  17.152  0.5757 -1.0339 -0.3780
  891MPD2    N113121   2.679   0.021  16.818  0.9553 -0.1086  0.0708
  891MPD2    H713122   2.647   0.079  16.741  2.0526  0.0994 -0.2164
  892MPD2     C13123   3.398   0.921  14.892 -0.7303 -0.0533  0.6616
  892MPD2    C113124   3.303   0.820  14.891 -0.0240  0.3435 -0.5367
  892MPD2    C213125   3.344   0.694  14.856  0.2561 -0.7272 -0.3259
  892MPD2    C313126   3.476   0.666  14.830 -0.1567 -0.2606  0.3838
  892MPD2    C413127   3.574   0.766  14.848  0.0456 -0.0159 -0.2256
  892MPD2    C513128   3.533   0.896  14.881 -0.0870 -0.5211  0.1240
  892MPD2     H13129   3.271   0.615  14.843 -0.4511 -0.0288 -0.6266
  892MPD2    H113130   3.677   0.732  14.843 -0.6452 -2.3079  0.7246
  892MPD2    H213131   3.374   1.022  14.922  3.0858  0.4626  1.9462
  892MPD2    H313132   3.607   0.967  14.915  2.2638 -1.9167 -2.1377
  892MPD2     N13133   3.528   0.548  14.771 -0.5624 -0.4488  0.2314
  892MPD2    H513134   3.627   0.546  14.749 -0.3889 -0.8569  1.0525
  892MPD2    N113135   3.161   0.841  14.907 -0.1401  0.2376 -0.0880
  892MPD2    H713136   3.100   0.760  14.909  1.2163 -0.7664  0.4130
  893MPD2     C13137   0.379   3.694   1.576  0.4792  0.7672 -0.1729
  893MPD2    C113138   0.374   3.779   1.470  0.1313 -0.5963 -0.4769
  893MPD2    C213139   0.252   3.815   1.413  0.0274  0.2518 -0.6678
  893MPD2    C313140   0.133   3.784   1.478 -1.0113  0.3877 -0.1423
  893MPD2    C413141   0.138   3.728   1.603 -0.0693 -0.0300  0.1283
  893MPD2    C513142   0.262   3.684   1.648  0.4561 -0.8914 -0.4735
  893MPD2     H13143   0.246   3.875   1.323  0.0995 -0.2254 -0.9911
  893MPD2    H113144   0.054   3.702   1.665 -2.2136  0.3551 -2.6384
  893MPD2    H213145   0.475   3.660   1.614  1.1022  0.9077 -1.6271
  893MPD2    H313146   0.274   3.640   1.747 -1.6121  1.0371  0.6616
  893MPD2     N13147   4.734   3.811   1.422  0.4741 -0.0722 -0.3332
  893MPD2    H513148   4.657   3.785   1.482  2.4318  2.0484  3.1322
  893MPD2    N113149   0.506   3.806   1.417  1.0542  0.0847  0.2465
  893MPD2    H713150   0.584   3.760   1.463  2.3508 -0.3735 -2.4439
  894MPD2     C13151   3.742   1.039   1.207  0.9591  0.7552  0.1764
  894MPD2    C113152   3.654   1.086   1.113  0.0641 -0.2155  0.5676
  894MPD2    C213153   3.663   1.220   1.075 -0.7061 -0.2951 -0.1243
  894MPD2    C313154   3.758   1.300   1.132 -0.0503  0.4577  0.2916
  894MPD2    C413155   3.855   1.250   1.219 -0.7084  0.3838 -0.0982
  894MPD2    C513156   3.845   1.125   1.253  0.4119 -0.4530  0.3656
  894MPD2     H13157   3.590   1.255   1.002 -0.6220 -0.0325 -0.0807
  894MPD2    H113158   3.939   1.302   1.263  0.3924 -1.3842 -0.0964
  894MPD2    H213159   3.744   0.938   1.245 -1.1260  0.5476 -0.2570
  894MPD2    H313160   3.920   1.074   1.311 -1.0594 -2.4360  0.5187
  894MPD2     N13161   3.761   1.431   1.089  0.3406 -0.1136 -0.6764
  894MPD2    H513162   3.681   1.459   1.033  0.1908 -1.7843 -1.2968
  894MPD2    N113163   3.550   1.008   1.060 -0.2114  0.3959  0.2418
  894MPD2    H713164   3.473   1.059   1.019 -0.2815  0.0027 -0.1150
  895MPD2     C13165   3.279   3.945  14.025 -0.3271 -0.6754  0.0164
  895MPD2    C113166   3.160   3.930  13.954  0.1756  0.0421 -0.0069
  895MPD2    C213167   3.135   3.821  13.868 -0.2755  0.2706 -0.5275
  895MPD2    C313168   3.235   3.738  13.836  0.1424 -0.1050  0.1679
  895MPD2    C413169   3.352   3.748  13.914  0.4613  0.1800 -0.6783
  895MPD2    C513170   3.379   3.851  14.002 -0.0768  0.1952 -0.0424
  895MPD2     H13171   3.044   3.815  13.810 -0.3436 -0.8448 -0.3050
  895MPD2    H113172   3.435   3.680  13.903 -0.1544 -1.3165  4.4065
  895MPD2    H213173   3.288   4.027  14.095  1.4059 -0.9091  0.0785
  895MPD2    H313174   3.473   3.854  14.056  0.5486 -3.4947 -0.9491
  895MPD2     N13175   3.205   3.646  13.737  0.0821 -0.0419 -0.1874
  895MPD2    H513176   3.110   3.640  13.702  0.1811 -0.1092 -0.4433
  895MPD2    N113177   3.057   4.027  13.972 -0.4092 -0.7629 -0.6061
  895MPD2    H713178   2.971   4.010  13.921 -0.7970  0.1606 -0.2674
  896MPD2     C13179   1.234   1.946   1.373 -0.4182 -0.0379 -0.7597
  896MPD2    C113180   1.131   1.888   1.304  0.4687 -0.3424  0.0679
  896MPD2    C213181   1.001   1.938   1.313  0.1140  0.1886 -0.4788
  896MPD2    C313182   0.974   2.046   1.393 -0.1620  0.3113 -0.2900
  896MPD2    C413183   1.078   2.097   1.476  0.0784  0.4026  0.1049
  896MPD2    C513184   1.203   2.050   1.459 -0.4728  0.1172 -0.7175
  896MPD2     H13185   0.913   1.905   1.258  0.8932 -0.3376 -1.4157
  896MPD2    H113186   1.063   2.181   1.544 -0.6789  2.7238 -2.9263
  896MPD2    H213187   1.335   1.908   1.378 -0.7049 -0.6207  0.6133
  896MPD2    H313188   1.278   2.082   1.530 -3.3096  0.1829  2.2711
  896MPD2     N13189   0.843   2.093   1.400 -0.2791 -0.3472  0.3351
  896MPD2    H513190   0.778   2.042   1.340 -0.0480 -2.7562  2.1562
  896MPD2    N113191   1.163   1.799   1.199  0.0325  0.7635 -0.4797
  896MPD2    H713192   1.260   1.793   1.172 -0.6560 -2.2607 -2.2502
  897MPD2     C13193   1.118   3.898  10.903 -0.2639  0.1670  0.1053
  897MPD2    C113194   1.062   3.986  10.808  0.5598  0.0388  0.3580
  897MPD2    C213195   0.942   4.057  10.831  0.3988  0.9258  0.1566
  897MPD2    C313196   0.857   4.011  10.931  0.2424  0.6051 -1.4089
  897MPD2    C413197   0.911   3.920  11.026  0.3734  0.3117 -0.6216
  897MPD2    C513198   1.034   3.863  11.007 -0.2928 -0.3732  0.5356
  897MPD2     H13199   0.905   4.124  10.756 -0.4013  0.2851 -0.0170
  897MPD2    H113200   0.852   3.873  11.104 -0.3386 -0.3217 -1.5374
  897MPD2    H213201   1.206   3.839  10.882 -0.1565 -0.2456  1.7226
  897MPD2    H313202   1.066   3.796  11.085 -1.1901 -2.1500 -0.6249
  897MPD2     N13203   0.734   4.080  10.943 -0.3547 -0.1947  0.1530
  897MPD2    H513204   0.718   4.158  10.881  0.8488  0.1003  0.2147
  897MPD2    N113205   1.151   4.015  10.701 -0.3293  0.0687 -0.4434
  897MPD2    H713206   1.243   3.973  10.702 -1.5238 -2.5391  0.6988
  898MPD2     C13207   2.869   0.187  17.303 -0.4221  0.4135  0.6009
  898MPD2    C113208   2.960   0.285  17.347  0.6454 -0.2833 -0.0691
  898MPD2    C213209   2.966   0.402  17.278 -0.6859 -0.5032 -0.2678
  898MPD2    C313210   2.872   0.435  17.177  0.5683 -0.2136  0.4484
  898MPD2    C413211   2.779   0.339  17.137 -0.1310 -0.1462 -0.5948
  898MPD2    C513212   2.780   0.216  17.204 -0.8587  0.0959 -0.4623
  898MPD2     H13213   3.039   0.477  17.305  1.3145 -2.0929 -1.2667
  898MPD2    H113214   2.711   0.345  17.053 -0.8202  0.9624  0.0417
  898MPD2    H213215   2.872   0.085  17.341 -0.8799  0.8413  1.7798
  898MPD2    H313216   2.717   0.139  17.160 -0.1640 -0.9693  0.4326
  898MPD2     N13217   2.890   0.559  17.119 -0.0265 -0.2664  0.2793
  898MPD2    H513218   2.966   0.621  17.147  0.3173 -0.5643 -0.0069
  898MPD2    N113219   3.054   0.268  17.452  0.6929  0.4717 -0.7157
  898MPD2    H713220   3.113   0.347  17.474  1.0795 -0.0095 -0.0303
  899MPD2     C13221   4.074   0.575  17.413  0.1193  0.0787  0.0003
  899MPD2    C113222   4.119   0.674  17.488  0.2580  0.1571 -0.2428
  899MPD2    C213223   4.105   0.674  17.626  0.3955 -0.2276  0.0863
  899MPD2    C313224   4.050   0.564  17.686  0.0906  0.2829  0.1233
  899MPD2    C413225   4.015   0.457  17.604 -0.2866  0.2225  0.2465
  899MPD2    C513226   4.021   0.465  17.470 -0.0994 -0.0323 -0.1195
  899MPD2     H13227   4.117   0.766  17.681  0.6650  0.6351 -1.4215
  899MPD2    H113228   3.969   0.367  17.643 -0.3663  0.2042  0.1103
  899MPD2    H213229   4.074   0.577  17.304  2.5864  1.0616  0.0301
  899MPD2    H313230   3.986   0.381  17.411 -1.4979  0.5731 -0.1531
  899MPD2     N13231   4.029   0.552   0.087  0.1914  0.2850 -0.3584
  899MPD2    H513232   3.966   0.477   0.115  1.8743 -0.4908  1.3113
  899MPD2    N113233   4.164   0.797  17.424 -0.4111 -0.1020  0.4688
  899MPD2    H713234   4.150   0.803  17.323 -1.3373 -1.4579  0.5206
  900MPD2     C13235   3.290   2.209  12.031  0.3712 -0.0523 -0.0329
  900MPD2    C113236   3.374   2.124  12.105  0.3184 -0.8893 -0.4622
  900MPD2    C213237   3.324   2.059  12.220 -0.0308  0.4910 -0.6318
  900MPD2    C313238   3.191   2.081  12.260 -0.1780  0.3118  0.0765
  900MPD2    C413239   3.107   2.168  12.186 -0.4125  0.3356 -0.1585
  900MPD2    C513240   3.161   2.233  12.076 -0.0612  0.0869 -0.0965
  900MPD2     H13241   3.383   1.988  12.277 -3.0212 -1.3584  0.1536
  900MPD2    H113242   3.006   2.198  12.210 -0.8001 -0.6700 -0.5044
  900MPD2    H213243   3.320   2.250  11.935  0.0571  2.0112  0.7591
  900MPD2    H313244   3.098   2.300  12.019 -0.5655  0.1532  0.5283
  900MPD2     N13245   3.139   1.986  12.357 -0.5829 -0.0537  0.1986
  900MPD2    H513246   3.201   1.918  12.401 -0.5377 -1.2132 -1.6356
  900MPD2    N113247   3.507   2.120  12.062  0.2291  0.4410 -0.4571
  900MPD2    H713248   3.522   2.130  11.962  1.0805  0.3150 -0.3425
  901MPD2     C13249   4.247   1.760  12.588  0.0436 -0.2405 -0.0054
  901MPD2    C113250   4.146   1.693  12.529  0.0663  0.3237  0.3198
  901MPD2    C213251   4.079   1.759  12.427 -0.1472  0.0294 -0.2187
  901MPD2    C313252   4.120   1.888  12.382 -0.2462  0.0287 -0.3904
  901MPD2    C413253   4.238   1.937  12.435 -0.7198  0.4938  0.3280
  901MPD2    C513254   4.292   1.876  12.544  0.3061 -0.3396  0.2979
  901MPD2     H13255   4.000   1.713  12.370 -2.0443  0.4657  2.0570
  901MPD2    H113256   4.291   2.026  12.405  0.7838  0.8445  4.0032
  901MPD2    H213257   4.307   1.708  12.663 -1.4718  2.0317  2.7807
  901MPD2    H313258   4.383   1.916  12.586 -0.5511 -2.0709  3.7743
  901MPD2     N13259   4.045   1.943  12.274 -0.0459 -0.1390  0.3071
  901MPD2    H513260   3.957   1.899  12.249  0.4865 -1.8196  1.3415
  901MPD2    N113261   4.123   1.557  12.570 -0.0914 -0.0358 -0.3279
  901MPD2    H713262   4.178   1.526  12.650 -0.1794  0.2015 -0.1731
  902MPD2     C13263   3.006   4.644  12.865 -0.4902  0.0663  0.2536
  902MPD2    C113264   3.074   4.730  12.783 -0.3557  0.2748 -0.2911
  902MPD2    C213265   3.177   4.682  12.703  0.5815  0.5603 -1.1288
  902MPD2    C313266   3.230   4.557  12.725  0.5090  0.1751  0.4652
  902MPD2    C413267   3.157   4.474  12.809  0.0972  0.2943  0.2267
  902MPD2    C513268   3.047   4.512  12.870  0.5865  0.4281  0.3817
  902MPD2     H13269   3.209   0.006  12.618  1.3777  2.3794  0.4141
  902MPD2    H113270   3.185   4.371  12.829  0.7776  0.6962  1.3447
  902MPD2    H213271   2.941   4.668  12.949  0.1307  0.1799  0.6993
  902MPD2    H313272   2.995   4.446  12.939 -2.0764  1.9562 -0.1701
  902MPD2     N13273   3.338   4.500  12.645  0.7650 -0.4586  0.2896
  902MPD2    H513274   3.320   4.408  12.606  1.8070 -0.7481  0.4979
  902MPD2    N113275   3.037   0.131  12.759 -0.5620 -0.2799 -0.0071
  902MPD2    H713276   3.092   0.176  12.686 -1.3476  0.9684  0.1631
  903MPD2     C13277   3.255   4.571  11.990 -0.2070  0.2965  0.4050
  903MPD2    C113278   3.258   4.616  12.119 -0.0136  0.7838  0.6924
  903MPD2    C213279   3.140   4.662  12.178 -0.2922 -0.2637  0.9046
  903MPD2    C313280   3.028   4.677  12.106  0.1630 -0.0010 -0.9404
  903MPD2    C413281   3.028   4.626  11.977 -0.5028  0.2238  0.1895
  903MPD2    C513282   3.137   4.558  11.925  0.6108 -0.3578  0.2351
  903MPD2     H13283   3.138   4.700  12.280 -0.6326  0.1448  0.7485
  903MPD2    H113284   2.929   4.616  11.934 -1.5442 -0.2475  2.6980
  903MPD2    H213285   3.336   4.517  11.943 -0.6110 -0.0072  0.0484
  903MPD2    H313286   3.153   4.521  11.824 -0.1634  0.8485 -0.3345
  903MPD2     N13287   2.917   0.012  12.162 -0.1116  0.5595 -0.1418
  903MPD2    H513288   2.928   0.040  12.259  0.0744 -1.9398  0.5709
  903MPD2    N113289   3.376   4.604  12.202 -0.1163  0.2389  0.4094
  903MPD2    H713290   3.366   4.651  12.291 -3.4098 -0.1233  0.2275
  904MPD2     C13291   2.911   3.757  14.259  0.1465  0.3365  0.6873
  904MPD2    C113292   2.886   3.696  14.133  0.4012  0.3700 -0.0620
  904MPD2    C213293   2.979   3.602  14.086 -0.5204  0.5839  0.2430
  904MPD2    C313294   3.096   3.579  14.152  0.0238 -0.5916 -0.3061
  904MPD2    C413295   3.127   3.646  14.270 -0.4201  0.8425 -0.2488
  904MPD2    C513296   3.032   3.730  14.319  0.2402 -0.5981  0.2081
  904MPD2     H13297   2.955   3.557  13.991  1.1593  2.6021 -1.1422
  904MPD2    H113298   3.222   3.643  14.322  0.1813 -0.4165 -1.4086
  904MPD2    H213299   2.840   3.820  14.311 -1.4981 -0.7008 -0.2888
  904MPD2    H313300   3.053   3.796  14.403  0.6375 -0.3358 -0.0927
  904MPD2     N13301   3.190   3.483  14.117 -0.0631 -0.0853  0.2082
  904MPD2    H513302   3.274   3.481  14.174 -0.8772  0.3454  1.4206
  904MPD2    N113303   2.768   3.713  14.061  0.2084  0.4066 -0.1292
  904MPD2    H713304   2.762   3.653  13.980 -0.5552  0.1161  0.1464
  905MPD2     C13305   2.546   3.754  13.311  0.0303 -0.2647  0.5473
  905MPD2    C113306   2.595   3.706  13.426  0.2067  0.6083  1.0743
  905MPD2    C213307   2.712   3.633  13.426  0.5691  0.1455  0.1388
  905MPD2    C313308   2.792   3.629  13.310 -0.7334  0.6243  1.0506
  905MPD2    C413309   2.744   3.690  13.194  0.0162  0.3373  0.4651
  905MPD2    C513310   2.628   3.755  13.200  0.3085  0.7222  0.0552
  905MPD2     H13311   2.753   3.586  13.515 -0.5813  0.5966  0.9125
  905MPD2    H113312   2.790   3.688  13.096  1.3561 -0.4328  1.1190
  905MPD2    H213313   2.456   3.815  13.317  0.6175  0.5190  1.4454
  905MPD2    H313314   2.594   3.803  13.108  0.2174 -1.2774 -0.9417
  905MPD2     N13315   2.913   3.553  13.313 -0.3314 -0.1556  0.3046
  905MPD2    H513316   2.979   3.576  13.239  0.0839 -1.9235  0.1240
  905MPD2    N113317   2.519   3.732  13.538 -0.0330 -0.0051 -0.0161
  905MPD2    H713318   2.424   3.767  13.535  0.3452  0.9396 -1.1198
  906MPD2     C13319   4.634   0.166  10.937  0.5335  0.2328  0.2332
  906MPD2    C113320   4.560   0.076  10.865  0.0927  0.1220  0.2081
  906MPD2    C213321   4.495   4.704  10.935 -0.3965  0.4009 -0.1388
  906MPD2    C313322   4.508   4.686  11.075  0.3407  0.5621  0.5296
  906MPD2    C413323   4.580   0.051  11.140 -0.1837 -0.2759  0.5494
  906MPD2    C513324   4.634   0.153  11.071 -0.1006  0.3830 -0.8553
  906MPD2     H13325   4.439   4.629  10.880 -1.1792  2.5022 -2.1855
  906MPD2    H113326   4.595   0.030  11.246  1.5848 -2.8761 -0.2025
  906MPD2    H213327   4.692   0.244  10.888  1.4520 -0.6263 -0.0494
  906MPD2    H313328   4.695   0.219  11.130  0.2666 -0.4791 -0.2646
  906MPD2     N13329   4.444   4.579  11.148 -0.4252  0.1418 -0.2347
  906MPD2    H513330   4.465   4.567  11.246 -0.2175 -1.9826 -0.5462
  906MPD2    N113331   4.554   0.092  10.720 -0.2832 -0.2494 -0.0948
  906MPD2    H713332   4.627   0.151  10.681  0.4904  0.3878  2.2826
  907MPD2     C13333   3.295   3.644  15.618  0.5313 -0.3080 -0.9627
  907MPD2    C113334   3.308   3.503  15.604 -0.1796  0.1801  0.3725
  907MPD2    C213335   3.429   3.442  15.645 -0.1698  0.2192  0.0332
  907MPD2    C313336   3.531   3.512  15.714 -0.7190  0.3737  0.4383
  907MPD2    C413337   3.512   3.648  15.732  0.2962  0.3769 -0.3758
  907MPD2    C513338   3.393   3.710  15.685  0.3289  0.7184 -0.0773
  907MPD2     H13339   3.448   3.337  15.629  2.7354  0.7228  0.0645
  907MPD2    H113340   3.589   3.708  15.779  1.5688 -0.8551 -0.9055
  907MPD2    H213341   3.211   3.702  15.580 -1.3355 -1.6977  0.9849
  907MPD2    H313342   3.374   3.817  15.688  0.7583  0.8009 -0.2146
  907MPD2     N13343   3.650   3.451  15.760  0.2256 -0.1394 -0.4619
  907MPD2    H513344   3.645   3.350  15.760 -0.6238 -0.0920  2.4318
  907MPD2    N113345   3.225   3.425  15.523 -0.6274 -0.2679  0.1232
  907MPD2    H713346   3.247   3.326  15.520 -1.0969 -0.3574 -0.3108
  908MPD2     C13347   1.032   3.908   9.711  0.3763 -0.5676  0.0748
  908MPD2    C113348   0.991   4.021   9.775  0.1099  0.3937 -0.5412
  908MPD2    C213349   1.045   4.059   9.895  0.3318  0.2032 -0.1215
  908MPD2    C313350   1.134   3.980   9.959 -0.0298  0.0027  0.8257
  908MPD2    C413351   1.183   3.867   9.900  0.1782 -0.3873  0.2418
  908MPD2    C513352   1.129   3.831   9.776  0.3114 -0.0977  0.1747
  908MPD2     H13353   1.014   4.146   9.952 -0.4576  0.4718 -0.9630
  908MPD2    H113354   1.262   3.805   9.942  0.9345  0.7230  0.4569
  908MPD2    H213355   0.996   3.882   9.613 -0.1370  0.2557  0.0439
  908MPD2    H313356   1.169   3.740   9.732  3.5953  1.6545 -0.4826
  908MPD2     N13357   1.188   4.022  10.084 -0.2361 -0.2212 -0.2970
  908MPD2    H513358   1.162   4.111  10.123  1.2423 -0.1090  0.4287
  908MPD2    N113359   0.891   4.092   9.702  0.3995  0.0079 -0.9317
  908MPD2    H713360   0.863   4.043   9.618 -3.5883 -0.9359  0.9804
  909MPD2     C13361   1.480   2.101  11.472 -0.2121 -0.5457  0.0292
  909MPD2    C113362   1.465   2.231  11.429  0.9348 -0.0552  0.0307
  909MPD2    C213363   1.411   2.326  11.517  0.1011 -0.7130 -0.2163
  909MPD2    C313364   1.367   2.288  11.640 -0.1784 -0.2805  0.1672
  909MPD2    C413365   1.384   2.158  11.677 -0.3649  0.2944 -0.2907
  909MPD2    C513366   1.434   2.064  11.593 -0.9421  0.2486  0.2276
  909MPD2     H13367   1.410   2.433  11.500  0.4013 -0.6922 -0.1082
  909MPD2    H113368   1.379   2.127  11.780  3.1206 -1.4034 -0.6688
  909MPD2    H213369   1.535   2.021  11.424 -0.1345  0.0400 -0.8466
  909MPD2    H313370   1.440   1.962  11.630  0.8872 -0.2781 -1.4988
  909MPD2     N13371   1.348   2.397  11.727 -0.8297 -0.0800  0.2098
  909MPD2    H513372   1.355   2.493  11.693  3.2792 -1.2192 -1.9998
  909MPD2    N113373   1.521   2.273  11.309  0.0743 -0.5463 -0.3078
  909MPD2    H713374   1.528   2.373  11.290  0.3377 -0.6306 -0.6577
  910MPD2     C13375   2.639   3.903  16.041  0.3433 -0.2834 -0.1458
  910MPD2    C113376   2.696   3.852  15.925 -0.3324 -0.1192  0.9916
  910MPD2    C213377   2.614   3.829  15.819  0.2309  0.3857  0.4637
  910MPD2    C313378   2.473   3.858  15.822  0.2891  0.1223 -0.4997
  910MPD2    C413379   2.420   3.911  15.940  0.7979  0.2335  0.6920
  910MPD2    C513380   2.506   3.929  16.051 -0.5574  0.1347  0.1388
  910MPD2     H13381   2.661   3.795  15.727 -1.0517  0.2850 -0.1586
  910MPD2    H113382   2.317   3.942  15.953  0.8667  0.6896  0.1169
  910MPD2    H213383   2.702   3.921  16.127 -2.2794 -1.9589  2.1087
  910MPD2    H313384   2.467   3.964  16.145 -0.1849 -0.0927  0.3777
  910MPD2     N13385   2.384   3.861  15.709  0.4063 -0.0928  0.1552
  910MPD2    H513386   2.291   3.897  15.724 -0.0707 -1.2085 -0.1811
  910MPD2    N113387   2.838   3.825  15.909  0.6504  0.4055 -0.6882
  910MPD2    H713388   2.867   3.776  15.825 -0.7191  0.4168 -1.1663
  911MPD2     C13389   0.944   4.048  16.531 -0.3978  0.2382  0.0127
  911MPD2    C113390   1.018   4.160  16.568 -0.4728 -1.4307  0.0330
  911MPD2    C213391   0.936   4.276  16.574 -0.6041  0.4914 -0.3039
  911MPD2    C313392   0.799   4.288  16.545  0.3929  0.0025 -1.3064
  911MPD2    C413393   0.737   4.170  16.503  0.1375  0.5694 -0.0293
  911MPD2    C513394   0.802   4.053  16.505 -0.0120  0.3201  0.0212
  911MPD2     H13395   0.997   4.363  16.593 -0.5697  0.9045 -2.3579
  911MPD2    H113396   0.634   4.169  16.468  0.1261  2.2159 -0.0759
  911MPD2    H213397   0.991   3.953  16.507  4.6461  2.3613  1.5021
  911MPD2    H313398   0.763   3.964  16.457  0.7071 -0.2442  0.4771
  911MPD2     N13399   0.728   4.407  16.544 -0.2116 -0.2169 -0.1833
  911MPD2    H513400   0.630   4.401  16.518 -0.0463  1.7337 -1.3001
  911MPD2    N113401   1.164   4.147  16.583  0.4456  0.1430 -0.4777
  911MPD2    H713402   1.198   4.054  16.563  0.8592  0.3943 -0.9246
  912MPD2     C13403   0.439   4.288  15.997 -0.0884  0.2336 -0.2970
  912MPD2    C113404   0.434   4.298  16.138  0.5289 -0.9365 -0.1147
  912MPD2    C213405   0.390   4.185  16.210 -0.5031  1.3776 -0.2373
  912MPD2    C313406   0.367   4.066  16.143 -0.9401 -0.4387 -0.2701
  912MPD2    C413407   0.382   4.049  16.007  0.2953 -0.0994 -0.0536
  912MPD2    C513408   0.427   4.158  15.940  0.5816 -0.6372 -0.3752
  912MPD2     H13409   0.391   4.180  16.318 -1.0174  2.5088 -0.1755
  912MPD2    H113410   0.369   3.957  15.952 -1.5957  0.1726 -0.0659
  912MPD2    H213411   0.460   4.371  15.931  1.1442 -0.3458 -0.6328
  912MPD2    H313412   0.456   4.145  15.836  0.1659 -0.8788 -0.4606
  912MPD2     N13413   0.336   3.954  16.223  0.3817 -0.1485  0.0228
  912MPD2    H513414   0.347   3.962  16.323 -1.6967  2.4358  0.0685
  912MPD2    N113415   0.474   4.415  16.199  0.1247  0.4935  0.1831
  912MPD2    H713416   0.494   4.493  16.137  0.5110 -1.4447 -2.1218
  913MPD2     C13417   1.109   0.750  11.268  0.1132 -0.1972 -0.2287
  913MPD2    C113418   1.177   0.633  11.238  0.7007 -0.3463  0.0480
  913MPD2    C213419   1.202   0.609  11.103  0.7924 -0.5051 -0.6453
  913MPD2    C313420   1.164   0.698  11.004  0.0696  0.0884  0.0445
  913MPD2    C413421   1.098   0.814  11.038 -0.4910  0.6966 -0.2116
  913MPD2    C513422   1.069   0.835  11.169 -0.2129 -0.2587 -0.0182
  913MPD2     H13423   1.261   0.521  11.076  0.5149 -0.6921 -0.6380
  913MPD2    H113424   1.057   0.890  10.972 -0.5177  0.7948 -0.0821
  913MPD2    H213425   1.083   0.771  11.372  1.0046  2.7612 -0.5977
  913MPD2    H313426   1.008   0.917  11.205  1.3899  1.0918 -0.3626
  913MPD2     N13427   1.191   0.669  10.869  0.1513 -0.2364  0.4353
  913MPD2    H513428   1.176   0.742  10.800  2.1713 -0.1870  0.0212
  913MPD2    N113429   1.229   0.559  11.349  0.2605  0.1683 -0.0200
  913MPD2    H713430   1.211   0.594  11.442 -1.0285 -0.4014 -0.0528
  914MPD2     C13431   3.796   0.829  11.979  0.9775 -0.0936  0.1528
  914MPD2    C113432   3.722   0.932  12.038 -0.4553  0.0365  0.9520
  914MPD2    C213433   3.767   0.992  12.154 -0.9639 -0.1220 -0.6519
  914MPD2    C313434   3.882   0.956  12.207 -0.0345 -0.3382  0.5957
  914MPD2    C413435   3.959   0.859  12.149 -0.2430  0.0088 -0.0504
  914MPD2    C513436   3.917   0.801  12.033 -0.2002  0.1779  0.2661
  914MPD2     H13437   3.710   1.065  12.210 -2.5792 -0.0690 -2.3279
  914MPD2    H113438   4.058   0.827  12.180 -1.0828 -2.3137  0.2826
  914MPD2    H213439   3.765   0.776  11.889 -1.3443  2.4108 -0.5373
  914MPD2    H313440   3.970   0.713  11.997  1.2294  0.5246  1.5690
  914MPD2     N13441   3.919   1.028  12.325 -0.5713  0.8635  0.3203
  914MPD2    H513442   3.865   1.104  12.364 -0.6828  0.8476  0.1970
  914MPD2    N113443   3.595   0.961  11.980  0.4053 -0.3645  0.1107
  914MPD2    H713444   3.573   0.903  11.900  2.4383 -0.5856 -0.3050
  915MPD2     C13445   1.748   0.596  15.830 -0.0546  0.4827 -0.1291
  915MPD2    C113446   1.709   0.716  15.775 -0.2229  0.3410 -0.1671
  915MPD2    C213447   1.723   0.831  15.854 -0.1671  0.2243 -0.2253
  915MPD2    C313448   1.744   0.820  15.986  0.2301  0.5166  0.1940
  915MPD2    C413449   1.787   0.699  16.033 -0.1644 -0.3619  0.3825
  915MPD2    C513450   1.799   0.588  15.952 -0.5432 -0.0091 -0.3510
  915MPD2     H13451   1.699   0.927  15.808 -0.7997 -1.3463 -3.2015
  915MPD2    H113452   1.825   0.678  16.133  2.3395 -2.5597 -1.0254
  915MPD2    H213453   1.763   0.512  15.763  1.4856  0.6345  0.0140
  915MPD2    H313454   1.839   0.497  15.997  2.4061 -0.0812 -3.1562
  915MPD2     N13455   1.706   0.927  16.068 -0.2397 -1.0113 -0.2431
  915MPD2    H513456   1.693   1.020  16.030 -0.0826 -0.9669 -0.1887
  915MPD2    N113457   1.641   0.716  15.654  0.2855  0.4346 -0.4724
  915MPD2    H713458   1.623   0.623  15.617  1.5354  0.6957 -1.7303
  916MPD2     C13459   0.098   4.013  15.589 -0.7331 -0.1945 -0.2751
  916MPD2    C113460   0.118   4.024  15.722 -0.2475  0.7613  0.3035
  916MPD2    C213461   0.154   3.912  15.795  0.3561 -0.1485 -0.2133
  916MPD2    C313462   0.182   3.796  15.731 -0.3561 -0.6021 -0.5368
  916MPD2    C413463   0.168   3.782  15.596 -0.0760  0.3970 -0.1830
  916MPD2    C513464   0.120   3.892  15.527  0.4475 -0.3302  0.2032
  916MPD2     H13465   0.168   3.917  15.903 -0.6130  1.9011 -0.2011
  916MPD2    H113466   0.191   3.696  15.534 -1.4476 -0.8055  0.9608
  916MPD2    H213467   0.072   4.095  15.522 -0.0674  0.7726  0.6403
  916MPD2    H313468   0.088   3.876  15.425  0.0870 -0.1806  0.2911
  916MPD2     N13469   0.235   3.691  15.806  0.5125 -0.0691 -0.7449
  916MPD2    H513470   0.264   3.717  15.899 -1.4880  0.5116 -0.2846
  916MPD2    N113471   0.097   4.150  15.787 -0.8801  0.8443  0.5427
  916MPD2    H713472   0.083   4.229  15.725  1.9432  1.4301  0.6504
  917MPD2     C13473   4.657   1.408  11.385 -0.7317  0.2666 -0.9033
  917MPD2    C113474   4.726   1.457  11.494 -1.0071 -0.0256 -0.1841
  917MPD2    C213475   4.714   1.596  11.511 -0.3057 -0.3952  0.4725
  917MPD2    C313476   4.646   1.681  11.421  0.5879 -0.3142  0.6503
  917MPD2    C413477   4.576   1.623  11.323  0.8821 -0.8146  0.0037
  917MPD2    C513478   4.581   1.483  11.297 -0.3031 -0.1137  0.1793
  917MPD2     H13479   0.014   1.636  11.606 -0.0385  1.0620 -0.2390
  917MPD2    H113480   4.508   1.682  11.263 -0.8259 -2.1223  0.6624
  917MPD2    H213481   4.649   1.301  11.370  0.3965  0.1629 -0.7722
  917MPD2    H313482   4.510   1.442  11.227  0.9688  2.5521 -2.6602
  917MPD2     N13483   4.641   1.824  11.443 -0.0556  0.3658  0.0967
  917MPD2    H513484   4.569   1.878  11.397 -1.3656 -1.4749 -0.0549
  917MPD2    N113485   0.058   1.371  11.586 -0.6547 -0.6038  0.0798
  917MPD2    H713486   0.046   1.271  11.573 -0.2851 -0.5946 -0.3031
  918MPD2     C13487   0.235   1.859  12.376 -0.4208  0.6108  0.1083
  918MPD2    C113488   0.317   1.861  12.269 -0.0720 -0.2964 -0.1762
  918MPD2    C213489   0.330   1.744  12.197  0.3454  0.6304 -0.0628
  918MPD2    C313490   0.266   1.624  12.226 -0.2437  0.2014  0.1774
  918MPD2    C413491   0.178   1.626  12.335 -0.2625 -0.3201 -0.2684
  918MPD2    C513492   0.162   1.745  12.403 -0.6852  0.8242 -0.8850
  918MPD2     H13493   0.405   1.741  12.119 -1.8248 -0.3129 -2.1074
  918MPD2    H113494   0.135   1.529  12.357 -1.8713  0.7006  1.0595
  918MPD2    H213495   0.222   1.942  12.445 -0.0089  2.6680 -2.2468
  918MPD2    H313496   0.106   1.748  12.496 -0.7838  2.3449 -0.9833
  918MPD2     N13497   0.291   1.512  12.140 -0.2308  0.8205 -0.3459
  918MPD2    H513498   0.349   1.537  12.060  0.0947  1.5911  0.1298
  918MPD2    N113499   0.396   1.968  12.227 -0.0900 -0.0138 -0.3991
  918MPD2    H713500   0.471   1.948  12.161  0.9344  0.9259  0.4598
  919MPD2     C13501   0.894   0.246  11.617 -0.6437 -0.4786 -0.1447
  919MPD2    C113502   0.953   0.117  11.622  0.4895 -0.2262  0.1834
  919MPD2    C213503   0.980   0.071  11.495  0.6301  0.0098 -0.1849
  919MPD2    C313504   0.956   0.142  11.379 -0.3437 -0.0192  0.5776
  919MPD2    C413505   0.894   0.268  11.383  0.2583 -0.2561  0.6655
  919MPD2    C513506   0.861   0.314  11.503  0.8791  0.9097  0.7953
  919MPD2     H13507   1.033   4.711  11.485 -0.0372 -0.2579 -1.1282
  919MPD2    H113508   0.887   0.338  11.301  1.9458 -1.9478 -0.9266
  919MPD2    H213509   0.856   0.296  11.705 -1.1123  1.0121 -1.1923
  919MPD2    H313510   0.820   0.412  11.526 -0.5858  0.4763 -0.0098
  919MPD2     N13511   0.980   0.098  11.249  0.4047  0.1841 -0.5683
  919MPD2    H513512   0.980   0.168  11.175  1.6600 -0.8808 -1.5749
  919MPD2    N113513   0.992   0.043  11.734  0.4995 -0.7096 -0.0565
  919MPD2    H713514   1.034   4.687  11.714  0.8770 -0.2937 -1.1968
  920MPD2     C13515   0.796   0.623  10.674  0.0845  0.1653 -0.0068
  920MPD2    C113516   0.770   0.514  10.599 -0.0871  0.1032  0.8830
  920MPD2    C213517   0.812   0.383  10.645 -0.0023  0.4447  0.2398
  920MPD2    C313518   0.879   0.371  10.769  0.0180 -0.8617  0.1741
  920MPD2    C413519   0.897   0.487  10.840 -0.2620 -0.9583 -0.3705
  920MPD2    C513520   0.840   0.602  10.802  0.6764 -0.7306 -0.0542
  920MPD2     H13521   0.801   0.301  10.575 -2.0059  0.6526  0.3150
  920MPD2    H113522   0.954   0.479  10.933  1.8498  3.1373 -1.3215
  920MPD2    H213523   0.763   0.721  10.643 -0.6552 -0.0518  0.1047
  920MPD2    H313524   0.850   0.695  10.857 -2.6797  0.3021 -1.1482
  920MPD2     N13525   0.927   0.258  10.823 -0.1836  0.7631 -0.5080
  920MPD2    H513526   0.965   0.260  10.917 -1.5591  2.4191  0.0037
  920MPD2    N113527   0.703   0.514  10.472  0.1603  0.2851 -0.2403
  920MPD2    H713528   0.705   0.432  10.412 -0.4476  0.4799 -0.5253
  921MPD2     C13529   2.059   4.348  17.110 -0.5692  0.1277  0.5651
  921MPD2    C113530   2.033   4.406  16.995  0.1218  0.2039 -0.0768
  921MPD2    C213531   1.913   4.368  16.929 -0.0412 -0.0899  0.1359
  921MPD2    C313532   1.834   4.268  16.973  0.2632 -0.0618  0.1740
  921MPD2    C413533   1.863   4.214  17.098 -0.1644  0.2268 -0.1953
  921MPD2    C513534   1.971   4.259  17.168  0.3299  0.3562 -0.7351
  921MPD2     H13535   1.894   4.410  16.831 -1.3174 -0.2761  0.3059
  921MPD2    H113536   1.794   4.148  17.149  0.4308 -1.1168 -1.1203
  921MPD2    H213537   2.148   4.372  17.167 -0.3045 -1.6274  0.8866
  921MPD2    H313538   1.993   4.226  17.269 -1.6176  2.1440  0.2529
  921MPD2     N13539   1.723   4.216  16.900  0.0479 -0.6282 -0.6978
  921MPD2    H513540   1.658   4.152  16.945  0.1514 -0.1886  0.0679
  921MPD2    N113541   2.131   4.499  16.946  0.2908 -0.1843 -0.7360
  921MPD2    H713542   2.223   4.497  16.990 -1.1666  1.6997  2.4283
  922MPD2     C13543   2.602   2.284  16.962 -0.8669  0.6859  0.6341
  922MPD2    C113544   2.543   2.263  17.090 -0.7893  0.1635  0.1329
  922MPD2    C213545   2.430   2.184  17.100 -0.0280  0.2896  0.7297
  922MPD2    C313546   2.367   2.135  16.987 -0.6214 -0.2918 -0.5418
  922MPD2    C413547   2.430   2.150  16.864  0.2357  0.7531  0.1049
  922MPD2    C513548   2.546   2.219  16.856 -0.1556  0.1055 -0.1425
  922MPD2     H13549   2.386   2.172  17.199 -1.1869  0.2929  0.2167
  922MPD2    H113550   2.389   2.100  16.777  2.2753 -0.0644 -0.3737
  922MPD2    H213551   2.701   2.326  16.948 -0.9977  0.3696 -1.3262
  922MPD2    H313552   2.601   2.224  16.762 -0.2490  2.2576 -0.0829
  922MPD2     N13553   2.253   2.053  17.007  0.1811  0.0868  0.1700
  922MPD2    H513554   2.215   2.053  17.101 -1.7907  1.8605 -0.6475
  922MPD2    N113555   2.599   2.304  17.214  0.2260 -0.3964  0.0493
  922MPD2    H713556   2.561   2.259  17.297 -4.4797  2.0938 -0.7519
  923MPD2     C13557   3.285   4.621   8.898  0.1235  0.2113  0.3008
  923MPD2    C113558   3.296   4.681   9.020 -0.3517 -0.4976  0.1488
  923MPD2    C213559   3.417   4.662   9.084  0.4121  0.0201  0.4796
  923MPD2    C313560   3.524   4.595   9.024  0.1524 -0.0913 -0.9879
  923MPD2    C413561   3.505   4.531   8.904  0.2239  0.1855  0.3913
  923MPD2    C513562   3.381   4.540   8.849 -0.0409 -0.3908 -0.0857
  923MPD2     H13563   3.419   4.698   9.186  2.7050  2.1029 -0.2873
  923MPD2    H113564   3.578   4.478   8.844  1.1903  0.9075  0.9150
  923MPD2    H213565   3.192   4.636   8.844  0.2970  0.6993  0.1417
  923MPD2    H313566   3.356   4.480   8.763  0.1618 -0.3773 -0.1552
  923MPD2     N13567   3.650   4.587   9.081 -0.0909  0.1781  0.2454
  923MPD2    H513568   3.718   4.522   9.043 -0.8235  1.2643 -2.8828
  923MPD2    N113569   3.190   0.024   9.067 -0.0662  0.3317  0.0319
  923MPD2    H713570   3.110   0.039   9.007  0.3530  1.1732 -0.3125
  924MPD2     C13571   3.713   2.717  15.778  0.0312  0.2327 -0.0414
  924MPD2    C113572   3.773   2.749  15.894 -0.0784  0.1644 -0.2825
  924MPD2    C213573   3.857   2.860  15.902 -0.5325  0.3546 -0.1738
  924MPD2    C313574   3.874   2.944  15.789 -0.3426  0.5473  0.5513
  924MPD2    C413575   3.803   2.916  15.679 -0.8233 -0.5486  0.5062
  924MPD2    C513576   3.722   2.807  15.677  0.4065  0.8252  0.1534
  924MPD2     H13577   3.905   2.874  15.998 -0.0835 -0.3443 -0.3034
  924MPD2    H113578   3.811   2.983  15.594  1.9144 -0.3479  0.9151
  924MPD2    H213579   3.647   2.631  15.768 -0.8223  0.8462  0.3567
  924MPD2    H313580   3.659   2.798  15.589  1.2335  0.1163 -0.3578
  924MPD2     N13581   3.946   3.066  15.796  0.1841 -0.0263  0.0250
  924MPD2    H513582   3.952   3.122  15.711  0.2836 -1.2009 -0.7377
  924MPD2    N113583   3.718   2.683  16.006  0.0931  0.0926 -0.0777
  924MPD2    H713584   3.654   2.609  15.979  1.3953 -0.8982 -0.4748
  925MPD2     C13585   2.398   0.467  14.732  0.7689 -0.5676  0.2244
  925MPD2    C113586   2.287   0.440  14.657 -0.9776  0.5004 -0.1121
  925MPD2    C213587   2.171   0.426  14.722  0.0059 -0.4439 -0.0704
  925MPD2    C313588   2.165   0.436  14.864  0.6049 -0.4160 -0.3975
  925MPD2    C413589   2.282   0.461  14.939  0.3929 -0.0282  0.0868
  925MPD2    C513590   2.397   0.471  14.872 -0.2901  0.1760 -0.1127
  925MPD2     H13591   2.080   0.409  14.666 -0.6627 -0.9602  1.1895
  925MPD2    H113592   2.285   0.453  15.047 -0.5725  0.4502  0.1509
  925MPD2    H213593   2.498   0.486  14.694  0.7710  1.3122  1.1636
  925MPD2    H313594   2.489   0.479  14.928  1.7686  2.3947 -3.7721
  925MPD2     N13595   2.054   0.409  14.939 -0.2210  0.1810  0.3155
  925MPD2    H513596   2.071   0.408  15.039 -0.6274 -1.7945  0.3665
  925MPD2    N113597   2.288   0.420  14.513  0.0410 -0.3786 -0.1621
  925MPD2    H713598   2.202   0.410  14.461  0.9153 -1.9363 -1.3375
  926MPD2     C13599   1.600   3.241  13.372 -0.2816 -0.5325  0.2091
  926MPD2    C113600   1.487   3.307  13.333 -0.6982  0.2282 -0.6465
  926MPD2    C213601   1.482   3.395  13.221 -0.7817 -0.3644 -0.0398
  926MPD2    C313602   1.601   3.421  13.151  0.7149  0.0809 -0.7718
  926MPD2    C413603   1.708   3.350  13.185 -0.0064 -0.6942  0.3632
  926MPD2    C513604   1.713   3.267  13.290  0.0353  0.2784 -0.6148
  926MPD2     H13605   1.387   3.443  13.197 -0.8071  0.3015  1.3773
  926MPD2    H113606   1.805   3.368  13.140 -0.1023  0.1662  0.4924
  926MPD2    H213607   1.602   3.172  13.455 -1.4758  0.3944  1.0110
  926MPD2    H313608   1.801   3.209  13.316  0.3120  0.4128 -1.2643
  926MPD2     N13609   1.621   3.519  13.051 -0.1301 -0.5039  0.3073
  926MPD2    H513610   1.716   3.535  13.018  0.4220 -0.8483  1.7206
  926MPD2    N113611   1.361   3.288  13.401 -0.5356  0.6904  0.2950
  926MPD2    H713612   1.275   3.322  13.359 -1.1350  0.7957  1.6272
  927MPD2     C13613   1.375   1.196   0.046 -0.6921  0.1122  0.1082
  927MPD2    C113614   1.372   1.067   0.019 -0.2186  0.0583  0.4112
  927MPD2    C213615   1.420   1.024  17.638 -0.0518 -0.0685  0.9646
  927MPD2    C313616   1.461   1.105  17.539  0.4543 -0.3764  0.1741
  927MPD2    C413617   1.468   1.240  17.567 -0.6029 -0.4329 -0.1053
  927MPD2    C513618   1.433   1.284  17.692  0.7202 -0.2398  0.4846
  927MPD2     H13619   1.399   0.921  17.609  1.1904  0.1530 -0.6800
  927MPD2    H113620   1.486   1.317  17.493  0.9807 -2.0598 -1.4271
  927MPD2    H213621   1.346   1.236   0.142 -0.2649  0.5878  0.0372
  927MPD2    H313622   1.444   1.388  17.722  1.0833  0.7284 -3.0142
  927MPD2     N13623   1.492   1.046  17.413 -0.5513 -0.3483  0.2378
  927MPD2    H513624   1.502   0.946  17.401  3.3479  0.0252  0.1652
  927MPD2    N113625   1.316   0.977   0.118  0.0476 -0.4299  0.3741
  927MPD2    H713626   1.289   1.027   0.202 -1.0763 -0.6549  0.1459
  928MPD2     C13627   3.222   4.252   0.621  0.6116  0.0830  0.6677
  928MPD2    C113628   3.357   4.283   0.641  0.0619 -0.5536  0.3838
  928MPD2    C213629   3.430   4.351   0.545 -0.5492 -0.6938  0.6089
  928MPD2    C313630   3.366   4.390   0.426 -0.2235 -0.1254 -0.3073
  928MPD2    C413631   3.229   4.365   0.413  0.7072 -0.2604  0.3756
  928MPD2    C513632   3.161   4.304   0.512 -0.0808 -0.4446  0.0746
  928MPD2     H13633   3.528   4.392   0.569 -0.8076  0.1050  0.3077
  928MPD2    H113634   3.178   4.400   0.324 -0.4449  1.0369  1.5329
  928MPD2    H213635   3.158   4.201   0.691  2.7368  0.7511  3.0839
  928MPD2    H313636   3.054   4.288   0.502  0.1091  0.9814 -4.2704
  928MPD2     N13637   3.435   4.444   0.323 -0.8593 -0.5558 -0.0357
  928MPD2    H513638   3.383   4.445   0.235 -0.6263  0.7096 -0.1621
  928MPD2    N113639   3.413   4.240   0.766 -0.3657 -0.5144  0.3353
  928MPD2    H713640   3.347   4.201   0.832  1.2265 -0.3301  2.0302
  929MPD2     C13641   3.985   4.642  10.461 -0.2364 -0.1227  0.6315
  929MPD2    C113642   3.880   4.546  10.460 -0.0891  0.2106  0.0981
  929MPD2    C213643   3.784   4.544  10.361  0.0518 -0.3101 -0.2805
  929MPD2    C313644   3.791   4.651  10.266  0.1141 -0.5062 -0.1585
  929MPD2    C413645   3.898   0.009  10.276  0.3646 -0.3348  0.0828
  929MPD2    C513646   3.999   4.726  10.359 -0.0029 -0.1538  0.1390
  929MPD2     H13647   3.704   4.472  10.368  1.0374 -1.3894 -0.0377
  929MPD2    H113648   3.905   0.087  10.202  1.6859 -0.2003  0.3565
  929MPD2    H213649   4.057   4.643  10.542  2.7524 -0.0502 -2.0122
  929MPD2    H313650   4.076   0.067  10.351 -0.8676  0.7712  0.3843
  929MPD2     N13651   3.694   4.669  10.159 -0.3214 -0.5151  0.2043
  929MPD2    H513652   3.703   0.030  10.124  0.3632  0.6347  3.5572
  929MPD2    N113653   3.883   4.458  10.574 -0.0363  0.2349  0.4997
  929MPD2    H713654   3.976   4.461  10.614 -0.8152  0.5680  2.2834
  930MPD2     C13655   0.746   1.436  14.267  0.6668 -0.2241  1.1628
  930MPD2    C113656   0.675   1.490  14.166 -0.1159 -0.5998  0.9521
  930MPD2    C213657   0.569   1.419  14.119  1.0275  0.3599 -0.5074
  930MPD2    C313658   0.543   1.292  14.164  0.1430  0.7874 -0.3147
  930MPD2    C413659   0.632   1.232  14.251  0.4567 -0.0504 -0.5084
  930MPD2    C513660   0.724   1.307  14.318 -0.0092 -0.6214  0.5926
  930MPD2     H13661   0.513   1.461  14.037  0.4799  0.0468 -0.2980
  930MPD2    H113662   0.616   1.127  14.271 -1.1319  0.2176 -0.4098
  930MPD2    H213663   0.812   1.492  14.332  0.3457  1.6344 -0.1205
  930MPD2    H313664   0.779   1.270  14.404 -1.2859  0.4443  1.8536
  930MPD2     N13665   0.447   1.209  14.092 -0.2875  0.1715  0.0569
  930MPD2    H513666   0.451   1.108  14.102  0.4229  0.0386 -1.5763
  930MPD2    N113667   0.713   1.613  14.117  0.1850 -0.3803  0.2069
  930MPD2    H713668   0.792   1.656  14.164 -0.1925  0.9616 -0.3933
  931MPD2     C13669   1.431   0.304   0.432 -0.1004 -0.3473  0.3638
  931MPD2    C113670   1.294   0.317   0.429  0.2273 -0.0742  1.0880
  931MPD2    C213671   1.212   0.217   0.480  0.4823 -0.2664  0.3290
  931MPD2    C313672   1.270   0.101   0.520 -0.3165 -0.2045  0.0679
  931MPD2    C413673   1.412   0.089   0.528 -0.1423 -0.2255 -0.1452
  931MPD2    C513674   1.490   0.195   0.486 -0.4225  0.1129  0.9598
  931MPD2     H13675   1.106   0.239   0.485  0.4556  0.0010 -1.5487
  931MPD2    H113676   1.467   0.008   0.575  0.4760  0.6720  0.6875
  931MPD2    H213677   1.497   0.380   0.393 -2.0951 -1.2690 -4.7436
  931MPD2    H313678   1.597   0.179   0.484 -0.1930  1.7751  0.2069
  931MPD2     N13679   1.202   4.734   0.592 -0.1015 -0.2985 -0.2223
  931MPD2    H513680   1.267   4.669   0.636  1.5577  0.8379 -0.9809
  931MPD2    N113681   1.248   0.438   0.382 -0.6514 -0.3302 -0.1883
  931MPD2    H713682   1.318   0.501   0.344 -1.9794  1.8290  0.9553
  932MPD2     C13683   2.503   4.690  11.367  0.2883  0.3597 -0.4652
  932MPD2    C113684   2.606   4.728  11.440  0.1191 -0.5928 -0.1169
  932MPD2    C213685   2.670   4.633  11.509  0.3867 -0.0824 -0.8018
  932MPD2    C313686   2.632   4.500  11.505  0.0331  0.2598  0.2401
  932MPD2    C413687   2.517   4.475  11.438 -0.7381  0.0498  0.4630
  932MPD2    C513688   2.452   4.567  11.362 -0.2885 -0.7514 -0.5682
  932MPD2     H13689   2.757   4.668  11.562  1.1641 -2.5813 -0.4296
  932MPD2    H113690   2.470   4.378  11.429 -1.0112  0.3115 -0.9774
  932MPD2    H213691   2.454   0.030  11.305 -0.6689  0.1681  0.0527
  932MPD2    H313692   2.356   4.543  11.317 -0.7062 -0.8455  0.3782
  932MPD2     N13693   2.703   4.389  11.559  0.0970 -0.4958  0.4970
  932MPD2    H513694   2.669   4.294  11.547 -1.3553  0.3466 -2.1497
  932MPD2    N113695   2.668   0.120  11.438 -0.2402 -0.3671  0.0734
  932MPD2    H713696   2.739   0.134  11.509  1.3379 -1.2190 -1.3269
  933MPD2     C13697   3.369   3.821   1.454 -0.6109 -0.2806  0.1431
  933MPD2    C113698   3.341   3.947   1.410  0.7036  0.5207  0.0141
  933MPD2    C213699   3.220   4.004   1.443 -0.4676 -0.1982  0.4343
  933MPD2    C313700   3.139   3.939   1.527  0.5915 -0.2382 -0.5201
  933MPD2    C413701   3.176   3.818   1.576  0.2936 -0.1437 -0.5291
  933MPD2    C513702   3.285   3.752   1.533 -0.0591 -0.5466  0.1838
  933MPD2     H13703   3.203   4.107   1.415 -0.9110 -0.3377  0.1930
  933MPD2    H113704   3.124   3.761   1.651  2.4103  3.4815  3.6758
  933MPD2    H213705   3.461   3.768   1.429 -0.8619 -0.5626 -0.1750
  933MPD2    H313706   3.309   3.653   1.571  1.3576  0.0878  0.9282
  933MPD2     N13707   3.007   3.997   1.552  0.3996  0.6721 -0.3843
  933MPD2    H513708   2.981   4.083   1.505 -0.0052  0.1748 -1.0686
  933MPD2    N113709   3.443   4.013   1.329 -0.9213  0.1020 -0.1043
  933MPD2    H713710   3.522   3.960   1.296  1.2552  2.1918  1.7601
  934MPD2     C13711   0.481   2.167   1.825 -0.2713  0.6021  0.8849
  934MPD2    C113712   0.550   2.053   1.782 -0.3369  0.0982  0.1284
  934MPD2    C213713   0.471   1.960   1.721  0.1281 -0.2866  0.6317
  934MPD2    C313714   0.330   1.969   1.705 -0.0760  0.4162 -0.1348
  934MPD2    C413715   0.271   2.075   1.763 -0.2427 -0.4570 -0.3344
  934MPD2    C513716   0.347   2.167   1.833  0.0092  0.9233 -0.1707
  934MPD2     H13717   0.516   1.864   1.699 -0.4295 -0.5547  0.6459
  934MPD2    H113718   0.164   2.092   1.761 -0.3234 -0.6432  2.4091
  934MPD2    H213719   0.536   2.252   1.866  1.4400 -0.4568  0.7776
  934MPD2    H313720   0.288   2.250   1.871 -0.7249  0.9324 -1.3494
  934MPD2     N13721   0.249   1.881   1.630 -0.3001  0.3276 -0.9432
  934MPD2    H513722   0.156   1.920   1.615  0.0243  1.1270 -0.8542
  934MPD2    N113723   0.692   2.033   1.795  0.3883  0.0949  0.4201
  934MPD2    H713724   0.728   1.947   1.755 -1.8401 -0.2690 -0.7826
  935MPD2     C13725   0.507   0.989   1.194 -0.0191 -0.6034 -0.4881
  935MPD2    C113726   0.400   1.033   1.116 -0.1370 -0.2890 -0.4883
  935MPD2    C213727   0.329   1.144   1.158  0.2973 -0.1449  0.0088
  935MPD2    C313728   0.371   1.219   1.268  0.0547  0.4092 -0.3011
  935MPD2    C413729   0.482   1.185   1.333  0.1472 -0.2789 -0.7614
  935MPD2    C513730   0.545   1.068   1.298  0.0333 -0.3422 -0.9796
  935MPD2     H13731   0.251   1.183   1.093 -0.9792 -1.1585  0.9385
  935MPD2    H113732   0.518   1.241   1.419 -0.2870  1.5800 -1.8023
  935MPD2    H213733   0.561   0.897   1.177  0.5431 -0.5162  0.8310
  935MPD2    H313734   0.622   1.022   1.359  0.4926  2.5083  0.5945
  935MPD2     N13735   0.314   1.339   1.321  0.0056 -0.0191 -0.1547
  935MPD2    H513736   0.365   1.384   1.397 -2.3731  0.2076  1.2921
  935MPD2    N113737   0.351   0.963   1.003 -0.0518  0.7084  1.0350
  935MPD2    H713738   0.274   0.997   0.946 -0.8087 -0.2948  1.4682
  936MPD2     C13739   3.545   3.308  12.296 -0.3149  0.3221  0.4456
  936MPD2    C113740   3.594   3.219  12.388  0.5191 -0.0724 -0.3839
  936MPD2    C213741   3.725   3.232  12.429 -0.2019 -0.3773 -0.5172
  936MPD2    C313742   3.807   3.339  12.376 -0.2630 -0.4294  0.2775
  936MPD2    C413743   3.747   3.431  12.286 -0.0114  0.3063 -0.2715
  936MPD2    C513744   3.616   3.413  12.250  0.3463  0.4748  0.1995
  936MPD2     H13745   3.761   3.149  12.488 -0.9063  0.7068  1.4430
  936MPD2    H113746   3.790   3.523  12.249 -1.2040  1.0295  0.1200
  936MPD2    H213747   3.444   3.297  12.258 -0.2598 -0.8608  0.6390
  936MPD2    H313748   3.574   3.478  12.175  0.0540  3.0523  2.6380
  936MPD2     N13749   3.937   3.367  12.416 -0.1323  0.2011 -0.3386
  936MPD2    H513750   3.982   3.456  12.395  3.7348 -2.3250 -2.7400
  936MPD2    N113751   3.513   3.115  12.444 -0.3234 -0.5812  0.6465
  936MPD2    H713752   3.570   3.059  12.507 -0.2439 -0.4455  0.6961
  937MPD2     C13753   1.487   4.319  11.842 -0.6318  0.9815  0.4727
  937MPD2    C113754   1.464   4.449  11.831  0.1478 -0.6945  0.4469
  937MPD2    C213755   1.527   4.515  11.732  0.2735  0.2552  0.5416
  937MPD2    C313756   1.611   4.455  11.649 -0.5474  0.1554 -0.5539
  937MPD2    C413757   1.651   4.319  11.668 -0.2784  0.9529 -0.2438
  937MPD2    C513758   1.582   4.257  11.761 -0.0653 -0.1941 -0.5272
  937MPD2     H13759   1.508   4.621  11.717 -2.0068 -0.4232 -1.3108
  937MPD2    H113760   1.724   4.257  11.616 -0.5027 -0.4246  1.0947
  937MPD2    H213761   1.434   4.251  11.907 -1.8186  1.1622 -0.3162
  937MPD2    H313762   1.596   4.151  11.777 -0.4463 -0.5336 -2.4565
  937MPD2     N13763   1.652   4.531  11.536 -0.6769  0.0550  0.0756
  937MPD2    H513764   1.595   4.613  11.521  1.2285  1.5691  1.0786
  937MPD2    N113765   1.354   4.518  11.890 -0.3053  0.4182  0.0443
  937MPD2    H713766   1.325   4.604  11.846  1.5395 -0.2840 -2.5183
  938MPD2     C13767   4.117   1.686   0.531 -0.0118 -0.0791 -0.1483
  938MPD2    C113768   4.160   1.676   0.663 -0.7618 -0.3375 -0.5316
  938MPD2    C213769   4.147   1.558   0.726 -0.2077 -0.2175 -0.5639
  938MPD2    C313770   4.095   1.449   0.664 -0.3697  0.0911 -0.8124
  938MPD2    C413771   4.056   1.457   0.538  0.3213  0.7135  0.7214
  938MPD2    C513772   4.066   1.577   0.471 -0.5976 -0.3088  0.8404
  938MPD2     H13773   4.184   1.546   0.828 -1.2189 -1.3900 -0.3354
  938MPD2    H113774   4.006   1.375   0.488  0.8374  0.0453  1.3045
  938MPD2    H213775   4.117   1.785   0.485 -0.2649  0.7643  1.6540
  938MPD2    H313776   4.032   1.596   0.370  2.6347 -0.8356 -0.3379
  938MPD2     N13777   4.065   1.327   0.724 -0.4956  0.0739 -0.5063
  938MPD2    H513778   4.003   1.269   0.668 -3.0583  0.7449  1.6472
  938MPD2    N113779   4.197   1.787   0.744  0.8273 -0.1004 -0.4248
  938MPD2    H713780   4.237   1.757   0.832  0.9075  1.8271  0.1930
  939MPD2     C13781   0.787   2.236   0.771 -0.3085  0.2743  0.0385
  939MPD2    C113782   0.699   2.337   0.809  0.5691  0.3734  0.0814
  939MPD2    C213783   0.580   2.342   0.740 -0.0675  0.6125  0.4791
  939MPD2    C313784   0.539   2.248   0.651  0.2817  0.7738  0.1004
  939MPD2    C413785   0.626   2.144   0.625 -0.1582 -0.4321  0.1166
  939MPD2    C513786   0.744   2.133   0.687  0.6860  0.1073 -0.3906
  939MPD2     H13787   0.509   2.423   0.756  1.2808  1.8822  0.1101
  939MPD2    H113788   0.601   2.062   0.558  1.3983  0.3832 -1.4430
  939MPD2    H213789   0.881   2.217   0.821 -0.6690  1.5693  1.2065
  939MPD2    H313790   0.809   2.047   0.674 -0.3984 -0.8701  0.6653
  939MPD2     N13791   0.416   2.256   0.579 -0.4668 -0.0095  0.8414
  939MPD2    H513792   0.362   2.342   0.588 -0.8272 -0.1078 -0.4072
  939MPD2    N113793   0.742   2.432   0.910 -0.1641 -0.4087 -0.4813
  939MPD2    H713794   0.826   2.418   0.964  0.1159  1.0733 -0.5321
  940MPD2     C13795   4.171   2.894  13.528 -0.3114 -0.7329  1.6458
  940MPD2    C113796   4.065   2.810  13.491 -0.3313  0.8797  0.5613
  940MPD2    C213797   4.027   2.814  13.360  0.7521  0.1553 -0.3210
  940MPD2    C313798   4.086   2.893  13.264  1.1106 -0.2387 -0.3284
  940MPD2    C413799   4.195   2.964  13.297  0.3742  0.4910  0.4009
  940MPD2    C513800   4.226   2.971  13.431 -0.0722  0.4549  0.8026
  940MPD2     H13801   3.938   2.764  13.326 -0.9406  1.6505  1.9307
  940MPD2    H113802   4.260   3.021  13.232  0.7474  1.2744  1.4536
  940MPD2    H213803   4.210   2.906  13.628  1.9540 -0.2058  0.6835
  940MPD2    H313804   4.316   3.024  13.460  0.6868 -0.8510  0.8106
  940MPD2     N13805   4.052   2.906  13.130 -0.0233  0.0719 -0.0315
  940MPD2    H513806   4.104   2.970  13.071 -0.7583  1.8139  1.2222
  940MPD2    N113807   4.000   2.710  13.570 -0.3800 -0.5613 -0.0379
  940MPD2    H713808   3.917   2.664  13.534 -1.2465  0.1302  1.1002
  941MPD2     C13809   3.584   2.428   9.658  0.5014  0.0640  0.0342
  941MPD2    C113810   3.614   2.492   9.778  0.1415 -0.5798  0.0413
  941MPD2    C213811   3.508   2.537   9.861 -0.0662 -0.5684  0.2905
  941MPD2    C313812   3.377   2.514   9.826 -0.4880  0.7508  0.2217
  941MPD2    C413813   3.348   2.434   9.719 -0.4845 -0.2147 -0.3994
  941MPD2    C513814   3.447   2.395   9.636 -0.5969  0.1313  0.6244
  941MPD2     H13815   3.541   2.607   9.937 -0.3610  0.9163 -0.9557
  941MPD2    H113816   3.244   2.428   9.687 -1.1346 -1.5714  1.9950
  941MPD2    H213817   3.659   2.392   9.588 -0.6430 -0.6808 -0.8361
  941MPD2    H313818   3.416   2.343   9.546 -0.1340  0.1327  0.4657
  941MPD2     N13819   3.274   2.542   9.913  0.6403 -0.2576 -0.5602
  941MPD2    H513820   3.183   2.514   9.878 -0.1209  0.7665  0.6443
  941MPD2    N113821   3.748   2.529   9.817  0.5128 -0.5885  0.2023
  941MPD2    H713822   3.749   2.568   9.911  0.2846 -0.1570  0.0255
  942MPD2     C13823   3.444   3.631   8.733 -0.4091 -0.0271 -0.3419
  942MPD2    C113824   3.549   3.715   8.769  0.6597  0.7417  0.2292
  942MPD2    C213825   3.520   3.838   8.821 -0.0767 -0.3332 -0.1855
  942MPD2    C313826   3.385   3.882   8.836  0.1579 -0.1015 -0.3306
  942MPD2    C413827   3.280   3.797   8.787 -0.0389  0.6697 -0.8496
  942MPD2    C513828   3.316   3.672   8.740  0.2735  0.1108  0.4638
  942MPD2     H13829   3.604   3.900   8.852 -0.3450  0.2925 -0.7006
  942MPD2    H113830   3.174   3.821   8.790  0.1978  1.5443  0.1522
  942MPD2    H213831   3.466   3.528   8.704 -1.4514  0.1556 -1.7905
  942MPD2    H313832   3.245   3.603   8.696 -0.0510  0.9113 -0.2452
  942MPD2     N13833   3.342   3.999   8.900 -0.9399  0.2541  0.3650
  942MPD2    H513834   3.243   4.019   8.902 -1.3108 -1.4591 -0.3953
  942MPD2    N113835   3.689   3.688   8.751  0.0662 -0.0526  0.3370
  942MPD2    H713836   3.760   3.750   8.789  1.0349 -0.3074 -1.0776
  943MPD2     C13837   2.099   1.910   9.977  0.0821  0.0331  0.1703
  943MPD2    C113838   1.985   1.853  10.030  0.5184 -0.3538  0.1854
  943MPD2    C213839   1.893   1.926  10.101  0.4506  1.1569 -0.4453
  943MPD2    C313840   1.913   2.064  10.125  0.2375  0.4965  0.3036
  943MPD2    C413841   2.031   2.116  10.081  0.2319 -1.0473 -0.4136
  943MPD2    C513842   2.121   2.035  10.015  0.2882 -0.5675 -1.0225
  943MPD2     H13843   1.804   1.874  10.133  2.3957 -0.9666  1.4734
  943MPD2    H113844   2.059   2.219  10.099 -3.1556 -0.1038 -0.5965
  943MPD2    H213845   2.166   1.851   9.916 -2.1943 -0.7759 -1.5254
  943MPD2    H313846   2.223   2.067   9.995  0.8215 -1.9153 -0.4529
  943MPD2     N13847   1.812   2.141  10.189 -0.0074  0.2684  0.3726
  943MPD2    H513848   1.840   2.232  10.225 -0.4797  0.8204 -0.6632
  943MPD2    N113849   1.970   1.717  10.012  0.0549 -0.0161  1.1609
  943MPD2    H713850   2.038   1.673   9.950 -0.4866 -0.9804  1.2395
  944MPD2     C13851   1.546   1.335  11.235 -0.6140 -0.8630  0.4862
  944MPD2    C113852   1.543   1.412  11.121  0.0803 -0.3490  0.4537
  944MPD2    C213853   1.461   1.526  11.115  0.2868  0.6613 -0.8753
  944MPD2    C313854   1.390   1.560  11.229  0.1198  0.2588  0.0721
  944MPD2    C413855   1.403   1.472  11.337 -0.0585 -0.0720  0.4799
  944MPD2    C513856   1.474   1.360  11.342  0.5720 -0.3453 -0.0672
  944MPD2     H13857   1.468   1.597  11.032  0.7154  2.3469  0.6002
  944MPD2    H113858   1.349   1.488  11.430  0.8367  1.5273  0.7177
  944MPD2    H213859   1.597   1.239  11.242  0.3657 -0.6571 -3.6751
  944MPD2    H313860   1.465   1.305  11.435  0.2475  0.0213  0.1184
  944MPD2     N13861   1.301   1.673  11.230  0.3242 -0.3244  0.4664
  944MPD2    H513862   1.287   1.731  11.147  1.6021 -0.2985  0.2647
  944MPD2    N113863   1.629   1.367  11.018 -0.0777  0.2414  0.2140
  944MPD2    H713864   1.685   1.284  11.028  0.5409  0.6059 -0.2351
    1TMC1    C113865   4.515   3.616  15.612  1.1317  0.2756  0.3703
    1TMC1    C213866   4.461   3.488  15.629 -0.2350 -0.5101 -0.2496
    1TMC1    C313867   4.432   3.452  15.758 -0.5686 -0.1626 -0.3892
    1TMC1    C413868   4.545   3.701  15.716  0.1856  0.2667 -0.7480
    1TMC1    C513869   4.521   3.648  15.845 -0.1613  0.4141 -0.2102
    1TMC1    C613870   4.466   3.524  15.867  0.2372  0.3754  0.0709
    1TMC1     C13871   4.517   3.663  15.476  0.1188 -0.2360  0.1407
    1TMC1     O13872   4.480   3.588  15.391 -0.6933 -0.1920 -0.3490
    1TMC1     H13873   4.439   3.428  15.542  1.5826  0.5786 -1.4634
    1TMC1    H113874   4.602   3.793  15.723  0.5350  0.0099 -0.2653
    1TMC1    H213875   4.446   3.495  15.970 -2.5158  0.7765 -0.3469
    1TMC1    C713876   4.574   3.705  15.968 -0.2024  0.4530 -0.5046
    1TMC1    C813877   4.336   3.347  15.781  0.6691  0.3481 -0.3327
    1TMC1    O113878   4.582   3.640  16.071 -0.1329  0.2431  0.1419
    1TMC1    O213879   4.316   3.321  15.896 -0.0219 -0.0009 -0.4243
    1TMC1    O313880   4.541   3.840  15.971 -0.0608  0.7482  0.0080
    1TMC1    H313881   4.518   3.880  15.885  1.8668  1.2719 -0.2524
    1TMC1    O513882   4.280   3.294  15.670  0.0582  0.0038 -0.1046
    1TMC1    H513883   4.330   3.315  15.588  2.7546  2.4259  2.1418
    2MPD2     C13884   4.625   4.010  15.104  0.7913  0.8298  0.4755
    2MPD2    C113885   4.606   3.871  15.100  0.1402 -0.4872 -0.2534
    2MPD2    C213886   4.591   3.799  15.213 -0.0512 -0.7048 -0.6308
    2MPD2    C313887   4.576   3.864  15.340  0.3435  0.2806  0.2642
    2MPD2    C413888   4.590   4.002  15.350  0.1411 -0.2297 -0.2879
    2MPD2    C513889   4.630   4.068  15.230  0.2664  0.3448 -0.5260
    2MPD2     H13890   4.582   3.691  15.210  0.8781 -0.8811  3.2109
    2MPD2    H113891   4.578   4.058  15.442  1.1709 -2.1178  1.0013
    2MPD2    H213892   4.662   4.062  15.016 -1.7279 -1.2833 -1.8366
    2MPD2    H313893   4.646   4.175  15.228 -2.1302  0.7259  0.4668
    2MPD2     N13894   4.561   3.790  15.461 -0.3278 -0.4927  0.2266
    2MPD2    H513895   4.562   3.839  15.550  1.4031  0.5265 -0.3675
    2MPD2    N113896   4.616   3.805  14.970 -0.3285  0.1775 -0.3238
    2MPD2    H713897   4.667   3.853  14.896  0.5206 -0.1242  0.0707
    3TMC2    C113898   4.581   3.644  14.807 -0.5750  0.0329  0.2927
    3TMC2    C213899   4.623   3.733  14.713  0.6866  0.2688  1.1414
    3TMC2    C313900   4.638   3.693  14.582 -0.2138  0.4677 -0.1302
    3TMC2    C413901   4.540   3.522  14.765 -0.2068 -0.4220  0.3310
    3TMC2    C513902   4.553   3.488  14.632  0.4520  0.5093  0.7159
    3TMC2    C613903   4.604   3.568  14.536  0.0417  0.1122 -0.2698
    3TMC2     C13904   4.562   3.679  14.945 -0.4368 -0.4626  0.6663
    3TMC2     O13905   4.509   3.601  15.020 -0.0420 -0.1812  0.1455
    3TMC2     H13906   4.662   3.832  14.738 -0.1851  0.7064  0.7514
    3TMC2    H113907   4.499   3.458  14.843 -0.8335  0.2751  0.5772
    3TMC2    H213908   4.612   3.551  14.429 -1.2727  1.0356 -0.5189
    3TMC2    C713909   4.520   3.351  14.598  0.4858  0.2941  0.3875
    3TMC2    C813910   4.686   3.789  14.487 -0.3120  1.2073 -0.1814
    3TMC2    O113911   4.502   3.270  14.687 -0.3182 -0.0314  0.1137
    3TMC2    O213912   4.620   3.830  14.396  0.0060 -0.1743  0.3493
    3TMC2    O513913   0.057   3.852  14.540 -0.3622  0.1115  0.0785
    3TMC2    H513914   0.090   3.788  14.606  0.1467  0.6811  0.3724
    4TMC2    C113915   4.080   3.207  13.706  0.2905 -0.2741 -0.3144
    4TMC2    C213916   4.145   3.263  13.599  0.5703  0.3712  0.0138
    4TMC2    C313917   4.262   3.325  13.624 -0.2232 -0.9937  0.9786
    4TMC2    C413918   4.136   3.195  13.827 -0.7124  0.7190  0.4558
    4TMC2    C513919   4.252   3.257  13.848 -0.2381  0.4067  0.0669
    4TMC2    C613920   4.316   3.328  13.747 -0.0639  0.1709 -0.6153
    4TMC2     C13921   3.944   3.162  13.686 -0.0817  0.3873 -0.4717
    4TMC2     O13922   3.902   3.075  13.766  0.2825  0.6318  0.1353
    4TMC2     H13923   4.107   3.267  13.498  0.5348  1.8091  0.0945
    4TMC2    H113924   4.080   3.158  13.912 -0.2547 -1.0826 -0.0186
    4TMC2    H213925   4.411   3.375  13.772  0.4210 -1.3095  0.2853
    4TMC2    C713926   4.307   3.279  13.979  1.0567 -0.0142  0.1458
    4TMC2    C813927   4.324   3.393  13.512  0.7295  0.0745  0.3187
    4TMC2    O113928   4.394   3.363  13.993 -0.4077  0.4541 -0.5205
    4TMC2    O213929   4.324   3.372  13.391 -0.4912  0.2325 -0.6891
    4TMC2    O513930   4.425   3.467  13.561  0.7489 -0.3822  1.0362
    4TMC2    H513931   4.393   3.485  13.651 -0.3702  0.0910  0.5451
    5MPD2     C13932   3.496   3.165  13.425 -0.2581  0.2140  0.2945
    5MPD2    C113933   3.575   3.272  13.381  0.4141 -0.4841  0.2778
    5MPD2    C213934   3.698   3.286  13.435  0.5537 -0.2308 -0.0620
    5MPD2    C313935   3.743   3.199  13.536 -0.1352 -0.5371 -0.3892
    5MPD2    C413936   3.661   3.090  13.577 -0.1604  0.3375 -0.8752
    5MPD2    C513937   3.542   3.067  13.512 -0.7120  0.9822  0.6544
    5MPD2     H13938   3.765   3.363  13.398  0.5269  0.1168  0.6224
    5MPD2    H113939   3.687   3.033  13.665 -1.5644  1.9248  0.5572
    5MPD2    H213940   3.396   3.157  13.383  0.3558  1.5735 -1.4153
    5MPD2    H313941   3.466   2.998  13.549  0.4451 -0.4959  0.2684
    5MPD2     N13942   3.873   3.228  13.586  1.1001 -0.0941  0.0580
    5MPD2    H513943   3.922   3.304  13.541  1.5681 -1.1195 -1.1877
    5MPD2    N113944   3.518   3.346  13.274 -0.6732  0.2014  0.4239
    5MPD2    H713945   3.439   3.303  13.226  0.5126 -0.8625 -0.5675
    6MPD1     C13946   3.497   0.510  12.764 -0.2585 -0.5678 -0.3810
    6MPD1    C113947   3.428   0.479  12.879  0.1293 -0.3794 -0.3248
    6MPD1    C213948   3.409   0.345  12.916  1.0221 -0.3735  0.6136
    6MPD1    C313949   3.454   0.243  12.835  0.9515  0.1948  0.0111
    6MPD1    C413950   3.508   0.272  12.711 -0.6050  0.2257  0.7424
    6MPD1    C513951   3.533   0.411  12.675  0.0410  0.5503  0.6026
    6MPD1     H13952   3.359   0.329  13.011 -2.6948  0.8992 -1.1162
    6MPD1    H113953   3.520   0.191  12.640 -1.4475  0.2362  0.5903
    6MPD1    H213954   3.531   0.611  12.745  0.2458 -0.2624  2.0652
    6MPD1    H313955   3.594   0.433  12.588 -0.2620 -2.0457 -0.2702
    6MPD1     N13956   3.437   0.109  12.864  0.5998  0.2506  0.6295
    6MPD1    H513957   3.467   0.038  12.797  1.0516  0.9913  0.0555
    6MPD1    N113958   3.379   0.574  12.970  0.7351  0.3375 -0.4820
    6MPD1    H613959   3.441   0.584  13.050  1.2590  0.3739 -0.8966
    6MPD1    H713960   3.372   0.666  12.926  1.0819  0.5676 -0.0540
    7MPD2     C13961   3.045   4.136  13.205  0.2221 -0.0218 -0.5283
    7MPD2    C113962   3.151   4.136  13.117  0.7930 -0.2497 -0.3898
    7MPD2    C213963   3.207   4.023  13.069  0.1030  0.2058 -0.4543
    7MPD2    C313964   3.156   3.897  13.098  0.1087 -0.2819  0.1249
    7MPD2    C413965   3.059   3.890  13.190 -0.0886  0.3305 -0.2933
    7MPD2    C513966   3.000   4.005  13.237 -0.1126  0.0300  0.2606
    7MPD2     H13967   3.284   4.026  12.993 -2.7234  1.1532 -3.2667
    7MPD2    H113968   3.019   3.798  13.230  2.2699 -0.5293  0.1065
    7MPD2    H213969   2.988   4.218  13.246  0.2467 -0.0991 -0.3411
    7MPD2    H313970   2.919   3.993  13.308 -1.3548  1.5508 -0.9145
    7MPD2     N13971   3.218   3.782  13.047  0.0908  0.1803 -0.7589
    7MPD2    H513972   3.307   3.794  12.999  1.2535 -0.0943  1.3296
    7MPD2    N113973   3.219   4.257  13.078  0.5000  0.6916 -0.6340
    7MPD2    H713974   3.294   4.246  13.011  0.6482 -1.7686 -0.0610
    8TMC3    C113975   3.302   3.577  13.007  0.9932  0.0154  0.1359
    8TMC3    C213976   3.365   3.487  13.093 -0.2743  0.7306  0.4295
    8TMC3    C313977   3.499   3.484  13.088 -0.6074 -0.2353 -0.1522
    8TMC3    C413978   3.363   3.643  12.906  0.8216  0.1917 -0.0094
    8TMC3    C513979   3.503   3.637  12.911  0.1068 -0.0079  0.0711
    8TMC3    C613980   3.567   3.554  12.996 -0.3388 -0.0893  0.3825
    8TMC3     C13981   3.197   3.650  13.078  0.4049  0.3415  0.1932
    8TMC3     O13982   3.109   3.597  13.140 -0.0342  0.2929  0.0041
    8TMC3     H13983   3.307   3.457  13.180  2.6696 -2.9703  1.1194
    8TMC3    H113984   3.311   3.694  12.826 -2.7060 -2.4687  0.5672
    8TMC3    H213985   3.675   3.558  12.996 -0.4065  1.5009  0.4996
    8TMC3    C713986   3.547   3.769  12.911 -0.2914 -0.3361 -0.0721
    8TMC3    C813987   3.577   3.454  13.210  0.0324 -0.2237 -0.1481
    8TMC3    O113988   3.471   3.842  12.972  0.4032  1.0212  0.5310
    8TMC3    O213989   3.672   3.523  13.237 -0.3918 -0.1413 -0.1651
    9TMC3    C113990   3.386   4.661  13.007  0.3785 -0.3216  0.6948
    9TMC3    C213991   3.501   4.600  12.965  0.4902 -0.9033  0.2331
    9TMC3    C313992   3.512   4.463  12.980  0.2923  0.4469 -0.1864
    9TMC3    C413993   3.292   4.590  13.071  0.2735 -0.3040 -0.7016
    9TMC3    C513994   3.320   4.460  13.111  0.2358 -0.0991  0.0582
    9TMC3    C613995   3.422   4.386  13.051  0.1916  1.1085 -0.7072
    9TMC3     C13996   3.375   0.064  12.979  0.1612 -0.0249  0.4574
    9TMC3     O13997   3.306   0.125  13.058  0.3342 -0.4144  0.3243
    9TMC3     H13998   3.577   4.657  12.911  0.5225 -1.2244 -0.0575
    9TMC3    H113999   3.203   4.638  13.109  0.3321 -0.8865  0.1673
    9TMC3    H214000   3.453   4.287  13.083 -0.4796  0.6992 -1.3236
    9TMC3    C714001   3.205   4.377  13.139 -0.0711 -0.1079  0.4087
    9TMC3    C814002   3.632   4.405  12.920 -0.2745  0.5074 -0.0985
    9TMC3    O114003   3.120   4.428  13.212 -0.2066 -0.6450 -0.1503
    9TMC3    O214004   3.729   4.477  12.902  0.1892 -0.0624  0.4400
   10MPD2     C14005   3.855   3.946  12.821  0.0458 -0.4154  0.6353
   10MPD2    C114006   3.721   3.930  12.852 -0.1481  0.5491 -0.3798
   10MPD2    C214007   3.640   4.039  12.853 -0.3136  0.9382 -0.0596
   10MPD2    C314008   3.694   4.165  12.861 -0.3301  0.4577 -0.0319
   10MPD2    C414009   3.826   4.187  12.828 -0.0407 -0.2058  0.2088
   10MPD2    C514010   3.909   4.077  12.812 -0.2292 -0.1632 -0.2237
   10MPD2     H14011   3.534   4.022  12.864  0.6004 -2.3008  3.5704
   10MPD2    H114012   3.875   4.284  12.828  1.3010 -0.8826 -0.4914
   10MPD2    H214013   3.921   3.860  12.818 -0.2824 -0.6343 -0.3609
   10MPD2    H314014   4.016   4.088  12.802 -0.2224 -1.3890 -1.5293
   10MPD2     N14015   3.603   4.272  12.891  0.7423  0.0917  0.0482
   10MPD2    H514016   3.506   4.243  12.895  0.4311  1.0735 -0.7238
   10MPD2    N114017   3.670   3.800  12.859 -0.2992  0.5423  0.2434
   10MPD2    H714018   3.730   3.722  12.834 -2.4854 -1.0124 -0.2707
   11MPD2     C14019   4.406   3.117  14.457  0.0618  0.2256 -0.6892
   11MPD2    C114020   4.432   3.238  14.398  0.3712 -0.1759 -0.2853
   11MPD2    C214021   4.393   3.259  14.269  0.6800 -0.0450  0.1968
   11MPD2    C314022   4.337   3.159  14.190 -0.1241 -0.8970  0.1114
   11MPD2    C414023   4.324   3.033  14.245 -0.2485  0.2803  0.3782
   11MPD2    C514024   4.356   3.019  14.375 -0.9693  0.5063  0.2055
   11MPD2     H14025   4.413   3.357  14.228  1.4384 -1.0013 -1.6925
   11MPD2    H114026   4.280   2.951  14.189  0.1305 -0.0725  0.5980
   11MPD2    H214027   4.434   3.088  14.558 -0.7820 -0.0887 -0.5440
   11MPD2    H314028   4.337   2.920  14.415 -1.0479  0.2589 -0.4418
   11MPD2     N14029   4.292   3.170  14.054 -0.0029  0.0935 -0.7282
   11MPD2    H514030   4.239   3.096  14.010  2.1601 -0.6009 -2.1672
   11MPD2    N114031   4.484   3.350  14.467  0.1055  0.1388  0.2437
   11MPD2    H714032   4.491   3.440  14.421  0.8675  0.4536  0.9944
    1MPD1     C14033   1.991   0.190  16.401 -0.7650  0.5144 -0.3395
    1MPD1    C114034   2.113   0.245  16.413 -0.0185  0.4192 -1.2808
    1MPD1    C214035   2.171   0.278  16.534 -0.5514  0.6902  0.4215
    1MPD1    C314036   2.097   0.245  16.651 -0.5403 -0.1283  0.1325
    1MPD1    C414037   1.979   0.169  16.642  0.5865  0.5336  0.6216
    1MPD1    C514038   1.921   0.149  16.516 -0.2611 -0.3020  0.7141
    1MPD1     H14039   2.269   0.322  16.547 -0.3094  0.0215  0.8852
    1MPD1    H114040   1.918   0.136  16.726  0.9578  0.8606  1.0227
    1MPD1    H214041   1.936   0.174  16.309  0.1187  0.4466 -0.8599
    1MPD1    H314042   1.823   0.103  16.503  0.6390 -1.4165 -2.2930
    1MPD1     N14043   2.150   0.285  16.773  0.1435 -0.6754 -0.0536
    1MPD1    H514044   2.092   0.256  16.851  2.0544 -0.9957  1.2669
    1MPD1    N114045   2.162   0.309  16.300  0.0056 -0.2275 -0.6016
    1MPD1    H614046   2.261   0.330  16.315  0.3218 -1.9445 -0.2456
    1MPD1    H714047   2.143   0.250  16.219  0.1247 -2.4042  0.9511
    2MPD1     C14048   2.622   4.488  17.436 -0.2860  0.3792  0.1458
    2MPD1    C114049   2.679   4.609  17.463  0.3953  0.4751 -0.4980
    2MPD1    C214050   2.619   4.722  17.420  0.0800 -0.0191  0.9993
    2MPD1    C314051   2.526   4.714  17.316  0.1697  0.3582 -0.2004
    2MPD1    C414052   2.493   4.593  17.265 -0.1135  0.0494  0.3215
    2MPD1    C514053   2.538   4.479  17.329 -0.0300 -0.4902  0.1751
    2MPD1     H14054   2.659   0.078  17.464 -1.2036  1.7180 -1.4043
    2MPD1    H114055   2.420   4.574  17.188  2.1891  2.4929 -2.4973
    2MPD1    H214056   2.671   4.404  17.483 -2.6279 -1.7315 -1.1712
    2MPD1    H314057   2.499   4.385  17.293  0.9126 -0.0420 -2.0422
    2MPD1     N14058   2.467   0.098  17.270  0.0297 -0.2823  0.3746
    2MPD1    H514059   2.502   0.187  17.303 -0.0280  0.3546 -1.2467
    2MPD1    N114060   2.783   4.614  17.556  0.6502  0.1236 -0.1995
    2MPD1    H614061   2.832   4.528  17.580 -2.2939 -0.5777  3.3787
    2MPD1    H714062   2.840   4.692  17.523  0.7552  0.9080  1.8380
    3TMC3    C114063   2.376   0.238  17.106 -0.3192  0.6296  0.2212
    3TMC3    C214064   2.419   0.349  17.173  0.3313 -0.6954  0.4592
    3TMC3    C314065   2.408   0.468  17.108  0.5189  0.0287  0.4636
    3TMC3    C414066   2.326   0.243  16.981 -0.4857 -0.4874  0.4475
    3TMC3    C514067   2.306   0.363  16.926 -0.3604  0.3503  0.7521
    3TMC3    C614068   2.351   0.475  16.982  0.0987 -0.0692  0.2978
    3TMC3     C14069   2.380   0.104  17.169 -0.2914  0.1033 -0.2576
    3TMC3     O14070   2.332   0.017  17.098 -0.2702  0.0973  0.3435
    3TMC3     H14071   2.460   0.346  17.273 -3.3877  1.2495  2.0296
    3TMC3    H114072   2.280   0.163  16.925 -0.9382 -1.5217  2.2969
    3TMC3    H214073   2.343   0.566  16.924 -3.5201 -2.0708 -2.3187
    3TMC3    C714074   2.260   0.365  16.789 -0.2130  0.0327  0.0349
    3TMC3    C814075   2.454   0.588  17.171 -0.4215  0.0032  0.0356
    3TMC3    O114076   2.301   0.449  16.712  0.5323 -0.3906 -0.2559
    3TMC3    O214077   2.537   0.573  17.258 -0.0827 -0.7323  0.5856
    4MPD1     C14078   2.496   1.090  17.080  1.1147  0.1794 -0.8206
    4MPD1    C114079   2.360   1.061  17.061 -0.7718 -0.0443 -0.5279
    4MPD1    C214080   2.334   0.925  17.075 -0.2095 -0.6742 -0.0033
    4MPD1    C314081   2.422   0.833  17.128  0.0771 -0.7567  0.3894
    4MPD1    C414082   2.552   0.873  17.156 -1.1660 -1.0597 -0.6356
    4MPD1    C514083   2.593   0.991  17.120  0.5844  0.6935  1.0068
    4MPD1     H14084   2.231   0.902  17.047 -0.9086  1.3859  0.8250
    4MPD1    H114085   2.634   0.813  17.196 -0.2299  0.3053 -0.5355
    4MPD1    H214086   2.528   1.193  17.070  3.1755 -0.5548 -1.5931
    4MPD1    H314087   2.693   1.020  17.151  0.8227 -0.6258  1.4751
    4MPD1     N14088   2.387   0.700  17.121  0.3449 -0.1740 -0.0317
    4MPD1    H514089   2.321   0.688  17.045  2.8199 -0.2383 -2.1680
    4MPD1    N114090   2.272   1.148  16.992  0.2494  0.4802  0.0887
    4MPD1    H614091   2.285   1.247  17.015 -0.8537  0.1393  2.1505
    4MPD1    H714092   2.179   1.120  17.020 -0.4080  3.1815  0.6579
    1TCq1    O114093   3.560   3.834  11.996  0.0285  0.8144  0.3106
    1TCq1    C114094   3.590   3.950  11.931  0.2563 -0.1380 -0.1000
    1TCq1    O214095   3.658   4.029  11.991 -0.6971  0.9532 -0.5548
    1TCq1    C214096   3.478   3.981  11.843  0.1452 -0.0910  0.1071
    1TCq1    C314097   3.422   3.878  11.778 -0.5118 -0.3835  0.0159
    1TCq1    C414098   3.325   3.916  11.690  0.3184  0.8424  0.6951
    1TCq1    C514099   3.312   4.048  11.659  0.0915 -0.2149  0.0049
    1TCq1    C614100   3.377   4.147  11.720 -0.0657  0.1097  0.1219
    1TCq1    C714101   3.465   4.111  11.815 -0.1999 -0.0857 -0.1298
    1TCq1    C814102   3.366   4.293  11.690  0.3737  0.6571  0.3616
    1TCq1    O414103   3.261   4.318  11.634 -0.0085 -0.0241 -0.1072
    1TCq1    C914104   3.287   3.820  11.591 -0.3892  0.4425 -0.1491
    1TCq1    O514105   3.185   3.862  11.528 -0.0386 -0.0237 -0.2751
    1TCq1    O614106   3.318   3.699  11.616 -0.0717  0.0199  0.1042
    1TCq1    H114107   3.487   3.780  11.959  0.5832 -1.2882  2.2604
    1TCq1    H214108   3.461   3.777  11.772 -0.4434 -0.3647  0.1704
    1TCq1    H314109   3.248   4.076  11.576  2.3976  0.1128 -1.6475
    1TCq1    H414110   3.526   4.184  11.867 -0.0035  0.5551 -1.2592
    2MPD1     C14111   3.518   0.042  11.669 -0.6089 -0.2748 -0.0008
    2MPD1    C114112   3.627   4.706  11.717  0.1991 -0.0306 -0.1829
    2MPD1    C214113   3.606   4.571  11.733 -0.0301  0.7757 -0.6760
    2MPD1    C314114   3.491   4.504  11.698 -0.1287  0.2558  0.8511
    2MPD1    C414115   3.387   4.581  11.656 -0.1335  0.1054 -0.2293
    2MPD1    C514116   3.407   4.711  11.635 -0.0280 -0.0607 -0.3834
    2MPD1     H14117   3.678   4.521  11.795 -0.4579  3.3982  1.9448
    2MPD1    H114118   3.287   4.544  11.637 -0.3363  0.2739  0.5194
    2MPD1    H214119   3.514   0.151  11.668 -2.2960 -0.3331  0.6777
    2MPD1    H314120   3.331   0.034  11.584  0.4881 -0.5440 -1.6810
    2MPD1     N14121   3.473   4.370  11.733 -0.0529 -0.1398 -0.0062
    2MPD1    H514122   3.544   4.326  11.791  0.6411  0.2058 -0.6063
    2MPD1    N114123   3.736   0.037  11.774 -0.3250  0.0459  0.1131
    2MPD1    H614124   3.820   4.715  11.771  0.0292  0.5507  0.7292
    2MPD1    H714125   3.761   0.125  11.729 -1.7925 -0.4131 -1.6196
    1TMC1    C114126   1.063   3.409   1.285 -0.1681 -0.9691  0.0073
    1TMC1    C214127   0.933   3.459   1.263  0.1378 -0.1741  0.3880
    1TMC1    C314128   0.843   3.444   1.364  0.9096  0.3267  0.0954
    1TMC1    C414129   1.105   3.359   1.404  0.0837 -0.3513  0.0659
    1TMC1    C514130   1.006   3.344   1.502  0.7828  0.3581 -0.1718
    1TMC1    C614131   0.872   3.377   1.487  0.0077  0.2391  0.3622
    1TMC1     C14132   1.158   3.419   1.174  0.6287 -0.3964 -0.2240
    1TMC1     O14133   1.118   3.498   1.086  0.6472 -0.2306  0.3299
    1TMC1     H14134   0.902   3.487   1.163  1.8803  0.4655  0.0132
    1TMC1    H114135   1.206   3.321   1.418 -0.1873 -1.6532 -1.4176
    1TMC1    H214136   0.798   3.364   1.564  0.4373  1.7153  1.0346
    1TMC1    C714137   1.058   3.287   1.621 -0.5039 -0.7388 -0.3730
    1TMC1    C814138   0.714   3.501   1.343 -0.0315  0.6253 -0.0123
    1TMC1    O114139   1.147   3.201   1.617 -0.0967 -0.3643  0.3591
    1TMC1    O214140   0.693   3.551   1.233  0.3339  0.0835  0.0477
    1TMC1    O314141   0.979   3.324   1.724  0.1207  0.0650  0.2185
    1TMC1    H314142   0.960   3.420   1.714 -0.9801 -0.0272  1.4034
    1TMC1    O514143   0.668   3.555   1.464 -0.2081 -0.0648  0.2037
    1TMC1    H514144   0.689   3.496   1.540 -0.6486  0.3672  0.6584
    2MPD1     C14145   1.530   3.277   0.853  0.1322 -0.5467  0.0861
    2MPD1    C114146   1.451   3.386   0.853 -0.0211  0.0401  0.1128
    2MPD1    C214147   1.367   3.418   0.966 -1.0149  0.5049 -0.0175
    2MPD1    C314148   1.364   3.331   1.067  0.2742  0.0859  0.8486
    2MPD1    C414149   1.443   3.216   1.068  0.2788  0.6758 -0.1671
    2MPD1    C514150   1.536   3.194   0.965 -0.7073 -0.4311  0.0505
    2MPD1     H14151   1.296   3.500   0.957  2.2735  2.9580 -3.5730
    2MPD1    H114152   1.449   3.146   1.150  2.5663  1.8038  0.6339
    2MPD1    H214153   1.601   3.249   0.777 -0.0012 -1.3977  0.2716
    2MPD1    H314154   1.611   3.116   0.969 -0.4288 -0.1021  1.2588
    2MPD1     N14155   1.272   3.342   1.178  0.3656  0.3888 -0.2560
    2MPD1    H514156   1.270   3.275   1.254 -1.7330  2.1088  1.1963
    2MPD1    N114157   1.422   3.447   0.730 -0.6346 -0.1659 -0.3551
    2MPD1    H614158   1.498   3.436   0.664 -2.3274 -2.5764 -1.8705
    2MPD1    H714159   1.405   3.548   0.739  0.5198  0.0055 -0.1349
    1MPD1     C14160   0.676   4.459  12.151  0.2746 -0.0058  0.5589
    1MPD1    C114161   0.546   4.502  12.130  0.1193 -0.0786 -0.3658
    1MPD1    C214162   0.522   4.560  12.014  0.4044  0.3909  0.3207
    1MPD1    C314163   0.613   4.554  11.904  0.5464 -0.3804  0.2495
    1MPD1    C414164   0.735   4.492  11.921  0.3248 -0.2553 -0.6437
    1MPD1    C514165   0.774   4.456  12.053  0.0664  1.1572 -0.6798
    1MPD1     H14166   0.423   4.602  12.000  0.9073  1.7713  0.8157
    1MPD1    H114167   0.810   4.493  11.843 -0.4072 -1.8800 -1.3608
    1MPD1    H214168   0.693   4.408  12.245  1.3173  0.1933  0.4739
    1MPD1    H314169   0.880   4.437  12.066 -0.0402 -0.6338 -2.3643
    1MPD1     N14170   0.573   4.607  11.782 -0.8682 -0.1045 -0.1241
    1MPD1    H514171   0.482   4.651  11.778 -1.1568 -0.6899 -0.0588
    1MPD1    N114172   0.460   4.500  12.238  0.2582  0.1520 -0.0965
    1MPD1    H614173   0.482   4.429  12.307  0.0972  0.6398  0.4571
    1MPD1    H714174   0.371   4.487  12.190  0.7692 -1.0107 -0.7128
    2MPD1     C14175   3.572   0.034  11.328 -0.0807  0.1227  0.0222
    2MPD1    C114176   3.703   0.070  11.290 -0.0961 -0.6391  0.4862
    2MPD1    C214177   3.713   0.149  11.177 -0.5055 -0.6887 -0.1493
    2MPD1    C314178   3.611   0.182  11.093 -0.7170  0.5186 -0.2481
    2MPD1    C414179   3.489   0.143  11.131  0.0321 -0.9327  0.4193
    2MPD1    C514180   3.473   0.073  11.245  0.1323 -0.5345  0.4397
    2MPD1     H14181   3.815   0.185  11.162 -0.7577 -0.1104 -0.5012
    2MPD1    H114182   3.406   0.153  11.062  0.7818  0.9877 -0.2010
    2MPD1    H214183   3.547   4.715  11.419  1.3210  2.7001  1.9484
    2MPD1    H314184   3.371   0.049  11.273 -0.2769 -0.3876 -0.9442
    2MPD1     N14185   3.627   0.241  10.966  0.0218  0.2999 -0.0204
    2MPD1    H514186   3.542   0.242  10.910  0.7554  0.3433 -1.1495
    2MPD1    N114187   3.808   0.062  11.380 -0.3758 -0.0079  0.5447
    2MPD1    H614188   3.893   0.052  11.325 -0.3348  4.5557 -0.1932
    2MPD1    H714189   3.791   4.707  11.426  0.6624  0.3741  1.6652
    3MPD1     C14190   3.254   4.546  10.407 -0.0814  0.0912 -0.3950
    3MPD1    C114191   3.327   4.512  10.520 -0.2547 -1.0209  0.1797
    3MPD1    C214192   3.428   4.592  10.571 -0.4445 -0.6717 -0.1275
    3MPD1    C314193   3.477   4.689  10.485  0.1822  0.2127 -0.3015
    3MPD1    C414194   3.412   4.719  10.366 -0.5621  0.4871  0.7222
    3MPD1    C514195   3.296   4.656  10.333 -0.3857  0.3543 -0.1475
    3MPD1     H14196   3.469   4.573  10.670 -0.8529 -1.5811 -0.1382
    3MPD1    H114197   3.446   0.055  10.291  0.3918  1.8230  2.4096
    3MPD1    H214198   3.164   4.492  10.378  1.3701 -2.5088 -0.0857
    3MPD1    H314199   3.246   4.678  10.240  1.6401  4.0982 -0.3344
    3MPD1     N14200   3.580   0.038  10.536  0.1714 -0.0507 -0.2493
    3MPD1    H514201   3.617   0.027  10.630  0.7259 -0.5537 -0.5260
    3MPD1    N114202   3.277   4.396  10.581  0.5828 -0.0556 -0.0258
    3MPD1    H614203   3.314   4.376  10.674 -0.0240 -2.3847 -0.2721
    3MPD1    H714204   3.176   4.384  10.574  0.4528 -0.9109  3.2416
    4MPD2     C14205   0.112   0.373  11.429  0.7684 -0.2054 -0.8360
    4MPD2    C114206   0.222   0.355  11.350 -0.1586  0.5155  0.5501
    4MPD2    C214207   0.236   0.430  11.229 -0.0009  0.4432  0.0762
    4MPD2    C314208   0.117   0.487  11.176  0.3299  0.4762  0.1860
    4MPD2    C414209   0.008   0.488  11.253  0.1046 -0.0761 -0.2443
    4MPD2    C514210   0.001   0.434  11.378  0.9791 -0.0283 -0.5075
    4MPD2     H14211   0.326   0.422  11.169 -0.7379 -0.6495 -0.8623
    4MPD2    H114212   4.653   0.531  11.209  1.3917  1.4651 -1.3779
    4MPD2    H214213   0.109   0.329  11.528 -1.3081 -0.4660 -1.0011
    4MPD2    H314214   4.644   0.454  11.432  1.2640 -0.2605  0.0598
    4MPD2     N14215   0.109   0.547  11.045  0.3499 -0.2523 -0.1631
    4MPD2    H514216   0.018   0.586  11.022 -0.0496 -0.2536  1.4382
    4MPD2    N114217   0.335   0.284  11.398 -0.0679  0.4611 -0.0094
    4MPD2    H714218   0.423   0.282  11.348  0.5645 -1.8511  1.2199
    5TMC3    C114219   0.440   0.105  11.472  0.1686  0.9977 -0.0390
    5TMC3    C214220   0.496   0.032  11.575 -0.2007  0.1110  0.4425
    5TMC3    C314221   0.596   4.671  11.552 -0.8633  0.4997  0.7294
    5TMC3    C414222   0.488   0.078  11.346  0.1877 -0.1138 -0.5717
    5TMC3    C514223   0.594   4.726  11.321 -0.0255 -0.1525  0.0550
    5TMC3    C614224   0.647   4.652  11.421  0.5619 -0.2045  0.2268
    5TMC3     C14225   0.329   0.189  11.496  0.4265 -0.6541 -0.0573
    5TMC3     O14226   0.244   0.152  11.575  0.2485 -0.1503 -0.3821
    5TMC3     H14227   0.461   0.053  11.675  2.0205  2.7428  0.6506
    5TMC3    H114228   0.436   0.128  11.265 -0.5229  1.2037  0.6986
    5TMC3    H214229   0.733   4.586  11.410 -0.8586 -1.9460 -0.2897
    5TMC3    C714230   0.643   4.715  11.185 -0.1352  0.4737 -0.2865
    5TMC3    C814231   0.650   4.599  11.665 -0.6549 -0.1553 -0.7763
    5TMC3    O114232   0.700   4.607  11.160 -0.4828  0.1146  0.0260
    5TMC3    O214233   0.743   4.525  11.633 -0.6205  0.4043 -0.2684
    6TMC3    C114234   3.752   0.322  10.774 -0.2203  0.1045 -0.1428
    6TMC3    C214235   3.673   0.246  10.694 -0.5135  0.4913 -0.4061
    6TMC3    C314236   3.717   0.220  10.566  0.2144 -0.2851 -0.3556
    6TMC3    C414237   3.880   0.364  10.738 -1.5689 -0.1267  0.0527
    6TMC3    C514238   3.917   0.339  10.610 -0.1412  0.3392 -0.3261
    6TMC3    C614239   3.837   0.267  10.526 -0.3793  0.3085 -0.2633
    6TMC3     C14240   3.743   0.302  10.920 -1.5951  0.3202  0.1410
    6TMC3     O14241   3.823   0.357  10.993 -0.2480  0.4624 -0.5251
    6TMC3     H14242   3.569   0.222  10.710 -0.4264  1.4606  1.6974
    6TMC3    H114243   3.945   0.414  10.808  0.6583  0.2385 -2.2835
    6TMC3    H214244   3.881   0.243  10.430 -0.9198  0.2935 -0.5053
    6TMC3    C714245   4.062   0.350  10.588  0.3231 -0.4342  0.5700
    6TMC3    C814246   3.642   0.145  10.471 -0.1420  0.3985 -0.6354
    6TMC3    O114247   4.141   0.380  10.679  0.7995  0.2836 -0.0677
    6TMC3    O214248   3.631   0.175  10.353  0.2102 -0.0884  0.7340
    7MPD2     C14249   0.526   0.107  10.707  0.1131  0.4030 -0.2545
    7MPD2    C114250   0.484   0.215  10.792 -0.0598  0.0972  0.2107
    7MPD2    C214251   0.522   0.201  10.922  0.2172 -0.5987 -0.3432
    7MPD2    C314252   0.587   0.088  10.965 -0.0458  0.0365  0.0772
    7MPD2    C414253   0.619   4.715  10.881 -0.5711 -0.3564 -0.4726
    7MPD2    C514254   0.594   4.731  10.750  0.3303 -0.1435  0.1729
    7MPD2     H14255   0.507   0.284  10.991 -1.7200 -0.8429 -0.4693
    7MPD2    H114256   0.683   4.638  10.922  0.7528  1.2317  0.4492
    7MPD2    H214257   0.521   0.112  10.599  1.1443 -0.5933 -0.3510
    7MPD2    H314258   0.629   4.657  10.679  0.3676  0.5898 -0.5704
    7MPD2     N14259   0.611   0.087  11.103 -0.3685  0.3073 -0.4690
    7MPD2    H514260   0.580   0.171  11.150 -0.3075 -0.1224  0.3390
    7MPD2    N114261   0.418   0.328  10.744 -0.1941  0.2104  0.7866
    7MPD2    H714262   0.388   0.402  10.808 -3.5219 -0.2573 -0.2170
    8TMC3    C114263   0.255   0.443  10.619  0.2989 -0.8436 -0.0808
    8TMC3    C214264   0.122   0.402  10.594 -0.0212 -0.2558  0.4177
    8TMC3    C314265   0.020   0.454  10.668  0.0514  0.1397  0.6669
    8TMC3    C414266   0.270   0.521  10.730 -0.1661  0.9836  0.2384
    8TMC3    C514267   0.167   0.557  10.812  0.0917  0.4433 -0.0693
    8TMC3    C614268   0.038   0.526  10.785  0.2411  0.2400 -0.7360
    8TMC3     C14269   0.357   0.340  10.617  0.8116  1.4596  0.1251
    8TMC3     O14270   0.371   0.282  10.511 -0.4201 -0.2792  0.1674
    8TMC3     H14271   0.112   0.333  10.511 -1.2443  1.4911 -0.8867
    8TMC3    H114272   0.368   0.568  10.737  1.3943 -1.9355 -2.0646
    8TMC3    H214273   4.690   0.558  10.847 -1.0081 -1.1445 -1.6996
    8TMC3    C714274   0.212   0.540  10.950 -0.0329  0.6261  0.6555
    8TMC3    C814275   4.618   0.433  10.638 -0.0193  0.3751 -0.0855
    8TMC3    O114276   0.329   0.516  10.957  0.0225 -0.1863 -0.2703
    8TMC3    O214277   4.538   0.451  10.730 -0.1796  0.5971 -0.6025
    9MPD2     C14278   4.480   0.332  10.299 -0.6646 -0.1404  0.6810
    9MPD2    C114279   4.473   0.348  10.442  0.4439  0.0845  0.2727
    9MPD2    C214280   4.350   0.337  10.497  0.0840 -0.4447 -0.7406
    9MPD2    C314281   4.239   0.315  10.417 -0.3523 -0.2947 -0.4226
    9MPD2    C414282   4.251   0.280  10.287  0.4602  0.3928  0.2770
    9MPD2    C514283   4.372   0.297  10.228 -0.5180  0.7278 -0.0031
    9MPD2     H14284   4.345   0.342  10.605 -0.9635 -0.0632 -0.8113
    9MPD2    H114285   4.159   0.255  10.236 -0.6621  1.0958  1.9492
    9MPD2    H214286   4.567   0.355  10.238 -1.3462  0.4411 -0.0641
    9MPD2    H314287   4.373   0.253  10.128 -0.8883 -1.6841  1.0666
    9MPD2     N14288   4.104   0.318  10.462 -0.4267 -0.2314 -0.9644
    9MPD2    H514289   4.037   0.304  10.388 -0.5949 -4.0840 -0.0778
    9MPD2    N114290   4.597   0.380  10.511  0.2819  0.3827 -0.5372
    9MPD2    H714291   4.677   0.391  10.450  0.2926 -0.9705 -0.7757
    1MPD1     C14292   1.158   3.728  17.165  0.0507  0.5307  0.7923
    1MPD1    C114293   1.125   3.605  17.118 -0.2534 -0.1086 -0.2422
    1MPD1    C214294   0.993   3.589  17.088 -0.0657 -0.1728 -0.5587
    1MPD1    C314295   0.895   3.682  17.128 -0.5361  0.1969 -0.1520
    1MPD1    C414296   0.927   3.803  17.177  0.3377 -0.0861  0.4963
    1MPD1    C514297   1.063   3.821  17.192 -0.1342  0.4557 -0.6550
    1MPD1     H14298   0.966   3.498  17.035  0.2316 -0.7698  0.3001
    1MPD1    H114299   0.854   3.875  17.210 -0.2081  0.4429 -1.8815
    1MPD1    H214300   1.261   3.759  17.180  1.5833 -2.6788 -2.9427
    1MPD1    H314301   1.109   3.913  17.225 -0.0583  0.4407 -0.7183
    1MPD1     N14302   0.751   3.656  17.106  0.1490 -0.6781 -0.3107
    1MPD1    H514303   0.680   3.727  17.123  0.8999 -0.3410  1.4280
    1MPD1    N114304   1.226   3.522  17.067  0.4789 -0.0597 -0.0069
    1MPD1    H614305   1.317   3.518  17.112  1.5040 -2.2935 -2.3073
    1MPD1    H714306   1.202   3.425  17.050  1.0460  0.1733 -2.1876
    2TMC2    C114307   0.372   3.712  16.966 -0.4148  0.5679 -0.4712
    2TMC2    C214308   0.295   3.594  16.957  0.4052  0.6723  0.6240
    2TMC2    C314309   0.344   3.475  17.001 -0.0583 -0.4915  0.1029
    2TMC2    C414310   0.508   3.703  16.993 -0.6055 -0.1287 -0.2854
    2TMC2    C514311   0.557   3.575  17.010  0.0838 -0.5208 -0.1931
    2TMC2    C614312   0.484   3.461  17.017  0.1369 -0.2778 -0.2415
    2TMC2     C14313   0.313   3.816  16.888  0.0721 -0.5258  0.5540
    2TMC2     O14314   0.216   3.785  16.816  0.2109 -0.7421 -0.5676
    2TMC2     H14315   0.188   3.602  16.938  0.4167 -1.1625 -0.2048
    2TMC2    H114316   0.570   3.791  16.988 -0.3545 -0.2074  1.3793
    2TMC2    H214317   0.538   3.368  17.031 -1.2956 -0.7131  2.4458
    2TMC2    C714318   0.699   3.552  17.034  0.3240  0.4066 -0.1851
    2TMC2    C814319   0.267   3.354  16.993 -0.0486  0.1544 -0.3937
    2TMC2    O114320   0.753   3.455  16.988  0.0361 -0.0767  0.7411
    2TMC2    O214321   0.159   3.349  16.935 -0.1353  0.5328  0.0314
    2TMC2    O514322   0.338   3.256  17.043  0.2232  0.0177 -0.3064
    2TMC2    H514323   0.413   3.294  17.094  0.2979 -0.8715  0.2551
    3MPD1     C14324   0.261   4.323  16.792 -0.3066 -0.1221  0.4025
    3MPD1    C114325   0.382   4.305  16.849 -0.2976  0.6767 -0.3113
    3MPD1    C214326   0.413   4.174  16.892  0.2056  0.9413 -0.0643
    3MPD1    C314327   0.335   4.062  16.865 -0.0717 -0.2596  0.1269
    3MPD1    C414328   0.207   4.091  16.819  0.4103 -0.4652 -0.7903
    3MPD1    C514329   0.171   4.217  16.783  0.9540  0.2820  0.3568
    3MPD1     H14330   0.510   4.158  16.937 -2.0010 -2.9714  3.2709
    3MPD1    H114331   0.126   4.022  16.799 -1.1586  1.1905 -0.0944
    3MPD1    H214332   0.231   4.426  16.775  0.8497  0.5408  2.3551
    3MPD1    H314333   0.067   4.234  16.756  0.8904  0.7553  0.8882
    3MPD1     N14334   0.384   3.931  16.893  0.3718  0.2678  0.5446
    3MPD1    H514335   0.474   3.925  16.938  1.2077  1.7504 -0.9185
    3MPD1    N114336   0.467   4.417  16.866 -0.0368  0.3177  0.1965
    3MPD1    H614337   0.564   4.388  16.871 -0.3696 -0.2660  3.5056
    3MPD1    H714338   0.446   4.492  16.800 -0.6065  1.1831  1.3550
    1TMC1    C114339   2.211   2.220  13.146 -0.3367  0.3243 -0.2571
    1TMC1    C214340   2.283   2.297  13.057 -0.6826 -0.7503 -0.3619
    1TMC1    C314341   2.228   2.411  13.010  0.1918 -0.1463 -0.5941
    1TMC1    C414342   2.082   2.248  13.178  0.3022 -0.1449  0.7398
    1TMC1    C514343   2.032   2.356  13.120  0.5131  0.4892  0.2500
    1TMC1    C614344   2.099   2.442  13.045 -0.0713 -0.1047  0.4808
    1TMC1     C14345   2.280   2.124  13.233  0.2326 -0.0953  0.1852
    1TMC1     O14346   2.207   2.064  13.313 -0.0224 -0.1600  0.1430
    1TMC1     H14347   2.383   2.279  13.018  0.0260  1.8049  0.2683
    1TMC1    H114348   2.018   2.189  13.243 -0.0702 -0.9267 -0.3454
    1TMC1    H214349   2.043   2.518  12.991 -2.2448 -1.6306  0.5530
    1TMC1    C714350   1.909   2.409  13.168 -1.2264 -0.3422 -0.2199
    1TMC1    C814351   2.303   2.484  12.913 -0.5978  0.2568  0.3132
    1TMC1    O114352   1.826   2.476  13.103 -0.2863  0.6637 -0.1017
    1TMC1    O214353   2.410   2.440  12.869 -0.3628 -0.2123 -0.3035
    1TMC1    O314354   1.904   2.380  13.299 -0.7538 -0.4132 -0.0382
    1TMC1    H314355   1.996   2.364  13.328 -0.1398  3.4540  0.0896
    1TMC1    O514356   2.246   2.605  12.899 -0.1650 -0.2834  0.7139
    1TMC1    H514357   2.169   2.631  12.954 -0.2319  3.2227 -1.0300
    2MPD2     C14358   2.494   1.951  13.348  0.4378 -0.5798  0.0142
    2MPD2    C114359   2.519   2.061  13.272  0.1753  0.0637  0.5825
    2MPD2    C214360   2.653   2.095  13.236  0.0255  0.3474 -0.3766
    2MPD2    C314361   2.757   2.010  13.273  0.4373 -0.0767 -0.1467
    2MPD2    C414362   2.726   1.899  13.350 -0.1840 -0.0782  0.0320
    2MPD2    C514363   2.596   1.879  13.390 -0.0220 -0.2696 -0.5109
    2MPD2     H14364   2.664   2.175  13.164 -1.1191  1.9241  1.2199
    2MPD2    H114365   2.804   1.832  13.384 -0.4452 -0.3641  0.0648
    2MPD2    H214366   2.396   1.927  13.386  0.2321  1.6307  0.8588
    2MPD2    H314367   2.576   1.789  13.448 -1.0544  2.0953  2.7860
    2MPD2     N14368   2.888   2.040  13.235 -0.2352  0.1893 -0.4982
    2MPD2    H514369   2.904   2.132  13.194 -1.1325  0.1641 -0.9008
    2MPD2    N114370   2.419   2.144  13.221  0.3587 -0.6214  0.0854
    2MPD2    H714371   2.443   2.215  13.151 -0.2484  0.7225  1.2327
    3TCq1    O114372   3.369   2.379  13.134  0.1154  0.5542  0.3335
    3TCq1    C114373   3.249   2.343  13.184  0.1934 -0.1276 -0.3746
    3TCq1    O214374   3.200   2.384  13.287 -0.6178  0.0224 -0.0083
    3TCq1    C214375   3.223   2.215  13.122 -0.7582  0.8423 -0.6325
    3TCq1    C314376   3.327   2.143  13.072 -0.7231  0.0033 -0.0085
    3TCq1    C414377   3.307   2.006  13.079  0.1481  0.5605 -0.6118
    3TCq1    C514378   3.203   1.947  13.139  0.0805  0.0280 -0.0549
    3TCq1    C614379   3.109   2.022  13.200 -0.2555  0.0896 -0.2093
    3TCq1    C714380   3.114   2.154  13.188 -0.0678  0.6636 -0.2007
    3TCq1    C814381   2.990   1.953  13.248  0.1788 -0.4262  0.0191
    3TCq1    O414382   2.989   1.832  13.262 -0.4416  0.0025 -0.6679
    3TCq1    C914383   3.396   1.917  13.018  0.3961  0.5470  0.1153
    3TCq1    O514384   3.355   1.801  13.000  0.1500  0.2120 -0.2349
    3TCq1    O614385   3.500   1.960  12.957  0.6265 -0.1241  0.1963
    3TCq1    H114386   3.390   2.345  13.045 -1.1439 -0.9639  0.6121
    3TCq1    H214387   3.417   2.186  13.030 -2.3845  3.1400 -0.3940
    3TCq1    H314388   3.192   1.839  13.142 -1.6966  0.2345  0.8386
    3TCq1    H414389   3.049   2.214  13.250 -0.5519 -0.2149  0.1364
    1MPD2     C14390   2.703   4.154  14.423 -0.1817  0.8764 -0.1627
    1MPD2    C114391   2.630   4.086  14.523  0.1436 -0.6425  0.3713
    1MPD2    C214392   2.698   4.002  14.606 -0.3939  0.1878 -0.0866
    1MPD2    C314393   2.832   3.984  14.599 -0.3857 -0.6858 -0.0764
    1MPD2    C414394   2.909   4.050  14.510 -0.1897  0.1279 -0.2068
    1MPD2    C514395   2.844   4.134  14.422  0.2932 -1.1099 -0.2086
    1MPD2     H14396   2.654   3.942  14.685  0.0756 -0.4869 -0.3438
    1MPD2    H114397   3.015   4.034  14.494 -0.4085 -1.7346  0.2648
    1MPD2    H214398   2.654   4.216  14.349 -0.6106  1.4360  0.5914
    1MPD2    H314399   2.910   4.185  14.353 -1.8085  0.5033 -1.0336
    1MPD2     N14400   2.878   3.890  14.699 -0.1957  0.6471  0.1335
    1MPD2    H514401   2.805   3.850  14.757 -0.9987  1.0368 -0.6216
    1MPD2    N114402   2.490   4.108  14.529 -0.1124 -0.2946  1.0058
    1MPD2    H714403   2.455   4.177  14.465  0.2273 -0.9297  0.1305
    2TMC3    C114404   2.289   4.129  14.644  0.4207 -0.0159  0.4265
    2TMC3    C214405   2.233   4.097  14.770 -0.1432 -0.0549  0.2611
    2TMC3    C314406   2.108   4.041  14.781 -0.4589  0.2320  0.1044
    2TMC3    C414407   2.209   4.124  14.530  1.2339 -0.1366 -0.0192
    2TMC3    C514408   2.079   4.083  14.550 -0.3361  0.1576  0.3169
    2TMC3    C614409   2.033   4.032  14.669 -0.0919 -0.1384  0.2838
    2TMC3     C14410   2.412   4.065  14.634  0.2545  0.3027 -0.7405
    2TMC3     O14411   2.444   3.989  14.720  0.1889  0.2403 -0.1530
    2TMC3     H14412   2.293   4.113  14.859 -0.5809  2.0235  0.1625
    2TMC3    H114413   2.246   4.122  14.428 -0.7400  1.2015 -0.7695
    2TMC3    H214414   1.928   4.005  14.680 -0.0740 -0.6807 -0.8237
    2TMC3    C714415   1.977   4.115  14.458 -0.4854  0.5132 -0.3193
    2TMC3    C814416   2.107   3.923  14.860  0.3803  0.1275  0.2720
    2TMC3    O114417   1.875   4.051  14.472  0.2501  0.6480 -0.3789
    2TMC3    O214418   1.999   3.873  14.897  0.1549 -0.1360  0.0452
    3TCq1    O114419   2.353   0.155  13.697 -0.2427  0.2802 -0.1475
    3TCq1    C114420   2.290   0.099  13.804 -0.5663  0.2359  0.2592
    3TCq1    O214421   2.338   0.094  13.917 -0.2880 -0.5615  0.0520
    3TCq1    C214422   2.150   0.074  13.778 -0.1581  0.7510  0.7344
    3TCq1    C314423   2.084   0.152  13.681  0.9780  0.2147  0.0627
    3TCq1    C414424   1.952   0.125  13.660 -0.3564  0.4170  0.0966
    3TCq1    C514425   1.880   0.047  13.742 -0.8313 -0.0498 -0.7428
    3TCq1    C614426   1.940   4.719  13.847  0.4641 -0.2983 -0.4840
    3TCq1    C714427   2.071   4.724  13.859 -0.2757 -0.9912  0.2372
    3TCq1    C814428   1.866   4.603  13.913 -0.1797 -0.4889 -0.0518
    3TCq1    O414429   1.753   4.595  13.865 -0.1259  0.2787 -0.2247
    3TCq1    C914430   1.876   0.189  13.561 -0.0752  1.0265 -0.1873
    3TCq1    O514431   1.946   0.249  13.477 -1.0255 -0.1211  0.5398
    3TCq1    O614432   1.757   0.147  13.550  0.1523  0.2417  0.8738
    3TCq1    H114433   2.311   0.152  13.609 -3.5954  1.0072  1.4296
    3TCq1    H214434   2.133   0.232  13.628 -2.0468  0.9882 -1.5811
    3TCq1    H314435   1.772   0.045  13.730 -1.0380  1.5584  0.8220
    3TCq1    H414436   2.131   4.672  13.933  0.8210  3.3730  2.3883
    4MPD2     C14437   1.757   4.369  14.060 -0.2845 -1.0136 -0.2560
    4MPD2    C114438   1.880   4.427  14.090 -0.0481  0.6397 -0.2078
    4MPD2    C214439   1.963   4.370  14.180 -0.4591  0.2790 -0.4656
    4MPD2    C314440   1.928   4.264  14.259  0.1473  0.3975  0.0387
    4MPD2    C414441   1.793   4.221  14.247 -0.0614  0.1298 -0.7160
    4MPD2    C514442   1.718   4.266  14.141  0.1952  0.1247 -0.4664
    4MPD2     H14443   2.063   4.409  14.194 -0.2572 -0.4821  0.1732
    4MPD2    H114444   1.745   4.151  14.314 -0.9172 -0.0410 -1.5054
    4MPD2    H214445   1.677   4.402  13.994 -0.1469  0.8909  0.5122
    4MPD2    H314446   1.616   4.232  14.147  0.8060 -1.2126  2.2997
    4MPD2     N14447   2.010   4.210  14.361  0.3484 -0.1720 -0.4730
    4MPD2    H514448   2.099   4.259  14.372  0.0489  0.5962 -1.4656
    4MPD2    N114449   1.931   4.540  14.017  0.4522  0.0888  0.3194
    4MPD2    H714450   2.021   4.577  14.046 -0.0400  2.3377 -1.0858
    5TMC2    C114451   2.838   3.624  14.923  0.3058  0.4337 -0.8140
    5TMC2    C214452   2.899   3.665  15.040 -1.0164  0.1147  0.0250
    5TMC2    C314453   3.021   3.725  15.037  0.0335  0.5501 -0.2345
    5TMC2    C414454   2.909   3.659  14.812  0.1942 -0.2447  0.0504
    5TMC2    C514455   3.019   3.738  14.812  0.4743 -0.5346  0.7876
    5TMC2    C614456   3.087   3.766  14.924  0.1304 -0.7198 -0.0660
    5TMC2     C14457   2.706   3.671  14.914  0.2334  0.0685  0.0433
    5TMC2     O14458   2.676   3.714  14.807  0.2902 -0.2981  0.1226
    5TMC2     H14459   2.849   3.646  15.135  0.3233  0.5930  0.8222
    5TMC2    H114460   2.865   3.627  14.718  0.8282  0.3337 -0.4467
    5TMC2    H214461   3.167   3.838  14.937  0.7950 -1.5830  0.5899
    5TMC2    C714462   3.007   3.858  14.732  0.0500 -1.1084  0.4220
    5TMC2    C814463   3.037   3.803  15.154  0.0827 -0.1259 -0.5019
    5TMC2    O114464   3.115   3.911  14.701  0.4413  0.2858 -0.1873
    5TMC2    O214465   2.972   3.901  15.176  0.2180 -0.6972 -0.0164
    5TMC2    O514466   3.169   3.798  15.187 -0.2078  0.5681  0.6184
    5TMC2    H514467   3.214   3.713  15.170 -0.8767  0.3340  0.0229
    6MPD2     C14468   2.209   3.699  15.046 -0.0954  0.1642 -0.4231
    6MPD2    C114469   2.284   3.778  14.960  0.3170 -0.1274 -0.8763
    6MPD2    C214470   2.422   3.754  14.953  0.2704 -0.1166  0.5540
    6MPD2    C314471   2.487   3.667  15.036  0.1275 -0.2930  0.0833
    6MPD2    C414472   2.407   3.597  15.130  0.3176 -0.1747  0.5695
    6MPD2    C514473   2.272   3.609  15.131  0.6023 -0.5839  0.1674
    6MPD2     H14474   2.484   3.805  14.879  1.3519  0.8984  2.1660
    6MPD2    H114475   2.447   3.520  15.195  0.8737 -0.0967  0.3145
    6MPD2    H214476   2.102   3.716  15.055 -0.2037 -1.9622  2.3230
    6MPD2    H314477   2.202   3.560  15.199 -0.7448  0.4545 -0.4768
    6MPD2     N14478   2.624   3.637  15.023  0.5397  0.5435  0.0633
    6MPD2    H514479   2.660   3.571  15.090  1.2493  0.9967  0.1330
    6MPD2    N114480   2.238   3.883  14.880  0.7645 -0.3080 -0.2619
    6MPD2    H714481   2.312   3.922  14.823  1.1256 -3.6091 -2.0238
  945NH4     N114482   0.804   2.201  10.741  0.1682  0.0789  1.0014
  945NH4     H214483   0.765   2.228  10.649 -1.1077 -0.3868  1.3982
  945NH4     H314484   0.781   2.102  10.759 -3.3010  0.4931 -1.2638
  945NH4     H414485   0.760   2.252  10.821  1.5392 -0.2943  1.9955
  945NH4     H514486   0.906   2.218  10.733 -0.0881  1.9737  1.7255
  946SOD     NA14487   3.433   1.614  13.883  0.2799 -0.1013  0.1781
  947SOD     NA14488   0.591   2.879  13.947 -0.0366  0.2483  0.4449
  948SOD     NA14489   1.948   0.200  13.244  0.6167 -0.1115  0.2479
  949SOD     NA14490   1.549   4.424  13.490  0.2354 -0.2006 -0.1019
  950SOD     NA14491   0.598   3.695   4.810 -0.3027  0.4777  0.1530
  951SOD     NA14492   1.141   4.713   2.571  0.3710  0.2346  0.2445
  952SOD     NA14493   3.017   0.687  13.222  0.1371 -0.2713  0.2976
  953SOL     OW14494   0.790   2.715   7.909 -0.1646  0.3537  0.1524
  953SOL    HW114495   0.733   2.780   7.949  0.1826 -1.5135  3.6222
  953SOL    HW214496   0.847   2.678   7.976  0.7609 -0.8087 -1.2803
  954SOL     OW14497   3.500   3.463  14.889 -0.7105 -0.4515 -0.1046
  954SOL    HW114498   3.486   3.398  14.821  1.8049 -0.7729 -0.3046
  954SOL    HW214499   3.433   3.531  14.880  0.1775  0.5828  1.0220
  955SOL     OW14500   3.829   3.925  16.936 -0.5060  0.2397  0.0688
  955SOL    HW114501   3.880   3.993  16.981  1.9106 -1.0648 -0.7024
  955SOL    HW214502   3.736   3.946  16.944 -0.6319  0.0958 -0.9465
  956SOL     OW14503   1.723   0.078   5.063  0.1968 -0.4283 -0.2165
  956SOL    HW114504   1.647   0.092   5.119  0.2424  0.3849 -0.3475
  956SOL    HW214505   1.787   0.117   5.123 -2.2602  1.1660  1.3820
  957SOL     OW14506   1.186   1.848   7.118 -0.2175 -0.2398  0.0035
  957SOL    HW114507   1.126   1.812   7.184  0.1488  0.4648  0.7343
  957SOL    HW214508   1.242   1.897   7.178  2.7556 -3.2918 -0.2758
  958SOL     OW14509   2.373   1.990   9.191 -0.9259 -0.0042  0.3952
  958SOL    HW114510   2.381   2.024   9.280 -0.4403 -1.1497  0.7881
  958SOL    HW214511   2.457   2.009   9.149 -0.5494 -0.0420  1.1320
  959SOL     OW14512   1.641   2.943   5.579 -0.6794  0.1866  0.3362
  959SOL    HW114513   1.678   3.025   5.546 -0.6743 -0.4407 -1.2280
  959SOL    HW214514   1.616   2.976   5.665 -0.3635  0.0121  0.4941
  960SOL     OW14515   1.766   0.352   4.459  0.7456 -0.2072 -0.0047
  960SOL    HW114516   1.805   0.331   4.374  0.5701 -0.8800  0.0806
  960SOL    HW214517   1.729   0.267   4.482 -1.1126 -0.1086 -2.6503
  961SOL     OW14518   2.569   1.839  16.875 -0.4708 -0.1848  0.2739
  961SOL    HW114519   2.519   1.762  16.904 -0.9181 -0.3004 -0.8323
  961SOL    HW214520   2.510   1.873  16.808  0.5687  1.1577  0.0493
  962SOL     OW14521   3.002   2.862   0.560 -0.3695  0.1632 -0.7707
  962SOL    HW114522   2.930   2.879   0.621  1.4875 -2.7870  2.2886
  962SOL    HW214523   2.969   2.883   0.473  1.2952  0.5926 -1.2959
  963SOL     OW14524   2.756   1.942   6.813  0.3591  0.3017  0.3621
  963SOL    HW114525   2.789   2.028   6.784 -2.2630  0.5323 -1.9564
  963SOL    HW214526   2.772   1.882   6.740 -0.1984 -0.6483  1.0239
  964SOL     OW14527   3.144   2.196   7.532 -0.1044 -0.0866 -0.3153
  964SOL    HW114528   3.122   2.263   7.596  1.1093 -0.3000  0.3358
  964SOL    HW214529   3.215   2.152   7.579  0.9562  2.3488  0.3635
  965SOL     OW14530   4.228   4.141   3.943 -0.0947  0.2284  0.0902
  965SOL    HW114531   4.255   4.101   3.861  0.7048  1.5764 -0.3156
  965SOL    HW214532   4.261   4.071   4.000  1.7309  2.3972  1.7180
  966SOL     OW14533   0.851   1.299   1.664  0.4143  0.0420  0.6342
  966SOL    HW114534   0.801   1.220   1.644  0.4175  0.1529  0.1935
  966SOL    HW214535   0.913   1.258   1.724  1.3715 -0.5186 -0.7225
  967SOL     OW14536   3.364   2.109  13.977 -0.8763 -0.1097  0.2185
  967SOL    HW114537   3.379   2.155  13.895  0.6342  1.6770  1.4968
  967SOL    HW214538   3.392   2.173  14.042 -1.7485  1.1316 -0.6320
  968SOL     OW14539   2.823   3.177   6.887 -0.2895 -0.3571  0.1997
  968SOL    HW114540   2.904   3.201   6.932 -1.7783  3.6319  0.7959
  968SOL    HW214541   2.762   3.192   6.959  0.8484 -1.0917  1.3234
  969SOL     OW14542   0.217   1.233   0.082  0.0429  0.0920 -0.7495
  969SOL    HW114543   0.284   1.198   0.140 -2.3566  0.0185  1.9753
  969SOL    HW214544   0.198   1.167   0.015 -0.0669 -0.2646 -0.3649
  970SOL     OW14545   3.577   2.744   4.274  0.1368  0.4259 -0.1621
  970SOL    HW114546   3.510   2.758   4.207 -1.8853  2.0656  2.1801
  970SOL    HW214547   3.574   2.650   4.294  0.8578  0.3874 -0.2480
  971SOL     OW14548   4.023   0.563  14.635  0.0941 -0.1704 -0.1198
  971SOL    HW114549   3.933   0.539  14.613  0.1457 -1.3093  0.9467
  971SOL    HW214550   4.039   0.604  14.549  2.3249 -0.5393  0.1165
  972SOL     OW14551   1.594   4.150   4.067  0.0811 -0.0206 -0.3979
  972SOL    HW114552   1.519   4.190   4.111  0.8874 -0.0685  1.0108
  972SOL    HW214553   1.665   4.213   4.077 -1.7757  1.7167  1.7987
  973SOL     OW14554   2.173   3.461   2.285  0.4690 -0.4131 -0.3567
  973SOL    HW114555   2.233   3.533   2.305 -1.1188  0.8761 -0.3012
  973SOL    HW214556   2.224   3.407   2.225 -0.7473  1.6181 -3.2328
  974SOL     OW14557   1.893   3.370   3.166  0.2820 -0.1055 -0.3585
  974SOL    HW114558   1.873   3.293   3.113  0.8049  0.9966 -2.1481
  974SOL    HW214559   1.960   3.411   3.112  0.8560  2.8305  2.5901
  975SOL     OW14560   3.820   3.360   9.890  0.5967  0.0696  0.4186
  975SOL    HW114561   3.794   3.336   9.979 -1.7585 -0.2504 -0.3489
  975SOL    HW214562   3.911   3.383   9.911  1.1276  0.1813 -1.9689
  976SOL     OW14563   3.277   3.566  15.150 -0.2143  0.1301  0.5489
  976SOL    HW114564   3.367   3.536  15.136 -0.7308 -1.1774  0.0109
  976SOL    HW214565   3.231   3.498  15.101  1.0581 -0.2729 -0.0883
  977SOL     OW14566   0.693   4.600   3.987 -0.2143 -0.0852 -0.2893
  977SOL    HW114567   0.688   4.509   4.016 -1.2747  0.1999  0.4462
  977SOL    HW214568   0.752   4.603   3.912 -0.8557  0.6465 -0.7633
  978SOL     OW14569   4.705   3.023   2.955 -0.0039 -0.0883 -0.1318
  978SOL    HW114570   4.717   3.055   2.865 -0.5907  0.8370  0.1160
  978SOL    HW214571   0.063   3.034   2.973 -0.4323  1.0006  1.3710
  979SOL     OW14572   3.277   2.769  14.369 -0.2926 -0.2133 -0.2726
  979SOL    HW114573   3.196   2.720  14.359  0.3987 -1.2822 -0.5929
  979SOL    HW214574   3.341   2.707  14.403 -0.6375 -1.4278 -1.8309
  980SOL     OW14575   2.835   2.205   1.522  0.1689 -0.5125 -0.3435
  980SOL    HW114576   2.850   2.209   1.428  0.5109 -3.4238 -0.4054
  980SOL    HW214577   2.740   2.191   1.521  0.5969 -3.1230 -2.6997
  981SOL     OW14578   3.008   3.774   6.534 -0.6425 -0.2414  0.3504
  981SOL    HW114579   3.070   3.822   6.479 -0.6334 -0.8327 -0.1579
  981SOL    HW214580   2.995   3.833   6.608  2.1474  0.0484  0.6164
  982SOL     OW14581   3.513   4.457   5.527 -0.3550  0.6891 -0.0200
  982SOL    HW114582   3.525   4.534   5.471  0.9523  0.6922  0.2867
  982SOL    HW214583   3.418   4.444   5.518 -0.3783  2.0653 -1.7323
  983SOL     OW14584   2.538   2.216   5.060  0.5434  0.3475  0.3679
  983SOL    HW114585   2.476   2.287   5.077 -2.5830 -1.9342 -1.5914
  983SOL    HW214586   2.610   2.251   5.007  0.0422 -1.3141 -1.3963
  984SOL     OW14587   3.363   1.838  12.501 -0.0632  0.1582  0.0318
  984SOL    HW114588   3.440   1.855  12.555 -0.5729 -0.6898  1.0355
  984SOL    HW214589   3.376   1.748  12.470  0.8893 -0.4560  2.1737
  985SOL     OW14590   3.345   0.766   4.170  0.4232 -0.3745 -0.1048
  985SOL    HW114591   3.384   0.792   4.254 -1.0584  0.2994  0.3728
  985SOL    HW214592   3.346   0.671   4.176 -3.1389 -0.5400 -2.1206
  986SOL     OW14593   2.358   1.586   1.575  0.0264  0.1825  0.6229
  986SOL    HW114594   2.441   1.539   1.587 -1.3818 -2.0151  1.5147
  986SOL    HW214595   2.329   1.524   1.508  0.0861  0.7110  0.1072
  987SOL     OW14596   0.764   2.146   8.919 -0.4399 -0.4457 -0.3031
  987SOL    HW114597   0.821   2.223   8.923 -0.8318 -0.2220  0.9074
  987SOL    HW214598   0.819   2.082   8.875 -0.3749  0.5459 -1.6960
  988SOL     OW14599   2.664   3.953   0.508  0.3994  0.4453  0.3446
  988SOL    HW114600   2.616   3.907   0.578  0.1084  1.2236  0.6535
  988SOL    HW214601   2.754   3.934   0.535 -0.6599 -3.9933  0.8179
  989SOL     OW14602   0.053   2.663   8.209 -0.1745 -0.3501 -0.1171
  989SOL    HW114603   4.713   2.643   8.151  1.0544 -2.4899 -0.9871
  989SOL    HW214604   0.132   2.662   8.155 -0.6287 -0.1992 -0.7939
  990SOL     OW14605   0.617   2.489   6.272 -1.0457 -0.1648 -0.2838
  990SOL    HW114606   0.608   2.516   6.180 -0.2389  2.0630  0.2752
  990SOL    HW214607   0.696   2.537   6.299 -2.4328  1.2668  1.1979
  991SOL     OW14608   2.995   3.203  10.683 -0.6299 -0.3484  0.2860
  991SOL    HW114609   2.929   3.192  10.751 -1.8438 -0.1076 -0.8497
  991SOL    HW214610   2.960   3.275  10.631 -0.4117 -0.5171 -0.0974
  992SOL     OW14611   1.400   2.125   9.634 -0.0493 -0.5157 -0.0128
  992SOL    HW114612   1.320   2.175   9.617  0.4767 -0.0834 -1.1840
  992SOL    HW214613   1.365   2.049   9.681 -1.2192  0.5369  0.8354
  993SOL     OW14614   1.002   3.731  14.698 -0.1913  0.4484  0.0352
  993SOL    HW114615   1.008   3.668  14.626  0.6957  0.5736  0.0102
  993SOL    HW214616   1.092   3.756  14.714  0.3844 -0.1313 -2.2265
  994SOL     OW14617   2.547   3.274   8.549  0.6860  0.3068  0.4139
  994SOL    HW114618   2.560   3.307   8.460  1.9910  3.0850  1.6360
  994SOL    HW214619   2.560   3.353   8.602  0.2503 -0.0205  1.0052
  995SOL     OW14620   1.671   0.299  17.597 -0.2097 -0.2270  0.9153
  995SOL    HW114621   1.613   0.272  17.668  0.0018  1.7569  1.8504
  995SOL    HW214622   1.724   0.347  17.662  1.3016 -1.3972  0.5580
  996SOL     OW14623   4.341   0.266  11.768 -0.0984  0.1257 -0.4028
  996SOL    HW114624   4.322   0.305  11.853  0.7869  1.6889 -0.9215
  996SOL    HW214625   4.436   0.272  11.762 -0.0126 -0.2504  0.6736
  997SOL     OW14626   2.751   3.396   0.989 -0.4695  0.5309  0.3643
  997SOL    HW114627   2.674   3.406   1.044  0.6053  0.2114  1.9415
  997SOL    HW214628   2.822   3.381   1.052 -0.6537  0.2307  0.4999
  998SOL     OW14629   0.111   0.654   6.199  0.4227  0.3990 -0.2945
  998SOL    HW114630   0.044   0.661   6.132  0.1753 -0.4783 -0.1332
  998SOL    HW214631   0.077   0.577   6.243  1.3501  0.4343  0.5000
  999SOL     OW14632   0.047   2.528  15.679  0.0768  0.1881  0.4734
  999SOL    HW114633   4.724   2.524  15.756 -1.5993 -1.7743 -0.8917
  999SOL    HW214634   0.045   2.620  15.653 -0.6927 -0.1145 -0.5136
 1000SOL     OW14635   3.660   3.958   5.973 -0.0934 -0.6574 -0.4220
 1000SOL    HW114636   3.647   3.863   5.965  0.1917 -0.6414 -1.1448
 1000SOL    HW214637   3.711   3.975   5.893  1.2300  0.4951  0.6652
 1001SOL     OW14638   2.479   3.451  17.602  0.3115 -0.0874 -0.2057
 1001SOL    HW114639   2.406   3.419  17.550 -1.1012  0.8980  1.1777
 1001SOL    HW214640   2.441   3.529  17.643  0.9100 -0.6122  1.3507
 1002SOL     OW14641   1.172   0.439   7.866  0.5326 -0.6392 -0.0984
 1002SOL    HW114642   1.142   0.454   7.956 -0.3570 -0.3213 -0.4433
 1002SOL    HW214643   1.086   0.466   7.832 -0.8197 -4.1165  0.4935
 1003SOL     OW14644   2.315   2.630   7.791  0.7186 -0.3359 -0.1244
 1003SOL    HW114645   2.237   2.636   7.846  0.1939 -0.4351 -0.8596
 1003SOL    HW214646   2.317   2.711   7.740  0.5965 -0.0767  0.2846
 1004SOL     OW14647   2.507   2.499  10.203 -0.1977  0.0265  0.0810
 1004SOL    HW114648   2.539   2.589  10.207 -1.2453  0.4333 -0.7908
 1004SOL    HW214649   2.538   2.451  10.281  1.0081  0.1450 -0.3156
 1005SOL     OW14650   4.095   0.553   7.667  0.7532 -0.3804 -0.2908
 1005SOL    HW114651   4.016   0.605   7.656  0.7538  0.0417  1.6995
 1005SOL    HW214652   4.075   0.492   7.738 -0.3774  2.7730  2.0883
 1006SOL     OW14653   3.587   3.593   4.851 -0.2905  0.1056 -0.3316
 1006SOL    HW114654   3.630   3.641   4.781  3.2264  0.1521  1.8423
 1006SOL    HW214655   3.494   3.613   4.842  0.0385  1.8440  0.2691
 1007SOL     OW14656   1.234   2.037   9.383  0.0985 -0.4296  0.0541
 1007SOL    HW114657   1.226   1.980   9.460  0.6532 -1.2819 -0.5220
 1007SOL    HW214658   1.153   2.026   9.334 -0.0992 -1.1519  0.5373
 1008SOL     OW14659   3.603   1.255  12.393 -0.2525  0.6183 -0.3414
 1008SOL    HW114660   3.548   1.246  12.315  0.5516 -4.0826 -0.3606
 1008SOL    HW214661   3.534   1.286  12.451 -0.4313  2.5607 -1.5661
 1009SOL     OW14662   2.339   0.267   4.682  0.4038  0.0223  0.0551
 1009SOL    HW114663   2.282   0.233   4.752  1.3034 -0.4281  0.5711
 1009SOL    HW214664   2.297   0.232   4.604 -1.4412 -1.2398  1.6261
 1010SOL     OW14665   2.816   2.505   5.103 -0.0756  0.6404  0.0850
 1010SOL    HW114666   2.911   2.490   5.095 -0.4059 -1.5457  0.4412
 1010SOL    HW214667   2.795   2.537   5.015 -0.2346 -0.1504 -0.1565
 1011SOL     OW14668   4.181   0.163   1.818  0.0164 -0.6112 -0.5096
 1011SOL    HW114669   4.196   0.070   1.836 -1.1177 -0.7062 -0.0509
 1011SOL    HW214670   4.199   0.199   1.905  1.1473 -1.7326 -0.2867
 1012SOL     OW14671   4.091   3.848   0.574 -0.1638 -0.7716 -0.1806
 1012SOL    HW114672   4.094   3.942   0.556  2.6079 -0.9951 -0.8792
 1012SOL    HW214673   4.049   3.852   0.660 -1.3926 -0.3487 -0.7968
 1013SOL     OW14674   2.873   3.921  15.432 -0.4158 -0.0145 -0.2381
 1013SOL    HW114675   2.862   3.895  15.341  0.6813 -1.1502 -0.0374
 1013SOL    HW214676   2.968   3.918  15.431 -0.3913  0.5395  0.8282
 1014SOL     OW14677   2.146   3.217   8.963  0.2412 -0.1221  0.2612
 1014SOL    HW114678   2.236   3.240   8.987  0.5439 -2.7026  1.5924
 1014SOL    HW214679   2.152   3.124   8.983  3.6474 -0.5829 -2.9030
 1015SOL     OW14680   1.751   4.161   9.522  0.1942 -0.5411  0.0180
 1015SOL    HW114681   1.746   4.084   9.465 -1.2514 -0.5933  0.2116
 1015SOL    HW214682   1.791   4.227   9.465  2.3809 -1.7726  0.1288
 1016SOL     OW14683   0.528   3.518   3.598 -0.3552  0.5048  0.6193
 1016SOL    HW114684   0.585   3.478   3.532  0.1363  3.0588 -0.5168
 1016SOL    HW214685   0.533   3.610   3.570 -0.7954  0.7119  1.2237
 1017SOL     OW14686   4.225   1.708   6.848 -0.3877 -0.3663  0.3399
 1017SOL    HW114687   4.138   1.731   6.815  0.2399  2.5356  0.6391
 1017SOL    HW214688   4.226   1.613   6.850 -1.5708 -0.4155 -1.5253
 1018SOL     OW14689   3.679   1.095   2.385  0.2878  0.5457 -0.2958
 1018SOL    HW114690   3.643   1.078   2.472 -0.4902 -1.4734 -1.0075
 1018SOL    HW214691   3.703   1.004   2.367 -1.5831  0.0886 -0.4512
 1019SOL     OW14692   2.293   0.071   6.355  0.3957  0.5479 -0.3824
 1019SOL    HW114693   2.199   0.085   6.360 -0.0015 -2.6737  0.8281
 1019SOL    HW214694   2.326   0.070   6.445 -1.0665 -0.3131  0.1333
 1020SOL     OW14695   2.780   3.959   9.465  0.2874 -0.4943 -0.1404
 1020SOL    HW114696   2.847   3.890   9.460 -0.6094 -1.3179 -0.7003
 1020SOL    HW214697   2.725   3.919   9.398  0.3421 -0.7348 -0.0428
 1021SOL     OW14698   4.360   2.824   2.455 -0.4893 -0.2797  0.3774
 1021SOL    HW114699   4.275   2.866   2.469  0.4493  1.9760 -0.6756
 1021SOL    HW214700   4.346   2.752   2.516 -0.5984 -0.7831 -0.2390
 1022SOL     OW14701   0.726   1.218   8.462 -0.2638 -0.5706  0.0377
 1022SOL    HW114702   0.821   1.222   8.452 -0.6437  1.5714 -2.9707
 1022SOL    HW214703   0.723   1.210   8.557  2.4311  0.1042  0.1627
 1023SOL     OW14704   4.577   2.231   3.870  0.3560 -0.3959 -0.2033
 1023SOL    HW114705   4.529   2.249   3.790  0.3962  1.9315  0.3086
 1023SOL    HW214706   4.667   2.247   3.840  1.0336 -4.7976 -0.5592
 1024SOL     OW14707   0.790   1.802   0.398  0.2849 -0.3987  0.1332
 1024SOL    HW114708   0.818   1.737   0.333 -2.0014  0.5416 -1.7738
 1024SOL    HW214709   0.695   1.799   0.406  0.1864  0.6130 -0.6464
 1025SOL     OW14710   4.236   0.640   3.230 -0.3844 -0.1277  0.1570
 1025SOL    HW114711   4.294   0.671   3.300 -0.7807 -1.0319  0.9032
 1025SOL    HW214712   4.295   0.575   3.192 -1.4184  0.2299 -2.0540
 1026SOL     OW14713   2.063   1.829   3.972 -0.5053  0.4091  0.4936
 1026SOL    HW114714   2.141   1.881   3.954  0.1851 -0.5663  0.7280
 1026SOL    HW214715   2.103   1.743   3.959 -0.2838  0.4140  1.1776
 1027SOL     OW14716   1.414   3.572   8.867  0.0452  0.4019 -0.1630
 1027SOL    HW114717   1.478   3.643   8.871  0.7205 -0.3560  2.4143
 1027SOL    HW214718   1.408   3.556   8.773 -1.2844 -2.6490  0.4556
 1028SOL     OW14719   3.297   0.273   8.457  0.5285 -0.5334  0.3258
 1028SOL    HW114720   3.290   0.367   8.446 -3.1406 -0.7228  0.7440
 1028SOL    HW214721   3.228   0.255   8.522 -0.0495 -0.3200 -0.2341
 1029SOL     OW14722   1.763   3.056   6.853 -0.4629 -0.7937 -0.3630
 1029SOL    HW114723   1.784   3.140   6.892 -1.1664 -0.3647 -0.9186
 1029SOL    HW214724   1.784   3.071   6.761 -0.5728  0.6188 -0.1482
 1030SOL     OW14725   3.849   0.053   2.129 -0.1318  0.2947 -0.0114
 1030SOL    HW114726   3.769   0.042   2.181 -0.3061  1.3518 -0.0631
 1030SOL    HW214727   3.826   0.136   2.088  3.1384  1.3069  0.2148
 1031SOL     OW14728   4.035   0.429   6.871 -0.0931  0.3113 -0.1740
 1031SOL    HW114729   3.952   0.447   6.914  0.8444  2.9969  0.5609
 1031SOL    HW214730   4.035   0.497   6.803 -0.7599 -0.2427 -0.7215
 1032SOL     OW14731   1.004   1.431   9.370  0.2054  0.1082 -0.1466
 1032SOL    HW114732   1.005   1.343   9.333  0.6673 -0.1298  0.4291
 1032SOL    HW214733   1.054   1.477   9.303  2.7433 -2.5350 -0.0372
 1033SOL     OW14734   2.871   0.849   5.602  0.6576  0.5281 -0.3488
 1033SOL    HW114735   2.948   0.879   5.650  1.6534 -1.3049 -0.7685
 1033SOL    HW214736   2.853   0.923   5.544 -0.7838  2.0524  2.0553
 1034SOL     OW14737   3.591   3.640  14.587  0.1361  0.5528  0.0964
 1034SOL    HW114738   3.539   3.653  14.667 -0.0397 -3.6278  0.6577
 1034SOL    HW214739   3.540   3.659  14.508 -1.9415 -0.8239  1.0986
 1035SOL     OW14740   3.816   4.324   4.408  0.6064 -0.6957 -0.2963
 1035SOL    HW114741   3.734   4.322   4.359 -0.2841  2.6423  1.0622
 1035SOL    HW214742   3.874   4.386   4.363 -0.4842  0.0426 -0.6628
 1036SOL     OW14743   3.310   3.187   6.148  0.4210 -0.3473  0.0781
 1036SOL    HW114744   3.250   3.222   6.214  0.1204  0.0208 -0.3868
 1036SOL    HW214745   3.252   3.144   6.085  1.1348  0.8014 -1.3483
 1037SOL     OW14746   1.341   3.131   7.406  0.0613 -0.3023 -0.4084
 1037SOL    HW114747   1.357   3.079   7.327 -1.1925 -2.5294  0.7845
 1037SOL    HW214748   1.289   3.206   7.377  1.4876  1.5701  1.9075
 1038SOL     OW14749   1.076   1.335  10.711  0.1217 -0.0186 -0.5972
 1038SOL    HW114750   1.116   1.248  10.709  0.3114  0.1144 -2.5408
 1038SOL    HW214751   0.987   1.305  10.690 -0.3201  0.3943  0.6782
 1039SOL     OW14752   0.602   0.033   2.834 -0.2611  0.9626  0.3782
 1039SOL    HW114753   0.565   4.692   2.787 -1.2126  0.6596  1.6167
 1039SOL    HW214754   0.604   0.090   2.757 -1.1193  0.0742 -0.3005
 1040SOL     OW14755   2.051   1.746   3.391 -0.1599 -0.2123 -0.2021
 1040SOL    HW114756   2.052   1.772   3.483  1.8648  2.5355 -1.0171
 1040SOL    HW214757   2.135   1.700   3.388 -0.0107  0.0076  0.4760
 1041SOL     OW14758   4.260   1.701  11.150  0.2155  0.0817  0.0232
 1041SOL    HW114759   4.322   1.651  11.098  2.1366  0.8786  1.5621
 1041SOL    HW214760   4.304   1.784  11.171 -0.4724  0.4315  0.0796
 1042SOL     OW14761   3.023   3.564   3.800 -0.0629  0.0073 -0.3475
 1042SOL    HW114762   3.076   3.528   3.730 -0.5995  1.1151 -1.3216
 1042SOL    HW214763   3.001   3.488   3.854 -0.1470  1.3740  1.5759
 1043SOL     OW14764   2.270   2.616   5.953  0.0441  0.4885 -0.2121
 1043SOL    HW114765   2.365   2.605   5.964 -0.6499 -3.2664  2.1206
 1043SOL    HW214766   2.241   2.598   6.042 -1.0799 -1.7374 -1.0442
 1044SOL     OW14767   0.316   0.379   3.020  0.3549 -0.1472 -0.3646
 1044SOL    HW114768   0.396   0.359   2.972  0.4992  0.9575 -0.5938
 1044SOL    HW214769   0.272   0.294   3.031  0.0392  0.2108  1.1071
 1045SOL     OW14770   3.602   3.377   4.394  0.4667  0.4263  0.0163
 1045SOL    HW114771   3.681   3.379   4.339  2.2392 -0.7445  2.5752
 1045SOL    HW214772   3.626   3.317   4.463 -0.8105 -0.5001 -0.3391
 1046SOL     OW14773   4.688   3.186  11.867 -0.3228  0.0266  0.7485
 1046SOL    HW114774   4.710   3.236  11.946  1.3872  1.0582 -0.3667
 1046SOL    HW214775   4.605   3.142  11.885  0.0832 -0.9710  0.1965
 1047SOL     OW14776   0.762   4.697   1.711  0.4221 -0.2394 -0.1980
 1047SOL    HW114777   0.709   4.729   1.785  1.1675 -0.7393  0.5513
 1047SOL    HW214778   0.777   0.043   1.663  1.7285 -0.3970 -0.0591
 1048SOL     OW14779   1.986   2.492   4.034 -0.0330  0.5970  0.0332
 1048SOL    HW114780   1.947   2.542   3.962  0.7890 -0.7108 -1.3209
 1048SOL    HW214781   1.984   2.398   4.014  1.0478  0.7163 -0.6553
 1049SOL     OW14782   4.701   3.279  16.411 -0.2630  0.3100 -0.0769
 1049SOL    HW114783   4.636   3.328  16.359 -3.5941 -2.8956  1.0458
 1049SOL    HW214784   4.672   3.294  16.501 -1.9291  2.1687 -0.8917
 1050SOL     OW14785   2.959   2.518  12.326  1.0278  0.0831  0.4536
 1050SOL    HW114786   2.998   2.459  12.391  0.6084 -0.4171  0.2505
 1050SOL    HW214787   2.963   2.604  12.368 -1.2412 -0.1223  1.0833
 1051SOL     OW14788   4.508   2.584   4.195 -0.5362  0.2330 -0.5292
 1051SOL    HW114789   4.562   2.510   4.165 -1.9429 -1.3757  0.8962
 1051SOL    HW214790   4.570   2.652   4.220 -0.4905  0.4330 -1.1849
 1052SOL     OW14791   4.129   0.167   4.401 -0.7685  0.1597 -0.6179
 1052SOL    HW114792   4.174   0.113   4.335  2.6175  1.2963  0.7422
 1052SOL    HW214793   4.160   0.257   4.388  0.0751 -0.2394 -1.4779
 1053SOL     OW14794   2.185   4.203   4.301  0.1671  0.0337 -0.2177
 1053SOL    HW114795   2.260   4.176   4.248 -0.8064 -2.2659 -0.3803
 1053SOL    HW214796   2.230   4.223   4.383  0.7211  0.7878 -0.6942
 1054SOL     OW14797   3.004   2.734   5.770  0.1753  0.2790  0.0939
 1054SOL    HW114798   2.957   2.653   5.790 -0.6959  0.3853 -1.5353
 1054SOL    HW214799   3.091   2.699   5.752 -0.1717 -0.8383  0.6307
 1055SOL     OW14800   0.246   3.930   2.656  0.2666 -0.5921 -0.0119
 1055SOL    HW114801   0.221   3.919   2.748 -0.9126 -1.6552 -0.4560
 1055SOL    HW214802   0.174   3.977   2.613  0.6286 -2.3869 -2.5760
 1056SOL     OW14803   0.312   2.720   4.703  0.0070  0.4279  0.0016
 1056SOL    HW114804   0.310   2.629   4.735 -0.4867  0.7209  0.7954
 1056SOL    HW214805   0.311   2.757   4.791  0.7405  0.2175  0.1066
 1057SOL     OW14806   2.304   4.365   2.360  0.2804 -0.2551 -0.9282
 1057SOL    HW114807   2.237   4.348   2.294 -2.3820  0.0987  1.7049
 1057SOL    HW214808   2.244   4.407   2.422  1.1918 -0.8002  0.3331
 1058SOL     OW14809   0.692   2.766   9.848  0.0429  0.0981  0.4091
 1058SOL    HW114810   0.654   2.741   9.764 -0.6295 -0.3573  0.8560
 1058SOL    HW214811   0.744   2.841   9.818 -1.5354  0.3096 -1.8068
 1059SOL     OW14812   0.074   3.080   2.213  0.0330 -0.5805  0.4138
 1059SOL    HW114813   0.109   3.058   2.127 -0.3640 -0.1416  0.1364
 1059SOL    HW214814   4.719   3.046   2.219  0.2703 -1.7042 -2.3236
 1060SOL     OW14815   4.650   4.654   4.169 -0.1018 -0.0536  0.1931
 1060SOL    HW114816   4.656   4.616   4.257 -0.9717  0.0942  0.3185
 1060SOL    HW214817   4.725   4.714   4.170 -0.5548  0.5085  0.6570
 1061SOL     OW14818   1.122   2.838  15.794 -0.6713  0.3789  0.4402
 1061SOL    HW114819   1.178   2.897  15.744 -2.5706  1.2609 -0.6684
 1061SOL    HW214820   1.116   2.887  15.876  1.8872  1.4319 -0.0009
 1062SOL     OW14821   3.269   1.820   7.548  0.0349 -0.5787  0.2070
 1062SOL    HW114822   3.309   1.897   7.508 -1.8737 -0.0707 -0.7228
 1062SOL    HW214823   3.285   1.844   7.639  1.2016 -1.6061  0.2734
 1063SOL     OW14824   4.659   3.765  12.188  0.0731  0.0358 -0.3743
 1063SOL    HW114825   0.020   3.765  12.182  0.1368  1.4342  0.6970
 1063SOL    HW214826   4.641   3.750  12.280  0.5080  0.4457 -0.2165
 1064SOL     OW14827   3.291   2.509   6.127  0.0962 -0.7138 -0.8055
 1064SOL    HW114828   3.232   2.584   6.136  0.8187 -0.6103  3.1422
 1064SOL    HW214829   3.358   2.515   6.196 -0.2527 -2.0160 -0.3491
 1065SOL     OW14830   4.728   3.508   5.008  0.5090  0.2286 -0.4275
 1065SOL    HW114831   4.710   3.536   5.098  0.0623 -0.6838 -0.2196
 1065SOL    HW214832   4.693   3.419   4.999 -1.0884  0.6481  1.5570
 1066SOL     OW14833   1.430   3.337   5.449  0.2376  0.3229 -0.4560
 1066SOL    HW114834   1.441   3.378   5.536 -0.0283  0.9927 -0.7393
 1066SOL    HW214835   1.364   3.400   5.420  0.0020 -0.9377 -2.6157
 1067SOL     OW14836   4.018   4.699   7.225  0.5633  0.1501  0.4658
 1067SOL    HW114837   4.093   0.001   7.271 -0.3995  1.2624  1.1729
 1067SOL    HW214838   4.055   4.691   7.137  0.2173  1.8571  0.1583
 1068SOL     OW14839   0.608   0.182   2.611  0.3594 -0.5008  0.3487
 1068SOL    HW114840   0.690   0.169   2.563 -0.9493  0.5795 -2.1897
 1068SOL    HW214841   0.545   0.203   2.543  0.6919  1.3770  0.6141
 1069SOL     OW14842   4.042   0.586   9.055  0.3569 -0.2058  0.3750
 1069SOL    HW114843   4.096   0.508   9.044  0.2460 -0.3097  0.5833
 1069SOL    HW214844   4.094   0.658   9.019 -0.4733  0.6395  0.8765
 1070SOL     OW14845   4.048   4.434   1.761  0.1028  0.2893  0.0032
 1070SOL    HW114846   4.001   4.482   1.831  0.8396  0.3380  0.4610
 1070SOL    HW214847   3.991   4.358   1.749 -0.9238  0.4458  3.6677
 1071SOL     OW14848   4.720   1.914   2.468 -0.4134 -0.2120  0.1727
 1071SOL    HW114849   0.010   1.872   2.550  0.2493  1.2220  0.7200
 1071SOL    HW214850   4.669   1.841   2.434  1.2365 -0.2535 -2.1292
 1072SOL     OW14851   2.930   3.334   9.951 -0.5983 -0.0495 -0.6842
 1072SOL    HW114852   2.927   3.254  10.002  0.8411  1.0650  1.1451
 1072SOL    HW214853   2.836   3.349   9.951 -0.4369  0.9552  0.3292
 1073SOL     OW14854   2.258   3.535  13.968 -0.3041  0.0931  0.3611
 1073SOL    HW114855   2.186   3.501  14.022 -0.9390  0.3751 -0.2981
 1073SOL    HW214856   2.224   3.529  13.878  2.2532  0.7623 -0.6323
 1074SOL     OW14857   0.050   4.645   3.321 -0.3727 -0.4296 -0.7307
 1074SOL    HW114858   4.704   4.597   3.304 -1.8124  1.0864  1.7415
 1074SOL    HW214859   0.104   4.622   3.246 -1.0256  0.8792 -1.6010
 1075SOL     OW14860   2.457   1.017   5.417 -0.4298 -0.5957 -0.0094
 1075SOL    HW114861   2.365   1.040   5.412  0.1199  1.7009  0.7453
 1075SOL    HW214862   2.458   0.938   5.362  2.0644 -0.3326 -0.3591
 1076SOL     OW14863   1.152   4.008   3.423  0.0447  0.6991 -0.1752
 1076SOL    HW114864   1.156   4.080   3.360 -0.0678 -1.2627 -2.3801
 1076SOL    HW214865   1.224   4.017   3.485 -0.2336  1.2466  0.0718
 1077SOL     OW14866   3.593   3.110   0.122 -0.4387  0.1604  0.0168
 1077SOL    HW114867   3.590   3.060   0.204  1.6196  2.0316  1.2211
 1077SOL    HW214868   3.532   3.180   0.143 -1.1482 -0.5699  0.4033
 1078SOL     OW14869   1.045   1.588   6.189 -0.0111  0.1095 -0.8177
 1078SOL    HW114870   1.091   1.602   6.272 -1.6942 -0.8168  0.2623
 1078SOL    HW214871   1.051   1.492   6.187  3.4185  0.3124 -0.9693
 1079SOL     OW14872   1.770   1.505   4.491  0.1633  0.5371  0.2793
 1079SOL    HW114873   1.837   1.473   4.552  0.5530 -1.9713 -1.4414
 1079SOL    HW214874   1.690   1.485   4.539  1.6828  2.0152  3.4397
 1080SOL     OW14875   1.721   3.321  10.945 -0.4438  0.2284 -0.5850
 1080SOL    HW114876   1.816   3.331  10.936 -0.2177 -1.0451  0.4843
 1080SOL    HW214877   1.695   3.334  10.854  1.7775 -0.0598 -1.2697
 1081SOL     OW14878   1.188   3.806   4.927 -0.5885  0.1388 -0.4441
 1081SOL    HW114879   1.139   3.724   4.936 -1.4623  0.7030 -0.0463
 1081SOL    HW214880   1.267   3.777   4.882 -0.3400 -0.0340  0.1054
 1082SOL     OW14881   0.774   3.892  13.475  0.1233 -0.0540 -0.1806
 1082SOL    HW114882   0.851   3.914  13.527 -0.9964  2.8544  0.2629
 1082SOL    HW214883   0.818   3.892  13.390 -0.1872  1.3532 -0.3443
 1083SOL     OW14884   4.552   1.869   4.429 -0.4397 -0.6601  0.5065
 1083SOL    HW114885   4.517   1.799   4.374  1.8623 -1.0231 -0.4917
 1083SOL    HW214886   4.493   1.944   4.430  0.2070 -0.1490  0.0356
 1084SOL     OW14887   3.297   4.405   5.722  0.4981  0.1102 -0.2570
 1084SOL    HW114888   3.270   4.314   5.736 -1.7003  0.8575  0.4764
 1084SOL    HW214889   3.349   4.417   5.801  2.0143  0.8542 -1.3747
 1085SOL     OW14890   2.123   0.666   1.788 -0.2042  0.7738  0.0483
 1085SOL    HW114891   2.029   0.651   1.778 -0.3830  1.5594  0.5390
 1085SOL    HW214892   2.148   0.695   1.700 -2.6423  2.7741  0.0155
 1086SOL     OW14893   2.978   4.253  16.349  0.4458 -0.2789 -0.0168
 1086SOL    HW114894   3.057   4.308  16.351 -0.5515  1.1862 -0.4687
 1086SOL    HW214895   2.972   4.236  16.255 -0.2268 -2.6127  0.4516
 1087SOL     OW14896   3.118   2.269   7.258  0.1078  0.0834 -0.2582
 1087SOL    HW114897   3.132   2.268   7.352 -0.3979 -1.3106 -0.1977
 1087SOL    HW214898   3.105   2.363   7.247 -0.0913  0.0803 -0.0380
 1088SOL     OW14899   1.898   0.829  12.750 -0.1463 -0.4115  0.3178
 1088SOL    HW114900   1.905   0.766  12.821 -1.5349  1.1904  1.8853
 1088SOL    HW214901   1.932   0.910  12.788 -0.8927 -0.1309  0.3723
 1089SOL     OW14902   4.217   4.018   5.116  0.3052 -0.5534  0.2817
 1089SOL    HW114903   4.259   3.939   5.082  0.2892 -0.3855 -0.1222
 1089SOL    HW214904   4.141   4.031   5.060 -0.8297 -2.3923  1.3688
 1090SOL     OW14905   2.122   3.810   7.680  0.5587  0.3094  0.2285
 1090SOL    HW114906   2.172   3.769   7.751  0.3328  3.1295  2.0101
 1090SOL    HW214907   2.174   3.785   7.603 -1.4599 -1.6740 -0.5100
 1091SOL     OW14908   1.591   1.345   6.319  0.4015 -0.2471  0.2225
 1091SOL    HW114909   1.591   1.338   6.414  0.4250 -1.5782  0.1338
 1091SOL    HW214910   1.678   1.307   6.307 -0.3649 -0.9352 -3.0827
 1092SOL     OW14911   2.195   4.531   0.091 -0.5028 -0.2254  0.0185
 1092SOL    HW114912   2.167   4.578   0.012 -3.1461  1.3659  1.9108
 1092SOL    HW214913   2.131   4.460   0.103 -0.1362 -0.3334  1.2677
 1093SOL     OW14914   3.298   1.118   5.208  0.3844  0.0053 -0.1999
 1093SOL    HW114915   3.239   1.191   5.188  0.4821  0.1363 -0.0098
 1093SOL    HW214916   3.367   1.140   5.146  0.9464  0.9150  0.7585
 1094SOL     OW14917   0.918   0.548   4.043  0.0250 -0.2396  0.0379
 1094SOL    HW114918   0.850   0.527   3.978 -0.5554  0.1760  0.5076
 1094SOL    HW214919   0.965   0.465   4.043 -0.6138 -0.5960  1.7416
 1095SOL     OW14920   4.367   2.467  11.719  0.1717  0.0014 -0.4213
 1095SOL    HW114921   4.307   2.540  11.709 -1.5847 -1.4106 -0.2210
 1095SOL    HW214922   4.309   2.399  11.755 -0.4427  1.1207  0.6997
 1096SOL     OW14923   0.415   2.612   9.075 -0.3581  0.5322 -0.6273
 1096SOL    HW114924   0.356   2.565   9.134  2.0792  0.3446  1.7064
 1096SOL    HW214925   0.391   2.565   8.996  1.2379 -0.0873 -0.7374
 1097SOL     OW14926   0.410   0.627  15.094 -0.5620  0.3915 -0.1339
 1097SOL    HW114927   0.345   0.695  15.077  0.5295  1.3571 -0.4670
 1097SOL    HW214928   0.433   0.614  15.002  1.1638  0.1346  0.3415
 1098SOL     OW14929   2.754   2.474  15.026 -0.4347  0.0349 -0.0204
 1098SOL    HW114930   2.811   2.549  15.042  1.7796 -1.4564 -0.9310
 1098SOL    HW214931   2.770   2.458  14.933  1.3642 -3.3029  0.8671
 1099SOL     OW14932   4.581   3.622   7.631 -0.0823  0.8049 -0.8205
 1099SOL    HW114933   4.540   3.707   7.612 -2.3787 -0.3446 -0.8983
 1099SOL    HW214934   4.551   3.608   7.720 -0.3379 -0.2113 -1.0708
 1100SOL     OW14935   1.561   3.523   3.772 -0.3936  0.3732 -0.1550
 1100SOL    HW114936   1.592   3.549   3.686 -0.4320  0.4136 -0.1562
 1100SOL    HW214937   1.467   3.538   3.769 -0.2639  0.9408 -1.3258
 1101SOL     OW14938   3.692   2.593   7.268 -0.8495 -0.4302  0.2551
 1101SOL    HW114939   3.599   2.574   7.259 -0.4598 -2.0714 -0.2016
 1101SOL    HW214940   3.729   2.505   7.274  1.5626  0.6397  1.1716
 1102SOL     OW14941   2.262   0.049   6.015  0.1191  0.0054  0.0336
 1102SOL    HW114942   2.321   0.011   5.950  0.0651 -1.7591  1.0075
 1102SOL    HW214943   2.260   4.706   6.071  0.3170 -0.8648 -1.1623
 1103SOL     OW14944   0.900   0.153   5.734 -0.5180 -0.3520 -0.2993
 1103SOL    HW114945   0.968   0.219   5.717 -0.9998 -0.0384 -1.0153
 1103SOL    HW214946   0.951   0.090   5.784  0.3921  0.4753 -0.1782
 1104SOL     OW14947   0.991   4.316   5.090 -0.3512  0.1453  0.2794
 1104SOL    HW114948   0.949   4.232   5.070 -1.2255  0.7587 -0.4805
 1104SOL    HW214949   0.971   4.373   5.016  1.0553 -0.1043 -0.2934
 1105SOL     OW14950   3.846   3.883  17.593 -0.5732 -0.0285  0.2598
 1105SOL    HW114951   3.814   3.803  17.551  1.3948 -0.7385  0.0770
 1105SOL    HW214952   3.940   3.866  17.606 -0.7487  0.0323  1.6830
 1106SOL     OW14953   4.255   1.866   7.114  0.3145  0.0554 -0.4419
 1106SOL    HW114954   4.230   1.868   7.022  3.0711 -3.4626 -1.2622
 1106SOL    HW214955   4.255   1.771   7.125  1.4587  0.1859  0.7222
 1107SOL     OW14956   0.812   4.582   6.516 -0.5454  0.2693 -0.1413
 1107SOL    HW114957   0.806   4.634   6.596 -1.2933  0.1884 -0.1436
 1107SOL    HW214958   0.817   4.655   6.454  0.6595  0.9459  0.7639
 1108SOL     OW14959   3.724   2.701  16.688 -0.6532  0.1295 -0.4634
 1108SOL    HW114960   3.680   2.738  16.765 -0.1696 -2.5469  1.0957
 1108SOL    HW214961   3.649   2.657  16.648 -0.5071 -1.3074  0.8430
 1109SOL     OW14962   3.095   2.962   4.399  0.2198  0.3318 -0.0678
 1109SOL    HW114963   3.036   2.893   4.370 -1.0350  1.2657  0.2396
 1109SOL    HW214964   3.037   3.015   4.454  0.3920  1.9407 -1.4435
 1110SOL     OW14965   4.112   0.249   1.333 -0.8239 -0.1888 -0.0105
 1110SOL    HW114966   4.183   0.282   1.278 -1.3704 -0.0858 -0.6477
 1110SOL    HW214967   4.132   0.292   1.416 -0.0741 -0.3848 -0.0905
 1111SOL     OW14968   2.774   2.161   5.196 -0.7602  0.2282 -0.4704
 1111SOL    HW114969   2.816   2.245   5.212  0.1675  0.1603 -2.4835
 1111SOL    HW214970   2.681   2.179   5.189 -0.8328  0.6589  1.6043
 1112SOL     OW14971   3.020   3.007   8.173 -0.4874 -0.1842  0.4397
 1112SOL    HW114972   2.955   2.990   8.240 -2.7511  0.1994 -1.6485
 1112SOL    HW214973   2.998   2.934   8.115 -0.2313 -0.8029  1.1156
 1113SOL     OW14974   0.465   1.520   1.798 -0.0197  0.1881  0.6955
 1113SOL    HW114975   0.443   1.578   1.724  0.3572  0.0690  0.4932
 1113SOL    HW214976   0.387   1.465   1.803  0.1329 -0.0349  0.5772
 1114SOL     OW14977   0.993   0.297  16.499 -0.2356 -0.0817  0.0200
 1114SOL    HW114978   0.954   0.273  16.583 -0.9123 -0.7862 -0.4867
 1114SOL    HW214979   0.973   0.221  16.444  0.4092 -0.0213 -0.2986
 1115SOL     OW14980   2.730   0.070   8.260  0.6337 -0.2964  1.0789
 1115SOL    HW114981   2.782   4.725   8.271  2.2715  0.6753  0.2460
 1115SOL    HW214982   2.796   0.125   8.219  0.6054 -0.4478  0.8299
 1116SOL     OW14983   0.667   2.863   1.897  0.4022 -0.1883  0.0475
 1116SOL    HW114984   0.737   2.917   1.860  0.4509  0.7640  1.5529
 1116SOL    HW214985   0.648   2.917   1.973 -0.5403 -1.9787  1.0770
 1117SOL     OW14986   0.881   2.469  10.170  0.1106  0.3654  0.3183
 1117SOL    HW114987   0.802   2.416  10.167  0.3885 -0.0053 -0.4753
 1117SOL    HW214988   0.871   2.501  10.081  0.3022 -0.1545  0.1069
 1118SOL     OW14989   1.025   3.342   8.724 -0.0448  0.6038  0.1123
 1118SOL    HW114990   0.989   3.404   8.788 -2.0018  0.9750 -1.3628
 1118SOL    HW214991   0.951   3.337   8.664 -0.3618  1.5028  0.4268
 1119SOL     OW14992   3.359   0.536   6.156  0.6714 -0.3033 -0.5090
 1119SOL    HW114993   3.410   0.460   6.184  0.8779 -0.6855 -1.8852
 1119SOL    HW214994   3.382   0.546   6.063 -1.0855 -0.0808 -0.9213
 1120SOL     OW14995   3.232   0.342   6.954  0.2973  0.8478 -0.2449
 1120SOL    HW114996   3.322   0.320   6.932  0.4615 -0.6187  1.9027
 1120SOL    HW214997   3.196   0.253   6.956  0.1106  0.9832  2.3724
 1121SOL     OW14998   3.930   3.296   7.242  0.5230 -0.4503  0.6851
 1121SOL    HW114999   3.927   3.201   7.234  2.0718 -0.5099  0.8976
 1121SOL    HW215000   3.937   3.329   7.152 -0.1664 -2.4036 -0.0928
 1122SOL     OW15001   0.103   3.610   3.481  0.3879 -0.2961  0.0068
 1122SOL    HW115002   0.049   3.689   3.477 -1.9948 -1.8810  1.2026
 1122SOL    HW215003   0.040   3.552   3.438  2.6745 -0.2113 -3.4608
 1123SOL     OW15004   1.862   0.227   5.272  0.1341  0.4318 -0.0729
 1123SOL    HW115005   1.863   0.319   5.247  0.9008  0.0074 -1.6473
 1123SOL    HW215006   1.809   0.244   5.350 -0.5238 -0.2739 -0.3614
 1124SOL     OW15007   2.146   4.663  12.803 -0.1422  0.0660  0.5418
 1124SOL    HW115008   2.198   4.627  12.732  1.8705 -1.6115  2.8663
 1124SOL    HW215009   2.213   4.685  12.868 -0.9747 -0.8923  1.7284
 1125SOL     OW15010   3.824   2.723   0.659  0.0640  0.2497  0.6492
 1125SOL    HW115011   3.859   2.741   0.571  0.6006 -1.5846  0.4744
 1125SOL    HW215012   3.766   2.798   0.667  0.3703  0.6793 -1.1041
 1126SOL     OW15013   4.181   0.448   4.352 -0.2442 -0.1530  0.1470
 1126SOL    HW115014   4.214   0.484   4.434 -0.2222 -0.1849  0.1518
 1126SOL    HW215015   4.131   0.522   4.317 -0.7136 -0.5667 -0.0607
 1127SOL     OW15016   3.226   1.602   7.030 -0.0235 -0.0472 -0.1742
 1127SOL    HW115017   3.220   1.697   7.041  2.2518 -0.2766  2.8609
 1127SOL    HW215018   3.305   1.586   7.081 -0.6371  1.3149  1.2012
 1128SOL     OW15019   4.490   3.642   4.424 -0.0263  0.2736  0.0312
 1128SOL    HW115020   4.513   3.565   4.372 -0.1110 -0.5539  1.2292
 1128SOL    HW215021   4.433   3.694   4.367 -1.4113  0.1107  1.2769
 1129SOL     OW15022   0.959   2.644   0.847 -0.1486 -0.0304  0.2642
 1129SOL    HW115023   0.893   2.705   0.815 -0.9321 -1.2847 -0.5145
 1129SOL    HW215024   0.993   2.603   0.767 -0.0949 -2.6843  1.6605
 1130SOL     OW15025   4.263   0.046  15.522  0.2251 -0.6821  0.0727
 1130SOL    HW115026   4.226   0.134  15.532 -1.2910 -1.0276 -2.6384
 1130SOL    HW215027   4.348   0.061  15.483  0.0407 -1.1593 -0.5101
 1131SOL     OW15028   1.912   2.134   6.732 -0.4768  0.6737 -0.2514
 1131SOL    HW115029   1.883   2.087   6.811  0.3754 -0.6134 -0.7070
 1131SOL    HW215030   1.948   2.070   6.672 -0.9700 -1.6299  1.9104
 1132SOL     OW15031   1.320   3.073  16.128  0.0187  0.2705  0.0985
 1132SOL    HW115032   1.235   3.030  16.118 -0.1383  0.9853 -1.6367
 1132SOL    HW215033   1.306   3.090  16.222  2.1228 -1.8070  0.7903
 1133SOL     OW15034   1.823   0.468  15.316 -0.0576  0.0967  0.0671
 1133SOL    HW115035   1.747   0.450  15.371  1.2023 -0.4545  1.6253
 1133SOL    HW215036   1.784   0.513  15.241 -0.7147 -1.1624 -0.3536
 1134SOL     OW15037   3.370   4.026  14.487  0.1261 -0.0200  0.0498
 1134SOL    HW115038   3.362   4.033  14.582 -1.2382 -1.6919  0.0723
 1134SOL    HW215039   3.347   4.116  14.465 -0.3717  0.1243  1.1443
 1135SOL     OW15040   1.154   0.437   3.533  0.2309  0.3685 -0.5203
 1135SOL    HW115041   1.096   0.442   3.609  0.8924  0.2703 -0.0137
 1135SOL    HW215042   1.135   0.517   3.485 -1.4586  1.0413  1.2782
 1136SOL     OW15043   2.337   1.307   1.765 -0.8254  0.0079  0.4858
 1136SOL    HW115044   2.360   1.372   1.831 -1.1852 -0.7000  1.3062
 1136SOL    HW215045   2.243   1.318   1.751 -0.8984 -0.3277  0.7276
 1137SOL     OW15046   0.164   3.919   8.346 -0.3244  0.0112  0.0103
 1137SOL    HW115047   0.112   3.977   8.290  1.3336  1.3383 -0.1562
 1137SOL    HW215048   0.251   3.958   8.335 -1.2332  1.5902 -1.5765
 1138SOL     OW15049   2.780   3.932   8.527 -0.8987 -0.3247  0.3293
 1138SOL    HW115050   2.821   3.923   8.441  1.3235  0.8845  1.2786
 1138SOL    HW215051   2.827   3.869   8.582 -0.1891  0.2368  0.3649
 1139SOL     OW15052   0.430   2.065  15.358  0.3387 -0.1988 -0.2807
 1139SOL    HW115053   0.479   2.138  15.397  1.0458 -0.0844 -1.4054
 1139SOL    HW215054   0.351   2.054  15.411  1.0181 -1.2039  0.5135
 1140SOL     OW15055   0.215   3.498   4.821 -0.1490 -0.8925 -0.3169
 1140SOL    HW115056   0.133   3.500   4.871  1.0638 -2.2036  1.7807
 1140SOL    HW215057   0.177   3.473   4.737 -0.1853 -0.2077 -0.5017
 1141SOL     OW15058   1.743   2.000   6.901 -0.3528  0.5492 -0.3077
 1141SOL    HW115059   1.690   1.979   6.824  0.9849 -3.8392 -0.0676
 1141SOL    HW215060   1.737   1.911   6.938  1.5323  1.2410  1.6462
 1142SOL     OW15061   2.159   1.282   8.727  0.4803 -0.4674  0.3365
 1142SOL    HW115062   2.226   1.349   8.739 -0.6407  0.8501 -0.8814
 1142SOL    HW215063   2.212   1.222   8.675  0.4125 -0.9944  0.8747
 1143SOL     OW15064   0.274   4.609   7.924 -0.0681  0.2378 -0.8318
 1143SOL    HW115065   0.342   4.669   7.954  1.0455 -1.5878  0.3425
 1143SOL    HW215066   0.197   4.629   7.978 -0.1471  2.3044 -1.7191
 1144SOL     OW15067   4.580   2.307  12.189 -0.0055 -0.4296 -0.3927
 1144SOL    HW115068   4.666   2.272  12.214 -0.5839 -2.5498 -1.4091
 1144SOL    HW215069   4.600   2.382  12.133  2.1727  0.0137  0.9895
 1145SOL     OW15070   1.549   3.368   6.815 -0.4070 -0.4372  0.3008
 1145SOL    HW115071   1.574   3.307   6.745  0.2923 -0.3494  0.4780
 1145SOL    HW215072   1.494   3.316   6.874 -0.3929 -2.5443 -1.5101
 1146SOL     OW15073   2.511   1.977   0.669 -0.1560 -1.0579  0.0106
 1146SOL    HW115074   2.588   1.983   0.612 -0.2871  0.2489 -0.0251
 1146SOL    HW215075   2.443   2.033   0.633 -0.4595  0.6179  3.1477
 1147SOL     OW15076   1.056   1.317   0.178  0.1625 -0.1888 -0.1981
 1147SOL    HW115077   0.965   1.348   0.182  0.3958  0.4848 -0.2118
 1147SOL    HW215078   1.051   1.240   0.122  2.1359 -0.9541  0.6749
 1148SOL     OW15079   0.597   2.960  17.185  0.3140 -0.1384 -0.4297
 1148SOL    HW115080   0.554   2.992  17.105 -0.0012 -5.0156 -2.2041
 1148SOL    HW215081   0.643   3.036  17.220 -2.3506  1.4191 -0.3247
 1149SOL     OW15082   2.623   4.425   3.716  0.4540  0.4129 -0.3431
 1149SOL    HW115083   2.611   4.342   3.669 -0.3263  0.0697  0.4377
 1149SOL    HW215084   2.702   4.449   3.669  2.2058  0.3981  2.5936
 1150SOL     OW15085   0.713   2.304   8.523 -0.0216 -0.4032 -0.0797
 1150SOL    HW115086   0.774   2.231   8.510 -0.5448 -0.8131 -0.2521
 1150SOL    HW215087   0.663   2.294   8.442 -0.4330  0.5313  0.0579
 1151SOL     OW15088   0.942   0.966   2.002 -0.3496  0.2992 -0.2949
 1151SOL    HW115089   0.968   0.877   1.979 -2.4702 -0.1802 -0.7774
 1151SOL    HW215090   0.997   0.978   2.079  0.8042 -2.4837 -0.6855
 1152SOL     OW15091   1.242   0.771   5.894  0.2312 -0.2252  0.0840
 1152SOL    HW115092   1.318   0.815   5.856  0.5068 -0.2314  0.6274
 1152SOL    HW215093   1.207   0.717   5.823  2.5134 -2.2732  0.5185
 1153SOL     OW15094   4.703   4.370   3.484 -0.4853  0.2122 -0.6724
 1153SOL    HW115095   4.624   4.321   3.506  0.3368 -1.7288 -2.0734
 1153SOL    HW215096   4.662   4.426   3.419 -0.0674  0.5110 -0.6812
 1154SOL     OW15097   3.912   0.015   3.348  0.1645  0.5207 -0.6966
 1154SOL    HW115098   3.948   0.020   3.437 -0.8061  2.2851 -0.4075
 1154SOL    HW215099   3.958   4.672   3.315 -0.2934 -0.2303  0.4312
 1155SOL     OW15100   1.119   2.122  17.642 -0.5175  0.1199 -0.7066
 1155SOL    HW115101   1.063   2.044  17.638 -1.0711  0.6368 -2.6790
 1155SOL    HW215102   1.055   2.181  17.683 -1.1095 -1.4367  0.6105
 1156SOL     OW15103   2.782   1.420  16.201  0.2364  0.6249 -0.0428
 1156SOL    HW115104   2.694   1.385  16.212  0.4585  0.1237  0.1440
 1156SOL    HW215105   2.768   1.508  16.167 -1.4747  0.0301 -0.8768
 1157SOL     OW15106   0.174   3.447   9.281 -0.1707 -0.8333  0.0260
 1157SOL    HW115107   0.262   3.411   9.268  0.2378  0.1666 -0.0456
 1157SOL    HW215108   0.195   3.513   9.348  0.0317 -1.9298  1.0367
 1158SOL     OW15109   3.576   0.957   5.133 -0.0593  0.0620 -0.1659
 1158SOL    HW115110   3.565   0.976   5.226  0.4380 -1.7115  0.2521
 1158SOL    HW215111   3.600   1.041   5.093  0.3713  0.4591  0.9281
 1159SOL     OW15112   4.207   2.397  15.139 -0.0796 -0.3750  0.7702
 1159SOL    HW115113   4.209   2.301  15.144 -2.1401 -0.4355  0.4966
 1159SOL    HW215114   4.155   2.424  15.063  0.9330 -0.4393  0.0555
 1160SOL     OW15115   1.715   3.719   2.407 -0.1081 -0.0426 -0.4914
 1160SOL    HW115116   1.746   3.766   2.330  0.8755 -0.8324 -0.5792
 1160SOL    HW215117   1.674   3.647   2.360  1.3058 -2.2021  1.5484
 1161SOL     OW15118   2.912   0.565   6.559  0.0726  0.0149  0.2930
 1161SOL    HW115119   2.900   0.590   6.468 -0.3278  1.5802  0.7787
 1161SOL    HW215120   2.888   0.473   6.548  1.2752 -0.1205 -1.0754
 1162SOL     OW15121   1.084   4.618   6.295 -0.0105  0.1521  0.1545
 1162SOL    HW115122   1.007   4.672   6.309 -0.7404 -1.1226  1.1103
 1162SOL    HW215123   1.083   4.565   6.374  0.8220 -1.4998 -0.9181
 1163SOL     OW15124   0.089   0.457  17.229 -0.2923  0.0998 -0.6204
 1163SOL    HW115125   0.183   0.437  17.231  0.1823  2.4013 -0.1334
 1163SOL    HW215126   0.077   0.496  17.142 -0.4812 -0.3872 -0.8126
 1164SOL     OW15127   2.452   4.535   6.542 -0.3284 -0.2603 -0.7627
 1164SOL    HW115128   2.411   4.605   6.593 -3.2689 -2.8147  0.3959
 1164SOL    HW215129   2.422   4.459   6.592 -1.4709  1.6870  1.5489
 1165SOL     OW15130   1.294   0.260   9.006 -0.5169 -0.1753 -0.1017
 1165SOL    HW115131   1.304   0.271   9.101 -0.8131 -2.6533  0.2046
 1165SOL    HW215132   1.244   0.340   8.991  2.0458  1.2306 -1.1417
 1166SOL     OW15133   3.984   1.244   4.182  0.7202 -0.4093  0.2611
 1166SOL    HW115134   3.997   1.328   4.227 -1.5629  0.6124 -1.0193
 1166SOL    HW215135   4.055   1.254   4.118 -1.1638 -1.6935 -2.0466
 1167SOL     OW15136   3.467   0.549  10.048  0.3287 -0.3002 -0.0433
 1167SOL    HW115137   3.547   0.519  10.090  0.8452  2.7768  1.1394
 1167SOL    HW215138   3.414   0.469  10.044 -0.3967  0.1325  0.9331
 1168SOL     OW15139   2.749   3.425   9.365  0.0023 -0.1711 -0.1446
 1168SOL    HW115140   2.689   3.460   9.431 -1.4371 -1.0982 -0.9626
 1168SOL    HW215141   2.788   3.362   9.426  0.4874 -2.4672 -2.8129
 1169SOL     OW15142   0.391   1.237   2.216  0.4156 -0.6122  0.5985
 1169SOL    HW115143   0.358   1.154   2.250  2.0481 -1.0847  1.0038
 1169SOL    HW215144   0.312   1.269   2.173  2.0072  1.2791 -0.9229
 1170SOL     OW15145   1.451   2.417   5.819  0.4881 -0.0048 -0.0798
 1170SOL    HW115146   1.506   2.359   5.766  1.5749  0.9041  0.0677
 1170SOL    HW215147   1.366   2.380   5.794 -0.2115  0.9641  0.9260
 1171SOL     OW15148   0.822   2.826   6.466  0.3589 -0.1005 -0.5257
 1171SOL    HW115149   0.799   2.757   6.528  1.8775 -1.5546 -1.6048
 1171SOL    HW215150   0.869   2.886   6.525 -1.0419 -1.2149  1.7169
 1172SOL     OW15151   3.300   0.403   9.409  0.5188 -0.2902 -0.7134
 1172SOL    HW115152   3.390   0.414   9.378  1.0169  1.3403  1.2839
 1172SOL    HW215153   3.294   0.336   9.477  0.3564 -0.3460 -0.7811
 1173SOL     OW15154   1.732   2.476  16.318 -0.1234 -0.1664 -0.6373
 1173SOL    HW115155   1.781   2.545  16.273  1.5050 -0.8969 -0.0096
 1173SOL    HW215156   1.700   2.419  16.247  0.7800 -1.0690 -0.3199
 1174SOL     OW15157   0.346   0.487   4.263  0.1834 -1.8197 -0.2737
 1174SOL    HW115158   0.264   0.472   4.310 -0.9710  1.2466 -1.3454
 1174SOL    HW215159   0.386   0.400   4.272  0.3111 -1.6496  0.7910
 1175SOL     OW15160   3.777   1.304   0.556  0.6376  0.1975  0.2122
 1175SOL    HW115161   3.732   1.224   0.528 -0.1477  0.7514 -0.0902
 1175SOL    HW215162   3.706   1.360   0.586 -0.7659 -1.1222 -0.6541
 1176SOL     OW15163   4.587   0.568   7.558 -0.2909 -0.4290 -0.2369
 1176SOL    HW115164   4.541   0.523   7.628 -1.2318  0.4961 -0.2631
 1176SOL    HW215165   4.527   0.637   7.529  0.2132  1.2148  2.6381
 1177SOL     OW15166   2.355   1.332   3.503 -0.5914  0.5736  0.5060
 1177SOL    HW115167   2.410   1.255   3.515 -1.1149 -0.1557 -1.8159
 1177SOL    HW215168   2.264   1.309   3.520 -0.5136 -0.6729 -0.8151
 1178SOL     OW15169   0.249   3.728  12.648  0.3131  0.2937 -0.1604
 1178SOL    HW115170   0.341   3.750  12.664  0.6263 -0.2183 -1.2434
 1178SOL    HW215171   0.229   3.659  12.710  1.0394  0.1411 -0.0925
 1179SOL     OW15172   1.847   0.698   1.776  0.2054 -0.5374 -0.1289
 1179SOL    HW115173   1.810   0.642   1.844  1.2702 -1.9790 -0.7605
 1179SOL    HW215174   1.797   0.779   1.783  0.2995 -0.4516 -0.4477
 1180SOL     OW15175   0.073   4.391   4.151 -0.3277 -0.7398  0.2998
 1180SOL    HW115176   0.135   4.464   4.142  0.2395 -1.1904  0.6393
 1180SOL    HW215177   0.012   4.400   4.077 -0.4736  1.8150  0.7157
 1181SOL     OW15178   0.876   1.295  11.025  0.5945  0.2597  0.2716
 1181SOL    HW115179   0.871   1.204  10.998  1.3134  0.0531  0.8620
 1181SOL    HW215180   0.843   1.295  11.115  1.4823 -1.6038  0.5934
 1182SOL     OW15181   1.535   3.201   8.409 -0.1628  0.3471  0.2520
 1182SOL    HW115182   1.488   3.128   8.449 -0.5546  1.2455  1.4266
 1182SOL    HW215183   1.529   3.174   8.317 -1.7751  0.6876  0.2537
 1183SOL     OW15184   1.032   1.825   3.831 -0.3015 -0.2660 -0.0539
 1183SOL    HW115185   1.100   1.800   3.768 -0.8497 -0.4538 -0.5745
 1183SOL    HW215186   1.056   1.914   3.856  0.3017 -0.1411 -1.0678
 1184SOL     OW15187   1.652   1.288   8.696 -0.4981 -0.2408  0.1150
 1184SOL    HW115188   1.699   1.353   8.643  0.7943 -0.9222  0.4198
 1184SOL    HW215189   1.719   1.230   8.733 -0.8563 -0.0668  1.0229
 1185SOL     OW15190   0.230   3.674   6.952 -0.5346  0.3203  0.2509
 1185SOL    HW115191   0.225   3.767   6.927 -2.3772  0.4008  0.9141
 1185SOL    HW215192   0.144   3.645   6.922  0.8682 -0.3024 -3.2057
 1186SOL     OW15193   2.988   0.351  13.479  0.2380 -0.1672  0.8560
 1186SOL    HW115194   2.970   0.434  13.434 -2.0325 -0.1503  1.7867
 1186SOL    HW215195   3.040   0.386  13.551  0.3847  0.6808  0.3378
 1187SOL     OW15196   0.195   0.450   7.879  0.2962 -0.3137 -0.2718
 1187SOL    HW115197   0.208   0.519   7.814  0.6410 -0.7647 -0.6792
 1187SOL    HW215198   0.125   0.402   7.834  0.2605 -0.5767  0.0690
 1188SOL     OW15199   0.826   3.350  15.793  0.1569  0.0850 -0.3165
 1188SOL    HW115200   0.754   3.317  15.739  0.1863 -1.9480  0.8878
 1188SOL    HW215201   0.853   3.422  15.736  0.4630 -0.4526 -0.8505
 1189SOL     OW15202   4.108   2.336   7.978  0.0376 -0.0519  0.3910
 1189SOL    HW115203   4.055   2.394   7.923 -0.3230 -1.9562 -1.2944
 1189SOL    HW215204   4.029   2.283   7.988  0.1767 -0.1922  0.7352
 1190SOL     OW15205   3.048   0.540  10.597 -0.6121  0.4357  0.7430
 1190SOL    HW115206   3.087   0.517  10.681 -0.8030 -0.5932  0.5417
 1190SOL    HW215207   2.961   0.500  10.601 -0.7850  0.6133 -1.6725
 1191SOL     OW15208   4.637   4.296   6.117 -0.1419 -0.8923  0.3697
 1191SOL    HW115209   4.664   4.209   6.089  0.5888 -0.4798 -0.2422
 1191SOL    HW215210   4.643   4.333   6.029 -4.0383 -2.7381 -0.6852
 1192SOL     OW15211   4.337   0.495   2.744 -0.0588  0.0640  0.2438
 1192SOL    HW115212   4.305   0.564   2.802 -0.1432 -0.1756  0.4822
 1192SOL    HW215213   4.392   0.457   2.813 -0.5650 -2.1347 -0.5564
 1193SOL     OW15214   2.930   1.117  10.067 -0.3712 -0.3476 -0.3895
 1193SOL    HW115215   2.906   1.123  10.159 -0.0772 -1.3785 -0.2472
 1193SOL    HW215216   2.938   1.022  10.056  0.5317 -0.1802 -1.1436
 1194SOL     OW15217   1.028   1.132  16.312  0.0684 -0.4977 -0.0927
 1194SOL    HW115218   1.067   1.203  16.364 -1.2969 -1.4737  2.2688
 1194SOL    HW215219   0.952   1.102  16.361  0.8896 -0.3449  1.2674
 1195SOL     OW15220   3.097   2.387  16.306  0.6465  0.5358 -0.2966
 1195SOL    HW115221   3.041   2.364  16.380  1.2190 -0.0123 -0.0301
 1195SOL    HW215222   3.053   2.467  16.278  3.8029  1.5210 -2.4168
 1196SOL     OW15223   2.352   1.011   6.732 -0.5829 -0.0785  0.1024
 1196SOL    HW115224   2.401   0.948   6.784 -0.6699 -1.0434 -0.9948
 1196SOL    HW215225   2.324   1.065   6.806 -2.3639 -0.0337 -0.6157
 1197SOL     OW15226   0.478   1.561   8.750  0.6289 -0.1438 -0.0184
 1197SOL    HW115227   0.520   1.543   8.666  0.9650  0.9951 -0.0954
 1197SOL    HW215228   0.454   1.654   8.741 -1.1590 -1.0242 -4.3530
 1198SOL     OW15229   1.067   2.062   6.708 -0.2794  0.1877 -0.1952
 1198SOL    HW115230   1.053   1.974   6.674 -0.5635  0.4994 -0.8781
 1198SOL    HW215231   1.001   2.068   6.777  1.1462 -2.3013  1.3816
 1199SOL     OW15232   0.306   2.659   0.954 -0.6326 -0.0539  0.1310
 1199SOL    HW115233   0.397   2.633   0.938 -0.3934  0.4474  0.6685
 1199SOL    HW215234   0.298   2.728   0.889  1.0232  1.0551  1.0899
 1200SOL     OW15235   1.346   3.509  10.829  0.2970 -0.5277 -0.0138
 1200SOL    HW115236   1.347   3.558  10.911 -0.5693  1.7074 -1.3299
 1200SOL    HW215237   1.255   3.508  10.800 -0.0332  1.2846  0.9577
 1201SOL     OW15238   2.997   3.723   8.938 -0.6049 -0.1194  0.1811
 1201SOL    HW115239   2.975   3.633   8.961  0.6162 -0.5905 -0.4884
 1201SOL    HW215240   3.055   3.760   9.005  0.0162  0.6849 -0.7970
 1202SOL     OW15241   0.358   3.513   3.394 -0.1582  0.3763  0.3451
 1202SOL    HW115242   0.288   3.560   3.440  0.2501  0.7511  0.5830
 1202SOL    HW215243   0.400   3.465   3.466  0.7850 -1.2932 -1.3287
 1203SOL     OW15244   3.734   3.024  11.888 -0.7526  0.1638  0.2476
 1203SOL    HW115245   3.644   3.056  11.883 -1.9321 -3.4310 -1.5142
 1203SOL    HW215246   3.780   3.100  11.924  0.3333 -1.4042  2.1102
 1204SOL     OW15247   0.161   0.811  10.468  0.1846 -0.1193 -0.4963
 1204SOL    HW115248   0.181   0.823  10.376  1.0089  2.3652  0.0054
 1204SOL    HW215249   0.070   0.785  10.456  0.0221  0.4562 -0.5011
 1205SOL     OW15250   0.261   0.890   6.956  0.2758  0.2211 -0.1558
 1205SOL    HW115251   0.183   0.844   6.924  0.1697 -0.0014  0.4363
 1205SOL    HW215252   0.325   0.843   6.902  0.8434  0.9885 -0.1561
 1206SOL     OW15253   0.693   2.115  14.666  0.1349 -0.1847  0.2442
 1206SOL    HW115254   0.678   2.209  14.665 -0.3721 -0.2617  0.6250
 1206SOL    HW215255   0.673   2.095  14.758  0.7968 -1.6493  0.0782
 1207SOL     OW15256   0.118   1.470   9.114  0.3982 -0.2533 -0.1693
 1207SOL    HW115257   0.179   1.521   9.060  1.6316 -0.7751  0.7234
 1207SOL    HW215258   0.147   1.488   9.203 -0.5811 -0.8005  0.2634
 1208SOL     OW15259   2.285   3.619   4.691 -0.5343  0.0788  0.0097
 1208SOL    HW115260   2.346   3.568   4.639  1.7795  2.0050  0.8036
 1208SOL    HW215261   2.205   3.613   4.639  0.1213  2.1861 -1.2596
 1209SOL     OW15262   1.124   3.311   9.299  0.7872  0.1661 -0.5967
 1209SOL    HW115263   1.218   3.295   9.299  1.0323  1.6287  0.7722
 1209SOL    HW215264   1.129   3.390   9.353  1.7996  1.6412 -2.8158
 1210SOL     OW15265   3.755   2.358   1.960 -0.2655 -0.0976 -0.2160
 1210SOL    HW115266   3.701   2.383   2.035 -0.5706 -0.9524 -0.1606
 1210SOL    HW215267   3.736   2.265   1.948 -1.3083 -0.2700  2.7733
 1211SOL     OW15268   1.494   0.103  13.596 -0.3914  0.3443 -0.5558
 1211SOL    HW115269   1.589   0.113  13.585 -0.1350  1.9082  2.9649
 1211SOL    HW215270   1.465   0.194  13.589 -5.5918 -1.2562  0.2012
 1212SOL     OW15271   3.177   0.735   6.999  0.2998 -0.0736 -0.2302
 1212SOL    HW115272   3.116   0.744   7.072 -0.0092 -2.7988 -0.1480
 1212SOL    HW215273   3.123   0.681   6.942 -1.2846 -0.0362  1.2426
 1213SOL     OW15274   3.492   2.096   2.784 -0.0843  0.2892 -1.1927
 1213SOL    HW115275   3.444   2.100   2.867  1.1841 -3.9176 -0.2726
 1213SOL    HW215276   3.537   2.013   2.800  0.2024  0.3527 -1.6966
 1214SOL     OW15277   0.219   1.535   6.708  0.2018 -0.4953 -0.5140
 1214SOL    HW115278   0.196   1.574   6.792 -2.8938 -0.3032 -1.4651
 1214SOL    HW215279   0.134   1.515   6.669 -0.6550  1.4259  0.3701
 1215SOL     OW15280   2.049   3.856   5.532  0.5748 -0.1264 -0.0629
 1215SOL    HW115281   1.959   3.824   5.527  1.2193 -1.9108 -0.1558
 1215SOL    HW215282   2.025   3.938   5.575  2.0442 -0.1103  0.7359
 1216SOL     OW15283   0.765   2.949  14.079 -0.9484 -0.2480 -0.2105
 1216SOL    HW115284   0.825   2.911  14.143 -0.5393  0.8283  0.0536
 1216SOL    HW215285   0.832   2.985  14.020 -2.8333 -0.0725 -2.2332
 1217SOL     OW15286   3.560   3.531  11.413 -0.4163  0.2107 -0.1727
 1217SOL    HW115287   3.628   3.475  11.375 -0.1899  0.7180 -0.5172
 1217SOL    HW215288   3.478   3.482  11.418  0.7469 -1.5554  1.3696
 1218SOL     OW15289   3.044   2.371   3.107 -0.0877 -0.7570  0.4142
 1218SOL    HW115290   3.030   2.289   3.156 -1.8022 -1.2559 -0.9152
 1218SOL    HW215291   3.015   2.441   3.165 -2.3770 -0.9479 -0.5031
 1219SOL     OW15292   2.347   4.582   9.348  0.1768  0.4629 -0.0013
 1219SOL    HW115293   2.371   4.514   9.285  0.2321  2.5524 -2.2816
 1219SOL    HW215294   2.420   4.586   9.410  2.8867 -1.3429 -3.0833
 1220SOL     OW15295   1.206   4.216   2.018  0.9296 -0.0313 -0.0218
 1220SOL    HW115296   1.298   4.241   2.009  0.9213 -0.4381 -1.2506
 1220SOL    HW215297   1.200   4.122   2.003  1.7327 -0.3426  1.7562
 1221SOL     OW15298   0.682   3.787   5.321  0.2106 -0.5649 -0.1632
 1221SOL    HW115299   0.696   3.878   5.346 -1.4305  0.0798 -1.5966
 1221SOL    HW215300   0.606   3.792   5.262 -0.0494  1.9691  0.4099
 1222SOL     OW15301   1.690   4.635   9.601  0.2635 -0.5648  0.3711
 1222SOL    HW115302   1.775   4.673   9.580 -1.5121  2.6056 -1.0993
 1222SOL    HW215303   1.718   4.553   9.640  0.4607 -0.7142 -0.0807
 1223SOL     OW15304   4.181   0.491   1.717 -0.6023 -0.1709  0.1160
 1223SOL    HW115305   4.202   0.440   1.638 -0.3270 -0.1937  0.2048
 1223SOL    HW215306   4.086   0.504   1.710 -0.5351  0.0736 -0.3692
 1224SOL     OW15307   1.612   0.860  12.292  0.2102  0.1389 -0.2478
 1224SOL    HW115308   1.527   0.818  12.277  0.3709 -0.4994  0.6310
 1224SOL    HW215309   1.678   0.795  12.269 -0.0852 -0.8471  1.6931
 1225SOL     OW15310   4.473   3.609   8.557  0.4088 -0.4332 -0.2499
 1225SOL    HW115311   4.457   3.673   8.487 -0.5174 -0.6736 -0.2587
 1225SOL    HW215312   4.506   3.668   8.624 -0.0080  1.0923 -1.3847
 1226SOL     OW15313   2.349   0.878   9.615 -0.0130 -0.5531 -0.8433
 1226SOL    HW115314   2.289   0.878   9.690  4.0982  1.6747  2.4553
 1226SOL    HW215315   2.323   0.794   9.578  0.3998 -1.0668  0.0338
 1227SOL     OW15316   4.477   2.433   5.437 -0.0692 -0.2598  0.0091
 1227SOL    HW115317   4.391   2.441   5.396  0.7448 -0.8033 -1.8189
 1227SOL    HW215318   4.470   2.347   5.477 -0.1082 -0.0340  0.4920
 1228SOL     OW15319   3.813   0.645  12.450  0.2096  0.0414  0.0645
 1228SOL    HW115320   3.901   0.670  12.423 -0.0532  1.8404  0.8517
 1228SOL    HW215321   3.819   0.550  12.454 -0.9096  0.0394  1.9037
 1229SOL     OW15322   0.614   1.971   9.587 -0.0775  0.1040  0.1334
 1229SOL    HW115323   0.656   1.935   9.509  1.4795  0.0982  0.9837
 1229SOL    HW215324   0.605   1.901   9.652  0.6805 -0.8494 -0.7895
 1230SOL     OW15325   0.080   0.088   2.462  0.0067  0.0761  0.0081
 1230SOL    HW115326   0.028   0.030   2.406  1.1116 -1.2654  0.3628
 1230SOL    HW215327   0.030   0.169   2.469 -1.4638 -1.0325  2.3175
 1231SOL     OW15328   0.798   2.424  15.357  0.3706 -0.7550  0.1135
 1231SOL    HW115329   0.842   2.429  15.442  0.5526  1.3769 -0.1234
 1231SOL    HW215330   0.870   2.389  15.305  0.1715 -1.2227  0.1446
 1232SOL     OW15331   0.915   1.778   0.646  0.2671  0.0320  0.6339
 1232SOL    HW115332   0.998   1.817   0.617 -0.3179  0.4194 -0.5203
 1232SOL    HW215333   0.873   1.765   0.561 -2.5419  1.4389  1.8120
 1233SOL     OW15334   0.577   2.537   2.589  0.2315  0.0415  0.5200
 1233SOL    HW115335   0.599   2.446   2.567  1.8372 -0.1898  3.1573
 1233SOL    HW215336   0.614   2.575   2.509  0.1272 -4.0677 -1.5317
 1234SOL     OW15337   4.670   2.758   6.043 -0.4072 -0.2785 -0.0681
 1234SOL    HW115338   4.701   2.690   6.104 -1.7892 -0.0529  0.8814
 1234SOL    HW215339   4.657   2.837   6.095 -2.2577 -0.2788 -0.5268
 1235SOL     OW15340   3.821   3.421   5.548  0.4043 -0.0850  0.1883
 1235SOL    HW115341   3.809   3.330   5.577 -0.6134 -0.5957 -1.7637
 1235SOL    HW215342   3.888   3.453   5.607  1.2195 -0.3777 -0.5723
 1236SOL     OW15343   1.639   1.673   6.496  0.2561 -0.3439  0.2472
 1236SOL    HW115344   1.696   1.711   6.429  1.0317  0.8392  1.5936
 1236SOL    HW215345   1.568   1.637   6.442  0.0761  1.4496 -0.7214
 1237SOL     OW15346   3.543   0.690   3.329  0.6131  0.2462  0.5793
 1237SOL    HW115347   3.590   0.708   3.410  0.6106  2.2669  0.1351
 1237SOL    HW215348   3.601   0.723   3.260  1.6409 -0.9559  0.8695
 1238SOL     OW15349   0.964   0.607   4.759 -0.4718  0.2185  0.1569
 1238SOL    HW115350   1.015   0.530   4.732 -1.0905  0.1986 -0.9807
 1238SOL    HW215351   0.943   0.627   4.667 -2.9578 -1.3841  0.3842
 1239SOL     OW15352   0.154   4.165  12.940  0.6133 -0.0144 -0.3379
 1239SOL    HW115353   0.222   4.230  12.918  1.1038  0.1059  1.5010
 1239SOL    HW215354   0.176   4.161  13.033  0.9119  0.3579 -0.3914
 1240SOL     OW15355   2.951   4.242   7.168  0.3393 -0.2397 -0.3503
 1240SOL    HW115356   2.876   4.279   7.121 -0.5414 -1.6707 -0.0794
 1240SOL    HW215357   2.915   4.223   7.255  2.5256 -2.1857  0.1257
 1241SOL     OW15358   2.964   1.539  15.160  0.2740  0.3865 -0.2953
 1241SOL    HW115359   3.048   1.581  15.180  1.0697 -1.0835 -0.6048
 1241SOL    HW215360   2.949   1.552  15.067 -3.8795  2.0685  0.6146
 1242SOL     OW15361   2.680   1.021   6.696  0.7435 -0.5073  0.1608
 1242SOL    HW115362   2.601   1.065   6.726 -0.4356 -2.5558  0.0412
 1242SOL    HW215363   2.656   0.929   6.683  0.6678 -0.7478  1.9652
 1243SOL     OW15364   0.513   1.386   8.520  0.2787  0.6391 -0.0761
 1243SOL    HW115365   0.443   1.395   8.455  0.8636  0.4996 -0.7199
 1243SOL    HW215366   0.576   1.326   8.480  0.5895  1.5432 -0.9293
 1244SOL     OW15367   3.894   4.092   0.279 -0.2449  0.8168 -0.3428
 1244SOL    HW115368   3.893   3.998   0.262  0.9524  0.8201 -0.4580
 1244SOL    HW215369   3.878   4.092   0.374 -1.2384 -1.8982 -0.5303
 1245SOL     OW15370   1.618   0.668   5.839  0.1365 -0.4065  0.1437
 1245SOL    HW115371   1.583   0.752   5.869 -1.7121 -0.6806 -1.2294
 1245SOL    HW215372   1.677   0.699   5.770 -2.7529 -0.0537 -2.1852
 1246SOL     OW15373   0.817   3.104   6.074  0.4516  0.3849  0.8066
 1246SOL    HW115374   0.796   3.193   6.046 -1.3181 -0.1903  0.3145
 1246SOL    HW215375   0.855   3.117   6.161  2.8905 -1.3107  0.0045
 1247SOL     OW15376   3.403   3.971  16.749  0.0028 -0.0299 -0.0731
 1247SOL    HW115377   3.333   3.911  16.775  2.6714 -1.7929  3.0092
 1247SOL    HW215378   3.457   3.963  16.828 -0.2819 -1.1377  0.0123
 1248SOL     OW15379   2.283   3.360  12.498  0.2571  0.4049  0.1048
 1248SOL    HW115380   2.247   3.321  12.418 -2.8535  0.0539  1.6696
 1248SOL    HW215381   2.357   3.405  12.456  0.7267 -2.7152 -2.3831
 1249SOL     OW15382   0.164   1.483  14.917 -0.6305 -0.6223  0.1283
 1249SOL    HW115383   0.242   1.503  14.865 -0.9424 -0.6367 -0.3459
 1249SOL    HW215384   0.205   1.434  14.988  1.2610  1.5024  0.5000
 1250SOL     OW15385   0.778   2.987   8.736 -0.1804  0.2865 -0.3965
 1250SOL    HW115386   0.811   2.998   8.647 -0.2852 -1.0030 -0.5953
 1250SOL    HW215387   0.842   3.045   8.778 -0.3770 -0.5978  1.1157
 1251SOL     OW15388   1.812   3.101  11.112  0.4145 -0.8562  0.4184
 1251SOL    HW115389   1.754   3.155  11.058 -0.9712  1.3148  4.0926
 1251SOL    HW215390   1.876   3.164  11.143 -0.1794 -0.4298  0.7785
 1252SOL     OW15391   2.977   1.438   6.778  0.1268 -0.2004 -0.0064
 1252SOL    HW115392   3.006   1.407   6.864 -0.2154  1.3599  0.6633
 1252SOL    HW215393   3.038   1.380   6.732 -0.0071  0.3729 -0.8956
 1253SOL     OW15394   0.397   3.713   2.079 -0.5599  0.1902 -0.1258
 1253SOL    HW115395   0.389   3.780   2.147  0.0597  0.1291  0.0004
 1253SOL    HW215396   0.307   3.681   2.068 -0.2118 -0.4439 -1.0840
 1254SOL     OW15397   0.169   0.680   4.957 -0.2565 -0.0919  0.6736
 1254SOL    HW115398   0.096   0.659   4.898  1.0922 -0.3514 -0.8935
 1254SOL    HW215399   0.244   0.646   4.909 -1.3741  0.2986 -1.3856
 1255SOL     OW15400   3.600   3.898   9.313  0.0417  0.1378 -0.4158
 1255SOL    HW115401   3.639   3.944   9.238 -0.0979 -1.7461 -1.6274
 1255SOL    HW215402   3.676   3.848   9.343  0.8277 -0.3200 -3.2222
 1256SOL     OW15403   0.575   3.488  14.415  0.2966  0.0997  0.3145
 1256SOL    HW115404   0.610   3.496  14.503  1.3678 -0.1474 -0.0843
 1256SOL    HW215405   0.654   3.474  14.363 -0.2952 -1.5855 -0.1448
 1257SOL     OW15406   0.170   3.466   6.596  0.4108 -0.6999  0.1568
 1257SOL    HW115407   0.123   3.462   6.680  1.6581  1.3891  0.9547
 1257SOL    HW215408   0.105   3.450   6.527 -2.3952 -2.8932  3.3167
 1258SOL     OW15409   1.467   1.200   1.322 -0.3425  0.1974  0.4473
 1258SOL    HW115410   1.430   1.254   1.393 -2.2028  0.4843 -0.7423
 1258SOL    HW215411   1.543   1.155   1.359 -0.9546  0.9280  2.6447
 1259SOL     OW15412   4.237   2.095   4.182 -0.0753  0.2999 -0.3459
 1259SOL    HW115413   4.290   2.102   4.103  0.3862  0.9245  0.0227
 1259SOL    HW215414   4.262   2.178   4.221 -1.7789 -0.1253  1.6912
 1260SOL     OW15415   4.594   2.400  12.610 -0.0118 -0.4768  0.1702
 1260SOL    HW115416   4.672   2.354  12.577  0.8720  0.6162  0.7414
 1260SOL    HW215417   4.614   2.491  12.592  0.5887 -0.9828 -1.7256
 1261SOL     OW15418   4.268   4.321  13.943 -0.6180  0.4594  0.3554
 1261SOL    HW115419   4.304   4.408  13.963  2.4072 -0.5808 -0.5470
 1261SOL    HW215420   4.269   4.270  14.024 -1.1442  1.4059  0.9642
 1262SOL     OW15421   1.056   3.488   6.783  0.8286  0.3913 -0.2854
 1262SOL    HW115422   1.134   3.440   6.810 -0.2630 -0.0479  2.1464
 1262SOL    HW215423   1.005   3.412   6.755 -2.7905  0.9405  4.6714
 1263SOL     OW15424   0.358   3.667   9.314 -0.0962 -0.9610  0.0387
 1263SOL    HW115425   0.444   3.627   9.326 -0.0100 -0.8377 -0.1718
 1263SOL    HW215426   0.354   3.745   9.370  2.2743  0.0998 -1.2593
 1264SOL     OW15427   3.509   0.227  11.950 -0.4252 -0.3802 -0.0183
 1264SOL    HW115428   3.556   0.160  11.900  0.0733 -0.0588  0.0246
 1264SOL    HW215429   3.501   0.184  12.035  2.9578  0.1002  0.5315
 1265SOL     OW15430   4.619   0.066  17.393  0.0178 -0.2352 -0.0359
 1265SOL    HW115431   4.549   0.064  17.328  0.7086 -0.0579 -0.7755
 1265SOL    HW215432   4.614   4.708  17.417  0.6701 -0.6493 -1.4788
 1266SOL     OW15433   3.993   0.382   0.808  0.1509  0.1381 -0.1657
 1266SOL    HW115434   3.931   0.315   0.776  0.9021 -0.3035 -0.6874
 1266SOL    HW215435   4.078   0.339   0.809 -0.4671 -0.9822  2.7828
 1267SOL     OW15436   0.358   2.155  10.107  0.0044 -0.2168  0.4159
 1267SOL    HW115437   0.422   2.124  10.043 -1.6475 -2.2243 -0.2743
 1267SOL    HW215438   0.372   2.249  10.099  0.1235 -0.3269 -0.6982
 1268SOL     OW15439   2.314   1.180   6.939 -0.3836  0.1820 -0.0318
 1268SOL    HW115440   2.259   1.128   6.997  0.3171  0.5805  0.9866
 1268SOL    HW215441   2.263   1.261   6.940 -0.1463  0.3215  0.4662
 1269SOL     OW15442   2.741   2.731   2.200  0.2128  0.4009 -0.8071
 1269SOL    HW115443   2.786   2.750   2.118  1.1966  0.2098 -0.3191
 1269SOL    HW215444   2.799   2.777   2.261 -1.0295 -1.2392  1.6583
 1270SOL     OW15445   4.264   1.758   8.916  0.3975  0.1738  0.0462
 1270SOL    HW115446   4.180   1.805   8.922  2.5042  4.1946 -2.5345
 1270SOL    HW215447   4.313   1.821   8.863 -0.2951  0.0863 -0.6970
 1271SOL     OW15448   2.101   1.817   4.725  0.3038 -0.0553  0.1292
 1271SOL    HW115449   2.124   1.726   4.744  0.2083 -0.5126 -1.9404
 1271SOL    HW215450   2.113   1.816   4.630  0.3440  1.2038  0.1270
 1272SOL     OW15451   1.706   1.867   1.412 -0.3419 -0.4976  0.0536
 1272SOL    HW115452   1.648   1.842   1.339 -0.5093  0.0808 -0.0143
 1272SOL    HW215453   1.652   1.848   1.488  0.0374 -0.9624  0.2033
 1273SOL     OW15454   0.489   0.872   9.336 -0.1524 -0.0192  0.7482
 1273SOL    HW115455   0.444   0.904   9.414  0.1118  0.2099  0.8046
 1273SOL    HW215456   0.548   0.805   9.371  0.5115 -0.0750 -0.4650
 1274SOL     OW15457   1.489   3.773   5.013  0.2740 -0.1814  0.1783
 1274SOL    HW115458   1.520   3.682   5.008 -3.4083 -1.4356  0.2461
 1274SOL    HW215459   1.414   3.773   5.073  0.9870 -0.1908  1.0703
 1275SOL     OW15460   3.125   2.736   8.708 -0.1785 -0.6864 -0.2797
 1275SOL    HW115461   3.190   2.783   8.656 -0.7776 -1.1102 -1.3858
 1275SOL    HW215462   3.166   2.776   8.785 -1.5103 -0.2635  0.2007
 1276SOL     OW15463   0.263   4.424   6.457  0.0086 -0.0637  0.3286
 1276SOL    HW115464   0.341   4.441   6.509  0.3352 -0.6697  0.0327
 1276SOL    HW215465   0.200   4.374   6.508 -2.3473  0.4419 -2.0770
 1277SOL     OW15466   3.273   3.026   1.028  0.2376  0.2356 -0.5421
 1277SOL    HW115467   3.355   3.029   1.077  0.8572 -2.4661 -1.4038
 1277SOL    HW215468   3.249   2.934   1.041 -1.0473  0.5037 -0.9353
 1278SOL     OW15469   2.484   3.536  10.739 -0.0730  0.2413  0.3484
 1278SOL    HW115470   2.400   3.546  10.693  0.7642 -0.1398 -1.2871
 1278SOL    HW215471   2.505   3.456  10.692  1.6404  1.7018 -1.4117
 1279SOL     OW15472   4.041   0.518   5.808  0.4572  0.4009 -0.3562
 1279SOL    HW115473   4.028   0.586   5.742 -2.6742 -1.1537 -1.3512
 1279SOL    HW215474   4.115   0.468   5.773  2.3290  2.6547  0.3320
 1280SOL     OW15475   4.261   3.889   0.142  0.0990  0.1790 -0.6422
 1280SOL    HW115476   4.246   3.968   0.195 -1.1029  0.5530 -1.5620
 1280SOL    HW215477   4.321   3.930   0.079  1.7152 -0.8355  0.2199
 1281SOL     OW15478   4.713   0.361   2.697 -0.2947  0.1371 -0.4200
 1281SOL    HW115479   4.687   0.309   2.621  0.7780  0.7539 -1.2074
 1281SOL    HW215480   4.720   0.446   2.654 -1.3370 -0.0714 -0.9907
 1282SOL     OW15481   4.521   0.934   8.139  0.1198 -0.4011 -0.5211
 1282SOL    HW115482   4.515   1.018   8.185 -1.0209 -1.0325  0.4864
 1282SOL    HW215483   4.612   0.904   8.148  0.4049  1.3263  2.4690
 1283SOL     OW15484   0.991   2.615  10.360 -0.5966  0.0333 -0.3700
 1283SOL    HW115485   0.959   2.603  10.271  0.5190 -0.6674 -0.6738
 1283SOL    HW215486   1.016   2.708  10.362  1.0523 -0.3985 -0.8482
 1284SOL     OW15487   2.618   0.572   5.306  0.0514  0.2765  0.0774
 1284SOL    HW115488   2.624   0.579   5.401  0.1205 -1.8890  0.2389
 1284SOL    HW215489   2.577   0.486   5.301  0.6794  0.0756 -1.7709
 1285SOL     OW15490   2.617   3.016   8.609  0.2228  0.3803 -0.1875
 1285SOL    HW115491   2.546   3.008   8.673  0.1040 -0.5275 -0.4406
 1285SOL    HW215492   2.613   3.107   8.578 -1.2656 -0.0588 -1.2716
 1286SOL     OW15493   2.040   0.525   5.739  0.2264 -0.6770 -0.1770
 1286SOL    HW115494   2.090   0.607   5.739 -0.3986 -0.2999 -0.6486
 1286SOL    HW215495   2.072   0.473   5.812  1.0591 -1.1803 -0.9017
 1287SOL     OW15496   0.311   1.071   8.298 -0.2625 -0.1072  0.1484
 1287SOL    HW115497   0.264   1.053   8.216  1.6553 -0.7498 -0.7894
 1287SOL    HW215498   0.336   0.984   8.326 -0.8911  0.4391  2.4017
 1288SOL     OW15499   0.221   4.192   7.025 -0.1752  0.4139  0.6326
 1288SOL    HW115500   0.190   4.186   7.115 -0.3061  3.1308  0.7786
 1288SOL    HW215501   0.315   4.209   7.031 -0.8365  3.4370  2.4244
 1289SOL     OW15502   2.202   0.657   9.527  0.2374  0.1620 -0.1840
 1289SOL    HW115503   2.119   0.703   9.518  0.0844  0.3415  2.0841
 1289SOL    HW215504   2.173   0.573   9.492 -1.4665  0.0694  1.4172
 1290SOL     OW15505   4.339   0.481  17.652 -0.6097  0.4208 -0.5790
 1290SOL    HW115506   4.278   0.549  17.622  0.0562  1.2319 -0.0927
 1290SOL    HW215507   4.324   0.403  17.599  0.9818  0.9095 -1.7270
 1291SOL     OW15508   3.291   0.883   5.709 -0.0366  0.0856 -0.3838
 1291SOL    HW115509   3.276   0.968   5.668 -0.2127  0.5404  0.6400
 1291SOL    HW215510   3.380   0.896   5.741  0.1276 -0.1958 -0.7173
 1292SOL     OW15511   1.475   2.377   2.311  0.4834  0.6167 -0.6168
 1292SOL    HW115512   1.498   2.377   2.218 -0.0507  0.2935 -0.7491
 1292SOL    HW215513   1.556   2.387   2.361  0.2935 -1.1014  0.0497
 1293SOL     OW15514   4.334   1.079   2.568 -0.1132  0.9148  0.0108
 1293SOL    HW115515   4.426   1.058   2.579 -0.0271  1.8427  1.0382
 1293SOL    HW215516   4.295   1.004   2.615  0.9163  0.7162  0.5435
 1294SOL     OW15517   4.257   0.006   3.555 -0.6472  0.4201  0.4310
 1294SOL    HW115518   4.202   4.667   3.527  3.3386 -2.2688 -0.4282
 1294SOL    HW215519   4.245   0.060   3.477 -1.1018 -0.7580 -0.3153
 1295SOL     OW15520   4.448   4.708   3.972  0.4846 -0.1961 -0.6117
 1295SOL    HW115521   4.421   0.063   3.989 -0.4031 -0.2863 -1.6117
 1295SOL    HW215522   4.502   4.679   4.046 -2.3848 -2.4863  0.5909
 1296SOL     OW15523   2.238   0.273  12.980  0.0349  0.6341  0.3689
 1296SOL    HW115524   2.283   0.188  12.975 -0.3105  0.5057 -0.4617
 1296SOL    HW215525   2.184   0.257  13.057 -1.0831  0.3361 -0.4835
 1297SOL     OW15526   1.082   0.382   9.423 -0.0440  0.4615 -0.0741
 1297SOL    HW115527   1.045   0.392   9.510  0.7396 -0.5821  0.3926
 1297SOL    HW215528   1.138   0.459   9.427  2.0479 -1.0484 -0.1510
 1298SOL     OW15529   1.773   3.341  16.750 -0.4071  0.0830 -0.1414
 1298SOL    HW115530   1.758   3.382  16.835 -1.4827  0.1367 -0.3500
 1298SOL    HW215531   1.849   3.395  16.729  0.8269 -1.2681  0.8390
 1299SOL     OW15532   3.929   3.112   0.414 -0.4860  0.0908  0.6281
 1299SOL    HW115533   3.869   3.182   0.388 -2.2199 -1.3116  0.9088
 1299SOL    HW215534   3.965   3.072   0.335  1.1059 -2.7285  2.7759
 1300SOL     OW15535   4.560   0.156   5.848  0.3456 -0.2177 -0.3292
 1300SOL    HW115536   4.497   0.123   5.783  0.8643  0.8337 -1.3786
 1300SOL    HW215537   4.603   0.226   5.798  2.4440 -1.9704 -0.9837
 1301SOL     OW15538   2.076   0.550   7.881 -0.3236 -0.2361 -0.5176
 1301SOL    HW115539   2.066   0.475   7.823  1.1428 -0.9444  0.1313
 1301SOL    HW215540   2.127   0.617   7.835  1.5534 -1.7559 -0.6813
 1302SOL     OW15541   3.547   2.072   4.394 -0.4957  0.9759 -0.1212
 1302SOL    HW115542   3.533   2.150   4.340 -0.8044  0.9724 -0.0431
 1302SOL    HW215543   3.619   2.024   4.352 -0.0155  1.9417 -0.4016
 1303SOL     OW15544   0.486   1.817   5.852  0.6728 -0.7621 -0.5843
 1303SOL    HW115545   0.558   1.786   5.797  3.6214  2.4587  1.4792
 1303SOL    HW215546   0.408   1.771   5.821  0.1264 -0.9575  1.0753
 1304SOL     OW15547   4.524   2.890   1.464 -0.1102  0.3810  0.2124
 1304SOL    HW115548   4.543   2.951   1.393  0.2129  0.6852  0.5582
 1304SOL    HW215549   4.550   2.946   1.537  1.6651 -0.6309  0.3454
 1305SOL     OW15550   0.772   4.154   3.502  0.0805 -1.0755 -0.0603
 1305SOL    HW115551   0.707   4.218   3.530  0.3611 -1.2233  0.9299
 1305SOL    HW215552   0.849   4.208   3.483 -0.3241 -1.5999 -3.2167
 1306SOL     OW15553   1.092   0.289   2.864  0.2118 -0.4946  0.0451
 1306SOL    HW115554   1.146   0.238   2.924 -0.7514  0.8093  2.0255
 1306SOL    HW215555   1.160   0.349   2.835 -0.8028  0.2511 -0.8063
 1307SOL     OW15556   0.942   2.219   1.077  0.2563  0.1416  0.1072
 1307SOL    HW115557   1.024   2.218   1.126  0.4981  2.7405 -0.2174
 1307SOL    HW215558   0.884   2.171   1.136 -0.2772 -2.4990 -2.5539
 1308SOL     OW15559   4.507   3.879   8.062 -0.0916 -0.0249  0.4837
 1308SOL    HW115560   4.462   3.950   8.106 -0.1423 -0.8127  1.7176
 1308SOL    HW215561   4.515   3.928   7.980  1.0571 -3.0451 -1.2210
 1309SOL     OW15562   1.123   2.684   9.575 -0.0260 -0.1974  0.3485
 1309SOL    HW115563   1.194   2.646   9.524  0.2705  1.3116 -0.3614
 1309SOL    HW215564   1.160   2.752   9.631  3.8722 -0.5962 -1.7334
 1310SOL     OW15565   1.834   2.613  12.647 -0.4272  0.0046 -0.2225
 1310SOL    HW115566   1.798   2.626  12.560  0.2129 -1.6923 -0.7433
 1310SOL    HW215567   1.782   2.672  12.702 -0.9929  1.5334 -2.4217
 1311SOL     OW15568   1.599   1.808   5.503  0.0360 -0.1065  0.1735
 1311SOL    HW115569   1.647   1.792   5.422  1.4732  0.9656  0.7956
 1311SOL    HW215570   1.616   1.721   5.537 -0.1969 -0.5121 -0.7621
 1312SOL     OW15571   0.069   2.660   2.059  0.4091 -0.4466 -0.3656
 1312SOL    HW115572   0.149   2.611   2.041  2.2192  1.8722  1.5717
 1312SOL    HW215573   0.052   2.703   1.975  1.4484 -0.7877 -0.7408
 1313SOL     OW15574   0.662   1.292   2.856 -0.1018 -0.0205  0.4696
 1313SOL    HW115575   0.683   1.225   2.921  2.4810 -0.7279 -1.1005
 1313SOL    HW215576   0.573   1.306   2.887 -1.2462  1.1753 -3.2558
 1314SOL     OW15577   1.147   2.205   7.060 -0.2432 -0.0710 -0.5751
 1314SOL    HW115578   1.076   2.149   7.090 -1.6372  0.6469 -2.5305
 1314SOL    HW215579   1.197   2.208   7.142 -0.2064  0.7832 -0.6207
 1315SOL     OW15580   3.052   0.912   5.810  0.1625 -0.3736  0.7075
 1315SOL    HW115581   3.053   0.995   5.858  0.0537  0.2775 -0.4335
 1315SOL    HW215582   3.145   0.890   5.796  0.3950  1.8714 -1.1790
 1316SOL     OW15583   1.285   3.734   8.610 -0.0715  0.2832 -0.3396
 1316SOL    HW115584   1.203   3.774   8.641  1.0361  1.8335  0.5574
 1316SOL    HW215585   1.330   3.815   8.587  0.3210  0.3552  0.7034
 1317SOL     OW15586   1.619   0.218   0.884  0.2991  0.6137 -0.5150
 1317SOL    HW115587   1.583   0.158   0.949  1.7474  0.6365  0.3161
 1317SOL    HW215588   1.542   0.227   0.827 -0.2501 -0.2938  0.0895
 1318SOL     OW15589   3.228   4.377  16.305 -0.3080 -0.2021 -0.0356
 1318SOL    HW115590   3.271   4.396  16.388 -0.5813 -2.0280  0.5389
 1318SOL    HW215591   3.297   4.409  16.247 -0.1638 -0.8673 -0.2318
 1319SOL     OW15592   4.478   1.178   7.883 -0.0814 -0.8750 -1.0048
 1319SOL    HW115593   4.494   1.255   7.828  1.0181  0.7854  1.6529
 1319SOL    HW215594   4.394   1.163   7.840 -1.2111  2.2782  0.0857
 1320SOL     OW15595   0.117   1.102  14.838 -0.4227 -0.3429 -0.1235
 1320SOL    HW115596   0.105   1.139  14.750 -1.9774  1.0948  0.6976
 1320SOL    HW215597   0.212   1.097  14.851  0.0779  0.2014 -3.7120
 1321SOL     OW15598   4.292   4.652   8.630 -0.0930 -0.0141 -0.0201
 1321SOL    HW115599   4.276   4.563   8.661 -0.6146  0.2829  0.5652
 1321SOL    HW215600   4.387   4.639   8.632 -0.3205 -1.7733 -0.8567
 1322SOL     OW15601   0.770   2.191   9.217 -0.1141 -0.1748  0.0658
 1322SOL    HW115602   0.794   2.196   9.124  2.0068  0.6305  0.6699
 1322SOL    HW215603   0.675   2.177   9.218  0.0792 -1.2437  1.8286
 1323SOL     OW15604   4.286   2.383   3.292  0.5250  0.3255  0.8536
 1323SOL    HW115605   4.295   2.304   3.239 -1.1530 -1.1301  2.7135
 1323SOL    HW215606   4.239   2.429   3.223 -0.5968 -1.6512  0.2997
 1324SOL     OW15607   4.071   2.392   1.412 -0.7252 -0.0415 -0.0012
 1324SOL    HW115608   4.096   2.485   1.410 -1.6682  0.2633  2.6572
 1324SOL    HW215609   4.100   2.356   1.329 -0.2423 -0.3685  0.3059
 1325SOL     OW15610   1.352   2.888  17.033  0.3679  0.2529 -0.1080
 1325SOL    HW115611   1.435   2.852  17.000 -0.0476 -0.7275 -0.0730
 1325SOL    HW215612   1.307   2.883  16.949 -0.8620  1.0378  0.5017
 1326SOL     OW15613   0.585   2.966   4.747  0.3941 -0.3005 -0.3880
 1326SOL    HW115614   0.661   2.909   4.740  0.4125 -0.3064 -0.1593
 1326SOL    HW215615   0.560   2.965   4.655  0.6541 -1.3718 -0.4411
 1327SOL     OW15616   1.292   2.619   2.395  0.4836 -0.2151 -0.0190
 1327SOL    HW115617   1.219   2.559   2.382 -0.9967  2.1371 -2.4142
 1327SOL    HW215618   1.358   2.550   2.401  1.2618  0.5966  0.7373
 1328SOL     OW15619   3.160   2.711   0.803  0.2894 -0.4812 -0.2392
 1328SOL    HW115620   3.095   2.748   0.743  0.1058 -0.0151  0.2444
 1328SOL    HW215621   3.129   2.724   0.893  0.0202  0.5516 -0.4798
 1329SOL     OW15622   4.607   3.807  11.576 -0.5512  0.0855 -0.4795
 1329SOL    HW115623   4.667   3.739  11.606 -0.6018 -1.0724 -3.0312
 1329SOL    HW215624   4.546   3.810  11.650 -0.2745 -0.2483 -0.2374
 1330SOL     OW15625   4.562   4.483   5.513 -0.4060  0.2593  0.0502
 1330SOL    HW115626   4.475   4.463   5.479 -1.1781  0.6539  1.8310
 1330SOL    HW215627   4.562   4.441   5.600 -1.0301  0.4197  0.1259
 1331SOL     OW15628   3.708   0.672   5.840  0.0448  0.0268 -0.1367
 1331SOL    HW115629   3.674   0.650   5.926 -1.9973  1.6190 -0.5380
 1331SOL    HW215630   3.704   0.583   5.805 -2.1356  0.2483 -0.4248
 1332SOL     OW15631   1.134   2.998   4.805  0.5581  0.1830  0.1080
 1332SOL    HW115632   1.177   2.916   4.829 -0.0792 -0.0522  0.4406
 1332SOL    HW215633   1.156   3.057   4.877 -0.4925  2.1478 -1.2155
 1333SOL     OW15634   0.734   0.686   3.257  0.1514  0.6192 -0.0511
 1333SOL    HW115635   0.742   0.616   3.193 -0.5287  1.2101 -0.7855
 1333SOL    HW215636   0.647   0.718   3.232 -0.0327  0.2784  0.1518
 1334SOL     OW15637   1.385   3.638   6.752 -0.4291  0.9462  0.5111
 1334SOL    HW115638   1.351   3.660   6.838 -2.5563 -0.6887  0.0765
 1334SOL    HW215639   1.374   3.543   6.747  3.0693  0.5864 -0.9000
 1335SOL     OW15640   4.465   2.265   5.704 -0.3492 -0.2505  0.3110
 1335SOL    HW115641   4.401   2.194   5.694  0.3819 -0.6092 -1.8679
 1335SOL    HW215642   4.408   2.329   5.746 -0.3387  0.1366 -0.2759
 1336SOL     OW15643   1.624   2.851   3.382  0.1346  0.0016  0.6132
 1336SOL    HW115644   1.707   2.892   3.408  0.3415 -0.6787  1.0444
 1336SOL    HW215645   1.568   2.854   3.460  0.2223  1.5492  0.6226
 1337SOL     OW15646   1.087   0.687   2.730 -1.0411 -0.0911 -0.2548
 1337SOL    HW115647   0.997   0.712   2.708  0.0257  1.9458 -2.2633
 1337SOL    HW215648   1.116   0.773   2.759  0.9648 -1.1911  0.9845
 1338SOL     OW15649   0.752   2.997  15.964  0.4974 -0.2818 -0.0449
 1338SOL    HW115650   0.665   3.026  15.935  0.4173 -3.3929 -2.8354
 1338SOL    HW215651   0.737   2.903  15.954  1.6969 -0.4050 -0.6796
 1339SOL     OW15652   3.210   3.979   8.063  0.2968 -0.4014 -0.2768
 1339SOL    HW115653   3.119   4.004   8.052  0.4230 -0.8094 -2.2141
 1339SOL    HW215654   3.238   4.040   8.131 -0.6278 -0.8130  0.4706
 1340SOL     OW15655   2.915   3.921  16.728 -0.5806  0.0372  0.0412
 1340SOL    HW115656   2.838   3.894  16.677 -0.4320 -0.2853 -0.0119
 1340SOL    HW215657   2.950   3.992  16.674 -0.8857  0.7749  0.8068
 1341SOL     OW15658   1.416   1.793   5.285 -0.3030 -0.6090 -0.6879
 1341SOL    HW115659   1.436   1.745   5.365 -0.0755  0.0975 -0.3189
 1341SOL    HW215660   1.394   1.881   5.316  0.3053 -0.3705 -0.9484
 1342SOL     OW15661   4.494   3.794  17.453 -0.1047  0.3361 -0.1556
 1342SOL    HW115662   4.542   3.747  17.521 -0.0159  1.4415  0.5419
 1342SOL    HW215663   4.437   3.727  17.415 -0.5426  0.0611  0.9712
 1343SOL     OW15664   2.148   0.784  11.633 -0.0920  0.6899 -0.1802
 1343SOL    HW115665   2.187   0.774  11.546 -0.5198  1.1604 -0.4262
 1343SOL    HW215666   2.088   0.710  11.632 -0.3771  0.9393 -1.2420
 1344SOL     OW15667   2.301   0.853   8.828 -0.0153 -0.5614 -0.4958
 1344SOL    HW115668   2.207   0.837   8.828 -0.2867  0.9853 -1.3303
 1344SOL    HW215669   2.315   0.903   8.747 -0.5662  0.4033 -0.0000
 1345SOL     OW15670   0.316   0.800   8.874  1.0181  0.0667 -0.5583
 1345SOL    HW115671   0.384   0.733   8.873  0.2182 -0.7620  0.1216
 1345SOL    HW215672   0.319   0.847   8.790 -0.4707  2.3028  0.6280
 1346SOL     OW15673   1.045   3.918   3.847 -0.7826  0.4898 -0.0319
 1346SOL    HW115674   0.998   4.001   3.853  0.1899  0.8882  1.8991
 1346SOL    HW215675   1.129   3.929   3.892 -1.2100  2.3019  0.2932
 1347SOL     OW15676   4.148   3.841   7.741  0.3043  0.1257  0.3885
 1347SOL    HW115677   4.124   3.795   7.821  1.7985 -1.6395 -0.1981
 1347SOL    HW215678   4.108   3.787   7.674  0.1258  1.2621 -0.4300
 1348SOL     OW15679   0.164   2.005   8.442 -0.2149 -0.6615 -0.1547
 1348SOL    HW115680   0.240   2.047   8.481  0.0559 -0.7525 -0.5855
 1348SOL    HW215681   0.128   2.078   8.391 -0.7168  1.5754  3.3408
 1349SOL     OW15682   0.889   1.678  16.867 -0.1873 -0.1167 -0.5762
 1349SOL    HW115683   0.800   1.696  16.897  0.1483 -0.8826  0.8610
 1349SOL    HW215684   0.934   1.753  16.906  0.8999 -0.8742 -0.3966
 1350SOL     OW15685   0.064   0.343  10.289 -0.5079 -0.4513  0.6540
 1350SOL    HW115686   0.053   0.275  10.223  0.7281 -0.3451  0.3429
 1350SOL    HW215687   0.125   0.402  10.245 -0.9691  0.6736  1.5276
 1351SOL     OW15688   4.197   0.645   2.935  0.1324  0.3001  0.1750
 1351SOL    HW115689   4.204   0.738   2.913 -1.6570  0.3643 -0.1106
 1351SOL    HW215690   4.211   0.666   3.028  3.5911  0.8156 -0.4573
 1352SOL     OW15691   2.288   0.864   0.301  0.0892 -0.4317 -0.6363
 1352SOL    HW115692   2.237   0.837   0.378  0.6422  0.6492  0.1113
 1352SOL    HW215693   2.353   0.922   0.341 -0.2005  0.0727 -0.9077
 1353SOL     OW15694   4.307   4.366   7.601  0.1090  0.0427 -0.3312
 1353SOL    HW115695   4.346   4.392   7.684 -0.2662 -0.8451  0.1212
 1353SOL    HW215696   4.390   4.336   7.564  0.2687  0.8298 -0.6081
 1354SOL     OW15697   3.879   3.020   6.111 -0.5506 -0.5680 -0.6129
 1354SOL    HW115698   3.966   2.982   6.099 -0.3849 -0.1978 -0.6092
 1354SOL    HW215699   3.828   2.945   6.141  0.3829  0.1410  2.7901
 1355SOL     OW15700   4.311   1.778   5.301 -0.2206  0.7137 -0.7481
 1355SOL    HW115701   4.261   1.709   5.345  2.6295  0.4518  2.0946
 1355SOL    HW215702   4.272   1.851   5.348 -3.5887 -1.1950 -0.6015
 1356SOL     OW15703   2.125   1.040   3.136 -0.3138  0.5789 -0.3282
 1356SOL    HW115704   2.214   1.009   3.119 -0.1982  0.1917  1.0069
 1356SOL    HW215705   2.149   1.119   3.184 -1.1495 -0.1543  1.2988
 1357SOL     OW15706   3.117   2.888   0.283  0.4296  0.0534 -0.7219
 1357SOL    HW115707   3.119   2.898   0.188  0.0159 -3.8764 -1.1562
 1357SOL    HW215708   3.037   2.840   0.304  0.8115 -0.2967 -0.0911
 1358SOL     OW15709   2.235   0.785   7.033 -0.2690 -0.3116 -0.1908
 1358SOL    HW115710   2.163   0.752   6.979 -0.3343  0.8738 -0.8239
 1358SOL    HW215711   2.313   0.757   6.984 -1.0864 -2.3859 -0.3146
 1359SOL     OW15712   2.886   3.492   6.780  0.4625 -0.1402 -0.0940
 1359SOL    HW115713   2.974   3.511   6.813  0.8377 -2.6998  0.4021
 1359SOL    HW215714   2.830   3.557   6.822 -0.4560  0.2026 -1.8747
 1360SOL     OW15715   2.174   1.794   1.528 -0.4152  0.1356  0.0181
 1360SOL    HW115716   2.245   1.731   1.544 -0.5748  0.4082  1.7608
 1360SOL    HW215717   2.202   1.822   1.440 -0.7861 -0.7747 -0.3984
 1361SOL     OW15718   3.130   2.827   7.461 -0.2502 -0.1387  0.1955
 1361SOL    HW115719   3.046   2.785   7.441 -0.9591 -0.0893  3.1202
 1361SOL    HW215720   3.117   2.921   7.453 -1.7137 -0.3748 -0.1852
 1362SOL     OW15721   0.828   2.201   6.426 -0.1769 -0.3368  0.5498
 1362SOL    HW115722   0.829   2.138   6.354  1.8339  0.2067  0.0980
 1362SOL    HW215723   0.733   2.214   6.429 -0.0207  1.0197 -0.3398
 1363SOL     OW15724   3.995   4.648   4.645 -0.2082 -0.1164  0.1879
 1363SOL    HW115725   3.913   4.608   4.615  0.9302  0.1325 -3.2023
 1363SOL    HW215726   3.966   4.731   4.683  0.0956  0.8765 -1.7982
 1364SOL     OW15727   1.573   4.488   3.771 -0.3370 -0.1547  0.1321
 1364SOL    HW115728   1.632   4.516   3.841 -1.9806 -1.1741  1.9728
 1364SOL    HW215729   1.637   4.447   3.713  0.6235 -0.3940  1.3604
 1365SOL     OW15730   2.797   3.279   8.141 -0.0323  0.5615 -0.2369
 1365SOL    HW115731   2.749   3.197   8.153  0.6907  0.0657 -0.7673
 1365SOL    HW215732   2.791   3.317   8.229  1.1230 -2.4570  1.1276
 1366SOL     OW15733   1.214   1.069   3.706  0.0559 -0.1534 -0.6832
 1366SOL    HW115734   1.293   1.123   3.712  0.5413 -0.9780  0.3065
 1366SOL    HW215735   1.249   0.986   3.735 -2.3840 -0.9006  0.1355
 1367SOL     OW15736   0.077   3.479   7.522 -0.2475  0.1980  0.3573
 1367SOL    HW115737   0.116   3.495   7.609  2.5789 -2.4790 -0.4062
 1367SOL    HW215738   4.731   3.529   7.533 -0.0436  0.9145 -1.3562
 1368SOL     OW15739   2.399   2.406   2.138  0.2355 -0.0384 -0.2174
 1368SOL    HW115740   2.391   2.311   2.146 -1.9980  0.2184  0.5332
 1368SOL    HW215741   2.458   2.420   2.212 -0.9623  2.6045  0.1914
 1369SOL     OW15742   1.803   1.666   9.420  0.0501 -0.1828 -0.4418
 1369SOL    HW115743   1.784   1.603   9.350  0.8538 -2.3106  1.2462
 1369SOL    HW215744   1.875   1.617   9.460 -0.0569  0.2834  0.3257
 1370SOL     OW15745   1.020   3.181   9.800 -0.1670 -0.2325  0.1432
 1370SOL    HW115746   1.098   3.164   9.853 -2.1817  0.6221  3.3856
 1370SOL    HW215747   1.021   3.276   9.795  2.8160 -0.2308  0.8338
 1371SOL     OW15748   1.997   1.375   5.616  0.3237  0.4792  0.0451
 1371SOL    HW115749   2.013   1.423   5.697  1.4390 -0.5065  0.4183
 1371SOL    HW215750   1.909   1.340   5.632 -0.2578  3.0940  2.4712
 1372SOL     OW15751   4.696   0.862   4.815  0.3321 -0.0083 -0.5016
 1372SOL    HW115752   4.685   0.767   4.807  1.2397 -0.0876 -0.7389
 1372SOL    HW215753   4.734   0.885   4.730 -0.1812  1.8804 -0.2332
 1373SOL     OW15754   3.752   2.607   2.451 -0.1692 -0.3942  0.4276
 1373SOL    HW115755   3.845   2.623   2.433 -0.3795 -2.4184 -2.5033
 1373SOL    HW215756   3.735   2.538   2.387 -1.7451 -0.4191  0.8751
 1374SOL     OW15757   2.107   2.454   2.639 -0.2568 -0.4971 -0.3069
 1374SOL    HW115758   2.110   2.361   2.615  2.8650 -1.3044  3.0631
 1374SOL    HW215759   2.073   2.497   2.561  0.6012 -1.5275 -1.2402
 1375SOL     OW15760   1.304   2.605  16.439  0.2139 -0.2577  0.0010
 1375SOL    HW115761   1.339   2.558  16.363  2.7246  2.7322 -0.6608
 1375SOL    HW215762   1.357   2.684  16.435 -0.8433  0.3363 -2.4341
 1376SOL     OW15763   0.704   3.083   0.230 -0.2508  0.4068 -0.4206
 1376SOL    HW115764   0.795   3.097   0.204 -0.1631 -1.5765 -1.2088
 1376SOL    HW215765   0.701   2.991   0.254 -2.0353  0.2886 -1.0645
 1377SOL     OW15766   2.422   4.347   5.711 -0.3031  0.1221 -0.6578
 1377SOL    HW115767   2.437   4.268   5.763 -2.0635  0.6488  0.6537
 1377SOL    HW215768   2.340   4.376   5.751  0.7239  0.6813  1.0533
 1378SOL     OW15769   0.343   1.828   5.366 -0.4721 -0.2221 -0.2781
 1378SOL    HW115770   0.366   1.868   5.450  0.5209 -0.6314 -0.3531
 1378SOL    HW215771   0.251   1.807   5.379 -1.1483  1.2263 -2.6605
 1379SOL     OW15772   1.049   0.021   2.780 -0.0686 -0.1094  0.2062
 1379SOL    HW115773   1.108   4.727   2.851  0.6922 -1.0771 -0.8137
 1379SOL    HW215774   1.031   0.113   2.800  2.0795  0.1758  0.8983
 1380SOL     OW15775   0.040   3.742   4.116 -0.6629  0.1191 -0.2601
 1380SOL    HW115776   4.729   3.688   4.051 -2.1622  1.4446 -0.3371
 1380SOL    HW215777   4.717   3.818   4.130 -1.2355  0.0046 -1.9493
 1381SOL     OW15778   0.911   2.336   3.472 -0.1204 -0.3158 -0.0651
 1381SOL    HW115779   0.959   2.415   3.446 -0.6508  0.5608  1.6562
 1381SOL    HW215780   0.819   2.361   3.483 -0.2513 -0.7563 -0.1596
 1382SOL     OW15781   1.315   4.238   4.815 -0.6867  0.9596 -0.3783
 1382SOL    HW115782   1.264   4.203   4.742 -2.8801 -2.1985  2.7031
 1382SOL    HW215783   1.288   4.179   4.886  1.7200 -0.3250 -0.5490
 1383SOL     OW15784   0.710   3.490   9.011  0.2644  0.3695  0.7851
 1383SOL    HW115785   0.710   3.537   8.927  1.3867 -1.2868 -0.1283
 1383SOL    HW215786   0.802   3.468   9.023 -0.1248 -1.0951  1.0452
 1384SOL     OW15787   2.709   2.360   6.537  0.2873  0.5348 -0.1246
 1384SOL    HW115788   2.752   2.294   6.591  1.3273  0.1175 -1.4420
 1384SOL    HW215789   2.677   2.420   6.604 -2.9637 -0.1812 -1.0280
 1385SOL     OW15790   4.412   1.936   8.719 -0.3646 -0.1868 -0.0589
 1385SOL    HW115791   4.464   1.861   8.693  1.5682  1.6029 -1.3108
 1385SOL    HW215792   4.363   1.940   8.637 -0.1360 -0.7186 -0.2215
 1386SOL     OW15793   2.003   3.997   6.969  0.7166 -0.5756  0.4429
 1386SOL    HW115794   1.964   3.921   7.012  0.3638  0.0396  1.2176
 1386SOL    HW215795   1.986   4.062   7.038  0.4155  1.4860 -1.5655
 1387SOL     OW15796   2.235   0.825   4.637  0.5319  0.1031 -0.3196
 1387SOL    HW115797   2.209   0.804   4.727 -1.9570  2.0962 -0.5840
 1387SOL    HW215798   2.294   0.898   4.656 -3.4319  3.4315 -0.7890
 1388SOL     OW15799   3.498   0.683   3.855  0.7063 -0.4475 -0.0609
 1388SOL    HW115800   3.533   0.595   3.865 -0.9159 -1.3487 -2.3436
 1388SOL    HW215801   3.404   0.669   3.850 -0.0641  4.1266  1.3426
 1389SOL     OW15802   4.713   4.478   7.284  0.0135 -0.0272  0.5260
 1389SOL    HW115803   0.035   4.531   7.340 -0.8177  0.7049  0.6796
 1389SOL    HW215804   0.020   4.393   7.297  1.4352  0.8035  1.3432
 1390SOL     OW15805   3.821   2.055   6.333  0.3502  0.4951  0.2633
 1390SOL    HW115806   3.893   2.038   6.394 -0.3165  1.6858  1.3775
 1390SOL    HW215807   3.779   1.970   6.346  0.1869  0.6913  1.0683
 1391SOL     OW15808   3.697   2.527   8.188 -0.3047  0.0049 -0.7333
 1391SOL    HW115809   3.741   2.514   8.272 -1.8437  2.1662  0.4088
 1391SOL    HW215810   3.669   2.436   8.182  0.7189 -0.5618  3.0124
 1392SOL     OW15811   2.224   0.078  10.208  0.1113  0.0402 -0.1082
 1392SOL    HW115812   2.281   0.068  10.285 -1.9848 -0.0203  1.4264
 1392SOL    HW215813   2.188   0.166  10.223  1.0017  0.4720 -0.4489
 1393SOL     OW15814   0.358   2.090  14.678 -0.3201  0.8803 -0.1019
 1393SOL    HW115815   0.424   2.028  14.710  0.3458  2.0224  0.7583
 1393SOL    HW215816   0.321   2.128  14.758  0.3112 -1.2908  1.2119
 1394SOL     OW15817   4.393   3.579  14.305 -0.1278 -0.1053 -0.2212
 1394SOL    HW115818   4.359   3.577  14.216 -0.6128  4.3901 -0.1342
 1394SOL    HW215819   4.317   3.555  14.357  1.0200 -0.8489  1.1250
 1395SOL     OW15820   2.580   2.242   2.704 -0.3201  0.3599 -0.2267
 1395SOL    HW115821   2.660   2.291   2.685  0.4459  0.2378  2.7304
 1395SOL    HW215822   2.512   2.303   2.673 -0.3577 -1.0056 -2.8136
 1396SOL     OW15823   0.299   0.588   6.664 -0.0915  0.2545  0.1279
 1396SOL    HW115824   0.211   0.617   6.639 -0.6490 -2.6811 -1.2819
 1396SOL    HW215825   0.273   0.539   6.742 -2.4422  1.6214  0.2257
 1397SOL     OW15826   1.779   1.642  13.404 -0.1883  0.3069 -0.3937
 1397SOL    HW115827   1.802   1.695  13.481  0.8084  1.1692 -1.2903
 1397SOL    HW215828   1.688   1.663  13.383  0.1313  2.6610  0.5541
 1398SOL     OW15829   3.108   3.447   0.122  0.1776 -0.2958  0.0704
 1398SOL    HW115830   3.142   3.534   0.141  0.4441  0.3025 -3.1863
 1398SOL    HW215831   3.167   3.411   0.055 -0.5793  1.4245 -1.5272
 1399SOL     OW15832   2.160   4.448   3.120 -0.1635 -0.8212 -0.2627
 1399SOL    HW115833   2.156   4.498   3.202  1.4794  1.7414 -1.7128
 1399SOL    HW215834   2.247   4.471   3.087 -0.7212 -0.2294 -1.3360
 1400SOL     OW15835   3.016   2.291   9.936 -0.1763  0.3033 -0.5748
 1400SOL    HW115836   2.969   2.238   9.872  1.3658  1.8578 -2.9810
 1400SOL    HW215837   3.030   2.221  10.000 -1.1225  0.5894 -0.0501
 1401SOL     OW15838   4.267   0.263   1.577 -0.4575 -0.3786 -0.2174
 1401SOL    HW115839   4.353   0.231   1.547  0.7333  2.7643 -0.1607
 1401SOL    HW215840   4.253   0.210   1.656 -0.3378  0.8960  0.6481
 1402SOL     OW15841   0.092   1.263   3.361  0.3838  0.4687 -0.0324
 1402SOL    HW115842   0.159   1.316   3.315  1.8207  0.3788  1.9705
 1402SOL    HW215843   0.009   1.285   3.319 -0.2966 -1.6712  0.1850
 1403SOL     OW15844   0.487   2.838   7.797  0.3379 -0.0553 -0.1865
 1403SOL    HW115845   0.518   2.883   7.875  2.2161 -0.9893 -0.4023
 1403SOL    HW215846   0.546   2.880   7.735  0.7819 -1.4677 -0.7288
 1404SOL     OW15847   3.445   2.158   4.088  0.3794  1.5399  0.4819
 1404SOL    HW115848   3.522   2.100   4.091 -1.0590 -0.5007 -2.2552
 1404SOL    HW215849   3.423   2.157   3.995  0.1640 -0.6653  0.5528
 1405SOL     OW15850   4.038   1.794   4.374 -0.3471 -0.3636 -0.1453
 1405SOL    HW115851   4.099   1.731   4.412  0.4593  0.1017 -0.6819
 1405SOL    HW215852   3.962   1.751   4.413  0.1796  0.8480  2.2553
 1406SOL     OW15853   4.452   2.651   7.337  0.5090  0.1479  0.3066
 1406SOL    HW115854   4.445   2.743   7.313 -2.1690  0.1901  1.2775
 1406SOL    HW215855   4.360   2.638   7.314  1.2621  1.2196 -3.2544
 1407SOL     OW15856   2.958   3.544   9.228  0.1803  0.0906  0.8210
 1407SOL    HW115857   2.947   3.499   9.144 -0.6587  0.4721  0.7234
 1407SOL    HW215858   2.909   3.483   9.283  0.0250  0.8026  1.4736
 1408SOL     OW15859   4.308   3.084   7.776  0.4261  0.2751 -0.8279
 1408SOL    HW115860   4.218   3.054   7.783 -0.1933  1.3863 -4.1088
 1408SOL    HW215861   4.343   3.000   7.805 -0.8463 -0.6332 -1.9415
 1409SOL     OW15862   1.059   0.372   6.008 -0.2498 -0.4828  0.1348
 1409SOL    HW115863   0.979   0.341   6.050 -0.7509  1.1794  0.4094
 1409SOL    HW215864   1.027   0.450   5.963 -0.3264  0.1323  1.2506
 1410SOL     OW15865   0.169   0.545   8.140 -0.2136  0.0273 -0.0288
 1410SOL    HW115866   0.181   0.510   8.051 -1.2361 -0.4309  0.0210
 1410SOL    HW215867   0.155   0.472   8.200  1.0115 -0.1511  0.0448
 1411SOL     OW15868   2.600   4.543  11.892 -0.0566  0.4270  0.0034
 1411SOL    HW115869   2.530   4.582  11.839 -0.5703  1.1142  1.1926
 1411SOL    HW215870   2.679   4.576  11.850 -0.9027  0.8810 -1.2496
 1412SOL     OW15871   2.543   3.825   2.707  0.6956 -0.0508  0.1670
 1412SOL    HW115872   2.581   3.813   2.620  1.0824  2.1110  0.0337
 1412SOL    HW215873   2.506   3.913   2.703  2.1100  0.5008 -0.6808
 1413SOL     OW15874   0.126   2.313   4.013 -0.7233  0.8692  0.1799
 1413SOL    HW115875   0.208   2.309   4.062 -0.5244  0.8962 -0.1570
 1413SOL    HW215876   0.151   2.277   3.928  2.0976 -0.3297  1.5242
 1414SOL     OW15877   3.904   3.463   0.372 -0.0329 -0.3569 -0.0477
 1414SOL    HW115878   3.816   3.425   0.376 -0.1519  0.1333  1.9284
 1414SOL    HW215879   3.891   3.558   0.367  0.9423 -0.3199 -1.7430
 1415SOL     OW15880   3.665   0.406  10.251  0.9054  0.1863 -0.3030
 1415SOL    HW115881   3.754   0.376  10.233  0.4552 -1.2457 -0.1174
 1415SOL    HW215882   3.631   0.328  10.295 -0.0317 -0.2326 -1.7750
 1416SOL     OW15883   2.208   1.999   7.112  0.0631 -0.5063 -0.3734
 1416SOL    HW115884   2.162   2.072   7.069  0.5537 -1.4956 -2.5960
 1416SOL    HW215885   2.139   1.939   7.138  0.9526 -2.2392 -2.0196
 1417SOL     OW15886   1.345   3.305   8.150  0.5423  0.0979 -0.3887
 1417SOL    HW115887   1.362   3.398   8.161 -0.8866  0.6272 -2.5869
 1417SOL    HW215888   1.282   3.293   8.222  0.8107  0.3952 -0.1025
 1418SOL     OW15889   3.083   3.618  11.804  0.7384  0.3226  0.2743
 1418SOL    HW115890   3.036   3.699  11.782  0.5875  0.3443  0.6716
 1418SOL    HW215891   3.097   3.581  11.717 -2.0644 -0.4282  0.1114
 1419SOL     OW15892   0.190   3.268   8.066  0.0123  0.6104 -0.6677
 1419SOL    HW115893   0.132   3.281   7.990  1.0650  1.6909 -1.2809
 1419SOL    HW215894   0.171   3.175   8.080  2.1082  0.2131 -0.4813
 1420SOL     OW15895   4.076   3.154   2.355 -0.2854 -0.1720 -0.9163
 1420SOL    HW115896   4.108   3.081   2.302 -1.9408 -0.3416 -1.6727
 1420SOL    HW215897   4.012   3.190   2.293 -1.8682  0.8720  1.3070
 1421SOL     OW15898   4.009   4.568  13.909 -0.0926  0.1940 -0.0905
 1421SOL    HW115899   4.040   4.634  13.971  0.7546 -0.3253  0.0206
 1421SOL    HW215900   4.017   4.485  13.956 -1.1784  0.4888  0.6281
 1422SOL     OW15901   3.632   4.508   3.380 -0.6933 -0.4385  0.0968
 1422SOL    HW115902   3.604   4.460   3.302  0.1812 -0.6163 -0.1059
 1422SOL    HW215903   3.660   4.591   3.342 -1.2079 -0.3063 -0.0033
 1423SOL     OW15904   0.018   1.501   6.524  0.4207 -0.2285  0.1155
 1423SOL    HW115905   0.088   1.540   6.472  0.6334  2.9208  2.7325
 1423SOL    HW215906   4.670   1.545   6.504  0.7549  0.3936  0.1034
 1424SOL     OW15907   2.213   1.567  11.369 -0.7810 -0.2200  0.2055
 1424SOL    HW115908   2.196   1.521  11.451 -2.5966  1.2338  0.6517
 1424SOL    HW215909   2.259   1.504  11.314 -0.5635 -1.1207  1.4284
 1425SOL     OW15910   3.299   2.713   4.601 -0.2808 -0.1514 -0.1378
 1425SOL    HW115911   3.309   2.685   4.692 -1.2470  1.2704  0.4022
 1425SOL    HW215912   3.205   2.693   4.593  0.4129 -2.8792 -1.8460
 1426SOL     OW15913   4.515   2.346   6.474 -0.6104 -0.3003  0.1734
 1426SOL    HW115914   4.602   2.378   6.499 -0.1168 -0.5787 -1.2024
 1426SOL    HW215915   4.487   2.292   6.548 -2.7118 -0.3366 -0.6493
 1427SOL     OW15916   0.482   4.237   3.211 -0.0255 -0.3589  0.4499
 1427SOL    HW115917   0.499   4.304   3.144 -3.1631 -0.1161 -0.0965
 1427SOL    HW215918   0.548   4.256   3.277  0.3667  1.9405 -0.5863
 1428SOL     OW15919   4.113   3.403   7.734  0.1340  0.2398  0.4337
 1428SOL    HW115920   4.028   3.396   7.691  0.8035  0.4168 -0.9055
 1428SOL    HW215921   4.094   3.403   7.828 -1.8638  1.5691  0.0093
 1429SOL     OW15922   1.857   2.961  13.206  0.2236  0.1577  0.1895
 1429SOL    HW115923   1.893   2.959  13.295 -0.6602 -1.7238  0.5170
 1429SOL    HW215924   1.908   3.033  13.171  0.5458 -0.1133  0.0990
 1430SOL     OW15925   1.766   4.345  12.999 -0.2005 -0.0608 -0.4538
 1430SOL    HW115926   1.773   4.374  12.909  0.9763 -0.4643 -0.4849
 1430SOL    HW215927   1.817   4.265  12.989 -0.1010  0.1666 -1.7205
 1431SOL     OW15928   2.381   3.543   5.378 -0.1021  0.5606 -0.5950
 1431SOL    HW115929   2.306   3.495   5.343 -0.9453  2.3896 -1.3044
 1431SOL    HW215930   2.423   3.595   5.309 -1.4439  1.4436 -0.7440
 1432SOL     OW15931   3.713   3.686   1.895 -0.2816  0.2283 -0.1404
 1432SOL    HW115932   3.704   3.759   1.955 -1.0330 -0.0654  0.1011
 1432SOL    HW215933   3.621   3.665   1.881  0.0702 -1.5211  0.0694
 1433SOL     OW15934   4.729   2.694   2.311 -0.6400 -0.7063 -0.2690
 1433SOL    HW115935   0.085   2.721   2.323 -0.0614 -1.8330 -2.0163
 1433SOL    HW215936   4.719   2.682   2.216 -0.3863  1.3993 -0.5427
 1434SOL     OW15937   2.987   4.313   6.117 -0.0991 -1.0830  0.1274
 1434SOL    HW115938   2.953   4.224   6.123 -3.9103  0.5037  1.9189
 1434SOL    HW215939   2.972   4.333   6.025  0.9493 -1.5766 -0.1527
 1435SOL     OW15940   3.263   1.191   2.291  0.0761 -0.1545  0.4970
 1435SOL    HW115941   3.348   1.222   2.260  0.0007  0.0230  0.4660
 1435SOL    HW215942   3.286   1.132   2.363  1.6570  1.0645  0.9843
 1436SOL     OW15943   4.316   2.600   8.379  0.1627  0.2758  0.0719
 1436SOL    HW115944   4.385   2.665   8.388  1.0384 -0.3867 -1.7771
 1436SOL    HW215945   4.355   2.528   8.430  0.4773 -0.5135 -1.2719
 1437SOL     OW15946   0.025   0.343   6.433  0.8097  0.4902  0.4667
 1437SOL    HW115947   4.674   0.375   6.403  1.3397  1.2592 -0.2531
 1437SOL    HW215948   0.000   0.292   6.510  0.0056 -1.0886 -0.8445
 1438SOL     OW15949   1.045   1.595  12.380  0.6072 -0.4389 -0.0450
 1438SOL    HW115950   1.057   1.549  12.463  0.0573  0.0885  0.3266
 1438SOL    HW215951   1.039   1.524  12.316  3.0032  1.2493 -2.1363
 1439SOL     OW15952   1.597   2.737   8.049  0.3815 -0.3938  0.4654
 1439SOL    HW115953   1.633   2.697   8.128  0.3033 -2.1548 -0.3890
 1439SOL    HW215954   1.650   2.704   7.978 -0.5193 -1.2411  0.1863
 1440SOL     OW15955   2.392   0.477   0.608 -0.0734  0.2186 -0.1898
 1440SOL    HW115956   2.410   0.569   0.589 -0.7543  0.1521 -1.1760
 1440SOL    HW215957   2.482   0.447   0.620  0.6179  3.2112  2.2197
 1441SOL     OW15958   1.544   4.267   4.685  0.5590 -0.4978  0.1866
 1441SOL    HW115959   1.616   4.232   4.738  3.1814 -1.3507 -3.9301
 1441SOL    HW215960   1.466   4.254   4.739 -0.3213  3.2017 -0.1649
 1442SOL     OW15961   2.540   1.834   4.705 -0.3648 -0.2458 -0.1348
 1442SOL    HW115962   2.515   1.766   4.642 -1.1670  1.1238 -1.3062
 1442SOL    HW215963   2.549   1.784   4.785  1.2382  2.2178  1.2191
 1443SOL     OW15964   3.437   2.194   1.263  0.0549 -0.3974 -0.0942
 1443SOL    HW115965   3.445   2.266   1.200  0.4667 -1.8698 -1.7276
 1443SOL    HW215966   3.519   2.147   1.248 -0.4628 -0.9093 -1.3384
 1444SOL     OW15967   4.011   2.482   5.409  0.4067  0.0437 -0.2292
 1444SOL    HW115968   4.053   2.445   5.486  0.5060 -0.4563 -0.5205
 1444SOL    HW215969   4.080   2.540   5.377  2.5175 -1.1363  2.1083
 1445SOL     OW15970   3.344   4.323   5.259  0.2361 -0.1663 -0.3633
 1445SOL    HW115971   3.331   4.264   5.333 -1.0781  0.1724 -0.3178
 1445SOL    HW215972   3.283   4.393   5.281  1.2939  0.8994 -0.8620
 1446SOL     OW15973   2.404   1.519  14.572  0.1452  0.3880  0.1598
 1446SOL    HW115974   2.339   1.485  14.511  0.5518  0.2387 -0.1870
 1446SOL    HW215975   2.480   1.499  14.518 -0.8676 -0.0315 -1.0989
 1447SOL     OW15976   0.484   4.163  14.990  0.4782 -0.1386  0.5782
 1447SOL    HW115977   0.468   4.172  14.896 -0.2906 -3.7908  0.3470
 1447SOL    HW215978   0.499   4.249  15.028 -1.4692  1.5335 -2.3983
 1448SOL     OW15979   0.290   2.378  17.434 -0.1716 -0.8161  0.5085
 1448SOL    HW115980   0.238   2.449  17.397  2.5762  0.0974 -1.6328
 1448SOL    HW215981   0.307   2.321  17.359 -0.8176 -0.8535  0.3918
 1449SOL     OW15982   1.036   2.578  14.759 -0.3728 -0.2785 -0.7650
 1449SOL    HW115983   1.091   2.589  14.836 -1.0143 -0.9924 -0.1920
 1449SOL    HW215984   1.024   2.665  14.721 -0.8352 -0.4183 -0.9483
 1450SOL     OW15985   3.321   3.997   7.179  0.5614  0.1114  0.0331
 1450SOL    HW115986   3.281   4.033   7.258 -0.4954 -0.9710 -0.0317
 1450SOL    HW215987   3.333   3.907   7.208  0.0668  0.4395  1.2796
 1451SOL     OW15988   1.874   4.260   7.618 -0.2008 -0.6254 -0.0414
 1451SOL    HW115989   1.840   4.328   7.559 -2.1640 -0.2125  1.5994
 1451SOL    HW215990   1.962   4.294   7.634 -0.8511 -0.1091  2.3146
 1452SOL     OW15991   2.395   3.460  13.238  0.6564 -0.0876 -0.1915
 1452SOL    HW115992   2.401   3.528  13.171  1.4033 -0.5151 -0.5575
 1452SOL    HW215993   2.331   3.495  13.300  1.0082  1.0641 -0.4751
 1453SOL     OW15994   0.902   3.464   2.985 -0.5894  0.6500  0.1585
 1453SOL    HW115995   0.823   3.468   3.038  0.0656 -0.4912  1.2319
 1453SOL    HW215996   0.911   3.369   2.976 -1.9388  0.5024  0.3508
 1454SOL     OW15997   1.682   2.757  13.298  0.6331  0.7182 -0.3148
 1454SOL    HW115998   1.588   2.772  13.293  0.1869 -1.7253  0.7394
 1454SOL    HW215999   1.725   2.827  13.249  0.2137  1.6981  0.7211
 1455SOL     OW16000   4.171   1.702  15.245 -0.3599 -0.2850  0.3068
 1455SOL    HW116001   4.190   1.611  15.268 -0.0233  0.2791  2.3048
 1455SOL    HW216002   4.078   1.723  15.255 -0.5036 -0.1644 -1.2838
 1456SOL     OW16003   3.748   3.563   2.637  0.7235 -0.5244  0.4761
 1456SOL    HW116004   3.683   3.522   2.696 -1.1984  1.9288  0.0561
 1456SOL    HW216005   3.828   3.540   2.684  0.4539 -0.8524  0.7742
 1457SOL     OW16006   0.562   2.641   9.623 -0.0016 -0.0891  0.1082
 1457SOL    HW116007   0.468   2.644   9.640 -0.6898  0.3353 -3.7711
 1457SOL    HW216008   0.568   2.693   9.543  0.0228  0.8188  0.7141
 1458SOL     OW16009   1.446   0.535  17.670  0.6689  0.2501 -0.0006
 1458SOL    HW116010   1.535   0.568  17.656  1.1832 -1.5433 -1.0165
 1458SOL    HW216011   1.398   0.616  17.657 -0.5735 -0.5702 -0.4950
 1459SOL     OW16012   3.396   2.779   7.499 -0.2215  0.5037 -0.0712
 1459SOL    HW116013   3.304   2.807   7.502 -0.4875 -0.3013 -0.6996
 1459SOL    HW216014   3.438   2.857   7.460 -2.0573  1.4109 -0.2456
 1460SOL     OW16015   2.120   0.641  12.178 -0.4064  0.0489  0.3405
 1460SOL    HW116016   2.091   0.554  12.204 -2.2189  0.5627  0.0394
 1460SOL    HW216017   2.184   0.622  12.109 -0.5391 -3.0768  1.1001
 1461SOL     OW16018   1.457   3.779   9.657 -0.1837  0.6152 -0.6438
 1461SOL    HW116019   1.456   3.736   9.742 -1.4856 -0.3526 -1.1623
 1461SOL    HW216020   1.433   3.869   9.681  0.9966  0.8870 -0.4706
 1462SOL     OW16021   1.729   0.168  13.304  0.5882 -0.1062  0.4994
 1462SOL    HW116022   1.650   0.216  13.283  0.9358  0.1568 -0.2180
 1462SOL    HW216023   1.744   0.180  13.398  1.1566 -0.8203  0.5027
 1463SOL     OW16024   2.790   4.619   9.660 -0.9250  0.3503 -0.6604
 1463SOL    HW116025   2.788   4.541   9.714 -1.8692  0.8598  0.0413
 1463SOL    HW216026   2.722   4.610   9.593  0.1586 -0.1976 -1.6814
 1464SOL     OW16027   2.759   1.289   4.810 -0.0981  1.2352  0.0641
 1464SOL    HW116028   2.853   1.294   4.793  0.0866 -0.1067  0.7279
 1464SOL    HW216029   2.739   1.198   4.830 -1.6406  1.6396  0.3968
 1465SOL     OW16030   0.327   1.526   5.280 -0.1129 -0.0845  0.2287
 1465SOL    HW116031   0.327   1.620   5.299  0.0191 -0.0137 -0.1126
 1465SOL    HW216032   0.327   1.516   5.185 -0.9870 -1.5535  0.3860
 1466SOL     OW16033   1.926   1.146   2.899  0.3456 -0.3903 -0.4465
 1466SOL    HW116034   1.960   1.225   2.942  3.3153 -2.3077  0.6640
 1466SOL    HW216035   2.003   1.113   2.854  1.3168  1.9769 -0.5275
 1467SOL     OW16036   2.397   3.279   3.675 -0.3446  0.3031  0.4292
 1467SOL    HW116037   2.482   3.314   3.649 -0.5489  0.7485  0.3611
 1467SOL    HW216038   2.384   3.212   3.608 -0.1681  1.4123 -0.7083
 1468SOL     OW16039   1.418   2.662   1.208 -0.2218 -0.2184  0.6453
 1468SOL    HW116040   1.365   2.704   1.277  2.5716  1.1298  1.9630
 1468SOL    HW216041   1.372   2.706   1.137 -0.7890 -1.1148  0.4660
 1469SOL     OW16042   0.445   1.868   6.915 -0.1474  0.3165 -0.1056
 1469SOL    HW116043   0.432   1.898   6.825 -1.2255  1.5429  0.4627
 1469SOL    HW216044   0.361   1.879   6.960 -0.0226  0.2499  0.1425
 1470SOL     OW16045   3.438   0.347   1.854 -0.1665 -0.0561 -0.2680
 1470SOL    HW116046   3.427   0.416   1.788 -0.7147  0.1295  0.0242
 1470SOL    HW216047   3.534   0.346   1.856 -0.1589  0.9657  0.2789
 1471SOL     OW16048   2.440   2.509   1.888  0.4160 -0.1649 -0.7993
 1471SOL    HW116049   2.374   2.578   1.875 -0.0185 -0.1227  1.5764
 1471SOL    HW216050   2.417   2.475   1.975  0.9480  0.5006 -0.4027
 1472SOL     OW16051   1.903   3.552   2.590 -0.6041  0.0733  0.1061
 1472SOL    HW116052   1.978   3.518   2.542  0.1040  1.3105  0.3190
 1472SOL    HW216053   1.880   3.617   2.524 -3.0540 -0.3957  0.5089
 1473SOL     OW16054   3.927   4.348   6.767 -0.0771  0.3663  0.3996
 1473SOL    HW116055   4.003   4.293   6.747 -2.8840 -3.3172 -0.3170
 1473SOL    HW216056   3.929   4.323   6.859 -0.2696  1.0107  0.5784
 1474SOL     OW16057   1.283   2.466   5.516 -0.0785  0.3793 -0.3672
 1474SOL    HW116058   1.301   2.556   5.542 -2.1348  0.5507  0.5111
 1474SOL    HW216059   1.356   2.441   5.459  0.8972 -2.3217  2.0695
 1475SOL     OW16060   2.972   0.100   3.463 -0.8180 -0.3052  0.1645
 1475SOL    HW116061   2.891   0.151   3.472 -1.5272 -1.5738  0.8333
 1475SOL    HW216062   2.966   0.084   3.368  1.3148 -0.9531  0.1339
 1476SOL     OW16063   1.005   1.100   0.005 -0.2604  0.2095 -0.7008
 1476SOL    HW116064   1.016   1.148  17.660  0.6313  2.8302  0.9486
 1476SOL    HW216065   0.969   1.020  17.704  1.1696 -0.5559 -0.4725
 1477SOL     OW16066   1.898   4.121  12.947 -0.1003 -0.3247  0.3384
 1477SOL    HW116067   1.963   4.092  12.883  0.0029 -1.9397  1.1698
 1477SOL    HW216068   1.881   4.031  12.973 -0.9847 -0.4322 -0.6493
 1478SOL     OW16069   4.579   3.528   0.418  0.8411  0.5308 -0.5741
 1478SOL    HW116070   4.512   3.593   0.397  0.6272 -0.0998 -1.8464
 1478SOL    HW216071   4.650   3.571   0.465  3.0646 -2.5646 -1.1058
 1479SOL     OW16072   0.100   1.567   2.408  0.1473 -0.1736 -0.5346
 1479SOL    HW116073   0.088   1.479   2.373  0.4655  1.6639 -5.1928
 1479SOL    HW216074   0.009   1.594   2.420 -0.8102 -2.9076 -1.4531
 1480SOL     OW16075   0.285   4.185  15.290 -0.4480  0.4250  0.4426
 1480SOL    HW116076   0.244   4.213  15.208  1.8931 -0.1204 -0.8906
 1480SOL    HW216077   0.213   4.203  15.351  0.4361  0.2371  1.5429
 1481SOL     OW16078   0.772   2.757   6.830 -0.6983 -0.5020  0.3125
 1481SOL    HW116079   0.756   2.666   6.805  1.8414 -0.6385 -0.7530
 1481SOL    HW216080   0.685   2.797   6.836 -0.5504  0.2549 -2.7254
 1482SOL     OW16081   0.966   2.043   7.158  0.0096  0.1283 -0.4215
 1482SOL    HW116082   0.913   1.987   7.215  0.3520 -1.7773 -1.9994
 1482SOL    HW216083   0.916   2.028   7.078 -2.2992 -0.7914  1.1804
 1483SOL     OW16084   2.236   1.953   3.625  0.2186 -0.0705  0.0992
 1483SOL    HW116085   2.186   2.034   3.623 -0.6499 -0.5874  0.3557
 1483SOL    HW216086   2.326   1.978   3.607 -0.5377  1.6148 -1.3435
 1484SOL     OW16087   0.078   1.754   8.380 -0.1598 -0.1033 -0.5090
 1484SOL    HW116088   0.165   1.714   8.388 -0.6196 -0.7136  1.1948
 1484SOL    HW216089   0.085   1.846   8.407  1.3241 -0.9742  2.0242
 1485SOL     OW16090   3.963   4.388  14.526  0.2258 -0.0311 -0.5021
 1485SOL    HW116091   3.968   4.352  14.437  1.7037 -1.1779  0.0467
 1485SOL    HW216092   4.046   4.351  14.556 -0.4568  0.1188  1.5613
 1486SOL     OW16093   4.190   1.064   5.308 -0.0210  0.2965 -0.7372
 1486SOL    HW116094   4.269   1.111   5.337  0.1708 -0.8383  0.6058
 1486SOL    HW216095   4.196   1.084   5.215  0.3842  2.5492 -0.2270
 1487SOL     OW16096   0.053   1.819  16.931 -0.3471 -0.2411 -0.4926
 1487SOL    HW116097   0.047   1.802  16.837  0.6085  0.0597 -0.6143
 1487SOL    HW216098   4.697   1.808  16.959 -0.6203 -0.6281 -1.5388
 1488SOL     OW16099   0.019   1.220  14.591  0.4222  0.4088 -0.4584
 1488SOL    HW116100   4.688   1.233  14.661  0.8424 -1.5604  0.2937
 1488SOL    HW216101   0.063   1.305  14.591 -1.1168  1.2178  1.7916
 1489SOL     OW16102   1.707   2.609   0.849 -0.1026  0.0368  0.6707
 1489SOL    HW116103   1.632   2.572   0.802 -0.1354  1.6781 -0.5694
 1489SOL    HW216104   1.770   2.630   0.780 -0.5548  0.2301  0.3130
 1490SOL     OW16105   2.985   1.553  15.462  0.1703 -0.5000  0.4032
 1490SOL    HW116106   2.960   1.465  15.435 -1.0829  0.6740 -2.2625
 1490SOL    HW216107   3.048   1.534  15.532  0.7098 -0.1671  0.0040
 1491SOL     OW16108   2.008   0.368   8.932 -0.0429  0.1181 -0.1843
 1491SOL    HW116109   2.073   0.429   8.898 -2.9514  1.7209 -2.8881
 1491SOL    HW216110   1.966   0.427   8.996 -0.2821 -0.2814  0.0234
 1492SOL     OW16111   2.569   1.745   0.435 -0.7165  0.7945  0.3232
 1492SOL    HW116112   2.517   1.765   0.513 -0.6531 -0.6298  0.7290
 1492SOL    HW216113   2.571   1.649   0.432 -0.3109  0.8111  0.0634
 1493SOL     OW16114   0.167   1.554   4.030  0.4263  0.1478 -0.2600
 1493SOL    HW116115   0.209   1.491   3.971  0.1688 -0.5418  0.3060
 1493SOL    HW216116   0.211   1.637   4.011 -0.9145  1.3161  1.7836
 1494SOL     OW16117   4.068   2.922   5.199 -0.3085  0.1193  0.3028
 1494SOL    HW116118   4.050   2.884   5.285  0.0688 -0.4235  0.1389
 1494SOL    HW216119   4.125   2.998   5.214  2.9339 -2.8081  2.6817
 1495SOL     OW16120   0.577   1.221  11.172 -0.2784  0.3444  0.3425
 1495SOL    HW116121   0.647   1.217  11.237  1.6799  0.5159 -1.7606
 1495SOL    HW216122   0.506   1.171  11.213 -2.0461  1.2396 -1.6071
 1496SOL     OW16123   1.741   1.993   8.581 -0.5856 -0.1545 -0.3589
 1496SOL    HW116124   1.679   1.988   8.654  1.6775  0.3061  1.5756
 1496SOL    HW216125   1.765   2.086   8.588 -0.9469  0.0904 -2.2693
 1497SOL     OW16126   4.173   2.348  11.473 -0.2545  0.0419  0.0867
 1497SOL    HW116127   4.182   2.323  11.381  0.1963  0.2745  0.0719
 1497SOL    HW216128   4.172   2.443  11.462  0.4945  0.1886  1.2836
 1498SOL     OW16129   1.263   2.599   7.087  0.1091 -0.1416  0.0458
 1498SOL    HW116130   1.213   2.546   7.149 -1.3096  0.0015 -0.9808
 1498SOL    HW216131   1.205   2.674   7.070 -1.2655 -1.1196  0.3850
 1499SOL     OW16132   0.906   3.904   6.832  0.5077  0.2829 -0.4068
 1499SOL    HW116133   0.869   3.819   6.807  0.1677  1.0328 -2.4756
 1499SOL    HW216134   0.995   3.876   6.856 -1.0172 -3.0792  1.3655
 1500SOL     OW16135   3.755   0.792   3.202  0.3841  0.3608 -0.3313
 1500SOL    HW116136   3.818   0.726   3.230 -0.4966 -0.7730 -1.0322
 1500SOL    HW216137   3.797   0.828   3.124 -1.8511 -2.4218 -2.8752
 1501SOL     OW16138   3.480   1.524   1.216  0.6182  0.7155  0.0160
 1501SOL    HW116139   3.498   1.452   1.277 -1.9712  0.4971  0.5479
 1501SOL    HW216140   3.489   1.604   1.267  0.2523  1.0215 -0.3984
 1502SOL     OW16141   2.384   3.305   9.048 -0.8633  0.1714 -0.3475
 1502SOL    HW116142   2.360   3.265   9.132  0.9173 -0.5350 -0.1684
 1502SOL    HW216143   2.477   3.326   9.053 -1.0824  1.5543 -1.9671
 1503SOL     OW16144   0.307   2.839   3.119 -0.2352  0.4651 -0.3218
 1503SOL    HW116145   0.399   2.811   3.122 -0.3178  0.4939  2.4585
 1503SOL    HW216146   0.309   2.903   3.191 -0.2825 -1.3050  1.2529
 1504SOL     OW16147   3.065   0.258   2.839 -0.3375  0.0713  0.4430
 1504SOL    HW116148   3.124   0.296   2.773  1.2568 -0.0462  1.8056
 1504SOL    HW216149   3.057   0.339   2.889 -3.0119 -0.9053  1.5907
 1505SOL     OW16150   3.916   4.337   3.815 -0.5769  0.2139  0.0586
 1505SOL    HW116151   3.956   4.360   3.731 -1.1685  2.0146  0.2560
 1505SOL    HW216152   3.886   4.247   3.807  3.3638 -1.1416  0.2729
 1506SOL     OW16153   0.654   1.141   0.238 -0.1632 -0.1759  0.1450
 1506SOL    HW116154   0.702   1.221   0.219 -0.3268  0.0617  0.7151
 1506SOL    HW216155   0.705   1.101   0.308  0.2862  1.3148  0.6619
 1507SOL     OW16156   3.870   0.289   0.414 -0.3552 -0.1138  0.5621
 1507SOL    HW116157   3.820   0.287   0.496 -0.2786  1.2527  0.6463
 1507SOL    HW216158   3.956   0.282   0.456  0.3371  1.6368 -0.5569
 1508SOL     OW16159   2.658   3.692   4.104  0.5190  0.1692  0.3796
 1508SOL    HW116160   2.651   3.723   4.195  1.7247 -0.1789  0.5900
 1508SOL    HW216161   2.664   3.775   4.057 -0.7897  0.1704  0.2045
 1509SOL     OW16162   4.453   4.437   9.741 -0.7721  0.0896  0.2424
 1509SOL    HW116163   4.384   4.503   9.728 -2.2475 -1.2119  1.4925
 1509SOL    HW216164   4.459   4.429   9.836  2.3327 -0.7728 -0.0362
 1510SOL     OW16165   1.127   1.813  13.283 -0.1071 -0.4780  0.1328
 1510SOL    HW116166   1.196   1.864  13.240  1.1436 -0.2310  2.4137
 1510SOL    HW216167   1.089   1.872  13.347  0.8608  0.1718  0.1108
 1511SOL     OW16168   2.527   3.803   0.697  0.0090  0.0479  0.0735
 1511SOL    HW116169   2.479   3.819   0.778 -1.9779 -2.8073 -0.5217
 1511SOL    HW216170   2.579   3.730   0.731 -0.9978 -0.9063 -0.4136
 1512SOL     OW16171   2.551   2.538   7.681  0.5969  0.0511 -0.1082
 1512SOL    HW116172   2.551   2.452   7.723  0.9251  0.5167  0.8357
 1512SOL    HW216173   2.472   2.572   7.723 -0.3495 -0.4903 -1.4443
 1513SOL     OW16174   1.080   4.049  12.509 -0.3606 -0.0235 -0.4480
 1513SOL    HW116175   1.060   4.013  12.423  1.3768 -2.1466  0.0389
 1513SOL    HW216176   1.162   4.096  12.502 -0.0384 -0.6601 -0.9500
 1514SOL     OW16177   0.554   2.509   5.738 -0.1121 -0.1263 -0.2859
 1514SOL    HW116178   0.530   2.450   5.666  1.1027 -0.0205 -0.7706
 1514SOL    HW216179   0.638   2.466   5.755  0.6332  0.2818 -2.9972
 1515SOL     OW16180   4.159   3.941   4.402 -0.1474 -0.0037 -0.5630
 1515SOL    HW116181   4.254   3.944   4.388 -0.0754 -0.4444 -0.1613
 1515SOL    HW216182   4.129   4.031   4.387 -1.8650 -0.3703  0.7129
 1516SOL     OW16183   1.236   3.173   7.097  0.1912  0.0692  0.1231
 1516SOL    HW116184   1.331   3.160   7.091 -0.3717 -4.2908  0.9604
 1516SOL    HW216185   1.227   3.224   7.178  0.5363 -0.1052  0.2733
 1517SOL     OW16186   0.048   4.400  12.490 -0.3418 -0.3591 -0.3095
 1517SOL    HW116187   4.710   4.368  12.438  0.5583 -0.0712 -1.7351
 1517SOL    HW216188   0.057   4.491  12.461  2.1471  0.0474  1.6229
 1518SOL     OW16189   1.242   3.877  16.553 -0.2743  0.5810 -0.1601
 1518SOL    HW116190   1.282   3.802  16.510  0.5699  0.4580  0.8285
 1518SOL    HW216191   1.234   3.841  16.641  3.5267 -2.6874 -1.1446
 1519SOL     OW16192   0.502   0.704  11.089 -0.3376 -0.2759 -0.1538
 1519SOL    HW116193   0.458   0.623  11.063 -0.9777 -0.0326  0.1865
 1519SOL    HW216194   0.472   0.727  11.177 -1.0593 -2.2039  0.1100
 1520SOL     OW16195   1.111   0.494  13.407  0.2779  0.2603  0.7689
 1520SOL    HW116196   1.019   0.516  13.422 -0.1863 -1.3022  0.1937
 1520SOL    HW216197   1.142   0.582  13.429  2.6204 -0.1171 -1.0686
 1521SOL     OW16198   1.066   3.618   4.708 -0.1779  0.4472 -0.4527
 1521SOL    HW116199   1.151   3.600   4.669  0.7156 -0.8100  2.0922
 1521SOL    HW216200   1.084   3.575   4.791  1.2356  1.3581 -0.2784
 1522SOL     OW16201   3.532   1.364   7.552  0.2913 -0.1300 -0.4328
 1522SOL    HW116202   3.548   1.325   7.465  1.1373  0.3743 -0.4945
 1522SOL    HW216203   3.436   1.364   7.540  0.3181 -1.9984 -0.6543
 1523SOL     OW16204   0.427   0.506   4.576 -0.0909  0.3287  0.0101
 1523SOL    HW116205   0.348   0.561   4.573  1.1173  2.0009 -0.7826
 1523SOL    HW216206   0.393   0.435   4.631  0.6953  0.5306  0.7499
 1524SOL     OW16207   4.531   1.256   3.355  0.3744 -0.2239 -0.0572
 1524SOL    HW116208   4.572   1.207   3.426 -0.7470  0.9334  1.3677
 1524SOL    HW216209   4.441   1.249   3.385  0.7467 -2.2918  0.5650
 1525SOL     OW16210   1.391   0.183   7.081 -0.1180  0.2168  0.1348
 1525SOL    HW116211   1.471   0.208   7.128 -0.4387  1.8291 -0.1913
 1525SOL    HW216212   1.328   0.243   7.122  1.2984  1.5089  0.4072
 1526SOL     OW16213   2.246   2.753   2.744 -0.3369  0.4681  0.3149
 1526SOL    HW116214   2.230   2.724   2.834 -0.5756 -3.4965 -1.0025
 1526SOL    HW216215   2.339   2.734   2.732 -0.6173 -0.0036 -1.1101
 1527SOL     OW16216   0.687   3.134   4.112 -0.4066 -0.3235  0.1119
 1527SOL    HW116217   0.649   3.206   4.163 -0.5526 -0.7437  0.5994
 1527SOL    HW216218   0.644   3.060   4.155  1.8788 -1.5717  0.2321
 1528SOL     OW16219   1.592   1.448   6.988 -0.0618  0.1576 -0.0470
 1528SOL    HW116220   1.514   1.491   7.024 -0.0576  0.1295 -0.0048
 1528SOL    HW216221   1.602   1.477   6.898 -0.5319 -0.5509 -0.3353
 1529SOL     OW16222   3.948   0.662   2.716 -0.1843 -0.5285  0.1211
 1529SOL    HW116223   3.969   0.747   2.755  1.4183 -0.3928 -1.0683
 1529SOL    HW216224   3.958   0.605   2.793 -1.3761 -0.3589  0.4047
 1530SOL     OW16225   4.439   4.203  10.314  0.1567  0.1497  0.1647
 1530SOL    HW116226   4.417   4.296  10.312 -2.2860 -0.4775 -2.0951
 1530SOL    HW216227   4.359   4.155  10.333  1.2374 -2.4966 -1.9296
 1531SOL     OW16228   4.398   2.195   6.684 -0.0963 -0.4109 -0.0267
 1531SOL    HW116229   4.467   2.207   6.749  1.2296 -0.5173 -1.4070
 1531SOL    HW216230   4.358   2.121   6.729 -1.8917  0.4621 -0.2258
 1532SOL     OW16231   0.192   4.027   5.144  0.0368  0.4272 -0.0127
 1532SOL    HW116232   0.120   3.993   5.090  2.2739 -0.6946 -2.2692
 1532SOL    HW216233   0.164   4.014   5.235  0.9137 -0.7846  0.0883
 1533SOL     OW16234   0.262   2.447   4.802  0.2040  0.0463  0.2441
 1533SOL    HW116235   0.196   2.460   4.870 -2.4084  0.8412 -2.4535
 1533SOL    HW216236   0.346   2.443   4.848  0.0321  0.6813  0.6105
 1534SOL     OW16237   2.860   3.942  13.682 -0.3040  0.5511  0.6119
 1534SOL    HW116238   2.931   3.923  13.620 -2.6054 -0.3823 -1.7643
 1534SOL    HW216239   2.810   3.861  13.675 -0.6010  0.8720 -0.9624
 1535SOL     OW16240   3.822   3.089   5.562  0.5764 -0.6220  0.6740
 1535SOL    HW116241   3.852   3.014   5.614 -0.4644 -1.9519 -0.6381
 1535SOL    HW216242   3.741   3.053   5.524 -0.0971  1.1381  0.4664
 1536SOL     OW16243   1.201   0.610   9.405 -0.2871 -0.2021 -0.0844
 1536SOL    HW116244   1.287   0.632   9.443 -0.7743  1.9908 -0.2509
 1536SOL    HW216245   1.158   0.693   9.387  0.0930 -0.3040 -1.5174
 1537SOL     OW16246   3.820   0.091   0.952  0.4368  0.0320 -0.1244
 1537SOL    HW116247   3.882   0.050   0.891 -0.6238 -1.8340  0.0289
 1537SOL    HW216248   3.864   0.088   1.037  0.4012  0.1322 -0.1024
 1538SOL     OW16249   0.494   1.582  10.888  0.7255  0.3871 -0.2543
 1538SOL    HW116250   0.565   1.544  10.938 -0.4706 -2.9950 -1.1538
 1538SOL    HW216251   0.459   1.504  10.845  0.2861 -0.2431  1.2374
 1539SOL     OW16252   1.399   2.415   1.350  0.8122 -0.1009  0.2066
 1539SOL    HW116253   1.412   2.500   1.308 -0.4773  0.5965  1.2115
 1539SOL    HW216254   1.323   2.382   1.301 -0.2690 -0.2173  1.9715
 1540SOL     OW16255   0.306   2.356   4.545  0.1182 -0.4959  1.0091
 1540SOL    HW116256   0.255   2.429   4.511 -0.4447 -2.2936 -2.0013
 1540SOL    HW216257   0.311   2.380   4.637  0.1081 -0.3041  0.9582
 1541SOL     OW16258   2.874   2.694   8.167 -0.2647  0.0952 -0.1656
 1541SOL    HW116259   2.964   2.661   8.161 -0.4537 -0.0259 -2.1335
 1541SOL    HW216260   2.867   2.697   8.263  0.8334  0.7291 -0.1035
 1542SOL     OW16261   4.506   0.904   7.647  0.0849 -0.6804  0.1577
 1542SOL    HW116262   4.588   0.950   7.667  0.8788 -1.5801 -1.0097
 1542SOL    HW216263   4.453   0.979   7.618  0.4827 -0.2675  0.4971
 1543SOL     OW16264   0.388   4.579   3.951 -0.3786  0.5322  0.1503
 1543SOL    HW116265   0.480   4.598   3.935  0.1439 -0.4734  1.9871
 1543SOL    HW216266   0.379   4.627   4.034  4.9472  0.8634  0.5353
 1544SOL     OW16267   3.392   2.536   5.407  0.0448  0.0420  0.5583
 1544SOL    HW116268   3.454   2.606   5.429 -0.0622 -0.3470  2.1187
 1544SOL    HW216269   3.336   2.570   5.337 -0.1168 -0.1129  0.6130
 1545SOL     OW16270   2.290   3.983   9.514 -0.1320 -0.3876  0.2054
 1545SOL    HW116271   2.269   4.065   9.471 -0.3070 -0.9024 -0.6915
 1545SOL    HW216272   2.239   3.937   9.447 -1.1676  0.0408  0.7085
 1546SOL     OW16273   0.720   1.717   1.202  0.3999  0.1528  0.2217
 1546SOL    HW116274   0.689   1.798   1.162 -0.8018 -1.0546 -1.2914
 1546SOL    HW216275   0.811   1.719   1.173  0.4933 -3.6543  0.1848
 1547SOL     OW16276   2.634   2.117   9.629  0.4265  0.1860  0.3360
 1547SOL    HW116277   2.560   2.124   9.689 -0.5253  3.2429 -1.2416
 1547SOL    HW216278   2.580   2.108   9.551  2.8994 -0.3299 -1.3303
 1548SOL     OW16279   3.500   1.008  17.328 -0.1415  0.5085  0.0720
 1548SOL    HW116280   3.480   1.097  17.356  0.7052  0.5283  0.6057
 1548SOL    HW216281   3.523   1.025  17.237 -1.4241  0.6447 -0.2304
 1549SOL     OW16282   3.667   0.260   9.107  0.9689 -0.1829  0.4893
 1549SOL    HW116283   3.581   0.301   9.110 -0.6978 -3.4008 -3.7136
 1549SOL    HW216284   3.665   0.193   9.175  2.5279 -0.6055  0.1289
 1550SOL     OW16285   3.172   4.363  12.264 -0.7164  0.2340 -0.5296
 1550SOL    HW116286   3.184   4.363  12.169  0.6210 -0.9202 -0.3525
 1550SOL    HW216287   3.097   4.421  12.275 -0.3540  0.4212  0.8661
 1551SOL     OW16288   2.434   3.173   9.289 -0.5918  0.1462  0.1036
 1551SOL    HW116289   2.455   3.147   9.378 -0.2481  0.0960  0.0080
 1551SOL    HW216290   2.508   3.130   9.245 -1.8470 -1.2457 -0.6398
 1552SOL     OW16291   2.270   1.571  12.396 -0.1972 -0.2364 -1.0656
 1552SOL    HW116292   2.181   1.599  12.414  0.2577  1.2994 -1.2212
 1552SOL    HW216293   2.317   1.626  12.458 -0.0497 -1.8993  0.2905
 1553SOL     OW16294   4.406   1.494  10.026 -0.4568  0.1827  0.6671
 1553SOL    HW116295   4.343   1.429   9.995 -2.7160  2.5904  0.1428
 1553SOL    HW216296   4.470   1.438  10.069  1.7036  0.6042 -1.9818
 1554SOL     OW16297   1.783   2.845   8.989  0.4284  0.4696 -0.3405
 1554SOL    HW116298   1.835   2.765   8.998  0.8066  0.6398 -1.0440
 1554SOL    HW216299   1.760   2.847   9.082  1.4316  0.1929 -0.0912
 1555SOL     OW16300   0.963   4.181   3.836 -0.3680  0.3245 -0.0838
 1555SOL    HW116301   1.013   4.190   3.917  1.6754  2.3591 -1.5714
 1555SOL    HW216302   1.008   4.253   3.791  1.2093 -0.1071  0.8027
 1556SOL     OW16303   1.916   3.035   4.785 -0.2766 -0.0395 -0.2239
 1556SOL    HW116304   1.947   3.055   4.873  1.3638 -0.6728 -0.6682
 1556SOL    HW216305   1.913   2.940   4.785 -1.4889  0.0000  1.0898
 1557SOL     OW16306   3.557   4.084   0.142  0.8569  0.2082 -0.0303
 1557SOL    HW116307   3.488   4.150   0.132  1.5039  0.8755 -0.1315
 1557SOL    HW216308   3.627   4.123   0.089  3.3118 -1.7459  1.7739
 1558SOL     OW16309   3.222   4.631  13.779 -0.2581 -0.1795  0.0473
 1558SOL    HW116310   3.277   4.692  13.730  1.7769 -0.4983  1.9450
 1558SOL    HW216311   3.249   4.662  13.866 -0.3422 -0.2917  0.1134
 1559SOL     OW16312   2.725   2.187   1.860  1.4533  0.2120 -0.3079
 1559SOL    HW116313   2.744   2.118   1.795 -1.8482  1.4250 -2.5750
 1559SOL    HW216314   2.630   2.181   1.857  1.2947  2.4953  0.2738
 1560SOL     OW16315   2.164   2.761   0.815 -0.3901 -0.5943 -0.6267
 1560SOL    HW116316   2.093   2.759   0.880  0.3761 -2.5796  0.1444
 1560SOL    HW216317   2.138   2.835   0.759  1.7279 -0.8474 -1.9240
 1561SOL     OW16318   3.605   2.435  15.896 -0.3769 -0.0949 -0.1341
 1561SOL    HW116319   3.548   2.406  15.826  2.7978 -1.2073 -2.2178
 1561SOL    HW216320   3.611   2.355  15.949  1.4347  0.3959  0.4258
 1562SOL     OW16321   1.193   3.638  11.851 -0.1982 -0.3949 -0.0701
 1562SOL    HW116322   1.208   3.604  11.939  0.9103  1.7379  0.5624
 1562SOL    HW216323   1.103   3.671  11.857  0.0783  0.0903  1.4883
 1563SOL     OW16324   2.696   3.974   4.065  0.6876 -0.1105  0.2032
 1563SOL    HW116325   2.728   4.046   4.119  0.8251 -0.8000  1.0378
 1563SOL    HW216326   2.646   4.024   4.000  2.7147 -2.3142 -3.1068
 1564SOL     OW16327   4.033   4.195  17.530  0.3359  0.2036  0.1324
 1564SOL    HW116328   4.000   4.195  17.620  0.1341  2.7378  0.0536
 1564SOL    HW216329   4.098   4.265  17.533  0.4509  0.1380 -0.8079
 1565SOL     OW16330   3.934   0.958  16.964 -0.5585 -0.2048 -0.2111
 1565SOL    HW116331   3.910   0.971  16.873 -2.4461  1.5044  0.5484
 1565SOL    HW216332   3.975   1.038  16.995 -0.7685 -0.2977  0.3111
 1566SOL     OW16333   1.021   1.552   7.806  0.5932 -1.0121 -0.3385
 1566SOL    HW116334   1.067   1.572   7.888  1.4092  0.2538 -1.0988
 1566SOL    HW216335   0.963   1.626   7.788  4.0538  1.3105 -2.0144
 1567SOL     OW16336   4.252   1.843   2.976 -0.0592 -0.1061 -0.7803
 1567SOL    HW116337   4.213   1.763   2.941  0.6850  0.2035 -2.3199
 1567SOL    HW216338   4.309   1.817   3.049 -0.3677  0.4487 -0.3411
 1568SOL     OW16339   0.362   3.061   0.934 -0.4506 -0.6678  0.1099
 1568SOL    HW116340   0.437   3.045   0.992 -0.2169  2.8787  0.8240
 1568SOL    HW216341   0.387   3.007   0.859 -0.6627 -0.7909  0.1278
 1569SOL     OW16342   1.483   1.371   6.078 -0.8311 -0.3553  0.2471
 1569SOL    HW116343   1.519   1.363   6.167 -1.0750  0.3658  0.4082
 1569SOL    HW216344   1.491   1.466   6.085  2.6587 -0.6367  0.2343
 1570SOL     OW16345   4.548   0.229  12.807 -0.0964 -0.0900 -0.6158
 1570SOL    HW116346   4.535   0.135  12.790 -1.2843  0.2324 -1.5110
 1570SOL    HW216347   4.556   0.268  12.720  0.4282  0.9022 -0.1201
 1571SOL     OW16348   2.814   2.168  13.955 -0.3173  0.5934  0.0507
 1571SOL    HW116349   2.830   2.110  13.880  0.7658 -0.2725  0.9353
 1571SOL    HW216350   2.898   2.213  13.963 -0.3075  0.5286  0.3315
 1572SOL     OW16351   0.969   4.430   4.034 -0.1649  0.2685  0.1158
 1572SOL    HW116352   0.985   4.516   4.073 -1.8384 -0.4268  2.3865
 1572SOL    HW216353   0.878   4.412   4.059  0.1109 -0.3119  0.6995
 1573SOL     OW16354   3.624   2.020   4.951  0.9083 -0.0591 -0.4284
 1573SOL    HW116355   3.712   2.006   4.985 -0.1348 -0.6311  2.0799
 1573SOL    HW216356   3.644   2.037   4.859 -1.4938  3.2949 -0.3314
 1574SOL     OW16357   2.816   4.653   2.493 -0.2060  0.7829  0.1175
 1574SOL    HW116358   2.831   4.718   2.425 -0.8786  2.6951  1.7787
 1574SOL    HW216359   2.883   4.595   2.458 -0.1595  0.6217  0.4708
 1575SOL     OW16360   4.597   4.432   6.922  0.0841 -0.1980  0.2977
 1575SOL    HW116361   4.525   4.450   6.862  0.6029 -0.9643 -0.5541
 1575SOL    HW216362   4.571   4.357   6.976 -0.9210 -0.3683 -0.4187
 1576SOL     OW16363   4.540   3.264  10.691  0.2815 -0.3201 -0.4791
 1576SOL    HW116364   4.567   3.351  10.721  0.8412 -0.4598 -0.5683
 1576SOL    HW216365   4.449   3.279  10.667  0.3126  2.2932  1.0934
 1577SOL     OW16366   4.589   3.165   6.068  0.6672  0.0731  0.6353
 1577SOL    HW116367   4.678   3.179   6.036  0.3209  2.2833  0.6417
 1577SOL    HW216368   4.600   3.090   6.127  2.5352 -1.8704 -2.1791
 1578SOL     OW16369   1.661   0.575   1.449  0.4433  0.3643  0.1306
 1578SOL    HW116370   1.604   0.614   1.382  0.1605  1.2196  0.8621
 1578SOL    HW216371   1.603   0.580   1.526  1.1459  1.0323  0.6186
 1579SOL     OW16372   3.579   0.698   5.378 -0.0751 -0.3795 -0.3541
 1579SOL    HW116373   3.560   0.683   5.285 -1.5970  1.8246 -0.3926
 1579SOL    HW216374   3.593   0.792   5.392  1.1918 -0.8104  1.1653
 1580SOL     OW16375   2.030   0.219   3.060 -0.2652 -0.5335 -0.5132
 1580SOL    HW116376   2.125   0.206   3.059 -0.3387 -0.9319 -1.8270
 1580SOL    HW216377   2.034   0.308   3.025 -0.1853  0.6403  2.4560
 1581SOL     OW16378   3.451   3.625   1.880 -0.1127 -0.1585 -0.1323
 1581SOL    HW116379   3.475   3.559   1.815  1.3143  1.2613 -1.0614
 1581SOL    HW216380   3.356   3.636   1.880 -0.2837 -1.5954 -2.6813
 1582SOL     OW16381   3.661   3.784   0.219  0.3941  0.1740  0.7533
 1582SOL    HW116382   3.638   3.876   0.206 -1.3935 -0.3762 -0.0195
 1582SOL    HW216383   3.748   3.804   0.252 -0.2991  1.7160  1.6211
 1583SOL     OW16384   4.689   3.577  11.737 -0.1464  0.4693 -0.7698
 1583SOL    HW116385   4.662   3.489  11.710 -0.0819  0.2310 -0.0676
 1583SOL    HW216386   4.671   3.578  11.831 -1.2217 -1.1038 -0.9500
 1584SOL     OW16387   0.555   2.506   2.268  0.1716 -0.1857 -0.4680
 1584SOL    HW116388   0.520   2.586   2.227  0.7541  1.5413  2.4171
 1584SOL    HW216389   0.506   2.437   2.224 -1.2902  0.0097  0.8358
 1585SOL     OW16390   3.812   0.380  12.441  0.2901 -0.6258 -0.2765
 1585SOL    HW116391   3.827   0.310  12.377 -1.3466 -0.8970 -0.3502
 1585SOL    HW216392   3.796   0.321  12.514 -2.1333  2.2716  1.5451
 1586SOL     OW16393   2.664   3.339   9.119  0.2248 -0.1129 -0.3170
 1586SOL    HW116394   2.695   3.380   9.200  1.5830  0.8547 -1.3348
 1586SOL    HW216395   2.684   3.247   9.137 -0.8222  0.1214  2.0658
 1587SOL     OW16396   1.750   1.779   6.277  0.2319  0.2114 -0.1832
 1587SOL    HW116397   1.829   1.820   6.242 -0.2998  1.4937  0.1477
 1587SOL    HW216398   1.690   1.853   6.274  2.8887  2.4203  2.5576
 1588SOL     OW16399   1.651   3.663   4.222  0.3551  0.2446 -0.3179
 1588SOL    HW116400   1.640   3.750   4.261  0.5654  0.4440 -0.6981
 1588SOL    HW216401   1.674   3.684   4.131  1.2064 -1.9068 -0.5910
 1589SOL     OW16402   1.779   3.930   1.342 -0.3236  0.3103 -0.0440
 1589SOL    HW116403   1.837   3.854   1.336 -0.1311  0.4206  0.3998
 1589SOL    HW216404   1.707   3.899   1.397 -0.3024  0.6276  0.1631
 1590SOL     OW16405   4.669   3.650   6.918 -0.3380 -0.0039 -0.3651
 1590SOL    HW116406   4.655   3.679   6.828  0.6713  1.4418 -0.0404
 1590SOL    HW216407   4.593   3.682   6.966 -0.2462  1.2876 -1.0982
 1591SOL     OW16408   3.603   2.235  17.431  0.3295 -0.0313  0.3175
 1591SOL    HW116409   3.585   2.171  17.363  2.5834 -0.2558 -0.0465
 1591SOL    HW216410   3.697   2.247  17.423  0.3265  0.8138  1.4554
 1592SOL     OW16411   3.097   3.575  10.874 -0.0194  0.0293  0.3027
 1592SOL    HW116412   3.006   3.546  10.878  0.1725 -0.4760  1.0565
 1592SOL    HW216413   3.121   3.544  10.787  2.3800 -0.6076  1.1993
 1593SOL     OW16414   3.576   2.458  11.072  0.6376 -0.3070  0.3330
 1593SOL    HW116415   3.549   2.549  11.082  0.3956 -0.2838 -0.4777
 1593SOL    HW216416   3.503   2.422  11.121  0.1985 -0.2541 -0.2713
 1594SOL     OW16417   4.330   4.030  13.300 -0.3568 -0.1420  0.3286
 1594SOL    HW116418   4.247   4.018  13.254 -1.2493  1.1450  1.6133
 1594SOL    HW216419   4.394   4.025  13.229  0.6372  0.2760  1.1907
 1595SOL     OW16420   1.051   2.429   6.366  0.2030 -0.2044 -0.2825
 1595SOL    HW116421   1.119   2.495   6.373  0.4602 -0.5237  0.2401
 1595SOL    HW216422   0.986   2.491   6.333  1.0219 -0.0497 -1.5953
 1596SOL     OW16423   2.254   3.420   7.220  0.2794 -0.1804 -1.0314
 1596SOL    HW116424   2.216   3.444   7.305 -0.4230 -0.5309 -1.2425
 1596SOL    HW216425   2.277   3.327   7.217  1.4197  0.1167 -1.3017
 1597SOL     OW16426   0.698   1.702  13.506 -1.0256 -0.6046  0.3913
 1597SOL    HW116427   0.648   1.782  13.525  0.2045 -0.1241  1.6359
 1597SOL    HW216428   0.734   1.715  13.418  1.0681 -0.2247  1.2964
 1598SOL     OW16429   2.241   0.654   3.852  0.1905  0.1597  0.4348
 1598SOL    HW116430   2.266   0.648   3.760 -3.8135 -1.2717 -0.5900
 1598SOL    HW216431   2.289   0.576   3.879 -2.6069 -0.8659  2.5163
 1599SOL     OW16432   1.166   0.133   5.918 -0.1168 -0.3333 -0.1729
 1599SOL    HW116433   1.217   0.095   5.990  0.7324  1.6200  0.2637
 1599SOL    HW216434   1.140   0.221   5.944 -0.3712 -0.5104  0.1653
 1600SOL     OW16435   2.181   2.170   2.168  0.6398  0.4556 -0.0536
 1600SOL    HW116436   2.210   2.102   2.107 -0.8380 -1.0173  0.8827
 1600SOL    HW216437   2.263   2.185   2.216  3.0100 -0.0206 -3.9438
 1601SOL     OW16438   2.702   4.217   5.522  0.6586  0.1164  0.3338
 1601SOL    HW116439   2.707   4.279   5.595  1.8760 -0.1073  0.4422
 1601SOL    HW216440   2.776   4.159   5.536  1.0336  0.4080 -0.4983
 1602SOL     OW16441   0.249   4.592   0.221 -0.6379 -0.0109 -0.0539
 1602SOL    HW116442   0.316   4.599   0.154 -1.1938 -0.7876 -0.6849
 1602SOL    HW216443   0.273   4.662   0.283 -2.5929  0.6087  0.0113
 1603SOL     OW16444   4.651   0.873   3.652  0.5733 -0.6031  0.2144
 1603SOL    HW116445   4.594   0.796   3.648  0.6750 -0.7432  1.5996
 1603SOL    HW216446   4.641   0.892   3.745 -0.7142  0.8064 -0.1929
 1604SOL     OW16447   3.805   1.522   5.164 -0.3194 -0.2495 -0.1951
 1604SOL    HW116448   3.739   1.559   5.223 -0.7872 -0.7918 -0.3707
 1604SOL    HW216449   3.774   1.566   5.085  2.3536  0.2052 -0.9879
 1605SOL     OW16450   0.391   1.034  11.253  0.1005  0.5547 -0.4843
 1605SOL    HW116451   0.314   0.977  11.263  1.0766 -0.7522 -0.5064
 1605SOL    HW216452   0.435   1.037  11.338 -0.5756  3.2026 -0.2292
 1606SOL     OW16453   2.906   3.589   4.603 -0.2312 -0.0896 -0.0410
 1606SOL    HW116454   2.936   3.625   4.686  0.2868  1.8269 -1.0709
 1606SOL    HW216455   2.892   3.665   4.547  0.2241 -0.1870 -0.2894
 1607SOL     OW16456   2.343   3.722   2.901  0.0786 -0.5477 -0.1530
 1607SOL    HW116457   2.303   3.698   2.817  0.4849 -0.3514 -0.4043
 1607SOL    HW216458   2.417   3.778   2.879  0.6696 -1.5925 -0.8677
 1608SOL     OW16459   3.690   0.145  16.493  0.2468 -0.1526  0.4813
 1608SOL    HW116460   3.674   0.150  16.399  1.5139  3.4066  0.4164
 1608SOL    HW216461   3.687   0.238  16.517  2.1508  0.2889 -1.0023
 1609SOL     OW16462   2.767   3.125   3.469  0.2294 -0.2744 -0.4502
 1609SOL    HW116463   2.823   3.050   3.449  0.2005 -0.7792  1.3295
 1609SOL    HW216464   2.786   3.125   3.563 -0.4738 -1.2570 -0.2990
 1610SOL     OW16465   3.469   0.187   4.811  0.0315  0.0257 -0.5049
 1610SOL    HW116466   3.421   0.111   4.844 -1.4736  1.6479  1.0053
 1610SOL    HW216467   3.422   0.268   4.832  0.6634  0.3726 -0.4498
 1611SOL     OW16468   0.596   2.912   4.242 -0.2531 -0.4000  1.0372
 1611SOL    HW116469   0.676   2.862   4.232 -0.9200 -1.7542  2.5225
 1611SOL    HW216470   0.535   2.850   4.202  1.0562  0.0884 -1.6587
 1612SOL     OW16471   1.695   0.765  17.616 -0.0989 -0.3669 -0.3955
 1612SOL    HW116472   1.772   0.735  17.664  0.6957 -0.5189 -1.7757
 1612SOL    HW216473   1.652   0.829  17.672  0.0795 -1.6257  1.1812
 1613SOL     OW16474   3.918   3.880   3.832 -0.2104  0.2521  0.0012
 1613SOL    HW116475   3.876   3.919   3.755 -0.1879 -0.6778 -0.4799
 1613SOL    HW216476   3.984   3.817   3.803  0.2433  1.6160 -1.9499
 1614SOL     OW16477   1.375   1.279   6.767 -0.2903 -0.4964  0.4384
 1614SOL    HW116478   1.324   1.351   6.805  1.1832  0.5889  0.3509
 1614SOL    HW216479   1.321   1.202   6.785 -0.6657  0.0553  1.6777
 1615SOL     OW16480   0.491   3.975   0.571  0.5470  0.1331 -0.6922
 1615SOL    HW116481   0.477   3.956   0.664  0.3922 -0.0730 -0.7584
 1615SOL    HW216482   0.414   4.027   0.548  2.6890  3.8438  0.4309
 1616SOL     OW16483   3.460   1.539   4.422  0.1240  0.2102  0.1721
 1616SOL    HW116484   3.390   1.596   4.451  0.9545  1.1003  0.4134
 1616SOL    HW216485   3.517   1.548   4.498 -0.7899  1.3945  0.7180
 1617SOL     OW16486   0.176   1.068  10.184 -0.1793 -0.4515  0.5437
 1617SOL    HW116487   0.224   1.111  10.255 -0.4899 -1.1594  1.1821
 1617SOL    HW216488   0.219   0.983  10.191  1.9233  0.5162 -0.8176
 1618SOL     OW16489   2.308   4.017  12.716  0.3233 -0.4830 -0.6803
 1618SOL    HW116490   2.263   4.034  12.634 -2.4523 -1.8039  0.5616
 1618SOL    HW216491   2.363   4.096  12.718  0.2259 -0.4302 -0.1322
 1619SOL     OW16492   2.793   0.312   2.045 -0.4244 -0.1177 -0.2519
 1619SOL    HW116493   2.821   0.235   1.997  0.8326  1.0443 -1.3930
 1619SOL    HW216494   2.814   0.375   1.976 -0.9699  0.2815 -0.0551
 1620SOL     OW16495   0.702   2.465  10.639 -1.2362  0.4256  0.4707
 1620SOL    HW116496   0.684   2.479  10.546  1.3640 -2.4800 -0.4711
 1620SOL    HW216497   0.739   2.549  10.666  0.6890 -0.6181  1.0839
 1621SOL     OW16498   0.780   4.207   6.167  0.4687  0.0148  0.1350
 1621SOL    HW116499   0.760   4.116   6.146  1.0034  0.2010 -1.1798
 1621SOL    HW216500   0.859   4.206   6.113  0.4292  0.2214  0.0707
 1622SOL     OW16501   1.036   1.954   8.324  0.3219 -0.5308  0.0584
 1622SOL    HW116502   1.046   1.929   8.416 -0.6343 -1.9214 -0.2241
 1622SOL    HW216503   1.017   1.872   8.279  0.4715 -0.7139  0.3344
 1623SOL     OW16504   2.423   1.988   7.529 -0.4309  0.0432  0.2251
 1623SOL    HW116505   2.403   2.064   7.473 -1.3664 -1.5661 -1.6312
 1623SOL    HW216506   2.479   1.954   7.459  0.2719  0.1374  0.7457
 1624SOL     OW16507   2.572   1.394   1.611  0.3037  0.2013 -0.5478
 1624SOL    HW116508   2.498   1.340   1.639  0.6749  0.4649  0.9349
 1624SOL    HW216509   2.629   1.376   1.686  0.8726  0.5759 -0.8926
 1625SOL     OW16510   2.355   0.006   8.515 -0.1145  0.1747  0.6960
 1625SOL    HW116511   2.335   0.098   8.532 -1.6258 -0.1069  0.4459
 1625SOL    HW216512   2.449   0.004   8.501 -0.4116  1.6263 -1.5286
 1626SOL     OW16513   0.374   3.751   6.440 -0.0102  0.1136 -0.3184
 1626SOL    HW116514   0.392   3.709   6.523 -0.3644  0.0970 -0.2509
 1626SOL    HW216515   0.328   3.826   6.478 -0.0584  1.1528 -2.4054
 1627SOL     OW16516   1.418   2.339   4.906  0.1737 -0.2388 -0.0202
 1627SOL    HW116517   1.336   2.291   4.892 -1.1909  2.1853 -0.4118
 1627SOL    HW216518   1.442   2.347   4.814 -0.1234  0.3092 -0.0512
 1628SOL     OW16519   0.827   0.700   2.627  0.0873  0.0199  0.7506
 1628SOL    HW116520   0.739   0.727   2.654 -0.1194 -1.3599  1.4847
 1628SOL    HW216521   0.813   0.607   2.608 -2.0218  0.3806  0.4666
 1629SOL     OW16522   4.709   3.720   8.449 -0.0162  0.5058 -0.1197
 1629SOL    HW116523   4.645   3.694   8.383  0.4836 -3.2614  0.8533
 1629SOL    HW216524   0.037   3.771   8.396  1.0743 -1.4156 -0.6940
 1630SOL     OW16525   4.377   3.119  16.633 -0.2592 -0.2282 -0.2972
 1630SOL    HW116526   4.340   3.175  16.566 -1.2972  1.2860  1.5392
 1630SOL    HW216527   4.348   3.029  16.622 -0.5466 -0.1619 -0.0972
 1631SOL     OW16528   2.359   3.920   1.389  1.1747  0.3224 -0.3332
 1631SOL    HW116529   2.389   3.909   1.299 -0.6215 -0.3068 -0.8635
 1631SOL    HW216530   2.356   4.015   1.403  1.3358  0.1206  1.0464
 1632SOL     OW16531   0.950   2.749   8.665  0.1106 -0.1143  0.1145
 1632SOL    HW116532   0.962   2.727   8.757 -0.3855  1.7732  0.6342
 1632SOL    HW216533   0.875   2.698   8.636  0.1459  0.8959 -1.7885
 1633SOL     OW16534   4.074   2.508   3.124 -0.4101  0.7261  0.3081
 1633SOL    HW116535   4.115   2.450   3.060  0.3469  1.8753 -0.2565
 1633SOL    HW216536   4.014   2.453   3.174  0.9705  0.3941  1.6061
 1634SOL     OW16537   4.718   3.127  16.167  0.2988  0.0333  0.6094
 1634SOL    HW116538   4.649   3.147  16.104 -1.4550 -2.3689  1.7654
 1634SOL    HW216539   4.678   3.155  16.249 -0.0697  0.3698  0.3123
 1635SOL     OW16540   3.552   2.743  10.267  0.0181  0.1682  0.0689
 1635SOL    HW116541   3.553   2.677  10.337  2.3881 -0.9394 -1.0013
 1635SOL    HW216542   3.476   2.709  10.220  1.6200 -2.6004 -0.5606
 1636SOL     OW16543   1.786   3.376   4.570  0.1527  0.4207 -0.2307
 1636SOL    HW116544   1.811   3.418   4.488  0.7122  1.4236  0.4416
 1636SOL    HW216545   1.713   3.324   4.538  0.7840 -0.2649 -0.5465
 1637SOL     OW16546   2.570   1.510   1.318  0.7367 -0.0074 -0.3244
 1637SOL    HW116547   2.496   1.522   1.258 -0.9459 -0.8812  1.5754
 1637SOL    HW216548   2.537   1.430   1.359  1.5224 -0.7451 -1.1229
 1638SOL     OW16549   1.549   3.501  13.596 -0.5981  0.0110  0.6271
 1638SOL    HW116550   1.502   3.421  13.571 -2.7020  1.5493 -0.3538
 1638SOL    HW216551   1.490   3.540  13.661 -0.5424  1.8167 -0.4208
 1639SOL     OW16552   3.315   4.494   7.849 -0.3571  0.3013 -0.1743
 1639SOL    HW116553   3.367   4.558   7.801  2.2102 -2.2866 -0.8590
 1639SOL    HW216554   3.227   4.515   7.815  0.1877  1.1403 -1.0590
 1640SOL     OW16555   4.395   1.487   1.361  0.0853  0.3510 -0.3617
 1640SOL    HW116556   4.360   1.482   1.272 -1.0049 -2.6079  0.2675
 1640SOL    HW216557   4.461   1.556   1.348  1.3229 -1.1742 -2.2404
 1641SOL     OW16558   2.073   2.916   6.755 -0.2348 -0.2700 -0.3447
 1641SOL    HW116559   2.038   2.978   6.691  1.8542  2.2364  0.9360
 1641SOL    HW216560   2.154   2.958   6.784 -0.0420 -0.6923 -0.2559
 1642SOL     OW16561   2.395   1.241   3.130  0.5652 -0.3821 -0.4437
 1642SOL    HW116562   2.462   1.285   3.182 -0.3361 -1.0340  1.2856
 1642SOL    HW216563   2.433   1.251   3.044  0.2617  0.3110 -0.4987
 1643SOL     OW16564   2.021   0.608   7.487 -0.7159  0.1784  0.4993
 1643SOL    HW116565   1.941   0.614   7.539 -0.1145  1.1664  1.3048
 1643SOL    HW216566   2.041   0.515   7.496 -3.4686 -0.3113  1.6146
 1644SOL     OW16567   2.471   2.067  11.482 -0.1093  0.1102  0.4655
 1644SOL    HW116568   2.556   2.105  11.460 -1.3350  1.7028 -1.5657
 1644SOL    HW216569   2.475   2.056  11.577  0.0188 -1.0410  0.3273
 1645SOL     OW16570   1.269   2.762   2.141  0.0334  0.0924  0.1385
 1645SOL    HW116571   1.289   2.736   2.231 -2.8732  0.8082  1.0068
 1645SOL    HW216572   1.354   2.739   2.103  0.0011 -0.4840  0.4097
 1646SOL     OW16573   4.632   3.452   3.373 -0.3378 -0.2565  0.2084
 1646SOL    HW116574   4.625   3.357   3.363 -0.3145 -0.2325 -0.0338
 1646SOL    HW216575   4.538   3.471   3.371 -0.6059 -1.6762 -0.9232
 1647SOL     OW16576   2.348   0.936  10.152  0.2740  0.3430 -0.1105
 1647SOL    HW116577   2.365   0.894  10.067 -0.6403  0.4916 -0.3636
 1647SOL    HW216578   2.416   1.003  10.152  0.1109  0.5144 -1.4531
 1648SOL     OW16579   4.254   3.021   4.360 -0.2041 -0.3391  0.0950
 1648SOL    HW116580   4.162   3.030   4.335 -0.3675 -0.2224  0.7355
 1648SOL    HW216581   4.279   3.108   4.391 -1.2061  0.4805 -1.3575
 1649SOL     OW16582   1.938   4.454   4.378 -0.4439 -0.1955  0.5367
 1649SOL    HW116583   2.000   4.499   4.321  0.6013 -1.0748  0.9635
 1649SOL    HW216584   1.969   4.364   4.390 -0.0084  0.0491  1.2210
 1650SOL     OW16585   1.856   3.726   7.017  1.0447 -0.4075 -0.2221
 1650SOL    HW116586   1.896   3.648   7.053 -0.2607 -0.1582  1.7313
 1650SOL    HW216587   1.832   3.691   6.931 -1.3270 -0.7757  0.6005
 1651SOL     OW16588   4.465   2.880  11.143 -0.7948  0.3699 -0.4265
 1651SOL    HW116589   4.411   2.832  11.206  1.1844  0.8767  1.6466
 1651SOL    HW216590   4.556   2.871  11.173 -0.8117  0.4786 -0.3437
 1652SOL     OW16591   0.448   4.070   8.833 -0.1531 -0.1954  0.1497
 1652SOL    HW116592   0.528   4.042   8.878 -0.0659  2.7107  1.8104
 1652SOL    HW216593   0.456   4.021   8.751  0.7172  2.5504 -1.4129
 1653SOL     OW16594   0.138   3.354   8.321 -1.0816 -0.1167  0.3592
 1653SOL    HW116595   0.178   3.330   8.237 -1.4860  1.4372 -0.2838
 1653SOL    HW216596   0.044   3.346   8.304 -1.1912 -0.3141  1.0419
 1654SOL     OW16597   0.662   1.965   8.042 -0.2508 -0.3940  0.0631
 1654SOL    HW116598   0.598   2.022   8.000  1.8159  1.6569 -0.3263
 1654SOL    HW216599   0.719   2.039   8.064  0.3374 -1.5828  2.5211
 1655SOL     OW16600   1.277   1.031   6.537  0.3100 -0.0554  0.2357
 1655SOL    HW116601   1.219   1.080   6.596 -0.7765 -0.5738 -0.3936
 1655SOL    HW216602   1.230   0.948   6.528 -1.1359  0.9511 -1.6511
 1656SOL     OW16603   3.425   4.155   5.960  0.1878 -0.3669 -0.5772
 1656SOL    HW116604   3.503   4.106   5.984 -0.2870 -0.2656  1.1667
 1656SOL    HW216605   3.435   4.229   6.020 -3.3512 -0.9020  0.6775
 1657SOL     OW16606   2.066   0.083   4.601  0.0600  0.2294  0.4644
 1657SOL    HW116607   1.986   0.051   4.560 -0.3224  0.8435  0.7325
 1657SOL    HW216608   2.038   0.114   4.687 -0.0224  2.0607 -0.2250
 1658SOL     OW16609   2.471   3.262   4.412 -0.3391 -0.4623 -0.7096
 1658SOL    HW116610   2.408   3.236   4.479 -1.0485  0.2460 -1.1004
 1658SOL    HW216611   2.492   3.345   4.455 -2.6558  1.1273 -2.6755
 1659SOL     OW16612   1.920   4.657   7.319 -0.5926 -0.1016  0.6012
 1659SOL    HW116613   1.836   4.676   7.278  0.8474  2.3373 -1.2226
 1659SOL    HW216614   1.911   4.721   7.390 -0.3268  0.7222 -0.1032
 1660SOL     OW16615   2.929   3.927  17.695  0.1626 -0.2422  0.3593
 1660SOL    HW116616   2.865   3.969  17.638  1.7649 -0.0324 -1.2821
 1660SOL    HW216617   2.989   3.891  17.631  0.0832 -3.1215  1.9113
 1661SOL     OW16618   2.220   1.594   5.427  0.1364  0.0431 -0.1987
 1661SOL    HW116619   2.315   1.592   5.424  0.1512  0.3119  0.1071
 1661SOL    HW216620   2.204   1.687   5.439  0.7058  0.2395 -1.0047
 1662SOL     OW16621   3.451   3.518   3.352 -0.0612  0.2274 -0.0193
 1662SOL    HW116622   3.432   3.581   3.422  1.6443  1.0648 -0.3022
 1662SOL    HW216623   3.504   3.456   3.401  1.1018  0.9529 -0.3579
 1663SOL     OW16624   3.599   1.968   5.352 -0.0125  0.6326  0.0378
 1663SOL    HW116625   3.557   1.911   5.288 -1.6768 -0.4952  2.1232
 1663SOL    HW216626   3.529   1.965   5.418  0.1702 -2.4691  0.0791
 1664SOL     OW16627   0.896   3.681   2.314  0.1300 -0.0408  0.3802
 1664SOL    HW116628   0.976   3.732   2.325  1.0015 -1.5508  1.0442
 1664SOL    HW216629   0.871   3.699   2.404  2.9666 -1.5749  1.4701
 1665SOL     OW16630   3.612   3.911  10.446  0.4720  0.1407  0.3139
 1665SOL    HW116631   3.557   3.979  10.485  0.4546 -0.4565  1.3016
 1665SOL    HW216632   3.548   3.876  10.384  0.5462 -1.1619  0.9906
 1666SOL     OW16633   1.086   2.443   2.294  0.1628  0.2589  0.2559
 1666SOL    HW116634   1.078   2.406   2.206  2.5048 -0.8747  0.5188
 1666SOL    HW216635   1.051   2.377   2.355  1.1578  0.7980  1.4073
 1667SOL     OW16636   2.065   3.493   6.486 -0.3511 -0.1867  0.3756
 1667SOL    HW116637   2.128   3.439   6.533  1.7855  0.0281 -2.2383
 1667SOL    HW216638   2.065   3.581   6.523 -0.9089 -1.1757  2.6774
 1668SOL     OW16639   0.906   0.550   5.896 -0.3201  0.0458  0.4683
 1668SOL    HW116640   0.927   0.621   5.836 -0.5014  0.2201  0.6099
 1668SOL    HW216641   0.817   0.535   5.864  0.5813 -2.6673 -0.6751
 1669SOL     OW16642   3.919   1.448   2.444  0.4564  0.0604 -0.0839
 1669SOL    HW116643   3.849   1.513   2.431 -1.4145 -1.4207  2.6573
 1669SOL    HW216644   3.960   1.476   2.526  0.4186 -0.3792  0.0829
 1670SOL     OW16645   0.317   2.750   9.529  0.2807 -0.4999  0.5582
 1670SOL    HW116646   0.272   2.760   9.613  0.2088 -1.0637  0.5867
 1670SOL    HW216647   0.313   2.840   9.497  1.5814 -0.0673  1.6025
 1671SOL     OW16648   3.586   1.537   3.928  0.4451 -0.0703 -0.0796
 1671SOL    HW116649   3.656   1.546   3.864 -1.3495 -0.0738 -2.0389
 1671SOL    HW216650   3.585   1.627   3.963 -0.4494 -0.8687  1.9572
 1672SOL     OW16651   3.659   4.127   1.541  0.2580 -0.0792 -0.1523
 1672SOL    HW116652   3.727   4.144   1.607  0.1771  3.3444 -0.9182
 1672SOL    HW216653   3.675   4.195   1.475 -0.0847 -1.0095 -1.1915
 1673SOL     OW16654   4.190   4.488   8.304 -0.0236 -0.1252 -0.2374
 1673SOL    HW116655   4.189   4.392   8.306 -0.5301 -0.0636  2.7387
 1673SOL    HW216656   4.145   4.492   8.220  0.3959 -1.9990 -0.5496
 1674SOL     OW16657   3.837   1.025   7.273  0.1483 -0.2691 -0.0957
 1674SOL    HW116658   3.847   1.066   7.359 -0.2088 -2.4222  0.9693
 1674SOL    HW216659   3.930   1.021   7.251  1.0849  0.0058  3.8527
 1675SOL     OW16660   3.617   3.521   0.219  0.0897  0.7589  0.3737
 1675SOL    HW116661   3.626   3.616   0.220 -2.7287  1.0190  0.5814
 1675SOL    HW216662   3.693   3.488   0.170 -0.8163  1.3272 -1.4072
 1676SOL     OW16663   2.654   4.016   7.157  0.2729  0.3799  0.4834
 1676SOL    HW116664   2.676   4.102   7.193  1.2640 -0.0981  1.0057
 1676SOL    HW216665   2.615   4.033   7.071  1.3315 -0.8126 -0.2404
 1677SOL     OW16666   2.541   0.346   8.945 -0.5358  0.0221  0.2211
 1677SOL    HW116667   2.501   0.411   8.886  0.9703 -0.9265 -1.8242
 1677SOL    HW216668   2.464   0.293   8.965 -2.0121  1.4891 -1.4725
 1678SOL     OW16669   3.108   0.074   2.152  0.3662 -0.1257  0.1900
 1678SOL    HW116670   3.054   0.082   2.231  2.9213 -2.1604  2.1611
 1678SOL    HW216671   3.137   0.165   2.148  1.0886 -0.4286 -1.5284
 1679SOL     OW16672   4.088   2.743   3.216 -0.0872  0.3845 -0.1564
 1679SOL    HW116673   4.074   2.789   3.133 -1.2275 -2.4489 -1.5425
 1679SOL    HW216674   4.089   2.653   3.182 -0.8926  0.1297  0.4708
 1680SOL     OW16675   1.153   3.989   9.402  0.0787 -0.5962 -0.1954
 1680SOL    HW116676   1.165   3.896   9.422 -1.6602 -0.7097  0.2927
 1680SOL    HW216677   1.057   3.992   9.399  0.1076  0.9399  0.4515
 1681SOL     OW16678   0.877   0.009   9.244 -0.4535  0.1805 -0.3732
 1681SOL    HW116679   0.818   0.084   9.245  0.7680  1.1577 -0.8331
 1681SOL    HW216680   0.843   4.673   9.300  0.7984  0.7019  1.0360
 1682SOL     OW16681   3.505   0.539  13.222 -0.1841  0.4324  0.0842
 1682SOL    HW116682   3.593   0.513  13.195 -0.8484 -1.8659  0.1679
 1682SOL    HW216683   3.520   0.587  13.303  0.7742 -2.6496  1.7574
 1683SOL     OW16684   2.151   3.136   6.206 -0.1446  0.1275 -0.0617
 1683SOL    HW116685   2.165   3.083   6.128  0.6629 -1.7128  1.3257
 1683SOL    HW216686   2.066   3.102   6.236  0.3157  0.7443  1.9639
 1684SOL     OW16687   2.991   0.426   4.726 -0.0109  0.0440 -0.2458
 1684SOL    HW116688   2.952   0.360   4.668 -0.1159  0.5973 -0.7992
 1684SOL    HW216689   3.085   0.407   4.736 -0.0494 -0.6058 -1.0541
 1685SOL     OW16690   3.489   2.761   3.852 -0.2204  0.0730  0.3238
 1685SOL    HW116691   3.445   2.800   3.777  1.4631  1.2680 -0.0434
 1685SOL    HW216692   3.519   2.835   3.904  0.6752  0.1188 -0.2584
 1686SOL     OW16693   0.976   3.940   4.806 -0.5303  0.3038  0.0797
 1686SOL    HW116694   0.977   3.846   4.788  2.3849  0.5792 -1.2031
 1686SOL    HW216695   0.993   3.931   4.900  0.6316 -0.3250 -0.1861
 1687SOL     OW16696   0.038   4.552   3.680 -0.0613 -0.0670  0.0755
 1687SOL    HW116697   4.709   4.619   3.655  2.4915  2.3488 -0.0105
 1687SOL    HW216698   0.021   4.482   3.617  0.9742 -0.8931  0.7178
 1688SOL     OW16699   4.317   1.284  13.381 -0.4354  0.1027 -0.6301
 1688SOL    HW116700   4.243   1.345  13.390 -0.3514  0.4166 -2.0882
 1688SOL    HW216701   4.373   1.345  13.335 -0.2461  0.1239 -0.3729
 1689SOL     OW16702   2.855   3.086   9.517  0.3967  0.0710 -0.1588
 1689SOL    HW116703   2.762   3.103   9.533  0.3587  0.2183 -0.5186
 1689SOL    HW216704   2.890   3.136   9.591 -0.9032  1.1667 -0.2671
 1690SOL     OW16705   3.758   3.006   6.713 -0.2681  0.1259 -0.0818
 1690SOL    HW116706   3.732   3.067   6.644  0.6889 -0.0130 -0.5649
 1690SOL    HW216707   3.812   2.943   6.665  1.0455 -0.4264  2.1278
 1691SOL     OW16708   0.583   2.167   5.122 -0.8108  0.0371  0.1867
 1691SOL    HW116709   0.581   2.074   5.144  2.6599 -0.6044 -2.1226
 1691SOL    HW216710   0.587   2.203   5.210  1.9287  0.2632 -0.0215
 1692SOL     OW16711   4.580   0.325  17.405  0.0853 -0.2100  0.2596
 1692SOL    HW116712   4.600   0.232  17.397 -3.1177 -0.6967 -2.0310
 1692SOL    HW216713   4.487   0.311  17.417  0.3350 -2.2582 -0.3136
 1693SOL     OW16714   2.627   2.357   3.333  0.3713  0.1430 -0.4389
 1693SOL    HW116715   2.676   2.361   3.415 -1.2791 -3.1132  0.7287
 1693SOL    HW216716   2.668   2.285   3.286  1.4601 -0.9125  2.1140
 1694SOL     OW16717   2.894   3.718   0.136  0.5246 -0.7905 -0.0938
 1694SOL    HW116718   2.929   3.793   0.183  0.6189  0.1336 -1.6558
 1694SOL    HW216719   2.947   3.746   0.061  0.3657  0.1829  0.1578
 1695SOL     OW16720   3.001   0.061   9.794  0.5247 -0.3719  0.3277
 1695SOL    HW116721   2.957   4.728   9.742 -4.5965  0.8514  3.1020
 1695SOL    HW216722   2.995   0.135   9.733  0.7571  0.3166  1.1444
 1696SOL     OW16723   1.389   4.546   0.364 -0.5297 -0.2369 -0.5204
 1696SOL    HW116724   1.384   4.474   0.426 -2.7080  1.8467  1.7454
 1696SOL    HW216725   1.482   4.566   0.376 -0.4334 -0.7727 -0.3818
 1697SOL     OW16726   2.135   0.245   5.850 -0.0606 -0.2749 -0.0753
 1697SOL    HW116727   2.204   0.180   5.865  1.8179  1.7579 -0.0644
 1697SOL    HW216728   2.088   0.202   5.778 -0.4745  1.3260 -0.7591
 1698SOL     OW16729   3.190   4.020  11.326  0.5023 -0.1000  0.0161
 1698SOL    HW116730   3.192   3.969  11.407  2.5670 -1.5002 -0.9146
 1698SOL    HW216731   3.264   3.989  11.273  1.1163  0.4956  0.5217
 1699SOL     OW16732   3.631   2.213   5.214 -0.4149  0.7998  0.6944
 1699SOL    HW116733   3.543   2.250   5.225 -0.7454 -0.1473  1.2644
 1699SOL    HW216734   3.622   2.131   5.262 -1.4344  0.1887 -0.5322
 1700SOL     OW16735   3.330   0.838   6.171 -0.0143  0.0044  0.0989
 1700SOL    HW116736   3.299   0.754   6.204  0.7193 -0.6274 -0.8356
 1700SOL    HW216737   3.297   0.905   6.230  1.0497  2.6742 -2.3291
 1701SOL     OW16738   1.590   3.235   9.066 -0.0671 -0.3206  0.4310
 1701SOL    HW116739   1.641   3.302   9.021 -1.8072  0.4101 -0.4261
 1701SOL    HW216740   1.590   3.172   8.994 -2.0832 -0.9033  0.9467
 1702SOL     OW16741   1.885   0.031   2.116  0.6749 -0.0587  0.4686
 1702SOL    HW116742   1.831   0.066   2.045 -0.6097 -1.0204  0.9707
 1702SOL    HW216743   1.833   0.064   2.189 -0.2260 -0.0310 -0.1906
 1703SOL     OW16744   4.607   1.057   2.630 -0.1021  0.2742  1.0356
 1703SOL    HW116745   4.639   0.975   2.667  1.1943  0.2971 -0.0531
 1703SOL    HW216746   4.619   1.116   2.705 -0.7324 -0.0854  1.4197
 1704SOL     OW16747   1.474   2.460   8.792 -0.2407 -0.3963 -0.0657
 1704SOL    HW116748   1.476   2.491   8.883 -0.4759 -1.7328  0.3824
 1704SOL    HW216749   1.410   2.390   8.799 -1.5547  0.5474 -2.6803
 1705SOL     OW16750   3.748   2.181   3.429 -0.5971  0.0533  0.3258
 1705SOL    HW116751   3.739   2.168   3.334 -0.7565 -0.3746  0.3969
 1705SOL    HW216752   3.689   2.111   3.458 -1.6327  0.2445 -1.3057
 1706SOL     OW16753   1.262   3.629   2.861  0.0878 -0.4165 -0.0320
 1706SOL    HW116754   1.279   3.601   2.951 -2.0343  2.9175  1.4299
 1706SOL    HW216755   1.339   3.604   2.812  0.5543 -0.7516  0.8752
 1707SOL     OW16756   0.957   0.599   0.789 -0.1356  0.6118 -0.2768
 1707SOL    HW116757   0.902   0.677   0.781 -1.5765 -0.4450 -0.6638
 1707SOL    HW216758   1.005   0.618   0.869 -0.0161 -1.9677  0.2708
 1708SOL     OW16759   4.319   3.369  11.504 -0.3672  0.2675  0.1414
 1708SOL    HW116760   4.405   3.373  11.545 -0.7857  0.8142  0.9776
 1708SOL    HW216761   4.339   3.354  11.411  0.2708  1.3075  0.1111
 1709SOL     OW16762   2.756   4.186   8.564 -0.7062  0.1305  0.1429
 1709SOL    HW116763   2.754   4.090   8.566  1.2385  0.0591 -1.3415
 1709SOL    HW216764   2.788   4.206   8.653  3.0359 -1.0799 -0.8927
 1710SOL     OW16765   1.271   3.848   6.332 -0.0774 -0.5041 -0.8318
 1710SOL    HW116766   1.248   3.935   6.299  3.0977  0.6225 -0.0512
 1710SOL    HW216767   1.329   3.873   6.403 -0.4664  1.1229 -1.0754
 1711SOL     OW16768   0.643   1.420   8.924  0.6027 -0.0864 -0.1868
 1711SOL    HW116769   0.579   1.467   8.871 -0.9567 -1.1252  0.7573
 1711SOL    HW216770   0.720   1.475   8.910  0.5147  0.5441  1.7617
 1712SOL     OW16771   1.902   1.661   1.612 -0.2749  0.5439  0.2288
 1712SOL    HW116772   1.969   1.614   1.563  1.1589  2.0271  0.7519
 1712SOL    HW216773   1.888   1.741   1.560  0.8191  1.5804  1.5213
 1713SOL     OW16774   1.914   3.853   9.161  0.0261  0.0010 -0.2717
 1713SOL    HW116775   1.847   3.787   9.141 -0.1268  0.4032 -1.0528
 1713SOL    HW216776   1.979   3.812   9.104  0.1728  0.6635 -0.5752
 1714SOL     OW16777   0.653   1.031  16.650  0.5718 -0.5235 -0.1200
 1714SOL    HW116778   0.634   1.121  16.674  1.3673 -0.3798 -0.0146
 1714SOL    HW216779   0.710   1.039  16.573  1.5807  0.4580  0.7249
 1715SOL     OW16780   3.391   2.155   4.876 -0.0217  0.9711 -0.3005
 1715SOL    HW116781   3.464   2.116   4.923 -1.2128 -1.3008 -0.3011
 1715SOL    HW216782   3.408   2.155   4.782 -1.7742 -1.7601 -0.6418
 1716SOL     OW16783   4.485   3.139   3.558  0.4479  0.0674 -0.1482
 1716SOL    HW116784   4.404   3.189   3.550 -1.1689 -3.0786 -2.8566
 1716SOL    HW216785   4.463   3.092   3.638 -0.6461  0.2709 -0.3265
 1717SOL     OW16786   4.453   4.586   7.841 -0.3690  0.1888  0.0150
 1717SOL    HW116787   4.512   4.527   7.887  2.5833  0.4262 -3.4928
 1717SOL    HW216788   4.420   4.643   7.910  1.0513 -1.3417  1.9519
 1718SOL     OW16789   1.049   3.427  13.767  0.5187 -0.0439  0.5443
 1718SOL    HW116790   0.969   3.402  13.812 -1.3687  3.7002 -0.7786
 1718SOL    HW216791   1.059   3.513  13.807  1.2361 -0.2756  0.8581
 1719SOL     OW16792   3.590   4.084   0.431  0.6388  0.7456 -0.3270
 1719SOL    HW116793   3.530   4.082   0.357 -0.5782  2.4094  0.6292
 1719SOL    HW216794   3.578   4.178   0.444  1.5740  0.6971  0.9410
 1720SOL     OW16795   2.787   3.395   8.404  0.2073  0.6139 -0.9516
 1720SOL    HW116796   2.820   3.481   8.429  1.6765 -0.0269 -0.6313
 1720SOL    HW216797   2.694   3.405   8.384  0.2340  1.9697 -0.3851
 1721SOL     OW16798   4.472   0.065   2.182 -0.4871  0.1834  0.0520
 1721SOL    HW116799   4.396   0.018   2.148 -1.2592  1.2173  0.3401
 1721SOL    HW216800   4.532   0.001   2.220  0.4263  0.8954 -0.2005
 1722SOL     OW16801   2.104   4.505   6.917  0.2245 -0.4188  0.3441
 1722SOL    HW116802   2.096   4.488   7.011 -0.2028 -0.9760  0.2102
 1722SOL    HW216803   2.177   4.445   6.906 -0.8749 -1.6054 -0.5656
 1723SOL     OW16804   3.166   3.517   7.853 -0.7175  0.4647  0.5403
 1723SOL    HW116805   3.123   3.446   7.900 -2.1660  0.4920 -0.7891
 1723SOL    HW216806   3.093   3.557   7.807  0.2914  2.4125  0.6392
 1724SOL     OW16807   4.462   0.280   6.867  0.0537  0.6175  0.0491
 1724SOL    HW116808   4.538   0.256   6.920  0.1694 -3.5197 -2.0018
 1724SOL    HW216809   4.481   0.371   6.843  1.1735 -0.3021 -2.5868
 1725SOL     OW16810   2.480   4.724  11.011  0.7662 -0.0751 -0.0517
 1725SOL    HW116811   2.403   4.674  11.038  0.6133 -0.0046 -0.3558
 1725SOL    HW216812   2.502   0.054  11.079  0.2086  2.9334 -2.7590
 1726SOL     OW16813   3.116   4.078   0.146 -0.0758 -0.0573  0.5812
 1726SOL    HW116814   3.072   4.084   0.231 -0.8580  0.5334  0.1311
 1726SOL    HW216815   3.053   4.033   0.089  0.3036 -2.6407  2.1798
 1727SOL     OW16816   0.084   2.373  16.257 -0.2762  0.6437  0.0368
 1727SOL    HW116817   0.060   2.378  16.165 -0.9142  1.1094  0.2350
 1727SOL    HW216818   0.178   2.393  16.255  0.4494 -2.4348  1.8512
 1728SOL     OW16819   0.035   1.482   8.656  0.2854 -0.1886 -0.2668
 1728SOL    HW116820   0.110   1.477   8.715 -0.6748 -1.3540  0.8444
 1728SOL    HW216821   0.090   1.454   8.583 -1.6312 -0.3413 -1.6515
 1729SOL     OW16822   2.927   2.757   1.983 -0.4088 -0.2503  0.0410
 1729SOL    HW116823   2.990   2.817   1.942 -1.6323 -0.1396 -1.6633
 1729SOL    HW216824   2.982   2.681   2.005 -2.9168 -1.9134  0.6158
 1730SOL     OW16825   0.354   0.562   3.249  0.2525 -0.2225 -0.6688
 1730SOL    HW116826   0.321   0.488   3.198  1.5639 -0.4559 -1.1978
 1730SOL    HW216827   0.431   0.595   3.202  0.3927  0.8342  0.3051
 1731SOL     OW16828   2.121   3.293   8.424  0.0641 -0.0044  0.3395
 1731SOL    HW116829   2.028   3.292   8.443  0.3196  0.3339  1.5885
 1731SOL    HW216830   2.121   3.355   8.352  2.0325 -0.1202  0.2434
 1732SOL     OW16831   2.971   4.057   5.055 -0.2392  0.1017  0.1153
 1732SOL    HW116832   3.006   4.064   5.144  1.7820 -1.6730 -0.5410
 1732SOL    HW216833   3.031   4.000   5.007 -0.6966 -1.6395  1.5968
 1733SOL     OW16834   4.236   2.691  11.685 -0.1345  0.0046  0.4909
 1733SOL    HW116835   4.270   2.749  11.753 -0.0412 -1.4227  1.6757
 1733SOL    HW216836   4.159   2.735  11.650  0.3785  0.9189  0.5022
 1734SOL     OW16837   3.796   3.136  17.415 -0.0094 -0.7893 -0.3228
 1734SOL    HW116838   3.858   3.163  17.483  1.1292  1.2942 -2.1825
 1734SOL    HW216839   3.790   3.216  17.363  0.3233  0.0508  0.9090
 1735SOL     OW16840   0.529   3.227   8.512  0.1667 -0.3235  0.2699
 1735SOL    HW116841   0.600   3.216   8.449 -0.2701  2.4066 -0.6861
 1735SOL    HW216842   0.444   3.213   8.469  1.4824  0.2601 -2.4460
 1736SOL     OW16843   4.600   1.952   3.878 -0.0250 -0.2904  0.6618
 1736SOL    HW116844   4.618   2.046   3.871  0.7296 -0.3754  1.4517
 1736SOL    HW216845   4.658   1.930   3.951 -1.0683  1.2081  1.9522
 1737SOL     OW16846   1.881   4.321   9.069 -0.7485 -0.1460  0.4512
 1737SOL    HW116847   1.904   4.330   8.977  0.3790 -0.7823  0.6809
 1737SOL    HW216848   1.799   4.371   9.068 -0.2681  0.6278  0.2482
 1738SOL     OW16849   2.332   0.362   2.707 -0.8022 -0.4028 -0.6100
 1738SOL    HW116850   2.306   0.424   2.639  0.7316 -0.5782 -1.3427
 1738SOL    HW216851   2.249   0.313   2.713 -1.3783  0.9118  2.3583
 1739SOL     OW16852   0.014   2.134   2.897  0.1178  0.0470  0.6031
 1739SOL    HW116853   0.021   2.071   2.969 -0.4993  0.5908  1.1347
 1739SOL    HW216854   4.716   2.213   2.941  0.6785 -0.7292  2.4253
 1740SOL     OW16855   3.895   0.499   3.837 -0.2421 -0.2861  0.1843
 1740SOL    HW116856   3.892   0.588   3.873  0.8976 -0.4702  0.7114
 1740SOL    HW216857   3.800   0.490   3.843 -0.3068  0.9282  0.9738
 1741SOL     OW16858   2.037   2.758   5.203 -0.4517 -0.3607 -0.6986
 1741SOL    HW116859   1.971   2.690   5.208  1.0671 -1.6281  2.2957
 1741SOL    HW216860   2.106   2.719   5.257 -1.6717  0.0850  1.1967
 1742SOL     OW16861   4.697   3.360  12.058  0.9290  0.3579  0.2182
 1742SOL    HW116862   0.046   3.397  12.087  0.1995  1.4988  0.8268
 1742SOL    HW216863   4.661   3.440  12.021 -0.6588 -0.4370  0.0429
 1743SOL     OW16864   3.094   2.706   6.188  0.2375 -0.5355  0.1974
 1743SOL    HW116865   3.066   2.748   6.269 -0.7197  0.2048 -0.5248
 1743SOL    HW216866   3.029   2.636   6.183  0.5665 -0.7148 -1.8990
 1744SOL     OW16867   3.273   4.451   4.737  0.2274  0.3873  0.2337
 1744SOL    HW116868   3.188   4.476   4.775  0.8693  1.4366  0.9844
 1744SOL    HW216869   3.240   4.371   4.696 -1.0109  1.4643 -0.8949
 1745SOL     OW16870   2.783   0.490  10.761 -0.1834  0.3184  0.1701
 1745SOL    HW116871   2.705   0.438  10.778 -0.2503  0.7204  1.0716
 1745SOL    HW216872   2.773   0.547  10.837  0.7370  0.5984  0.0770
 1746SOL     OW16873   0.033   3.959  11.827 -0.0596  0.1561 -0.0143
 1746SOL    HW116874   4.721   4.029  11.872 -0.0085  0.0107  0.2610
 1746SOL    HW216875   4.714   3.944  11.749 -1.3501 -2.2159  1.3323
 1747SOL     OW16876   4.687   1.513   3.261 -0.1988 -0.4244 -0.4095
 1747SOL    HW116877   0.022   1.538   3.200  0.3135  0.5808  0.6021
 1747SOL    HW216878   4.728   1.494   3.345 -0.2113  0.1034 -0.2872
 1748SOL     OW16879   2.774   1.751   4.169  0.5669 -0.0600 -1.1781
 1748SOL    HW116880   2.719   1.780   4.242  3.3471  2.2218  0.0138
 1748SOL    HW216881   2.724   1.678   4.133  0.4773 -1.4961  1.8541
 1749SOL     OW16882   2.212   2.541   6.219 -0.0597 -0.0473 -0.1391
 1749SOL    HW116883   2.274   2.469   6.211  1.0045  0.8599 -0.0377
 1749SOL    HW216884   2.263   2.601   6.274 -1.1716 -1.4534  2.4065
 1750SOL     OW16885   1.077   2.144  15.831  0.4662  0.2740  0.1219
 1750SOL    HW116886   1.111   2.220  15.879  0.0650  0.9596 -0.6627
 1750SOL    HW216887   1.114   2.072  15.881 -3.9687 -2.4719 -0.5394
 1751SOL     OW16888   0.873   4.427  11.024 -0.2524  0.1433 -0.3403
 1751SOL    HW116889   0.841   4.501  11.075 -1.5968 -0.8397  0.2159
 1751SOL    HW216890   0.914   4.369  11.088 -0.7576  0.0509 -0.1081
 1752SOL     OW16891   4.187   3.535   0.406 -0.3376 -0.2229  0.4443
 1752SOL    HW116892   4.099   3.506   0.380  0.1935  0.3078 -1.9072
 1752SOL    HW216893   4.235   3.466   0.360 -1.0811 -0.5634  0.1701
 1753SOL     OW16894   2.649   0.886   7.095  0.8243  0.3581 -0.1715
 1753SOL    HW116895   2.630   0.883   7.189 -1.2128 -0.6273 -0.6210
 1753SOL    HW216896   2.707   0.962   7.093 -0.4778  1.2939 -1.7516
 1754SOL     OW16897   4.413   4.697   9.438 -0.2513 -0.0646  0.0197
 1754SOL    HW116898   4.460   4.633   9.491 -1.9929 -0.3771  1.2179
 1754SOL    HW216899   4.489   0.009   9.404  0.1570 -0.7943 -0.0623
 1755SOL     OW16900   3.718   4.416   7.044 -0.3620 -0.2059 -0.2493
 1755SOL    HW116901   3.696   4.509   7.044  2.1827  0.3888 -2.2635
 1755SOL    HW216902   3.638   4.382   7.085 -0.5147  0.4918  0.0366
 1756SOL     OW16903   4.299   0.914   3.612  0.4991  0.1831  0.1700
 1756SOL    HW116904   4.352   0.856   3.557 -0.1424 -2.5335  2.4333
 1756SOL    HW216905   4.295   0.993   3.557  2.6288  1.1332  1.3690
 1757SOL     OW16906   3.795   3.039   3.823  0.0685  0.0805  0.1348
 1757SOL    HW116907   3.818   2.964   3.768  0.1964 -0.8358  1.4425
 1757SOL    HW216908   3.855   3.035   3.898 -2.7244  0.7664  2.3891
 1758SOL     OW16909   0.158   2.761  14.713  0.0006 -0.0616  0.0571
 1758SOL    HW116910   0.230   2.733  14.657 -0.8201 -1.5373 -0.2803
 1758SOL    HW216911   0.074   2.745  14.669 -0.6663  2.5282  0.3891
 1759SOL     OW16912   4.348   1.866   0.302  0.2762 -0.0705 -0.0481
 1759SOL    HW116913   4.382   1.915   0.227  2.2167  0.3768  1.1438
 1759SOL    HW216914   4.316   1.794   0.247  1.2189 -0.4877 -0.0496
 1760SOL     OW16915   4.207   2.419   1.888  0.2941 -0.2699 -0.1327
 1760SOL    HW116916   4.188   2.334   1.847  1.8336 -1.4224  1.5176
 1760SOL    HW216917   4.181   2.488   1.827 -0.1846  0.0898  0.4758
 1761SOL     OW16918   0.595   1.905   7.669  0.0561  0.2704  0.0682
 1761SOL    HW116919   0.626   1.991   7.640 -0.4925  0.0318 -1.2491
 1761SOL    HW216920   0.520   1.888   7.612  0.8324 -2.9216  0.0234
 1762SOL     OW16921   1.047   0.623  13.068 -0.1559 -0.0510 -0.1383
 1762SOL    HW116922   1.002   0.707  13.069 -0.9672 -0.4884  1.7635
 1762SOL    HW216923   0.976   0.560  13.084  1.6869 -1.1663  3.6204
 1763SOL     OW16924   1.410   1.024   2.965 -0.0376  0.3609 -0.4538
 1763SOL    HW116925   1.446   1.063   3.044  2.4071 -1.1697 -0.7996
 1763SOL    HW216926   1.490   0.984   2.930 -0.1673 -0.3673  0.0811
 1764SOL     OW16927   0.057   2.709  16.445  0.2876  0.8327  0.0314
 1764SOL    HW116928   0.104   2.731  16.365  3.6769 -1.6025  1.3281
 1764SOL    HW216929   4.699   2.728  16.431  0.4716  1.8856  0.3128
 1765SOL     OW16930   2.239   0.082   1.292  0.2072  0.1083 -0.0581
 1765SOL    HW116931   2.157   0.124   1.320 -0.6272 -1.8753  0.4734
 1765SOL    HW216932   2.259   0.147   1.225 -3.3342 -0.2542 -1.4580
 1766SOL     OW16933   2.857   3.774   7.104  0.3980 -0.5766 -0.1846
 1766SOL    HW116934   2.802   3.845   7.138 -2.7281 -3.0141 -0.1904
 1766SOL    HW216935   2.788   3.730   7.054  0.1587  0.8377 -1.1092
 1767SOL     OW16936   2.479   4.055   5.507 -0.1047 -0.2384  0.2128
 1767SOL    HW116937   2.555   4.112   5.524  0.0334  0.4876 -2.8288
 1767SOL    HW216938   2.441   4.094   5.429 -1.5009 -0.1864  0.9324
 1768SOL     OW16939   3.747   2.296   6.955  0.0996 -0.7063 -0.2863
 1768SOL    HW116940   3.698   2.215   6.966  0.7595 -1.2259 -1.0846
 1768SOL    HW216941   3.799   2.287   6.875 -0.1020 -0.4198 -0.4515
 1769SOL     OW16942   2.104   4.515   9.208 -0.0265 -0.2287 -0.4775
 1769SOL    HW116943   2.009   4.514   9.195 -0.3350  2.2542  1.5196
 1769SOL    HW216944   2.123   4.561   9.127 -0.2583 -0.0341 -0.4210
 1770SOL     OW16945   1.171   0.400   8.173  0.6789 -0.4320 -0.5879
 1770SOL    HW116946   1.235   0.434   8.236  1.2809  0.0547 -1.4588
 1770SOL    HW216947   1.133   0.487   8.159  2.0797  0.3046  0.1140
 1771SOL     OW16948   2.462   2.273  12.366  0.3373  0.6871  0.0600
 1771SOL    HW116949   2.537   2.233  12.321 -2.6032 -0.6641 -3.5931
 1771SOL    HW216950   2.398   2.207  12.339  0.4636  0.4580  0.3224
 1772SOL     OW16951   4.278   2.564   5.266  0.1881  0.3193 -0.2356
 1772SOL    HW116952   4.239   2.483   5.234  1.0290 -0.7481  1.4194
 1772SOL    HW216953   4.302   2.615   5.189  0.7499  1.8978  0.9912
 1773SOL     OW16954   2.163   1.439  14.911  0.6995  0.2817  0.0620
 1773SOL    HW116955   2.251   1.407  14.894  0.3144 -1.1138  0.7060
 1773SOL    HW216956   2.146   1.480  14.826  0.4921 -0.2999 -0.1784
 1774SOL     OW16957   3.553   1.618   7.844  0.1304 -0.2108 -0.5005
 1774SOL    HW116958   3.517   1.567   7.918 -2.8624 -0.1220 -1.8794
 1774SOL    HW216959   3.474   1.615   7.790  0.3174 -2.1896 -0.6829
 1775SOL     OW16960   0.654   2.332  12.867  0.1913  0.0140 -0.1640
 1775SOL    HW116961   0.660   2.239  12.848  0.5036 -0.1969  0.9715
 1775SOL    HW216962   0.737   2.337  12.913 -0.7653  1.5314  1.3935
 1776SOL     OW16963   1.647   1.941  12.633  0.1960  0.1396 -0.2022
 1776SOL    HW116964   1.695   1.981  12.707  2.4204 -1.0268 -1.0155
 1776SOL    HW216965   1.598   2.019  12.607  0.6167  0.8898  1.2230
 1777SOL     OW16966   4.167   2.960   5.632 -0.5292  0.8132 -0.3367
 1777SOL    HW116967   4.204   2.879   5.595 -1.7808 -0.0533  0.3293
 1777SOL    HW216968   4.139   2.921   5.715 -0.0126  0.6969 -0.2171
 1778SOL     OW16969   1.278   2.734   9.915  0.1268  0.1921  0.4386
 1778SOL    HW116970   1.201   2.768   9.961 -0.8258 -2.1735  0.5890
 1778SOL    HW216971   1.291   2.800   9.847 -2.7887 -0.5783 -0.8510
 1779SOL     OW16972   4.715   2.317   8.758  0.0629 -0.1398 -0.5734
 1779SOL    HW116973   4.661   2.261   8.814  3.3252 -0.3808  2.3139
 1779SOL    HW216974   0.066   2.275   8.756  0.0662 -0.2163  0.8625
 1780SOL     OW16975   2.394   1.985   7.990 -0.1293  0.0801  0.1832
 1780SOL    HW116976   2.479   2.022   7.965 -0.5756  1.0916  0.1692
 1780SOL    HW216977   2.426   1.903   8.026 -2.2373 -1.2877 -1.0738
 1781SOL     OW16978   2.189   2.454   5.349 -1.0466  0.0801  0.0465
 1781SOL    HW116979   2.175   2.432   5.257  0.7969  1.6066 -0.6094
 1781SOL    HW216980   2.257   2.520   5.338  0.3508 -1.3896 -0.1359
 1782SOL     OW16981   3.816   3.125  10.812  0.0891 -0.5241 -0.3354
 1782SOL    HW116982   3.775   3.211  10.809  0.9654 -0.0465  1.3053
 1782SOL    HW216983   3.755   3.071  10.762  2.3501 -3.0672 -0.3128
 1783SOL     OW16984   1.845   0.482   2.318 -0.8673  0.1542 -0.6324
 1783SOL    HW116985   1.891   0.508   2.239  1.4343 -0.5057  0.5027
 1783SOL    HW216986   1.896   0.531   2.382 -1.3454 -0.8897  0.5585
 1784SOL     OW16987   1.203   2.320  16.017  0.5479  0.2177  0.0245
 1784SOL    HW116988   1.248   2.400  15.991 -1.1068  1.2954  0.4498
 1784SOL    HW216989   1.260   2.276  16.080  0.5481  2.5299  1.6166
 1785SOL     OW16990   1.036   4.701   7.854 -0.2947  0.1946 -0.3148
 1785SOL    HW116991   1.096   0.011   7.795 -2.1940  0.3462 -2.1611
 1785SOL    HW216992   1.103   4.672   7.916  0.0813 -0.0109 -0.8182
 1786SOL     OW16993   4.080   2.832  16.309  0.0072  0.7262 -0.0719
 1786SOL    HW116994   4.073   2.743  16.344 -3.1120  0.8060 -0.4871
 1786SOL    HW216995   3.994   2.836  16.268 -0.8107  0.5630  1.6304
 1787SOL     OW16996   1.473   0.264  13.242 -0.1723 -0.2604 -0.4039
 1787SOL    HW116997   1.413   0.329  13.203  0.8652  0.4265 -0.8675
 1787SOL    HW216998   1.409   0.228  13.304  2.1033 -0.1870  1.9657
 1788SOL     OW16999   3.754   2.851   4.712  0.2111  0.0680 -0.3947
 1788SOL    HW117000   3.694   2.778   4.732 -0.2220  0.1389 -1.4612
 1788SOL    HW217001   3.723   2.920   4.771 -1.3913  1.7175 -3.1784
 1789SOL     OW17002   4.681   2.197  10.019 -0.1626 -0.1919 -0.2340
 1789SOL    HW117003   4.631   2.277  10.035 -1.2793 -0.5562 -1.9818
 1789SOL    HW217004   4.712   2.186  10.109 -0.2081  0.4764 -0.1380
 1790SOL     OW17005   0.288   0.333   7.544 -0.3570  0.0271 -0.1694
 1790SOL    HW117006   0.301   0.243   7.574  2.6107  0.4625 -0.2017
 1790SOL    HW217007   0.202   0.369   7.563 -0.1808  0.2573  0.1824
 1791SOL     OW17008   4.010   4.732  17.585  0.4477 -0.0090  0.0815
 1791SOL    HW117009   3.953   0.023  17.658 -1.3171 -0.0574 -1.2693
 1791SOL    HW217010   4.009   4.636  17.584  0.5230  0.0169 -2.2225
 1792SOL     OW17011   3.270   2.625   3.256 -0.3577 -0.4967  0.9907
 1792SOL    HW117012   3.299   2.631   3.165 -0.2239  0.6422  1.1051
 1792SOL    HW217013   3.178   2.605   3.239  0.1618 -1.7310 -0.2940
 1793SOL     OW17014   2.576   4.084   6.906 -0.8306 -0.1634 -0.0718
 1793SOL    HW117015   2.608   4.143   6.837  1.6035 -0.3491  0.8946
 1793SOL    HW217016   2.482   4.082   6.892 -0.9951  0.7440  0.9483
 1794SOL     OW17017   2.916   0.752   4.382  0.1145 -0.0883  0.8065
 1794SOL    HW117018   2.899   0.831   4.433  2.5874  0.2256  1.1484
 1794SOL    HW217019   2.971   0.709   4.447 -0.6105  0.7897  1.9874
 1795SOL     OW17020   1.861   4.444   6.035  0.7866  0.0381  0.3527
 1795SOL    HW117021   1.849   4.539   6.023  0.0087 -0.1148 -0.0785
 1795SOL    HW217022   1.789   4.426   6.095 -0.4400 -1.0188 -1.4523
 1796SOL     OW17023   0.869   1.381   3.123 -0.0541  0.3747 -0.6196
 1796SOL    HW117024   0.951   1.333   3.116 -1.2843 -1.1872 -4.1473
 1796SOL    HW217025   0.810   1.306   3.122  0.5229 -0.1038  1.3138
 1797SOL     OW17026   3.764   2.434   1.476  0.1972  0.0822  0.4146
 1797SOL    HW117027   3.726   2.442   1.563  0.1551 -1.6926  0.5584
 1797SOL    HW217028   3.789   2.342   1.476  2.2835  0.6520 -1.0521
 1798SOL     OW17029   2.418   0.876   2.302 -0.0647 -0.5522  0.1781
 1798SOL    HW117030   2.397   0.831   2.385 -1.3841  0.3368  0.3209
 1798SOL    HW217031   2.490   0.818   2.275 -0.4386  0.7087 -3.4107
 1799SOL     OW17032   2.858   1.700   2.776  0.3283 -0.0957 -1.0114
 1799SOL    HW117033   2.921   1.727   2.709 -2.2836  0.1576 -3.3703
 1799SOL    HW217034   2.803   1.779   2.773  0.3579 -0.0776 -1.0945
 1800SOL     OW17035   0.518   4.563   9.288  0.2912  0.5179 -0.6007
 1800SOL    HW117036   0.490   4.495   9.227 -2.7180  2.2037 -1.1056
 1800SOL    HW217037   0.613   4.552   9.285  0.1141 -1.0190 -0.6256
 1801SOL     OW17038   0.559   0.279   2.966  0.1151 -0.0543 -0.5912
 1801SOL    HW117039   0.543   0.211   2.900 -1.1684 -0.1469 -0.1770
 1801SOL    HW217040   0.654   0.271   2.975 -0.0738 -2.0492 -0.4822
 1802SOL     OW17041   3.612   0.247  16.844  0.4511  0.2648  0.2915
 1802SOL    HW117042   3.525   0.264  16.807  0.8459 -0.1254 -0.8116
 1802SOL    HW217043   3.619   0.153  16.825 -2.8967  0.0759 -0.1609
 1803SOL     OW17044   4.651   2.138  16.320  0.9845  0.0532 -0.3501
 1803SOL    HW117045   4.679   2.149  16.411 -0.3092  0.0581  0.0573
 1803SOL    HW217046   4.726   2.177  16.275  0.2941 -0.8840 -2.2795
 1804SOL     OW17047   1.570   2.490   3.049  0.2037 -0.5376 -0.1511
 1804SOL    HW117048   1.654   2.467   3.009  0.5505 -2.2268  1.5435
 1804SOL    HW217049   1.597   2.507   3.139  1.0575 -0.0026 -0.5088
 1805SOL     OW17050   3.731   2.219  11.047  0.3373 -0.5369 -0.2544
 1805SOL    HW117051   3.715   2.311  11.064  0.0106 -0.7199  0.4223
 1805SOL    HW217052   3.791   2.229  10.972 -0.8624 -0.6011 -1.2244
 1806SOL     OW17053   0.498   0.788   2.104 -0.5743  0.5280  0.0451
 1806SOL    HW117054   0.497   0.839   2.186  1.4796  1.7553 -0.7014
 1806SOL    HW217055   0.563   0.834   2.050  0.8813 -0.5925  0.8521
 1807SOL     OW17056   2.115   0.146  15.418  0.6714  0.0358 -0.2026
 1807SOL    HW117057   2.115   0.087  15.494  1.5536 -1.9805 -1.7780
 1807SOL    HW217058   2.138   0.093  15.342  1.8166 -1.0071  0.8633
 1808SOL     OW17059   4.507   2.242  14.647 -0.1252 -0.3679  0.2997
 1808SOL    HW117060   4.412   2.247  14.655 -0.2428 -1.8941 -0.1471
 1808SOL    HW217061   4.541   2.236  14.737 -0.2176  1.5049  0.4463
 1809SOL     OW17062   2.508   2.890   6.786  0.7373  0.0419  0.2643
 1809SOL    HW117063   2.435   2.831   6.771  0.4339 -0.1203  2.4253
 1809SOL    HW217064   2.526   2.900   6.692  0.7702 -1.9758  0.0546
 1810SOL     OW17065   0.108   3.880  10.989 -0.9026 -0.0697  0.2273
 1810SOL    HW117066   0.159   3.860  11.068  0.3521 -1.0135 -0.8121
 1810SOL    HW217067   0.023   3.911  11.021 -1.2318  1.4990 -2.2378
 1811SOL     OW17068   3.967   4.561   1.993 -0.1701 -0.3755  0.1744
 1811SOL    HW117069   3.930   4.646   2.015 -2.4475 -1.4723  0.6125
 1811SOL    HW217070   3.920   4.513   2.061 -1.1333 -0.1282 -0.3104
 1812SOL     OW17071   0.898   3.166   9.339  0.2180  0.0815 -0.0366
 1812SOL    HW117072   0.978   3.205   9.305 -0.4523 -0.2797 -2.0210
 1812SOL    HW217073   0.887   3.107   9.265  1.2027  1.5953 -1.3891
 1813SOL     OW17074   3.852   3.723   6.100  0.0421 -0.3740  0.4968
 1813SOL    HW117075   3.804   3.665   6.042  0.9925  1.7578 -2.3974
 1813SOL    HW217076   3.944   3.697   6.103 -0.2276 -1.5078 -1.3035
 1814SOL     OW17077   4.026   2.247  13.653  0.3744 -0.2249  0.0198
 1814SOL    HW117078   3.961   2.227  13.720 -0.1527 -1.0319 -0.7279
 1814SOL    HW217079   4.075   2.315  13.698  1.5782 -0.7933 -0.4431
 1815SOL     OW17080   2.749   2.613   3.191 -0.3593  0.6331 -0.1465
 1815SOL    HW117081   2.691   2.658   3.252  0.7053 -0.8065  1.9199
 1815SOL    HW217082   2.699   2.541   3.152  0.3896  0.1923 -0.3020
 1816SOL     OW17083   1.646   4.036   3.037 -0.2536  0.7152 -0.5328
 1816SOL    HW117084   1.658   4.008   2.946 -0.3687  0.5679 -0.5018
 1816SOL    HW217085   1.640   3.949   3.075  1.5174  1.0098  0.3912
 1817SOL     OW17086   3.909   1.027   2.005  0.6236  0.3964 -0.5716
 1817SOL    HW117087   3.986   1.032   1.949  1.4624  1.3535  0.6648
 1817SOL    HW217088   3.870   1.114   1.996 -0.4659  0.1358  1.4528
 1818SOL     OW17089   0.816   4.073   6.445 -0.0084  0.3714 -0.2018
 1818SOL    HW117090   0.852   4.082   6.357  2.4904  0.0129  0.7694
 1818SOL    HW217091   0.856   4.148   6.489 -1.4150  1.3291 -0.5586
 1819SOL     OW17092   2.554   0.150  14.046  0.3506  0.2971 -0.5583
 1819SOL    HW117093   2.632   0.141  13.992  3.1347 -0.0083  3.5249
 1819SOL    HW217094   2.487   0.104  13.994 -1.4286  0.3977  1.6481
 1820SOL     OW17095   0.854   3.903  15.129 -0.1912  0.0913  0.7004
 1820SOL    HW117096   0.878   3.832  15.069  1.0829  0.1803  1.0966
 1820SOL    HW217097   0.929   3.913  15.188  1.6841 -1.7445 -1.3567
 1821SOL     OW17098   3.034   4.236  11.303 -0.5203  0.1244  0.6551
 1821SOL    HW117099   3.080   4.156  11.277 -0.4604  0.2999  0.2195
 1821SOL    HW217100   3.113   4.277  11.338  0.7274 -1.0442 -0.8013
 1822SOL     OW17101   4.666   3.374  17.615  0.1793 -0.0166 -0.5712
 1822SOL    HW117102   4.670   3.311  17.544  1.4125 -0.0335 -0.4761
 1822SOL    HW217103   4.697   3.318  17.687  0.3051 -1.5993 -1.8691
 1823SOL     OW17104   3.011   2.609   3.262  0.2516 -0.8039  0.3539
 1823SOL    HW117105   2.918   2.598   3.241  0.6039  1.2152 -2.3594
 1823SOL    HW217106   3.002   2.624   3.356  2.0310 -0.5006  0.4688
 1824SOL     OW17107   0.385   2.222  14.459 -0.1982 -0.3388 -0.0861
 1824SOL    HW117108   0.452   2.284  14.488 -0.5372 -1.0724  2.2487
 1824SOL    HW217109   0.391   2.149  14.522  1.5530 -1.2744 -1.3295
 1825SOL     OW17110   2.362   2.896   7.688  0.1212  0.9906  0.6234
 1825SOL    HW117111   2.320   2.962   7.633 -1.2027 -0.9866 -0.7679
 1825SOL    HW217112   2.386   2.954   7.760  1.4885  1.1615  0.0477
 1826SOL     OW17113   4.647   2.263  13.006 -0.2353  0.4910  0.0228
 1826SOL    HW117114   4.732   2.296  12.975  0.6170 -0.6740  1.0896
 1826SOL    HW217115   4.651   2.299  13.095  3.0469 -0.9306  0.4749
 1827SOL     OW17116   1.615   0.017   6.623  0.1542 -0.1274  0.4745
 1827SOL    HW117117   1.561   4.714   6.553  0.3596 -0.4485  0.4860
 1827SOL    HW217118   1.694   4.698   6.618  0.6319  0.5037  1.2515
 1828SOL     OW17119   3.500   1.247   6.113  0.3799  0.1035  0.1451
 1828SOL    HW117120   3.448   1.212   6.041  0.3355  2.3328 -0.8916
 1828SOL    HW217121   3.569   1.298   6.071  1.1182 -1.2812 -0.3482
 1829SOL     OW17122   1.533   0.359   2.411 -1.0118  0.1807  0.4974
 1829SOL    HW117123   1.550   0.453   2.400 -1.6459  0.2509  0.1041
 1829SOL    HW217124   1.565   0.331   2.497  1.1434 -1.1446 -0.7492
 1830SOL     OW17125   1.144   4.624   8.315 -0.7494  0.3014  0.0417
 1830SOL    HW117126   1.159   4.542   8.363  1.2147  0.4293 -0.3484
 1830SOL    HW217127   1.185   4.697   8.361 -1.5132  1.2646 -0.8160
 1831SOL     OW17128   2.345   3.899  16.998  0.5317 -0.1051  0.4215
 1831SOL    HW117129   2.440   3.902  16.987  0.6575 -4.2434  0.1963
 1831SOL    HW217130   2.336   3.921  17.091 -1.6994  0.0235  0.1743
 1832SOL     OW17131   1.015   0.733   7.574  0.4988 -0.2814  0.5549
 1832SOL    HW117132   1.003   0.720   7.668  0.4277 -1.5742  0.3745
 1832SOL    HW217133   1.051   0.820   7.561 -0.1566 -0.3260 -1.6399
 1833SOL     OW17134   4.247   3.370   6.708 -0.5443  0.2321  0.3329
 1833SOL    HW117135   4.274   3.402   6.622 -0.1514  1.4381  0.9152
 1833SOL    HW217136   4.336   3.352   6.738 -0.8169 -1.4245  0.1818
 1834SOL     OW17137   0.637   3.093   3.574 -0.3202 -0.0711  0.7373
 1834SOL    HW117138   0.717   3.144   3.559 -1.9614  1.8928 -1.2759
 1834SOL    HW217139   0.615   3.105   3.666  0.9738  2.8999  0.6493
 1835SOL     OW17140   3.510   3.936   4.437 -0.1514 -0.1500 -0.4642
 1835SOL    HW117141   3.542   3.846   4.440 -0.2145 -0.2159 -2.0169
 1835SOL    HW217142   3.423   3.920   4.401 -0.2878  2.6226 -1.4027
 1836SOL     OW17143   0.944   4.227   8.860 -0.3864 -0.1097  0.1961
 1836SOL    HW117144   1.011   4.295   8.854 -1.7891  1.2384 -0.0307
 1836SOL    HW217145   0.870   4.286   8.851  0.3441  0.6596 -0.7308
 1837SOL     OW17146   3.190   4.151  13.714  0.0841  0.0715 -0.1152
 1837SOL    HW117147   3.167   4.244  13.709 -1.0152 -0.1242  1.2895
 1837SOL    HW217148   3.144   4.129  13.795  2.4766  1.1010  1.5076
 1838SOL     OW17149   2.083   3.888   9.954  0.5374  0.5971 -0.1768
 1838SOL    HW117150   2.010   3.860   9.899  0.4625 -0.1151  0.2795
 1838SOL    HW217151   2.112   3.966   9.907  2.3470  0.2775  0.4289
 1839SOL     OW17152   1.303   3.082   6.752 -0.0804 -0.8941  0.1434
 1839SOL    HW117153   1.222   3.043   6.717 -0.3382 -0.7664  0.6011
 1839SOL    HW217154   1.358   3.074   6.674  1.3101  0.0137  1.0338
 1840SOL     OW17155   1.481   2.960   2.056  0.0616 -0.1167 -0.1610
 1840SOL    HW117156   1.505   2.869   2.069  0.8770  0.1872  0.5236
 1840SOL    HW217157   1.533   2.980   1.978 -0.3808  0.2811 -0.3550
 1841SOL     OW17158   4.417   3.841   7.629 -0.5104 -0.3442 -0.1210
 1841SOL    HW117159   4.404   3.861   7.537  1.0023 -0.3265 -0.3326
 1841SOL    HW217160   4.327   3.831   7.660 -0.0813  0.1630  1.3164
 1842SOL     OW17161   3.358   3.822  13.477  0.3820 -0.2911  0.3912
 1842SOL    HW117162   3.432   3.784  13.526  1.2982  1.8082  0.6057
 1842SOL    HW217163   3.401   3.804  13.394 -1.1067  1.4323 -0.7222
 1843SOL     OW17164   2.812   1.990   2.494  0.3673 -0.3276 -0.5597
 1843SOL    HW117165   2.771   2.003   2.408 -2.2933 -2.7842  0.3475
 1843SOL    HW217166   2.861   2.072   2.503 -0.2626 -0.1785  1.4156
 1844SOL     OW17167   3.342   1.557  16.225  0.3222 -0.0371  0.3760
 1844SOL    HW117168   3.310   1.603  16.147 -0.2294 -2.4552 -0.8249
 1844SOL    HW217169   3.341   1.625  16.292  0.4462  0.2825  0.0562
 1845SOL     OW17170   4.710   3.371   8.709  0.1411 -0.5122  0.0818
 1845SOL    HW117171   4.625   3.361   8.751  0.5789 -2.7212  0.4640
 1845SOL    HW217172   4.718   3.286   8.665  0.7963 -0.6540  0.4767
 1846SOL     OW17173   1.557   0.976   8.945  0.4974 -0.1905 -0.5071
 1846SOL    HW117174   1.603   0.971   9.029  0.1823 -1.4264 -0.4119
 1846SOL    HW217175   1.469   0.968   8.982  1.7045  0.9140  2.5688
 1847SOL     OW17176   1.207   1.227   1.004  0.3140 -0.3610 -0.4152
 1847SOL    HW117177   1.165   1.252   0.921 -0.2082  0.3025  0.0501
 1847SOL    HW217178   1.134   1.233   1.064  0.0131 -1.1161 -0.7050
 1848SOL     OW17179   2.733   1.730   3.178 -0.1844  0.2327  0.5873
 1848SOL    HW117180   2.711   1.750   3.087  1.2060 -4.5371 -0.8144
 1848SOL    HW217181   2.651   1.738   3.226 -1.5691 -1.8618 -1.4026
 1849SOL     OW17182   0.396   2.788   3.940 -0.3391  0.2640  0.2122
 1849SOL    HW117183   0.445   2.730   3.999 -0.0401 -1.3012 -1.5673
 1849SOL    HW217184   0.314   2.738   3.930  0.9216 -1.8651  0.4036
 1850SOL     OW17185   1.122   1.851   9.981 -0.5100  0.4401 -0.0963
 1850SOL    HW117186   1.060   1.854   9.908  0.2962  1.0527 -0.7536
 1850SOL    HW217187   1.211   1.855   9.945 -1.2085  0.8498 -1.7693
 1851SOL     OW17188   3.269   3.616  16.433  0.5127 -0.3061  0.2320
 1851SOL    HW117189   3.336   3.642  16.370 -1.0742  0.9539 -0.9203
 1851SOL    HW217190   3.281   3.696  16.486  1.1225  0.0911 -0.5050
 1852SOL     OW17191   2.353   0.249   4.370  0.3613  0.1507  0.4830
 1852SOL    HW117192   2.341   0.186   4.299 -2.5862  0.5549  0.5929
 1852SOL    HW217193   2.428   0.295   4.331  0.5431  1.2784  2.1604
 1853SOL     OW17194   3.364   0.437  15.551  0.1934 -0.0376 -0.1077
 1853SOL    HW117195   3.437   0.498  15.559 -0.1097  0.3034  0.0255
 1853SOL    HW217196   3.375   0.401  15.639 -0.8545 -0.6744 -0.2285
 1854SOL     OW17197   1.098   1.479  12.621  0.2440 -0.2209 -0.3241
 1854SOL    HW117198   1.101   1.389  12.653 -2.5913 -0.0819  0.3026
 1854SOL    HW217199   1.168   1.517  12.674 -0.6878 -0.9237  1.3996
 1855SOL     OW17200   0.389   0.342  10.240  0.1709  0.1010  0.1608
 1855SOL    HW117201   0.483   0.347  10.259  0.8225 -0.3422 -2.9663
 1855SOL    HW217202   0.347   0.321  10.323 -1.2575  2.7689  0.1091
 1856SOL     OW17203   3.348   3.180   2.169 -0.1336 -0.4493  0.1212
 1856SOL    HW117204   3.404   3.209   2.096 -2.0550  0.8909 -0.8335
 1856SOL    HW217205   3.340   3.259   2.222  1.6158  0.3272 -0.7670
 1857SOL     OW17206   0.449   0.977   9.068  0.2889 -0.0618  0.0179
 1857SOL    HW117207   0.444   0.940   9.156  0.9961 -1.1894 -0.4143
 1857SOL    HW217208   0.367   0.938   9.038  0.6628 -0.4952 -0.4436
 1858SOL     OW17209   3.872   3.504   6.979 -0.0909 -0.5057  0.2155
 1858SOL    HW117210   3.945   3.532   7.034  1.8492 -1.3311 -1.9117
 1858SOL    HW217211   3.894   3.553   6.900 -0.4391 -0.0840  0.3809
 1859SOL     OW17212   2.547   3.350   6.136  0.5820  0.2500  0.0306
 1859SOL    HW117213   2.585   3.285   6.195  1.0249 -1.3570 -2.0137
 1859SOL    HW217214   2.457   3.338   6.166  1.0940  1.3651  2.0358
 1860SOL     OW17215   1.469   0.650   7.526  0.3701  0.3966  0.3739
 1860SOL    HW117216   1.388   0.600   7.536  1.7515 -1.9261  0.0107
 1860SOL    HW217217   1.427   0.736   7.532 -1.1265 -0.0985 -2.6186
 1861SOL     OW17218   2.416   1.930   3.110 -0.5216  0.2254  0.2817
 1861SOL    HW117219   2.416   1.943   3.205  3.2930 -1.1284  0.4721
 1861SOL    HW217220   2.346   1.991   3.085  0.1292  1.8332  2.3800
 1862SOL     OW17221   3.742   0.109   1.269  0.8502  0.9192  0.2622
 1862SOL    HW117222   3.698   0.036   1.311  0.1916 -0.1033 -2.2117
 1862SOL    HW217223   3.825   0.070   1.241  1.6027  2.7519 -0.0900
 1863SOL     OW17224   2.847   0.062   1.957  0.1559 -0.1183  0.2072
 1863SOL    HW117225   2.766   0.011   1.961  0.6049 -0.8723 -0.1814
 1863SOL    HW217226   2.895   4.731   2.008  1.3489 -0.6599 -1.5962
 1864SOL     OW17227   2.354   3.000  12.075  0.6074  0.4367 -0.4701
 1864SOL    HW117228   2.347   2.916  12.120 -0.6304 -0.0941 -1.6638
 1864SOL    HW217229   2.447   3.008  12.057 -0.1108  3.6701 -2.6772
 1865SOL     OW17230   3.341   2.146   2.556 -0.5306  0.4516 -0.0169
 1865SOL    HW117231   3.342   2.052   2.575 -1.2010 -0.0739 -2.5908
 1865SOL    HW217232   3.404   2.180   2.619 -1.9605  2.2284  0.4575
 1866SOL     OW17233   2.276   2.403  12.183  0.5199 -0.3443 -0.3107
 1866SOL    HW117234   2.338   2.370  12.247 -0.1611 -0.3401  0.3545
 1866SOL    HW217235   2.322   2.365  12.108  0.0650 -0.9682 -0.2788
 1867SOL     OW17236   2.982   2.129   3.230 -0.3591 -0.5470  0.2178
 1867SOL    HW117237   2.926   2.118   3.307 -1.4846 -0.0387 -0.5226
 1867SOL    HW217238   2.970   2.045   3.186 -0.4170 -0.5626  0.2633
 1868SOL     OW17239   3.053   4.552   4.496  0.0640  0.5594  0.0785
 1868SOL    HW117240   3.145   4.543   4.471  0.0175  0.6338 -0.1153
 1868SOL    HW217241   3.005   4.535   4.415  1.4528  0.0034 -0.6272
 1869SOL     OW17242   3.925   2.136  13.894  0.1509 -0.3504  0.3080
 1869SOL    HW117243   4.005   2.151  13.944 -0.0278  1.7002 -0.0267
 1869SOL    HW217244   3.858   2.102  13.954 -0.6006  0.5708 -0.0136
 1870SOL     OW17245   3.934   1.960  12.790  0.0167 -0.0787  0.1625
 1870SOL    HW117246   4.018   2.000  12.768  0.0546  0.4853  1.3212
 1870SOL    HW217247   3.950   1.932  12.880 -0.2322  0.2908  0.3227
 1871SOL     OW17248   2.062   2.379   8.261  0.4365 -0.0364 -0.4316
 1871SOL    HW117249   2.016   2.393   8.344  0.6079  1.8676 -0.6472
 1871SOL    HW217250   1.993   2.340   8.207  0.3134  2.5206 -2.1299
 1872SOL     OW17251   1.559   0.822   4.521 -0.5025  0.0857 -0.4458
 1872SOL    HW117252   1.630   0.762   4.500 -1.0683 -0.1309 -1.7672
 1872SOL    HW217253   1.503   0.759   4.566  1.1387 -0.7033  0.4662
 1873SOL     OW17254   2.209   2.888   4.459 -0.2404  0.1128  0.1302
 1873SOL    HW117255   2.260   2.872   4.538  0.2046 -0.7192 -0.3200
 1873SOL    HW217256   2.164   2.968   4.484  0.4227 -0.3469  2.7608
 1874SOL     OW17257   0.326   3.367   2.886 -0.5532  0.2804 -0.2279
 1874SOL    HW117258   0.415   3.355   2.852 -0.3597  0.5351  0.1956
 1874SOL    HW217259   0.321   3.447   2.937  0.3792  0.6676 -0.7330
 1875SOL     OW17260   4.519   3.204   1.981 -0.5572 -0.4439 -0.1016
 1875SOL    HW117261   4.451   3.248   2.032  0.0880 -0.5599  0.8636
 1875SOL    HW217262   4.508   3.261   1.905  3.0698  0.9374  0.4087
 1876SOL     OW17263   3.231   0.088   6.835 -0.6732 -0.3518 -0.1269
 1876SOL    HW117264   3.220   0.029   6.911 -0.8853  1.5865  1.3363
 1876SOL    HW217265   3.253   0.027   6.765  2.4301  1.5307 -0.8089
 1877SOL     OW17266   3.511   3.529  11.689  0.0494 -0.1423 -0.5058
 1877SOL    HW117267   3.448   3.598  11.668  0.0976  0.9210  2.9259
 1877SOL    HW217268   3.549   3.525  11.601 -0.3257  0.2090 -0.6823
 1878SOL     OW17269   2.869   4.296   8.305 -0.1005  0.2457 -0.5382
 1878SOL    HW117270   2.872   4.231   8.375  1.4839  0.1695 -0.6620
 1878SOL    HW217271   2.849   4.228   8.240 -1.2224  0.2188 -0.1496
 1879SOL     OW17272   3.699   4.087   8.636  0.3098 -0.3151  0.8349
 1879SOL    HW117273   3.751   4.074   8.716 -0.8089  2.8723  2.1148
 1879SOL    HW217274   3.739   4.174   8.627 -0.4886  0.0774  1.0656
 1880SOL     OW17275   0.785   1.663   3.796  0.1121 -0.1560 -0.1394
 1880SOL    HW117276   0.746   1.748   3.774  0.6777  0.5683  1.7222
 1880SOL    HW217277   0.877   1.690   3.804  0.2466 -0.2128 -1.4548
 1881SOL     OW17278   4.558   3.498   1.319  0.6037  0.8746  0.1712
 1881SOL    HW117279   4.503   3.506   1.397  0.9902  2.5390  0.2616
 1881SOL    HW217280   4.513   3.442   1.256 -2.1970  0.9889  2.0605
 1882SOL     OW17281   1.351   1.641   3.727 -0.2202 -0.3323 -0.3806
 1882SOL    HW117282   1.418   1.687   3.678  1.6678 -0.6189  1.9495
 1882SOL    HW217283   1.286   1.705   3.756 -0.5468 -1.2296  0.9006
 1883SOL     OW17284   2.612   2.228   7.171  0.1239 -0.0399 -0.5632
 1883SOL    HW117285   2.566   2.165   7.116  0.4700 -2.9791  2.4641
 1883SOL    HW217286   2.581   2.312   7.139 -0.5336  0.3234  0.9972
 1884SOL     OW17287   0.195   0.551   1.071  0.1422 -0.5852  0.1827
 1884SOL    HW117288   0.206   0.509   1.156 -0.2428 -1.6887 -0.3000
 1884SOL    HW217289   0.283   0.573   1.043  0.0215 -0.8299 -0.4158
 1885SOL     OW17290   0.301   0.985   4.409 -0.7743  0.0067  0.5964
 1885SOL    HW117291   0.346   0.901   4.394  0.1865  0.7025 -0.4459
 1885SOL    HW217292   0.289   1.011   4.318 -2.6925 -4.0842 -0.3221
 1886SOL     OW17293   1.455   4.203   3.088  0.0347 -0.0999  0.1509
 1886SOL    HW117294   1.392   4.132   3.104 -0.9759  0.0047 -3.3636
 1886SOL    HW217295   1.530   4.152   3.061  0.9751  0.5718  1.4752
 1887SOL     OW17296   1.219   3.060   9.958 -0.6554 -0.1138 -0.0042
 1887SOL    HW117297   1.295   3.018  10.000 -0.8839 -0.3504  0.1753
 1887SOL    HW217298   1.224   3.140  10.009  0.7691  0.3137 -0.8116
 1888SOL     OW17299   0.486   4.409  14.236  0.2725 -0.5452  0.4057
 1888SOL    HW117300   0.429   4.363  14.297 -0.8160 -1.0561 -0.9808
 1888SOL    HW217301   0.565   4.356  14.239  2.5045  2.6973 -1.5535
 1889SOL     OW17302   3.741   1.810   8.459 -0.1815  0.3268 -0.4749
 1889SOL    HW117303   3.666   1.812   8.399 -0.6756 -0.4762  0.1080
 1889SOL    HW217304   3.710   1.746   8.524 -0.6818  1.8052  0.7567
 1890SOL     OW17305   3.835   1.759  12.173 -0.3895 -0.2256  0.1865
 1890SOL    HW117306   3.897   1.690  12.149 -0.3764  0.7264 -2.5031
 1890SOL    HW217307   3.771   1.769  12.103  1.4066 -0.1059 -1.4421
 1891SOL     OW17308   4.499   1.438  10.706  0.2708  0.4111 -0.0952
 1891SOL    HW117309   4.420   1.476  10.669  0.2219 -0.6243 -1.0644
 1891SOL    HW217310   4.534   1.512  10.755  0.2189  1.3335 -1.4540
 1892SOL     OW17311   2.722   0.286   1.624  0.4863  0.3778 -0.1462
 1892SOL    HW117312   2.791   0.220   1.616  1.0668  0.7999  1.3602
 1892SOL    HW217313   2.692   0.276   1.715  0.2582 -2.3442 -0.5124
 1893SOL     OW17314   4.133   4.154   2.521  0.0690  0.3696 -0.2284
 1893SOL    HW117315   4.076   4.099   2.575  0.8926 -0.1303  0.1386
 1893SOL    HW217316   4.218   4.110   2.517 -1.6007 -2.8257 -0.5176
 1894SOL     OW17317   3.854   2.710   1.395  0.3730  0.0246 -0.4823
 1894SOL    HW117318   3.857   2.619   1.364  0.2486 -0.5756  1.2290
 1894SOL    HW217319   3.825   2.759   1.319  2.8861 -1.3946 -2.3622
 1895SOL     OW17320   3.076   3.642   6.211 -0.1409  0.1649  0.0518
 1895SOL    HW117321   3.089   3.596   6.128 -0.8357 -0.0945  0.0890
 1895SOL    HW217322   2.995   3.687   6.189  0.6061  1.6244  0.2817
 1896SOL     OW17323   1.799   4.191   4.799  0.3274  0.0434  0.2762
 1896SOL    HW117324   1.843   4.267   4.837 -1.3380  2.4970 -2.7167
 1896SOL    HW217325   1.868   4.169   4.737  0.2232 -0.6156  0.3888
 1897SOL     OW17326   0.962   3.360  16.312 -0.3808 -1.0279 -0.0410
 1897SOL    HW117327   0.910   3.346  16.233 -1.2441  0.4199  0.2700
 1897SOL    HW217328   1.049   3.334  16.283 -0.0751  0.3978 -0.4099
 1898SOL     OW17329   1.226   2.637   5.162  0.0242  0.0879  0.0607
 1898SOL    HW117330   1.295   2.693   5.198 -0.5654  2.4902 -2.5628
 1898SOL    HW217331   1.277   2.557   5.175  0.3612  0.3705  0.4780
 1899SOL     OW17332   3.558   3.889  16.981  0.2392  0.3074 -0.4495
 1899SOL    HW117333   3.595   3.925  17.062 -1.0682 -0.8719  0.6705
 1899SOL    HW217334   3.499   3.817  17.003  0.0620  0.9133  1.0791
 1900SOL     OW17335   0.061   0.244   1.998  0.3121 -0.3325 -0.0103
 1900SOL    HW117336   0.066   0.237   2.094 -1.6740 -2.0530 -0.0214
 1900SOL    HW217337   0.147   0.283   1.984 -0.9378  1.5196 -2.4659
 1901SOL     OW17338   3.395   1.769   6.237 -0.5878 -0.2229 -0.0675
 1901SOL    HW117339   3.332   1.769   6.310 -0.9159  2.3933 -0.3348
 1901SOL    HW217340   3.379   1.679   6.209 -1.7132 -0.6612  2.0146
 1902SOL     OW17341   2.235   2.978   4.064  0.7719  0.0942  0.4626
 1902SOL    HW117342   2.154   3.029   4.071  0.2716 -0.6391 -0.0466
 1902SOL    HW217343   2.264   3.010   3.979  1.2551  2.1123  1.3982
 1903SOL     OW17344   3.091   2.304   2.254  0.4557 -0.2064  0.4394
 1903SOL    HW117345   3.011   2.331   2.299  1.4536  1.4083  1.2193
 1903SOL    HW217346   3.065   2.301   2.162 -1.1210  0.2928  0.8725
 1904SOL     OW17347   0.810   2.792   4.823 -0.1214 -0.0453 -0.1164
 1904SOL    HW117348   0.785   2.700   4.813 -2.8246  0.8704 -1.7793
 1904SOL    HW217349   0.896   2.782   4.865  0.7373  0.5971 -1.7077
 1905SOL     OW17350   3.709   2.138   1.203 -0.0561 -0.5292 -0.0272
 1905SOL    HW117351   3.801   2.116   1.191  0.2224  0.7379 -0.2448
 1905SOL    HW217352   3.718   2.231   1.182 -1.3440 -0.4216 -0.1485
 1906SOL     OW17353   1.048   0.849   6.817  0.8933  0.6503  0.1925
 1906SOL    HW117354   1.025   0.852   6.910  0.5151 -1.2511  0.1527
 1906SOL    HW217355   0.992   0.922   6.791  2.4220  1.6845 -0.2617
 1907SOL     OW17356   1.568   4.672   3.351 -0.5627 -0.2265  0.2824
 1907SOL    HW117357   1.595   4.597   3.297  0.5043  0.8510 -0.6812
 1907SOL    HW217358   1.521   4.625   3.419 -1.0666  2.6479  1.9017
 1908SOL     OW17359   2.710   0.807   1.637  0.1768 -0.6785 -0.3472
 1908SOL    HW117360   2.744   0.849   1.716  0.3019 -0.5430 -0.4711
 1908SOL    HW217361   2.790   0.764   1.606 -0.7907 -2.6882 -0.0729
 1909SOL     OW17362   2.934   4.497   2.710  0.6634  0.0215 -0.4679
 1909SOL    HW117363   2.873   4.513   2.638  0.0307  0.8599  0.2657
 1909SOL    HW217364   2.947   4.590   2.728 -1.3008  0.0682  0.7231
 1910SOL     OW17365   2.225   0.377   2.307 -0.4977  0.6784  0.6490
 1910SOL    HW117366   2.137   0.342   2.318  0.0202 -1.2645 -1.5043
 1910SOL    HW217367   2.249   0.404   2.396  0.6969  0.0963  0.4979
 1911SOL     OW17368   2.532   3.511   2.530  0.2791 -0.5781  0.0868
 1911SOL    HW117369   2.484   3.433   2.502  0.4834  0.0334 -2.0114
 1911SOL    HW217370   2.504   3.517   2.621 -1.3046  1.8511 -0.5465
 1912SOL     OW17371   3.172   2.761  13.020 -1.5559  0.2841 -0.1928
 1912SOL    HW117372   3.170   2.839  13.076 -1.6540  0.2174 -0.1020
 1912SOL    HW217373   3.265   2.737  13.026 -0.6908  3.7498  0.1811
 1913SOL     OW17374   4.678   2.524   5.196 -0.3428 -0.4556 -0.4367
 1913SOL    HW117375   4.613   2.454   5.204  0.9742 -1.3178  2.5332
 1913SOL    HW217376   4.681   2.551   5.288 -1.1030 -0.7271 -0.3319
 1914SOL     OW17377   2.427   0.075   9.188 -0.1994  0.2183 -0.2140
 1914SOL    HW117378   2.444   0.053   9.097 -3.7973 -0.6761 -0.6846
 1914SOL    HW217379   2.407   4.726   9.229  0.5482  1.2544  2.2474
 1915SOL     OW17380   0.303   1.450   7.659  0.7314 -0.1899  0.3278
 1915SOL    HW117381   0.375   1.485   7.712  0.8725 -1.2586  0.8605
 1915SOL    HW217382   0.240   1.408   7.718  0.7331  0.2124  0.6121
 1916SOL     OW17383   1.874   2.695   3.511 -0.7903 -0.3408  0.0437
 1916SOL    HW117384   1.780   2.693   3.532  0.0042 -1.8114  3.3835
 1916SOL    HW217385   1.898   2.783   3.538 -0.4264 -0.3506 -0.2546
 1917SOL     OW17386   3.947   0.148   4.835  0.1730  0.6096 -0.2238
 1917SOL    HW117387   4.026   0.133   4.887  0.0346  0.4942 -0.0481
 1917SOL    HW217388   3.883   0.174   4.900 -0.9590  0.2173 -1.1826
 1918SOL     OW17389   1.859   1.314   2.296 -0.0086  0.0754  0.3612
 1918SOL    HW117390   1.819   1.391   2.336 -1.5948  0.3311 -1.6939
 1918SOL    HW217391   1.881   1.359   2.214 -0.5449  0.3356  0.3603
 1919SOL     OW17392   4.416   3.456   0.065  0.2552 -0.1553 -0.1605
 1919SOL    HW117393   4.441   3.364   0.072  2.4358  0.4944  0.4537
 1919SOL    HW217394   4.452   3.491   0.146  0.9049 -0.9472 -0.1080
 1920SOL     OW17395   2.206   4.279  16.202  0.1203  0.5304  0.1603
 1920SOL    HW117396   2.228   4.206  16.259 -3.3830 -0.4595  0.2934
 1920SOL    HW217397   2.242   4.358  16.243  1.6871 -0.7624  1.2415
 1921SOL     OW17398   1.768   0.704   9.690 -0.5607  0.0786  0.0873
 1921SOL    HW117399   1.862   0.690   9.701 -0.3445  0.6131 -1.0804
 1921SOL    HW217400   1.753   0.649   9.612  1.6689  0.1176 -0.3566
 1922SOL     OW17401   2.466   0.487   7.395  0.5150  0.2174 -0.0283
 1922SOL    HW117402   2.460   0.552   7.325 -0.6243  0.7504  0.5645
 1922SOL    HW217403   2.554   0.510   7.424  0.3496  0.2250  0.4626
 1923SOL     OW17404   2.275   1.001  16.712  0.0957 -0.2480 -0.2117
 1923SOL    HW117405   2.296   1.046  16.794 -0.6268 -0.5630  0.1503
 1923SOL    HW217406   2.226   1.070  16.668  0.9727 -0.2715 -1.2134
 1924SOL     OW17407   1.442   2.073   3.819  0.1735  0.5065  0.3300
 1924SOL    HW117408   1.411   2.120   3.742  0.1870 -0.5816 -0.3340
 1924SOL    HW217409   1.416   2.121   3.897  0.4993  1.4041 -0.1202
 1925SOL     OW17410   2.658   4.185   9.531 -0.2266  0.1499 -0.2502
 1925SOL    HW117411   2.698   4.098   9.524 -1.0076 -0.2801  0.6787
 1925SOL    HW217412   2.709   4.217   9.456  0.3960  0.1493  0.1800
 1926SOL     OW17413   1.053   1.031   2.267 -0.0107  0.0742 -0.0122
 1926SOL    HW117414   1.038   0.990   2.352  1.3763  1.9800  1.1344
 1926SOL    HW217415   0.987   1.101   2.268 -0.7471 -0.6259  0.7904
 1927SOL     OW17416   3.584   4.128  17.476  0.1185 -0.2745 -0.0923
 1927SOL    HW117417   3.612   4.206  17.428 -1.7409  0.6104  0.2841
 1927SOL    HW217418   3.638   4.140  17.554  1.3894 -0.1126 -0.9945
 1928SOL     OW17419   4.588   2.323   1.344 -0.0987  0.8440 -0.2878
 1928SOL    HW117420   4.646   2.381   1.294 -1.3747  0.8542 -1.7764
 1928SOL    HW217421   4.552   2.272   1.271 -1.2345  0.2286  0.7209
 1929SOL     OW17422   4.331   0.723   6.579  0.3388  0.2080 -0.2067
 1929SOL    HW117423   4.311   0.644   6.629 -1.0433  2.1801  2.3393
 1929SOL    HW217424   4.266   0.725   6.508 -1.7277  0.7208  1.7018
 1930SOL     OW17425   1.815   4.594   3.869 -0.0058  0.6356  0.3692
 1930SOL    HW117426   1.869   4.667   3.901 -2.7079  3.2016 -0.8475
 1930SOL    HW217427   1.865   4.555   3.798 -0.1023  0.1277  0.5849
 1931SOL     OW17428   3.904   1.554   8.179 -0.2516  0.1595 -0.0464
 1931SOL    HW117429   3.872   1.470   8.144  0.4016 -0.1711  0.1399
 1931SOL    HW217430   3.907   1.531   8.272 -1.4871 -1.3737 -0.3880
 1932SOL     OW17431   4.573   0.860   6.130 -0.3218  0.6923 -0.3467
 1932SOL    HW117432   4.521   0.939   6.148 -0.7917  0.4814 -0.8044
 1932SOL    HW217433   4.604   0.875   6.041 -0.1304 -1.1432 -0.5763
 1933SOL     OW17434   1.159   3.899   0.779  0.0091 -0.2681  0.2918
 1933SOL    HW117435   1.212   3.979   0.783 -0.0543 -0.1558 -1.4558
 1933SOL    HW217436   1.079   3.929   0.823 -0.2362  1.2207 -1.2068
 1934SOL     OW17437   0.653   2.814   0.264  0.2730  0.0973  0.1725
 1934SOL    HW117438   0.559   2.826   0.282  0.1783  1.0420 -1.0050
 1934SOL    HW217439   0.638   2.738   0.207 -2.0174  0.7538 -0.1269
 1935SOL     OW17440   4.505   3.201   0.088 -0.3478 -0.0695  0.4198
 1935SOL    HW117441   4.597   3.188   0.113 -0.8198 -2.8415  0.6502
 1935SOL    HW217442   4.488   3.123   0.036  0.9945  0.1755 -0.3929
 1936SOL     OW17443   0.461   2.401  10.076  0.6573 -0.6194 -0.3663
 1936SOL    HW117444   0.468   2.385   9.982  0.1133 -0.1070 -0.4953
 1936SOL    HW217445   0.464   2.496  10.078  0.0116 -0.5511 -2.1901
 1937SOL     OW17446   2.511   3.605   6.688 -0.3791 -0.5378 -0.6268
 1937SOL    HW117447   2.551   3.664   6.624 -1.5469 -1.1896 -1.9858
 1937SOL    HW217448   2.503   3.526   6.634 -2.5908 -0.2740 -0.7050
 1938SOL     OW17449   2.403   2.955   6.213 -0.0018  0.4170  0.1500
 1938SOL    HW117450   2.319   2.938   6.172 -0.7298  1.6666  1.1062
 1938SOL    HW217451   2.474   2.940   6.151  1.0891 -0.4302  1.5865
 1939SOL     OW17452   0.394   0.510   1.541 -0.1192  0.5031  0.4019
 1939SOL    HW117453   0.468   0.556   1.579  1.0872 -1.9652  1.0325
 1939SOL    HW217454   0.372   0.446   1.609  0.0614  0.4194  0.3789
 1940SOL     OW17455   2.119   4.490  14.503 -0.4261 -0.6210 -1.1342
 1940SOL    HW117456   2.155   4.570  14.465 -0.7883  0.0092 -0.1410
 1940SOL    HW217457   2.027   4.497  14.477 -1.4366 -1.4788  2.2602
 1941SOL     OW17458   0.180   4.184   8.784 -0.3353  0.1830 -0.7201
 1941SOL    HW117459   0.158   4.109   8.729  2.0527 -0.8808 -0.2343
 1941SOL    HW217460   0.260   4.149   8.824 -0.6418 -1.7336 -1.7684
 1942SOL     OW17461   3.525   3.110  11.391 -0.3948  0.0866 -0.1764
 1942SOL    HW117462   3.560   3.124  11.479 -0.8759  0.2890 -0.0190
 1942SOL    HW217463   3.471   3.188  11.380  0.6450  0.8530  0.1173
 1943SOL     OW17464   3.074   3.060  17.538 -0.1409 -0.0759  0.7627
 1943SOL    HW117465   3.079   3.000  17.612  2.7165 -0.8060 -0.0304
 1943SOL    HW217466   3.156   3.044  17.491 -0.5506 -2.6676  0.9613
 1944SOL     OW17467   2.828   4.555   7.986 -0.2701  1.0014  0.2041
 1944SOL    HW117468   2.780   4.522   8.062  1.0519  0.9869  1.0216
 1944SOL    HW217469   2.906   4.592   8.028 -0.4412  1.4683  0.1117
 1945SOL     OW17470   1.966   3.708   1.333 -0.0583  0.1700 -0.0930
 1945SOL    HW117471   1.941   3.622   1.367 -1.4350  0.1331 -1.2250
 1945SOL    HW217472   2.026   3.678   1.264 -0.4314  0.2454 -0.4451
 1946SOL     OW17473   3.430   1.441  12.951  0.3122 -0.0247 -0.1736
 1946SOL    HW117474   3.391   1.455  12.865 -0.0359  1.5757  0.2507
 1946SOL    HW217475   3.518   1.417  12.924 -0.1147 -0.9520 -0.7317
 1947SOL     OW17476   1.502   1.557  11.614 -0.2979 -0.1852 -0.3381
 1947SOL    HW117477   1.414   1.591  11.596 -0.5501 -0.2270  0.8214
 1947SOL    HW217478   1.520   1.596  11.699 -0.5553 -1.6579  0.3844
 1948SOL     OW17479   4.395   3.234   1.664  0.4708 -0.5119 -0.2998
 1948SOL    HW117480   4.344   3.154   1.676  2.2627 -1.6063 -0.0985
 1948SOL    HW217481   4.478   3.191   1.647  1.2878  0.9737 -0.0843
 1949SOL     OW17482   2.069   0.463  13.528 -0.2827 -0.4998 -0.2756
 1949SOL    HW117483   2.024   0.381  13.506  0.7219 -0.8745 -0.9687
 1949SOL    HW217484   2.134   0.473  13.458 -2.0924 -0.3212 -1.9252
 1950SOL     OW17485   2.768   4.352   2.395 -0.5159 -0.2348  0.1451
 1950SOL    HW117486   2.773   4.276   2.452 -0.8911 -1.2283 -1.1508
 1950SOL    HW217487   2.858   4.382   2.408 -0.5482  0.0947 -0.3818
 1951SOL     OW17488   1.355   3.251   1.777  0.1521 -0.1082  0.3919
 1951SOL    HW117489   1.279   3.255   1.719 -0.0904  0.4787  0.7496
 1951SOL    HW217490   1.371   3.157   1.766  2.5547  0.3167  0.1801
 1952SOL     OW17491   1.233   1.314  17.347  0.2984 -1.1236 -0.8270
 1952SOL    HW117492   1.254   1.371  17.421  1.8012 -2.3521 -0.3149
 1952SOL    HW217493   1.319   1.318  17.305 -0.2625 -0.0450 -1.8756
 1953SOL     OW17494   1.973   1.935   0.163  0.1227 -0.0853 -0.4975
 1953SOL    HW117495   1.908   2.005   0.173 -0.4350 -0.3377 -2.2352
 1953SOL    HW217496   1.950   1.871   0.230  0.3435 -0.4670 -0.7909
 1954SOL     OW17497   1.524   2.447  12.244 -0.4819 -0.7704 -0.3600
 1954SOL    HW117498   1.616   2.465  12.264 -0.8826 -0.5391  1.2774
 1954SOL    HW217499   1.520   2.463  12.150  0.6989 -2.3253 -0.6735
 1955SOL     OW17500   3.733   3.775   6.327 -0.1243  0.2803  0.3495
 1955SOL    HW117501   3.719   3.683   6.352  1.5699  0.1665  0.8876
 1955SOL    HW217502   3.785   3.767   6.247  1.8371  1.0875  1.5523
 1956SOL     OW17503   0.373   0.501  17.078 -0.0612  0.1940  0.2055
 1956SOL    HW117504   0.377   0.525  17.171  0.1969 -1.1077  0.5332
 1956SOL    HW217505   0.460   0.538  17.062 -0.4647  0.5343 -1.1552
 1957SOL     OW17506   2.165   2.666   3.010 -0.3731  0.1597  0.4609
 1957SOL    HW117507   2.118   2.670   3.093 -0.2584 -1.7841  0.6053
 1957SOL    HW217508   2.150   2.576   2.984 -0.9745  0.4401 -0.1567
 1958SOL     OW17509   1.588   2.963   4.043 -0.7256 -0.1674  0.3365
 1958SOL    HW117510   1.532   2.980   3.967 -2.0599 -0.6326  1.2043
 1958SOL    HW217511   1.677   2.975   4.011 -0.7478 -0.8637  0.0051
 1959SOL     OW17512   4.487   4.485   3.800 -0.8836 -0.4384  0.5508
 1959SOL    HW117513   4.515   4.516   3.714 -2.2954 -3.3246 -0.9542
 1959SOL    HW217514   4.478   4.568   3.846  1.3741 -0.6088  1.2979
 1960SOL     OW17515   3.267   4.307   2.359  0.2753  0.3362  0.1695
 1960SOL    HW117516   3.217   4.278   2.282  0.6536  2.3084 -0.8254
 1960SOL    HW217517   3.269   4.401   2.341 -0.0846  0.2876 -0.1438
 1961SOL     OW17518   0.946   1.126   9.311  0.1429 -0.4123  0.2659
 1961SOL    HW117519   0.854   1.144   9.290  0.0605 -0.9419  0.1713
 1961SOL    HW217520   0.926   1.120   9.405 -0.5702 -0.4040  0.1156
 1962SOL     OW17521   4.542   4.438   2.364 -0.4612  0.3629 -0.1109
 1962SOL    HW117522   4.544   4.390   2.447  2.1360  2.1780  0.8713
 1962SOL    HW217523   4.448   4.431   2.348 -0.2731 -0.8965 -0.6670
 1963SOL     OW17524   2.633   1.774   2.271  0.0027 -0.1606  0.0195
 1963SOL    HW117525   2.599   1.693   2.232 -2.2163  0.6491  0.3271
 1963SOL    HW217526   2.583   1.843   2.227 -1.5583 -1.0661  0.3791
 1964SOL     OW17527   2.887   0.271   6.464  0.0063  0.0062  0.1110
 1964SOL    HW117528   2.821   0.205   6.487  1.1462 -2.2115 -3.0430
 1964SOL    HW217529   2.961   0.248   6.521  2.0689  3.9896 -0.9411
 1965SOL     OW17530   4.199   2.126  15.091  0.6815  0.3431 -0.4075
 1965SOL    HW117531   4.292   2.111  15.112  0.3937  0.1772  0.7339
 1965SOL    HW217532   4.171   2.036  15.073 -0.5707  0.3953  1.3388
 1966SOL     OW17533   2.594   1.032   1.272 -0.1562  0.1432 -0.0327
 1966SOL    HW117534   2.589   0.992   1.185  0.2653 -0.7179  0.3310
 1966SOL    HW217535   2.683   1.065   1.261 -0.3329  0.3053 -1.0241
 1967SOL     OW17536   2.963   1.012   3.139  0.0897  0.2598  0.0767
 1967SOL    HW117537   3.025   1.041   3.206  0.1904 -0.4030  0.2764
 1967SOL    HW217538   3.013   1.045   3.065  0.0580 -0.3638 -0.2259
 1968SOL     OW17539   4.020   2.796  11.533  0.5382  0.0135  0.1271
 1968SOL    HW117540   3.981   2.858  11.595  2.0625  0.1254  0.9605
 1968SOL    HW217541   4.061   2.854  11.469 -0.3907 -0.5624 -0.9956
 1969SOL     OW17542   4.408   3.830   2.911  0.2869 -0.2416  0.0712
 1969SOL    HW117543   4.336   3.892   2.913  0.5468  0.0364  1.3686
 1969SOL    HW217544   4.478   3.892   2.892  1.2664 -0.6586  2.3089
 1970SOL     OW17545   0.512   0.707   6.522 -0.2662  0.2010  0.0536
 1970SOL    HW117546   0.438   0.647   6.522 -0.0604 -0.0510 -0.0057
 1970SOL    HW217547   0.479   0.767   6.589 -0.9644 -0.5057  0.3364
 1971SOL     OW17548   3.801   3.624  15.386  0.2554  0.3981  0.4367
 1971SOL    HW117549   3.833   3.686  15.452  1.6888  1.7155 -1.4963
 1971SOL    HW217550   3.707   3.642  15.386  0.2635  0.4404  0.4250
 1972SOL     OW17551   2.339   1.700   4.297 -0.4733 -0.3984  0.0280
 1972SOL    HW117552   2.260   1.755   4.296  0.8072  1.4108  0.2068
 1972SOL    HW217553   2.296   1.622   4.262  0.3499  0.2920 -2.5034
 1973SOL     OW17554   3.732   2.549   5.955 -0.0830 -0.2561  0.5373
 1973SOL    HW117555   3.646   2.544   5.914  0.1638  1.2499 -0.1766
 1973SOL    HW217556   3.745   2.456   5.972  0.6977  0.0110  1.4142
 1974SOL     OW17557   0.198   3.314   5.265 -0.3611 -0.1123  0.6216
 1974SOL    HW117558   0.268   3.249   5.260  0.2427  0.5165  1.0759
 1974SOL    HW217559   0.129   3.258   5.230 -1.4122  0.3268  2.0006
 1975SOL     OW17560   1.428   2.848   6.131  0.1782  0.2664 -0.0736
 1975SOL    HW117561   1.451   2.852   6.224 -0.0035  1.8112 -0.1026
 1975SOL    HW217562   1.476   2.916   6.085 -1.1164 -0.9289 -3.1632
 1976SOL     OW17563   3.042   1.070   2.133  0.2024 -0.2573  0.7670
 1976SOL    HW117564   3.104   1.094   2.202  1.2313 -1.6958  0.3394
 1976SOL    HW217565   3.009   1.157   2.107  0.7790 -0.8426 -1.8930
 1977SOL     OW17566   0.410   2.734  14.573  0.2884  0.5887 -0.3908
 1977SOL    HW117567   0.416   2.790  14.495  2.4629  0.8830  0.0147
 1977SOL    HW217568   0.447   2.789  14.641 -1.6899 -0.4753  1.5414
 1978SOL     OW17569   0.428   1.798   7.484  0.3402  0.2210  0.2559
 1978SOL    HW117570   0.360   1.779   7.420  0.8896 -1.1361  0.0794
 1978SOL    HW217571   0.485   1.724   7.464 -0.5240 -0.3091 -0.2095
 1979SOL     OW17572   0.186   2.824   9.113 -0.1471  0.5495 -0.0323
 1979SOL    HW117573   0.107   2.772   9.099 -0.1241  0.2610  0.8888
 1979SOL    HW217574   0.222   2.781   9.191  1.8750 -0.3679 -1.4494
 1980SOL     OW17575   1.538   2.970   1.458  0.3173 -0.4548  0.1590
 1980SOL    HW117576   1.574   2.929   1.379 -2.3638 -3.5164  0.5274
 1980SOL    HW217577   1.618   3.019   1.477 -0.4840  1.0150 -0.3025
 1981SOL     OW17578   1.652   4.503   2.224 -0.0867 -0.3778 -0.0234
 1981SOL    HW117579   1.666   4.417   2.186 -1.8565 -0.5205 -0.3318
 1981SOL    HW217580   1.656   4.551   2.141  2.8574  0.1045  0.3786
 1982SOL     OW17581   2.815   3.366   5.967 -0.4420  1.1439 -0.7189
 1982SOL    HW117582   2.721   3.357   5.954 -0.5823 -0.7995  1.6299
 1982SOL    HW217583   2.836   3.378   5.874  2.1714  1.5927 -0.0594
 1983SOL     OW17584   0.103   0.048   5.056  0.0925 -0.1794  0.3159
 1983SOL    HW117585   0.107   4.687   5.052 -1.6662 -0.3601  2.6305
 1983SOL    HW217586   0.011   0.060   5.082  0.2032  4.1430 -1.2204
 1984SOL     OW17587   4.598   1.346   8.843  0.8184 -0.5078 -0.1031
 1984SOL    HW117588   4.644   1.402   8.781  0.6826 -2.4346 -1.9320
 1984SOL    HW217589   4.571   1.272   8.790 -3.7476  1.2923 -0.2288
 1985SOL     OW17590   1.767   2.165  14.277 -0.5876 -0.1260 -0.3884
 1985SOL    HW117591   1.761   2.081  14.233 -0.8064 -0.2742 -0.0746
 1985SOL    HW217592   1.674   2.183  14.261 -0.4448  0.5545 -0.4646
 1986SOL     OW17593   2.944   3.384  12.647 -0.0998 -0.6717 -0.2189
 1986SOL    HW117594   2.866   3.374  12.702 -0.6910 -2.1343 -1.3076
 1986SOL    HW217595   2.929   3.312  12.586  0.2343 -0.5245 -0.4685
 1987SOL     OW17596   0.113   0.415  16.720 -0.3459  0.8285 -0.6547
 1987SOL    HW117597   0.129   0.509  16.710 -2.1413  1.1772 -0.2876
 1987SOL    HW217598   0.121   0.391  16.627 -0.5092 -3.6272  0.4760
 1988SOL     OW17599   1.614   3.017   4.772 -0.2924  0.1141  0.3407
 1988SOL    HW117600   1.620   2.953   4.701  2.1482 -0.4145  1.0023
 1988SOL    HW217601   1.688   3.072   4.747  0.5336 -0.8657  0.6323
 1989SOL     OW17602   2.517   4.724   4.879 -0.1402  0.0871 -0.0087
 1989SOL    HW117603   2.563   4.650   4.917 -1.2072  0.8421  2.7131
 1989SOL    HW217604   2.565   4.730   4.796 -0.8035  2.1647 -0.2464
 1990SOL     OW17605   0.558   1.698   9.255  0.1999  0.0532 -0.1674
 1990SOL    HW117606   0.528   1.787   9.237  0.2108 -0.1506 -1.2179
 1990SOL    HW217607   0.536   1.657   9.170  0.9444  0.5746 -0.6048
 1991SOL     OW17608   0.798   1.840   9.409  0.0061 -0.2900  0.4319
 1991SOL    HW117609   0.860   1.907   9.439 -0.5330  0.4827 -0.1627
 1991SOL    HW217610   0.831   1.757   9.442  0.0638 -0.3029  0.3435
 1992SOL     OW17611   2.020   2.336   4.837  0.4769  0.4815 -0.4138
 1992SOL    HW117612   2.064   2.252   4.829  1.2973  0.8876 -0.2147
 1992SOL    HW217613   1.934   2.297   4.821 -0.0097  2.1977 -1.9746
 1993SOL     OW17614   2.470   1.283   6.048  0.1387 -0.1790 -0.0689
 1993SOL    HW117615   2.500   1.355   5.992 -0.6063  0.8022  0.8005
 1993SOL    HW217616   2.375   1.279   6.039  0.1692  1.1960 -1.1391
 1994SOL     OW17617   0.752   3.772   9.708 -0.2438 -0.5612 -0.2521
 1994SOL    HW117618   0.731   3.765   9.615 -2.2343 -0.9370  0.2359
 1994SOL    HW217619   0.818   3.703   9.718  1.5067  1.1965  0.2568
 1995SOL     OW17620   0.998   4.263   6.006  0.0165 -0.1974  0.0517
 1995SOL    HW117621   1.059   4.292   6.075  0.3356 -0.0838 -0.2794
 1995SOL    HW217622   1.058   4.246   5.933 -0.6999  0.5598 -0.7135
 1996SOL     OW17623   2.727   3.270   5.185  0.5038 -0.0704 -0.1207
 1996SOL    HW117624   2.807   3.307   5.148  2.1068 -1.8505  1.5561
 1996SOL    HW217625   2.661   3.334   5.157  0.3913 -0.3145 -0.4032
 1997SOL     OW17626   3.367   2.360  13.499 -0.3177 -0.1584  0.3640
 1997SOL    HW117627   3.317   2.387  13.423 -0.6783 -0.4682  0.4866
 1997SOL    HW217628   3.441   2.312  13.460 -0.8748 -0.7407  0.0196
 1998SOL     OW17629   3.700   1.447   8.525 -0.6613 -0.3513  0.0980
 1998SOL    HW117630   3.794   1.437   8.509 -0.6763  2.1427 -1.6101
 1998SOL    HW217631   3.680   1.353   8.524 -1.4449 -0.1721 -2.2261
 1999SOL     OW17632   2.647   4.094   4.758 -0.8917 -0.5371 -0.1145
 1999SOL    HW117633   2.563   4.140   4.753 -1.6556 -1.9053  0.1477
 1999SOL    HW217634   2.675   4.123   4.671  1.3873 -0.7201  0.5638
 2000SOL     OW17635   2.365   4.320  16.999  0.1134 -0.0201 -0.4711
 2000SOL    HW117636   2.361   4.249  17.063 -0.7642 -0.1302 -0.6465
 2000SOL    HW217637   2.460   4.326  16.985  0.1867  1.9484  0.9375
 2001SOL     OW17638   1.921   0.129   8.399  0.1695 -0.1474 -0.0877
 2001SOL    HW117639   1.908   0.038   8.427 -3.3763  0.5694  0.5698
 2001SOL    HW217640   1.863   0.136   8.324 -0.8809  0.0371  0.7421
 2002SOL     OW17641   3.553   3.205   6.461 -0.3655  0.1422 -0.1139
 2002SOL    HW117642   3.517   3.116   6.467 -0.7214  0.4520  2.4541
 2002SOL    HW217643   3.482   3.268   6.453  0.2528  0.9809  1.0883
 2003SOL     OW17644   2.377   4.283   2.893 -0.0179 -0.1025  0.3878
 2003SOL    HW117645   2.359   4.377   2.882  0.3977 -0.3952 -3.0225
 2003SOL    HW217646   2.473   4.275   2.893  0.0593  0.8280  0.7912
 2004SOL     OW17647   2.155   2.917   1.901 -0.0344 -0.1322 -0.0798
 2004SOL    HW117648   2.243   2.906   1.864 -0.6001 -0.5397 -1.2950
 2004SOL    HW217649   2.124   3.004   1.874  0.4039 -0.0522 -0.3260
 2005SOL     OW17650   1.284   3.456  14.761  0.6177  0.5251  0.5088
 2005SOL    HW117651   1.232   3.403  14.821 -0.5378 -0.1690 -1.1139
 2005SOL    HW217652   1.221   3.475  14.691 -0.6096 -0.7436  1.2752
 2006SOL     OW17653   3.922   4.557   2.659 -0.0822 -0.0004  0.0596
 2006SOL    HW117654   3.875   4.636   2.633  1.2713  1.2731  1.4771
 2006SOL    HW217655   3.953   4.524   2.575 -1.8346 -0.6286 -0.3466
 2007SOL     OW17656   3.665   0.582   6.119 -0.1642 -0.0792  0.1543
 2007SOL    HW117657   3.616   0.556   6.196  1.6943 -1.0113  1.0213
 2007SOL    HW217658   3.759   0.576   6.136  0.0844  0.7850 -0.9164
 2008SOL     OW17659   2.192   1.171  10.877 -0.0052 -0.6447  0.5309
 2008SOL    HW117660   2.194   1.260  10.841  3.3566 -1.1535 -0.4899
 2008SOL    HW217661   2.210   1.186  10.970  1.2274 -0.6540  0.3012
 2009SOL     OW17662   1.797   1.009  12.459 -0.0971 -0.0186 -0.1615
 2009SOL    HW117663   1.727   0.978  12.401 -0.1563  0.9040 -0.5829
 2009SOL    HW217664   1.786   0.942  12.526  0.4964 -0.0202 -0.0614
 2010SOL     OW17665   1.332   0.960   2.175 -0.4033 -0.0843  0.2768
 2010SOL    HW117666   1.346   0.936   2.266 -0.8219 -0.4746  0.2376
 2010SOL    HW217667   1.245   1.001   2.182 -0.6461 -0.5093 -0.3461
 2011SOL     OW17668   4.092   0.914   7.215  0.6115  0.0395  0.2126
 2011SOL    HW117669   4.093   0.823   7.245 -0.6519 -0.6304 -1.7901
 2011SOL    HW217670   4.178   0.949   7.240  0.4326 -0.3866  1.4134
 2012SOL     OW17671   1.373   2.621   8.356 -0.4354 -0.3334  0.2034
 2012SOL    HW117672   1.342   2.533   8.334 -1.0607 -0.5471  1.9361
 2012SOL    HW217673   1.310   2.680   8.315  0.6003  1.9103  1.8657
 2013SOL     OW17674   3.050   3.536   5.961 -0.5150  0.6786  0.0372
 2013SOL    HW117675   3.070   3.482   5.884 -2.6559 -0.8165  0.5420
 2013SOL    HW217676   3.013   3.615   5.923 -1.9593 -0.6125 -1.2065
 2014SOL     OW17677   1.730   2.333  12.789 -0.3337 -0.4045 -0.1070
 2014SOL    HW117678   1.772   2.408  12.747 -1.0463 -0.4562 -0.8993
 2014SOL    HW217679   1.638   2.347  12.767 -0.0177  0.4426 -0.8798
 2015SOL     OW17680   2.659   2.357   4.183  0.5791  1.1473  0.1713
 2015SOL    HW117681   2.652   2.429   4.245 -0.3621  0.5492  0.7531
 2015SOL    HW217682   2.692   2.293   4.246 -0.4135  2.7468  2.3268
 2016SOL     OW17683   1.796   2.088   8.899  0.2628 -0.3492  0.1345
 2016SOL    HW117684   1.868   2.143   8.931 -0.9250  0.6289  1.1199
 2016SOL    HW217685   1.782   2.044   8.983 -0.4154  1.4835  0.9804
 2017SOL     OW17686   3.263   0.496   5.253  0.0856 -0.2218 -0.4704
 2017SOL    HW117687   3.173   0.485   5.283 -0.2557 -1.7472 -2.0406
 2017SOL    HW217688   3.257   0.495   5.157 -1.4359 -2.3866 -0.3599
 2018SOL     OW17689   1.585   0.483   5.489  0.4116 -0.2740 -0.3166
 2018SOL    HW117690   1.655   0.523   5.540  0.9252 -0.2511 -1.0472
 2018SOL    HW217691   1.588   0.502   5.395 -0.1794  0.6627 -0.1505
 2019SOL     OW17692   0.700   2.792   0.550 -0.2266 -0.1981  0.3340
 2019SOL    HW117693   0.707   2.806   0.455  0.3031 -0.5040  0.3300
 2019SOL    HW217694   0.626   2.733   0.563  0.2773 -0.8092  0.4064
 2020SOL     OW17695   0.030   1.141  16.313 -0.0803 -0.3545  0.6766
 2020SOL    HW117696   0.078   1.133  16.231  0.0097 -1.8305  0.8694
 2020SOL    HW217697   0.062   1.224  16.349  2.4578 -0.2166 -1.8659
 2021SOL     OW17698   3.177   2.825   2.459  0.0649 -0.3934  0.1597
 2021SOL    HW117699   3.214   2.843   2.546 -0.8503 -0.8147  0.6343
 2021SOL    HW217700   3.250   2.849   2.401  0.6744 -1.3855  0.5137
 2022SOL     OW17701   2.367   2.555  14.544  0.1317 -0.2560  0.5768
 2022SOL    HW117702   2.427   2.626  14.565  0.3621 -0.6149  1.1359
 2022SOL    HW217703   2.365   2.495  14.619  0.0164 -1.0697 -0.0701
 2023SOL     OW17704   3.482   4.344   4.976 -0.2707 -0.4467  0.0914
 2023SOL    HW117705   3.393   4.377   4.990 -0.5413 -0.6185 -1.2706
 2023SOL    HW217706   3.535   4.423   4.986 -1.5993  0.1429  2.4408
 2024SOL     OW17707   0.635   0.015   5.586 -0.0943  0.9413 -0.2944
 2024SOL    HW117708   0.588   0.053   5.512 -2.6311 -1.3413  0.1533
 2024SOL    HW217709   0.714   0.068   5.597  0.1446  0.8258 -1.4889
 2025SOL     OW17710   3.713   1.569   7.593 -0.4681  0.2885  0.0057
 2025SOL    HW117711   3.658   1.602   7.665  0.6095 -2.0997  1.9151
 2025SOL    HW217712   3.651   1.508   7.554 -1.1473  0.7009  0.4231
 2026SOL     OW17713   3.471   1.932   7.183  0.6795 -0.6806  0.1278
 2026SOL    HW117714   3.551   1.903   7.138  1.7304  0.9875  0.9400
 2026SOL    HW217715   3.396   1.888   7.144 -0.4401  0.7464  0.6743
 2027SOL     OW17716   2.993   3.657   9.622 -0.6140  0.0572  0.6155
 2027SOL    HW117717   3.076   3.673   9.666 -0.3446 -1.3264  0.6180
 2027SOL    HW217718   3.015   3.691   9.535 -0.8854 -0.6701  0.2622
 2028SOL     OW17719   2.101   0.901   0.878 -0.1751 -0.0441  0.1513
 2028SOL    HW117720   2.073   0.853   0.956 -0.8345 -0.6109 -0.4345
 2028SOL    HW217721   2.100   0.993   0.903 -1.2310  0.5568 -2.0358
 2029SOL     OW17722   3.355   3.646   5.997 -0.5801  0.2875  0.2232
 2029SOL    HW117723   3.373   3.568   5.944  0.8263  0.0631  1.0513
 2029SOL    HW217724   3.260   3.647   5.984 -0.5951  2.3495  0.5454
 2030SOL     OW17725   0.810   0.882  14.841 -0.2269 -0.2873  0.1843
 2030SOL    HW117726   0.858   0.803  14.818  0.3868 -0.2286  1.2535
 2030SOL    HW217727   0.872   0.934  14.894 -0.5713  0.2505  0.0576
 2031SOL     OW17728   1.376   2.083   7.193 -0.2691 -0.2493 -0.6510
 2031SOL    HW117729   1.438   2.142   7.236  0.3605 -0.0164 -1.8605
 2031SOL    HW217730   1.299   2.090   7.249 -0.7969  0.1551 -1.4121
 2032SOL     OW17731   1.935   2.276   8.013 -0.4965  0.6344  0.1596
 2032SOL    HW117732   1.908   2.330   7.939  0.2185 -1.6247 -1.7394
 2032SOL    HW217733   2.012   2.232   7.976 -1.1970  0.0377 -0.5876
 2033SOL     OW17734   3.364   0.007   8.384 -0.6827 -0.1800  0.1382
 2033SOL    HW117735   3.422   0.005   8.460 -0.2910 -2.2033 -0.2200
 2033SOL    HW217736   3.348   0.101   8.392  0.8016 -0.0254  1.2380
 2034SOL     OW17737   1.293   2.290   9.319 -0.1649 -0.2003 -0.5181
 2034SOL    HW117738   1.297   2.194   9.309 -1.3262 -0.4402  1.3946
 2034SOL    HW217739   1.239   2.319   9.245  0.2128 -2.2836 -1.6251
 2035SOL     OW17740   2.081   0.074   9.818 -0.2304  0.1527  0.4888
 2035SOL    HW117741   2.137   0.150   9.835 -0.0355  0.1311 -0.0575
 2035SOL    HW217742   2.003   0.087   9.872 -0.2511  1.1591  0.2166
 2036SOL     OW17743   0.239   4.656   4.655  0.4061  0.3848  0.0356
 2036SOL    HW117744   0.151   4.663   4.691 -0.2562 -1.8304 -1.1580
 2036SOL    HW217745   0.288   4.697   4.727  0.6159  1.5912 -0.7951
 2037SOL     OW17746   3.818   0.118   7.072  0.0357 -0.1147  0.4897
 2037SOL    HW117747   3.911   0.122   7.046  0.3870  1.2256  2.0020
 2037SOL    HW217748   3.827   0.101   7.166 -1.3442 -0.3659  0.5764
 2038SOL     OW17749   0.739   0.260  12.221 -0.2439 -0.4434 -0.1424
 2038SOL    HW117750   0.752   0.178  12.269  0.9487 -0.5430 -0.6252
 2038SOL    HW217751   0.811   0.314  12.256  0.2623 -1.9902  1.2043
 2039SOL     OW17752   3.820   4.094   4.005  0.0365  0.2661  0.1053
 2039SOL    HW117753   3.788   4.047   4.083  1.9670 -0.8809  0.1990
 2039SOL    HW217754   3.845   4.019   3.952  1.1005 -0.3644  1.4857
 2040SOL     OW17755   1.831   0.322   3.333  0.5056  0.6419  0.1759
 2040SOL    HW117756   1.846   0.372   3.253 -1.0325 -1.0889 -1.1994
 2040SOL    HW217757   1.778   0.246   3.309  1.3509  0.6166 -1.6130
 2041SOL     OW17758   3.175   1.154   7.334 -0.4905  0.0543 -0.7747
 2041SOL    HW117759   3.191   1.117   7.248 -1.9660  2.9547 -2.2821
 2041SOL    HW217760   3.210   1.085   7.390 -0.9580  0.7489  0.3887
 2042SOL     OW17761   3.862   3.324   7.651  0.1303 -1.1183 -0.0693
 2042SOL    HW117762   3.791   3.348   7.710  2.6200  2.8121  1.3502
 2042SOL    HW217763   3.812   3.345   7.572  0.5696  0.4835  0.0886
 2043SOL     OW17764   1.873   0.902   4.726 -0.0425 -0.6881 -0.0679
 2043SOL    HW117765   1.909   0.909   4.814 -0.9426 -1.8133  0.3907
 2043SOL    HW217766   1.924   0.968   4.679 -1.3421 -0.9107 -1.7993
 2044SOL     OW17767   0.616   2.909   8.050  0.3884  0.3305  0.7929
 2044SOL    HW117768   0.688   2.965   8.078  2.6169 -1.3322 -1.5360
 2044SOL    HW217769   0.544   2.930   8.109  0.2632  1.7320  0.1605
 2045SOL     OW17770   3.851   2.433  12.112 -0.5697 -0.0308 -0.1481
 2045SOL    HW117771   3.802   2.510  12.140  0.9074  0.4988  0.9853
 2045SOL    HW217772   3.809   2.422  12.027 -1.9031 -1.5712  0.7086
 2046SOL     OW17773   1.940   3.050   9.950 -0.0174  0.1561 -0.2823
 2046SOL    HW117774   1.916   3.061   9.857 -0.3693 -1.1227 -0.3448
 2046SOL    HW217775   1.857   3.016   9.983 -0.9294  1.8675 -0.7775
 2047SOL     OW17776   3.967   1.034   4.799 -0.1085  0.5057 -0.2318
 2047SOL    HW117777   3.999   0.944   4.792 -0.5154  0.1904  1.8133
 2047SOL    HW217778   4.053   1.076   4.800  0.8738 -1.5426  3.3320
 2048SOL     OW17779   0.002   4.597  10.712  0.4032  0.0025  0.1532
 2048SOL    HW117780   4.649   4.580  10.677 -0.1316 -0.2321  1.6255
 2048SOL    HW217781   0.033   4.509  10.736 -4.3109 -2.3704 -2.3408
 2049SOL     OW17782   1.999   1.114   4.578 -0.0534 -0.4991 -0.0148
 2049SOL    HW117783   2.087   1.148   4.564  0.0262 -1.0935 -0.9352
 2049SOL    HW217784   1.993   1.071   4.493 -2.5065 -0.3167  0.0842
 2050SOL     OW17785   1.918   2.391   3.050 -0.0553  0.0407 -0.3795
 2050SOL    HW117786   1.994   2.400   2.993  0.7303  1.2661  0.8598
 2050SOL    HW217787   1.963   2.404   3.133  0.2424  0.9948 -0.6916
 2051SOL     OW17788   2.666   1.207   3.760 -0.1406  0.2011 -0.4411
 2051SOL    HW117789   2.738   1.145   3.765  0.0904  0.4267 -1.0254
 2051SOL    HW217790   2.623   1.187   3.677  1.0411 -2.1034 -0.4799
 2052SOL     OW17791   4.657   2.911   0.313  0.5181  0.7819 -0.0247
 2052SOL    HW117792   4.562   2.905   0.319  0.4634  1.8337  0.1274
 2052SOL    HW217793   4.676   2.958   0.395  3.0784  0.5144 -0.4635
 2053SOL     OW17794   2.673   1.264   1.848  0.2581  0.1752  0.1131
 2053SOL    HW117795   2.626   1.226   1.922 -0.6878 -0.2478 -0.7161
 2053SOL    HW217796   2.759   1.230   1.874  1.3252  1.3476 -1.8421
 2054SOL     OW17797   2.952   4.516   0.946 -0.3942  0.1862 -0.2298
 2054SOL    HW117798   2.945   4.451   1.016  3.3223 -0.2102 -0.2266
 2054SOL    HW217799   2.872   4.565   0.962  0.2198  1.3318 -0.6474
 2055SOL     OW17800   4.610   1.263   7.178  0.5273 -0.0643  0.1699
 2055SOL    HW117801   4.645   1.347   7.150 -1.7447  1.2081  1.1238
 2055SOL    HW217802   4.631   1.196   7.113  1.4873 -2.1866  2.6670
 2056SOL     OW17803   0.986   0.812   3.945 -0.0972 -0.7755 -0.0067
 2056SOL    HW117804   1.013   0.776   3.861  0.3164  0.0331 -0.2207
 2056SOL    HW217805   0.964   0.727   3.983 -1.9720  0.1743  0.9893
 2057SOL     OW17806   2.066   0.358   8.362 -0.1842 -0.4043 -0.1678
 2057SOL    HW117807   2.017   0.278   8.379  0.2844 -0.9956 -1.5369
 2057SOL    HW217808   2.031   0.375   8.274 -2.4275 -2.8094  0.2565
 2058SOL     OW17809   2.464   3.564   7.284  0.3066  0.2033  0.2743
 2058SOL    HW117810   2.528   3.544   7.215  0.3235  0.6550  0.1602
 2058SOL    HW217811   2.405   3.492   7.264  0.0785  0.3928  0.2729
 2059SOL     OW17812   3.289   0.499   3.899 -0.6010  0.1859 -0.2439
 2059SOL    HW117813   3.344   0.485   3.976 -1.1052  2.1920  0.4760
 2059SOL    HW217814   3.284   0.415   3.854 -1.6641 -0.3395  0.8766
 2060SOL     OW17815   1.512   1.701  13.418  0.5094 -0.3804  0.2724
 2060SOL    HW117816   1.464   1.772  13.376  0.3393 -0.4716  0.3116
 2060SOL    HW217817   1.440   1.665  13.470  1.3695 -0.2377  1.5647
 2061SOL     OW17818   2.176   3.495   2.731 -0.2261 -0.4167 -0.3153
 2061SOL    HW117819   2.195   3.427   2.666  0.8657  1.1850 -1.6775
 2061SOL    HW217820   2.190   3.577   2.684  1.9314 -0.9260 -0.5497
 2062SOL     OW17821   1.477   1.158   7.640  0.0142  0.2862 -0.8626
 2062SOL    HW117822   1.560   1.195   7.611 -0.4084  0.8250 -1.3687
 2062SOL    HW217823   1.412   1.199   7.582 -0.4070  1.3288  0.3646
 2063SOL     OW17824   1.250   2.026  17.133  0.7186 -0.4029  0.5291
 2063SOL    HW117825   1.232   1.997  17.223  1.0083 -1.1758  0.3341
 2063SOL    HW217826   1.270   2.120  17.141  0.7271 -0.2040 -2.0104
 2064SOL     OW17827   4.339   3.747   5.063  0.2852 -0.8901 -0.3020
 2064SOL    HW117828   4.243   3.743   5.056  0.1878  0.6089  0.1777
 2064SOL    HW217829   4.357   3.655   5.048 -0.0755 -1.0133  0.0048
 2065SOL     OW17830   2.991   3.183  16.910 -0.2106  0.3017  0.0066
 2065SOL    HW117831   2.946   3.144  16.985  1.0170  0.1833  0.6932
 2065SOL    HW217832   3.079   3.194  16.948  0.5092 -0.1770 -1.5170
 2066SOL     OW17833   1.581   3.943   5.605 -0.4635  0.3849  0.3149
 2066SOL    HW117834   1.600   3.963   5.696  2.6530  1.6089 -0.6042
 2066SOL    HW217835   1.486   3.945   5.607 -0.3756  1.8354  2.3729
 2067SOL     OW17836   4.715   0.018   4.464 -0.1461 -0.1626  0.6334
 2067SOL    HW117837   4.664   0.037   4.542 -1.5922  3.4462 -1.1591
 2067SOL    HW217838   4.731   4.661   4.487 -0.2578  0.3556  2.7488
 2068SOL     OW17839   1.681   2.669   2.298  0.8468 -0.2338  0.0377
 2068SOL    HW117840   1.754   2.720   2.264 -1.1665  2.1922 -0.6717
 2068SOL    HW217841   1.726   2.613   2.361 -0.0958  0.5047  1.3662
 2069SOL     OW17842   3.520   0.308   6.918 -0.7209  0.2509 -0.0537
 2069SOL    HW117843   3.506   0.223   6.959  0.3577  0.9501  1.7641
 2069SOL    HW217844   3.588   0.294   6.852  0.7086  1.3783  1.1648
 2070SOL     OW17845   1.037   1.246  17.526 -0.2227 -0.0075  0.2990
 2070SOL    HW117846   1.112   1.193  17.554 -0.5167  0.6553  2.3570
 2070SOL    HW217847   1.069   1.279  17.442  3.3677 -0.3792  1.5398
 2071SOL     OW17848   4.559   1.729  16.479 -0.2200 -0.0035 -0.5111
 2071SOL    HW117849   4.551   1.805  16.420  0.4359  3.9830  4.5530
 2071SOL    HW217850   4.509   1.660  16.435  2.3078 -1.7784 -0.5588
 2072SOL     OW17851   3.539   3.053   3.907 -0.3990  0.0899  0.2616
 2072SOL    HW117852   3.498   3.138   3.891  2.4968  1.2255 -1.0494
 2072SOL    HW217853   3.628   3.065   3.873 -0.5918  2.4501  0.5861
 2073SOL     OW17854   4.411   1.334   4.891 -0.0853 -0.4265 -0.1444
 2073SOL    HW117855   4.444   1.294   4.810  1.9467 -0.7764  0.8873
 2073SOL    HW217856   4.464   1.414   4.891  0.0220 -0.5050  0.6728
 2074SOL     OW17857   4.367   2.707   5.017  0.2354  0.2840  0.3074
 2074SOL    HW117858   4.378   2.675   4.927 -0.4369 -2.7536  1.3025
 2074SOL    HW217859   4.408   2.793   5.006  0.4512  0.2139  0.5609
 2075SOL     OW17860   1.522   1.308  11.717  0.2667  0.3148  0.1457
 2075SOL    HW117861   1.486   1.329  11.803 -0.1720 -3.1455  0.8131
 2075SOL    HW217862   1.530   1.398  11.686 -1.3429 -0.4214 -2.3396
 2076SOL     OW17863   2.961   2.293  10.898  0.4204 -0.1409 -0.5124
 2076SOL    HW117864   2.868   2.288  10.876  0.5638 -1.5170 -0.8445
 2076SOL    HW217865   2.993   2.332  10.817  3.2888 -1.1859  0.0972
 2077SOL     OW17866   4.609   4.296   3.952 -0.7747  0.3847  0.7014
 2077SOL    HW117867   4.663   4.243   3.894  0.0797  1.5809  0.3999
 2077SOL    HW217868   4.580   4.365   3.891  0.8710 -0.0826 -0.6195
 2078SOL     OW17869   2.159   3.684  15.803 -0.0911  0.7890  0.3364
 2078SOL    HW117870   2.198   3.658  15.886  0.6217  1.8463  0.3487
 2078SOL    HW217871   2.076   3.723  15.829 -0.7256  0.1991 -0.7943
 2079SOL     OW17872   0.147   4.141   4.120 -0.1488  0.2095 -0.2113
 2079SOL    HW117873   0.142   4.080   4.193 -0.7884  0.1682 -0.2888
 2079SOL    HW217874   0.106   4.216   4.164  0.8232  0.1631  0.7551
 2080SOL     OW17875   2.528   1.359  16.233  0.1508 -0.1359 -0.6105
 2080SOL    HW117876   2.471   1.435  16.218  0.7069  0.3231 -0.4116
 2080SOL    HW217877   2.543   1.361  16.327  1.0035 -4.0678 -0.6677
 2081SOL     OW17878   3.336   1.990   8.135  0.4541 -0.2093 -0.9113
 2081SOL    HW117879   3.325   2.020   8.225 -0.6586 -0.0686 -1.0956
 2081SOL    HW217880   3.247   2.007   8.104  0.7648 -0.6634 -2.0394
 2082SOL     OW17881   4.174   3.520   1.106 -0.3653  0.1800 -0.3157
 2082SOL    HW117882   4.153   3.453   1.171  0.9380 -0.7090 -0.8032
 2082SOL    HW217883   4.130   3.488   1.027 -0.4818  2.3991 -1.1620
 2083SOL     OW17884   4.555   1.579   4.850  0.5585  0.2231  0.1728
 2083SOL    HW117885   4.554   1.635   4.927  2.3550  1.1211 -0.4541
 2083SOL    HW217886   4.579   1.640   4.780  0.5832  1.7150  1.4786
 2084SOL     OW17887   1.757   0.995   1.881  0.5053 -0.2913  0.0616
 2084SOL    HW117888   1.849   1.009   1.901 -0.0683  0.6021  2.0527
 2084SOL    HW217889   1.721   1.084   1.875  0.4160 -0.4354 -1.6089
 2085SOL     OW17890   4.357   3.600  12.239  0.4768  0.3259 -0.0287
 2085SOL    HW117891   4.321   3.582  12.152  2.1586 -0.5702 -0.5479
 2085SOL    HW217892   4.294   3.661  12.276  2.4343  0.6161  2.7795
 2086SOL     OW17893   2.080   2.344  14.484  0.0319  0.2032  0.5579
 2086SOL    HW117894   2.072   2.432  14.521  0.8385  0.5034  0.0191
 2086SOL    HW217895   2.108   2.286  14.554 -1.6193 -1.5181 -0.2041
 2087SOL     OW17896   3.254   0.073   7.296 -0.1056 -0.1926 -0.0074
 2087SOL    HW117897   3.203   0.143   7.337  0.3061  0.5669 -0.7685
 2087SOL    HW217898   3.269   0.009   7.366  0.0149 -0.1513  0.0052
 2088SOL     OW17899   2.735   1.470   2.885 -0.5017 -0.4867  0.2699
 2088SOL    HW117900   2.818   1.425   2.872 -0.3518 -0.1249 -0.0258
 2088SOL    HW217901   2.761   1.559   2.861  0.4733 -1.4633 -2.2533
 2089SOL     OW17902   3.198   1.998   2.864  0.3422  0.6271 -0.2594
 2089SOL    HW117903   3.103   2.007   2.869  0.1361 -1.3475 -0.5601
 2089SOL    HW217904   3.224   2.068   2.923 -0.0971  0.3188  0.3023
 2090SOL     OW17905   0.282   2.227  13.177  0.0006 -0.5259  0.0362
 2090SOL    HW117906   0.256   2.141  13.145 -2.3910  1.1741 -2.5804
 2090SOL    HW217907   0.318   2.262  13.096 -1.9668  0.7476 -0.2720
 2091SOL     OW17908   2.419   3.786   6.924 -0.6255 -0.1036 -0.2681
 2091SOL    HW117909   2.374   3.708   6.954  2.6174 -1.0646  2.1225
 2091SOL    HW217910   2.509   3.753   6.918 -0.7577 -0.7928  1.4371
 2092SOL     OW17911   2.582   1.796  15.541  0.3238  0.2321 -0.0022
 2092SOL    HW117912   2.580   1.701  15.554 -0.0519  0.0716 -1.3235
 2092SOL    HW217913   2.589   1.804  15.446  0.4398  0.5319  0.0308
 2093SOL     OW17914   0.834   1.618   9.962 -0.5696  0.0153  0.0847
 2093SOL    HW117915   0.849   1.690   9.901 -1.4420  0.7025  0.6875
 2093SOL    HW217916   0.926   1.591   9.964 -0.5090  0.0623 -1.7883
 2094SOL     OW17917   0.158   2.897   4.556 -0.0904 -0.1520  0.0670
 2094SOL    HW117918   0.205   2.825   4.596  2.3644 -0.5273 -3.4959
 2094SOL    HW217919   0.155   2.860   4.467 -2.4636  0.5427 -0.1591
 2095SOL     OW17920   1.910   4.375   7.882  0.0715  0.1707  0.1217
 2095SOL    HW117921   1.958   4.295   7.905  0.0295 -0.0948 -0.7159
 2095SOL    HW217922   1.828   4.336   7.853  0.8690 -0.2839 -1.4930
 2096SOL     OW17923   4.115   3.417  15.294 -1.0846  0.5076 -0.3106
 2096SOL    HW117924   4.181   3.350  15.313  1.4953  2.5369 -2.1391
 2096SOL    HW217925   4.171   3.482  15.252  1.1930 -1.5553 -0.4558
 2097SOL     OW17926   2.332   1.421   4.091  0.0817 -0.3602 -0.4968
 2097SOL    HW117927   2.415   1.464   4.114 -0.9484  0.9267  0.7704
 2097SOL    HW217928   2.315   1.367   4.168  0.6859  0.9268  0.5364
 2098SOL     OW17929   0.687   2.071   5.892 -0.4826 -0.6889 -0.3655
 2098SOL    HW117930   0.690   1.988   5.939 -1.5133 -0.3654  0.2460
 2098SOL    HW217931   0.653   2.040   5.808 -0.3768 -1.6364 -0.0549
 2099SOL     OW17932   3.142   1.993   0.578  0.4622 -0.3844  0.6302
 2099SOL    HW117933   3.101   2.068   0.533  0.9005  0.5591  1.7926
 2099SOL    HW217934   3.168   2.034   0.661  0.4570  1.4374 -0.2545
 2100SOL     OW17935   4.488   1.491   6.606 -0.1860 -0.1706  0.1311
 2100SOL    HW117936   4.514   1.515   6.695  0.3018 -0.4759  0.0765
 2100SOL    HW217937   4.399   1.458   6.615 -0.3633 -0.2009 -1.7303
 2101SOL     OW17938   4.160   0.012   6.780 -0.3570 -0.0075  0.6573
 2101SOL    HW117939   4.180   4.727   6.688 -0.4268  1.5082  0.3189
 2101SOL    HW217940   4.242   4.711   6.816  0.4901  0.5715 -0.6689
 2102SOL     OW17941   2.391   0.449   3.898  0.0272  0.0306  0.1416
 2102SOL    HW117942   2.477   0.446   3.858 -1.8874 -0.6349 -3.8719
 2102SOL    HW217943   2.425   0.466   3.986 -1.3905  0.7005  0.5542
 2103SOL     OW17944   2.121   0.418   3.367  0.4607  0.0375 -0.0750
 2103SOL    HW117945   2.042   0.375   3.402  1.9846 -1.5665  1.3633
 2103SOL    HW217946   2.141   0.483   3.434 -2.7589  1.3268 -0.3268
 2104SOL     OW17947   0.960   0.163   8.533  0.0141  0.1367 -0.5706
 2104SOL    HW117948   0.963   0.210   8.450 -1.3183  1.4339  0.1234
 2104SOL    HW217949   1.027   0.209   8.583  0.2045  0.3828 -1.0486
 2105SOL     OW17950   3.896   1.372  17.103  0.7483 -0.0366  0.1769
 2105SOL    HW117951   3.943   1.447  17.067  1.5330  0.2386  1.7635
 2105SOL    HW217952   3.872   1.334  17.019  1.7422 -1.1285  0.3908
 2106SOL     OW17953   2.094   4.328   8.177  0.0940  0.2659  1.0994
 2106SOL    HW117954   2.064   4.328   8.268 -0.1669 -0.2511  1.0146
 2106SOL    HW217955   2.009   4.309   8.137  0.8920 -0.4090 -0.2884
 2107SOL     OW17956   4.242   3.555   5.588  0.1010 -0.6493  0.4237
 2107SOL    HW117957   4.212   3.592   5.505  0.3864  0.1574  0.6799
 2107SOL    HW217958   4.274   3.469   5.559  1.9902  0.0919  0.3454
 2108SOL     OW17959   0.580   1.454   3.830 -0.5666  0.1081 -0.5124
 2108SOL    HW117960   0.657   1.399   3.839 -0.8257  0.0709  1.3463
 2108SOL    HW217961   0.630   1.534   3.840  1.2831 -1.1115  0.0976
 2109SOL     OW17962   1.824   2.241   8.634 -0.1327  0.1123 -0.0052
 2109SOL    HW117963   1.892   2.211   8.694  1.3040  3.0049 -0.1754
 2109SOL    HW217964   1.814   2.334   8.657  1.6747  0.3835 -0.2994
 2110SOL     OW17965   0.485   0.560   3.738 -0.6337 -0.5892  0.1300
 2110SOL    HW117966   0.405   0.507   3.741 -1.5917  0.7415 -1.4769
 2110SOL    HW217967   0.499   0.576   3.644 -1.3667 -0.2237  0.0834
 2111SOL     OW17968   0.129   1.392   2.721  0.2620  0.7953  0.1145
 2111SOL    HW117969   0.121   1.467   2.662  1.2446  1.3584  0.6907
 2111SOL    HW217970   0.184   1.335   2.667 -1.0787 -1.1781  0.8162
 2112SOL     OW17971   3.299   3.062   4.229  0.1357 -0.2595  0.0264
 2112SOL    HW117972   3.303   3.158   4.229  2.5170 -0.3644  1.0844
 2112SOL    HW217973   3.211   3.044   4.262 -0.2371  1.2951 -0.0945
 2113SOL     OW17974   3.756   4.458   4.667  0.0635  0.1672 -0.1608
 2113SOL    HW117975   3.797   4.401   4.601 -1.1447 -3.2015  1.9895
 2113SOL    HW217976   3.686   4.494   4.613  0.6207  0.9749 -0.3436
 2114SOL     OW17977   4.557   0.953  13.387  0.1537 -0.4482 -0.1311
 2114SOL    HW117978   4.590   1.023  13.330  0.7143  0.5228  1.3892
 2114SOL    HW217979   4.549   0.877  13.330 -2.5535  0.6715 -1.3047
 2115SOL     OW17980   3.646   0.230  14.854 -0.2602  0.6098 -0.1535
 2115SOL    HW117981   3.631   0.163  14.787  0.7989  0.3461 -0.1199
 2115SOL    HW217982   3.560   0.237  14.896  0.3522 -0.2407  1.2320
 2116SOL     OW17983   3.426   3.400   0.614  0.0941 -0.0918  0.1580
 2116SOL    HW117984   3.513   3.434   0.630  0.8659 -2.0278  0.0860
 2116SOL    HW217985   3.383   3.453   0.681  1.4176  1.1450  0.0241
 2117SOL     OW17986   4.704   2.208   5.373 -0.7527 -0.2924  0.1740
 2117SOL    HW117987   4.722   2.156   5.451 -0.8667 -1.0327 -0.2970
 2117SOL    HW217988   4.676   2.295   5.403 -0.0913 -0.0619  0.1279
 2118SOL     OW17989   3.692   1.996   1.842 -0.7408  0.0824  0.0408
 2118SOL    HW117990   3.630   2.014   1.913  0.5171  1.4178  0.8175
 2118SOL    HW217991   3.669   1.905   1.828 -0.5571 -0.0065  0.3152
 2119SOL     OW17992   3.048   3.412   2.088  0.0242  0.7680 -0.2775
 2119SOL    HW117993   3.082   3.325   2.069  0.8253  0.7296  1.2958
 2119SOL    HW217994   3.059   3.436   2.180 -1.3152 -1.2846  0.4259
 2120SOL     OW17995   4.376   2.082   4.462 -0.2088 -0.2679 -0.8110
 2120SOL    HW117996   4.282   2.067   4.469 -0.1237 -1.3017 -1.8634
 2120SOL    HW217997   4.374   2.134   4.382  2.4896  2.3285  0.8412
 2121SOL     OW17998   0.712   0.617   0.198  0.0394 -0.1574  0.1429
 2121SOL    HW117999   0.672   0.552   0.256  0.5200  0.2283  0.9037
 2121SOL    HW218000   0.784   0.567   0.159 -0.4757 -1.1077  0.4112
 2122SOL     OW18001   0.597   1.019   3.713  0.0294 -0.2051 -0.2241
 2122SOL    HW118002   0.609   0.971   3.631  0.3058 -0.4357 -0.0495
 2122SOL    HW218003   0.638   0.957   3.773  1.7903  1.4832  0.3114
 2123SOL     OW18004   1.651   3.979   8.316 -0.1068 -0.6413  0.1444
 2123SOL    HW118005   1.599   4.058   8.327  1.1122  0.3220 -0.9893
 2123SOL    HW218006   1.735   4.017   8.289  0.2314 -0.6174  1.2074
 2124SOL     OW18007   3.327   0.229  12.345 -0.4219 -0.2967  0.4489
 2124SOL    HW118008   3.410   0.192  12.314  0.3168  0.7565  1.1838
 2124SOL    HW218009   3.347   0.322  12.357 -0.7055 -0.4990  2.4523
 2125SOL     OW18010   1.187   4.254   8.189  0.5346  0.1527  0.7415
 2125SOL    HW118011   1.189   4.298   8.273 -0.3173  1.0050  0.3199
 2125SOL    HW218012   1.094   4.264   8.169  0.4789  0.9899  1.4297
 2126SOL     OW18013   2.463   1.926   5.205  0.3798  0.6300 -0.3895
 2126SOL    HW118014   2.422   1.920   5.119 -0.6817 -0.7485  0.2162
 2126SOL    HW218015   2.557   1.920   5.186  0.5098 -0.4792  0.6393
 2127SOL     OW18016   3.800   2.670   5.235 -0.0732 -0.3578 -0.0499
 2127SOL    HW118017   3.833   2.759   5.249  1.2180 -1.0932  1.4878
 2127SOL    HW218018   3.836   2.641   5.151 -1.0318  0.8458 -0.8844
 2128SOL     OW18019   1.253   1.330   4.626  0.3491  0.0415  0.7430
 2128SOL    HW118020   1.284   1.246   4.658 -0.3606 -0.4040  0.2509
 2128SOL    HW218021   1.162   1.302   4.624  0.3344  0.0619  1.0218
 2129SOL     OW18022   0.776   1.264   7.374  1.1868 -0.5724 -0.7007
 2129SOL    HW118023   0.795   1.353   7.404 -0.5046 -0.2377 -0.6084
 2129SOL    HW218024   0.682   1.262   7.395  1.1922 -0.0744 -0.6268
 2130SOL     OW18025   0.709   1.729   2.563 -0.5818 -0.4995  0.0505
 2130SOL    HW118026   0.681   1.774   2.643 -0.8828 -0.2165 -0.2172
 2130SOL    HW218027   0.804   1.729   2.575 -0.9116  1.6180  2.7224
 2131SOL     OW18028   1.983   0.828   5.946 -0.0308  0.5761  0.1605
 2131SOL    HW118029   2.037   0.907   5.947 -0.5615  0.9671 -1.7173
 2131SOL    HW218030   2.049   0.760   5.936 -1.0777 -0.3067 -0.8068
 2132SOL     OW18031   4.388   4.522  17.116  0.0511 -0.2551  0.2731
 2132SOL    HW118032   4.475   4.494  17.088 -0.3401 -1.1285 -0.0846
 2132SOL    HW218033   4.353   4.435  17.136  0.1953 -1.0804 -3.1850
 2133SOL     OW18034   1.943   0.216   3.755 -0.6645 -0.1882  0.9719
 2133SOL    HW118035   2.034   0.196   3.773 -0.1557  1.8049  0.6380
 2133SOL    HW218036   1.947   0.312   3.762  0.6636  0.0110 -2.7334
 2134SOL     OW18037   0.757   3.778   8.376 -0.5323  0.0746  0.0018
 2134SOL    HW118038   0.714   3.855   8.414 -1.5034  0.3685 -1.6791
 2134SOL    HW218039   0.775   3.722   8.451  1.7495  0.8228  0.0153
 2135SOL     OW18040   4.471   3.758   7.027 -0.0671  0.7191 -0.1986
 2135SOL    HW118041   4.466   3.848   6.996  0.2739  1.1611  1.0131
 2135SOL    HW218042   4.385   3.757   7.069 -0.0015 -0.3930 -0.0908
 2136SOL     OW18043   3.481   3.486   5.555 -0.3487  0.6702  0.2795
 2136SOL    HW118044   3.456   3.432   5.481 -0.8537  2.5821 -0.9446
 2136SOL    HW218045   3.569   3.451   5.568 -1.5016 -1.7518  1.4987
 2137SOL     OW18046   1.278   1.373   9.604 -0.2871 -0.0620 -0.0584
 2137SOL    HW118047   1.228   1.449   9.573 -1.0700 -0.9058 -0.8800
 2137SOL    HW218048   1.347   1.417   9.654 -0.5399  2.4825 -1.8928
 2138SOL     OW18049   4.172   3.167   7.086 -0.3691  0.3773 -0.2559
 2138SOL    HW118050   4.234   3.237   7.108  2.5693 -3.1807  2.8763
 2138SOL    HW218051   4.203   3.148   6.998 -0.2380  0.0540 -0.1398
 2139SOL     OW18052   2.871   2.473   1.607 -0.1214 -0.1572 -0.3789
 2139SOL    HW118053   2.872   2.378   1.596 -1.0904 -0.2891  0.6705
 2139SOL    HW218054   2.837   2.483   1.696 -1.5212  1.0595 -1.0523
 2140SOL     OW18055   1.331   4.340   6.360  0.0052  0.5911  0.1828
 2140SOL    HW118056   1.303   4.377   6.443 -1.7261  0.3570 -0.2977
 2140SOL    HW218057   1.402   4.283   6.390 -2.1028 -3.6166 -2.7144
 2141SOL     OW18058   0.464   2.080   7.326 -0.3556  0.5438 -0.2993
 2141SOL    HW118059   0.405   2.108   7.256 -1.6447  2.3591  1.5081
 2141SOL    HW218060   0.433   1.991   7.339  1.9102 -0.0859  0.7545
 2142SOL     OW18061   3.195   0.577  13.180  0.1374  0.0185  0.8621
 2142SOL    HW118062   3.232   0.564  13.093  0.0429  3.2660  0.3341
 2142SOL    HW218063   3.270   0.544  13.229  1.6131 -0.5437 -1.7991
 2143SOL     OW18064   2.334   2.672   5.309 -0.5159 -0.2724  0.1805
 2143SOL    HW118065   2.427   2.672   5.287 -0.7779 -0.0521 -0.9372
 2143SOL    HW218066   2.326   2.747   5.368  0.0251 -0.4598  0.4934
 2144SOL     OW18067   1.547   4.644   2.828 -0.1633  0.4984 -0.1818
 2144SOL    HW118068   1.531   4.680   2.915  1.9852  1.5064 -0.2084
 2144SOL    HW218069   1.530   4.552   2.847  0.7441  0.5384  0.8668
 2145SOL     OW18070   3.643   1.833   6.333 -0.4043 -0.1843  0.2386
 2145SOL    HW118071   3.616   1.786   6.412  1.0117 -0.4115  0.5847
 2145SOL    HW218072   3.576   1.792   6.278  0.9230 -3.3013  0.9285
 2146SOL     OW18073   1.454   4.578  13.333 -0.5839  0.3897  0.3867
 2146SOL    HW118074   1.383   4.630  13.296 -0.1169 -0.5755 -1.8878
 2146SOL    HW218075   1.481   4.544  13.247 -0.7425  1.0098  0.0908
 2147SOL     OW18076   4.651   0.321   2.422  0.4238 -0.9066  0.7529
 2147SOL    HW118077   4.586   0.286   2.361  0.5979  0.6476 -0.3523
 2147SOL    HW218078   4.602   0.397   2.455  1.4161  0.5846 -1.1877
 2148SOL     OW18079   1.555   0.761   6.305 -0.4593 -0.3891 -0.0205
 2148SOL    HW118080   1.616   0.748   6.378 -1.6287 -0.0271  1.0240
 2148SOL    HW218081   1.595   0.698   6.245  2.0942  0.0274  1.2394
 2149SOL     OW18082   3.175   0.254   5.036 -0.0278 -0.0906 -0.0179
 2149SOL    HW118083   3.099   0.217   4.992 -0.6394 -0.6097  1.4817
 2149SOL    HW218084   3.170   0.197   5.113 -1.6573  0.9647  0.6549
 2150SOL     OW18085   0.645   3.611   8.788 -0.0193 -0.0213 -0.2050
 2150SOL    HW118086   0.584   3.683   8.806  2.4737  1.3002  2.9525
 2150SOL    HW218087   0.604   3.571   8.711  0.3013 -2.8620  1.1163
 2151SOL     OW18088   2.430   0.539   4.194 -0.0991 -0.3696 -0.0283
 2151SOL    HW118089   2.482   0.548   4.274 -0.4408 -0.0110  0.1509
 2151SOL    HW218090   2.345   0.551   4.236 -1.7725 -0.7072 -3.3128
 2152SOL     OW18091   0.715   0.837   3.872 -0.0596  0.3742  0.2544
 2152SOL    HW118092   0.790   0.849   3.930  1.1936 -1.2139 -1.0603
 2152SOL    HW218093   0.660   0.770   3.912  0.0492  1.0287  1.5120
 2153SOL     OW18094   2.310   0.542   4.749 -0.1446  0.0365  0.2926
 2153SOL    HW118095   2.312   0.447   4.760 -1.0216  0.1531  1.3601
 2153SOL    HW218096   2.295   0.545   4.654  0.8017  2.0093  0.2034
 2154SOL     OW18097   2.970   4.216   4.641 -0.0104 -0.0049 -0.0922
 2154SOL    HW118098   3.041   4.238   4.581  0.0566  1.8757  0.6801
 2154SOL    HW218099   2.906   4.162   4.595 -1.8592  1.0849  1.1772
 2155SOL     OW18100   1.993   3.604   1.959 -0.0953 -0.4027  0.3502
 2155SOL    HW118101   1.969   3.687   1.918  2.7710  1.0205  1.5659
 2155SOL    HW218102   2.046   3.568   1.887  3.1592  2.0244  1.5246
 2156SOL     OW18103   0.286   4.317   0.130 -0.1064 -0.2685 -0.4333
 2156SOL    HW118104   0.281   4.408   0.159 -0.1094  0.8999 -4.1736
 2156SOL    HW218105   0.366   4.287   0.174 -0.3093 -0.1774 -0.0053
 2157SOL     OW18106   1.737   0.293   9.506  0.1249  0.1766  0.0815
 2157SOL    HW118107   1.778   0.208   9.515 -1.3466 -0.5393  0.0038
 2157SOL    HW218108   1.670   0.263   9.567 -1.2213 -0.6364 -1.8086
 2158SOL     OW18109   0.596   3.379   5.765 -0.3331 -0.4271 -0.4845
 2158SOL    HW118110   0.586   3.467   5.803 -0.4584 -0.2143 -1.0132
 2158SOL    HW218111   0.680   3.356   5.804 -0.2524  2.0687  0.8490
 2159SOL     OW18112   0.244   1.552   6.401  0.4668 -0.5504 -0.1688
 2159SOL    HW118113   0.247   1.634   6.352 -0.7633  0.5682  1.6146
 2159SOL    HW218114   0.294   1.497   6.341  0.1865 -2.1153  1.0482
 2160SOL     OW18115   3.265   2.702   5.214  0.0726  0.2326 -0.1071
 2160SOL    HW118116   3.208   2.647   5.161 -0.2066  0.2709  0.1553
 2160SOL    HW218117   3.323   2.730   5.143  0.4144  2.5473  1.0843
 2161SOL     OW18118   4.097   2.930   3.915 -0.5564 -0.0231 -0.0879
 2161SOL    HW118119   4.169   2.912   3.975  0.4664  0.3862 -1.1818
 2161SOL    HW218120   4.119   2.879   3.837  0.9113 -1.5203  1.3014
 2162SOL     OW18121   0.482   4.338   7.340 -0.3206 -0.8687  0.0902
 2162SOL    HW118122   0.508   4.430   7.343 -1.0347 -0.6690  0.1483
 2162SOL    HW218123   0.482   4.318   7.434  1.2455  1.7024  0.6338
 2163SOL     OW18124   0.728   2.640  11.373 -0.3422 -0.0789  0.6070
 2163SOL    HW118125   0.768   2.726  11.358 -3.4133  1.0106 -1.2670
 2163SOL    HW218126   0.656   2.661  11.433 -0.9282  2.2197 -0.8868
 2164SOL     OW18127   1.998   0.893   9.011 -0.1816 -0.6480  0.2900
 2164SOL    HW118128   1.934   0.843   8.959  0.5849 -2.2079  0.8472
 2164SOL    HW218129   2.016   0.964   8.949 -0.4523 -1.3420 -0.5933
 2165SOL     OW18130   1.045   1.727   2.201  0.8398 -0.5704 -0.3100
 2165SOL    HW118131   0.998   1.731   2.117 -0.9211  1.7473  0.7825
 2165SOL    HW218132   0.973   1.696   2.256  2.4762 -1.2622  1.4411
 2166SOL     OW18133   4.048   2.327   3.976 -0.3589 -0.1621 -0.7380
 2166SOL    HW118134   4.091   2.352   4.058 -0.4000  3.0009 -1.6815
 2166SOL    HW218135   3.985   2.399   3.975 -0.7491 -0.4635  2.0808
 2167SOL     OW18136   4.229   3.125   6.823 -0.3364  0.7082  0.4005
 2167SOL    HW118137   4.289   3.109   6.750 -1.8224 -1.5029 -0.3371
 2167SOL    HW218138   4.211   3.218   6.811 -0.6987  0.9315  2.6144
 2168SOL     OW18139   0.173   2.652   3.927  0.5398  0.3307 -0.4780
 2168SOL    HW118140   0.107   2.709   3.888 -0.1426  1.3128  2.1507
 2168SOL    HW218141   0.180   2.580   3.864  0.0667 -0.4367  0.3390
 2169SOL     OW18142   0.088   2.077   8.037  0.0356  0.2787  0.0981
 2169SOL    HW118143   0.016   2.032   7.992 -2.5736  0.3193  4.1799
 2169SOL    HW218144   0.128   2.007   8.089  0.3191  0.7899  0.5566
 2170SOL     OW18145   2.532   1.535  14.808 -0.7780  0.5835  0.1890
 2170SOL    HW118146   2.510   1.452  14.849  1.0313  0.0551  0.0512
 2170SOL    HW218147   2.492   1.526  14.721 -0.8644  1.3396  0.1447
 2171SOL     OW18148   0.120   2.341   1.192  0.9433 -0.7656  0.0851
 2171SOL    HW118149   0.107   2.407   1.123  1.2329 -0.5282  0.2569
 2171SOL    HW218150   0.098   2.256   1.155  2.0253 -1.7931  1.8192
 2172SOL     OW18151   3.041   3.583  10.102  0.6968  0.0316  0.0562
 2172SOL    HW118152   3.014   3.654  10.045  0.2635 -1.3719 -1.4954
 2172SOL    HW218153   3.045   3.506  10.045  3.2316 -1.4049  2.1576
 2173SOL     OW18154   1.188   0.861   6.273 -0.4852 -0.3467  0.2252
 2173SOL    HW118155   1.136   0.832   6.199  1.6503 -0.1662 -1.3649
 2173SOL    HW218156   1.126   0.836   6.341  0.3053 -0.5915  0.8626
 2174SOL     OW18157   0.377   4.590   4.992 -0.0303 -0.6962  0.0320
 2174SOL    HW118158   0.368   4.652   4.920 -0.3105  0.1900  0.8272
 2174SOL    HW218159   0.470   4.570   4.978  0.2769  0.7944 -0.0172
 2175SOL     OW18160   2.303   3.788   0.483  0.2569  0.7339  0.4036
 2175SOL    HW118161   2.368   3.768   0.550  0.8937 -0.3697 -0.5440
 2175SOL    HW218162   2.295   3.882   0.502 -2.8256  0.2402  1.4360
 2176SOL     OW18163   3.875   3.749   2.214 -0.1898 -0.3433  0.6247
 2176SOL    HW118164   3.969   3.767   2.214 -0.0793 -0.9017  2.1593
 2176SOL    HW218165   3.876   3.661   2.252  0.1213 -0.1542  1.0549
 2177SOL     OW18166   4.089   2.941  10.706 -0.1270 -0.2091  0.4650
 2177SOL    HW118167   4.103   3.028  10.668  0.4289  0.2091  1.6144
 2177SOL    HW218168   4.174   2.901  10.690  0.6725  1.9688 -0.7671
 2178SOL     OW18169   4.586   0.309   9.094 -0.2770 -0.0747 -0.2082
 2178SOL    HW118170   4.532   0.339   9.168 -1.0817  2.3964 -1.8016
 2178SOL    HW218171   4.560   0.217   9.103 -1.9362  0.4639  0.4282
 2179SOL     OW18172   2.242   4.275  15.923 -0.0081  0.6590 -0.0426
 2179SOL    HW118173   2.336   4.281  15.908 -0.1654  0.1274 -1.2889
 2179SOL    HW218174   2.237   4.284  16.018 -0.3704 -0.7420  0.0649
 2180SOL     OW18175   3.566   0.668   4.547 -0.0328 -0.0560  0.4530
 2180SOL    HW118176   3.524   0.730   4.487  1.2050 -0.1490 -0.4886
 2180SOL    HW218177   3.504   0.596   4.538  0.3736 -0.4283  0.6532
 2181SOL     OW18178   1.031   1.033   0.743  0.4460  0.8752  0.1071
 2181SOL    HW118179   0.955   1.022   0.800  0.1550 -1.0704 -0.6482
 2181SOL    HW218180   1.051   1.126   0.751 -1.6109  1.2579  0.8666
 2182SOL     OW18181   1.225   2.143   4.893  0.3426 -0.3166 -0.3011
 2182SOL    HW118182   1.251   2.051   4.902 -0.3373 -0.4253  0.6184
 2182SOL    HW218183   1.158   2.145   4.962  0.7427  0.5975  0.0619
 2183SOL     OW18184   0.730   0.614   6.667 -0.0960  0.2661 -0.1430
 2183SOL    HW118185   0.686   0.645   6.746 -1.6688 -0.4532 -0.7295
 2183SOL    HW218186   0.663   0.624   6.599  1.0822 -0.2347 -1.3582
 2184SOL     OW18187   0.544   0.868  14.943 -0.5202 -0.4001 -0.1276
 2184SOL    HW118188   0.629   0.898  14.909 -0.4005  1.4773  1.8396
 2184SOL    HW218189   0.527   0.812  14.867  0.9051 -0.0036 -0.7473
 2185SOL     OW18190   4.328   2.034   3.905 -0.5046  0.5184 -0.3481
 2185SOL    HW118191   4.270   1.965   3.873  1.9138 -1.5691 -0.2754
 2185SOL    HW218192   4.417   2.002   3.891 -0.6550  0.4696 -1.2215
 2186SOL     OW18193   1.292   4.574   4.329  0.2041  0.0840  0.5156
 2186SOL    HW118194   1.269   4.659   4.366 -0.3907  0.9736 -1.8638
 2186SOL    HW218195   1.263   4.513   4.397  1.5634  0.4842  1.4350
 2187SOL     OW18196   2.015   0.390   9.645  0.6381 -0.0896  0.2961
 2187SOL    HW118197   1.931   0.354   9.616 -1.5777  1.8525  4.3351
 2187SOL    HW218198   2.063   0.375   9.563 -0.9275  1.8842 -0.9960
 2188SOL     OW18199   4.558   2.997  15.070 -0.1124 -0.6651  0.4335
 2188SOL    HW118200   4.494   2.992  15.142  0.5587  0.9195  1.1389
 2188SOL    HW218201   4.497   3.021  15.001  0.6433 -0.9256 -0.3192
 2189SOL     OW18202   4.336   3.616  17.337 -0.1503  0.1887  0.1429
 2189SOL    HW118203   4.317   3.618  17.243 -0.5854 -1.3806  0.1973
 2189SOL    HW218204   4.369   3.527  17.352 -1.3726 -0.4868 -1.1374
 2190SOL     OW18205   3.155   0.390   6.290 -0.1012 -0.1977  0.0068
 2190SOL    HW118206   3.210   0.466   6.270  0.6980 -0.6332  0.5539
 2190SOL    HW218207   3.074   0.403   6.241 -0.4291 -0.8979  0.3685
 2191SOL     OW18208   2.510   1.664   9.005  0.4808 -0.3922  0.4394
 2191SOL    HW118209   2.538   1.717   8.931 -1.6393 -0.6932 -0.5550
 2191SOL    HW218210   2.468   1.731   9.059  0.1650 -0.7663  0.6633
 2192SOL     OW18211   2.766   4.193  10.614  0.0024 -0.1870 -0.1084
 2192SOL    HW118212   2.692   4.183  10.674  0.6300 -1.2559  0.4823
 2192SOL    HW218213   2.833   4.239  10.664  0.4482  0.3742 -1.2332
 2193SOL     OW18214   1.179   0.771  12.142  0.3642  0.9333  0.3457
 2193SOL    HW118215   1.101   0.800  12.191 -0.4127  0.5024 -0.6371
 2193SOL    HW218216   1.231   0.740  12.216  1.3947 -0.8877 -1.1475
 2194SOL     OW18217   0.785   3.292   1.971  0.2667 -0.1904  0.2217
 2194SOL    HW118218   0.865   3.326   1.931  0.0632 -0.5082 -0.4485
 2194SOL    HW218219   0.787   3.346   2.051 -0.5989  4.8521 -3.1258
 2195SOL     OW18220   0.010   0.847   4.330  0.3235 -0.1461  0.3879
 2195SOL    HW118221   4.713   0.794   4.257  0.9086  2.2269 -1.6073
 2195SOL    HW218222   0.026   0.926   4.278 -1.3939 -0.6283 -0.8648
 2196SOL     OW18223   0.911   1.637   0.161 -0.0986  0.0148 -0.3979
 2196SOL    HW118224   0.963   1.707   0.199 -1.4080  0.0871  1.2806
 2196SOL    HW218225   0.940   1.657   0.072 -0.3157  0.5781 -0.3471
 2197SOL     OW18226   1.377   0.268   4.267 -0.4776 -0.1434  0.3444
 2197SOL    HW118227   1.366   0.208   4.341  1.7477 -0.5498  0.3425
 2197SOL    HW218228   1.390   0.217   4.187 -3.1550 -0.1714 -0.0825
 2198SOL     OW18229   3.785   0.584  15.418  0.1129 -0.5032 -0.4063
 2198SOL    HW118230   3.780   0.491  15.395  1.1734 -0.1431 -2.0957
 2198SOL    HW218231   3.846   0.615  15.351  0.5676  0.7974  0.6299
 2199SOL     OW18232   3.135   1.012   4.659  0.4269 -0.2689 -0.3900
 2199SOL    HW118233   3.169   1.029   4.571 -0.6433  2.6888 -0.2020
 2199SOL    HW218234   3.222   0.978   4.683 -0.8345 -4.1626 -1.2285
 2200SOL     OW18235   0.891   1.580   0.812 -0.6672 -0.5135 -0.1400
 2200SOL    HW118236   0.912   1.653   0.754 -0.3766 -1.5366 -1.3393
 2200SOL    HW218237   0.796   1.589   0.806 -0.5287  1.0251 -0.1053
 2201SOL     OW18238   4.366   1.858   8.302 -0.4895 -0.3490  0.3281
 2201SOL    HW118239   4.413   1.929   8.258  1.3031 -0.5421  1.8906
 2201SOL    HW218240   4.345   1.806   8.225 -0.2345  0.4609 -0.2900
 2202SOL     OW18241   1.959   4.267   3.049  0.3145  0.1411  0.4219
 2202SOL    HW118242   1.908   4.262   3.130  0.2558 -2.7675  0.2256
 2202SOL    HW218243   2.024   4.332   3.075  0.4458  0.4097 -0.5827
 2203SOL     OW18244   1.228   3.846   9.037 -0.0645  0.6669 -0.3072
 2203SOL    HW118245   1.176   3.767   9.025  3.1194 -1.8374  2.6142
 2203SOL    HW218246   1.162   3.916   9.039 -1.3815 -0.5822  0.2856
 2204SOL     OW18247   2.523   2.025  11.730  0.6696 -0.0409 -0.6041
 2204SOL    HW118248   2.457   1.976  11.779  0.5054  0.6089 -0.1706
 2204SOL    HW218249   2.586   1.955  11.709 -1.9697 -2.8984  1.0250
 2205SOL     OW18250   1.506   4.239   5.101 -0.1629  0.0973 -0.6792
 2205SOL    HW118251   1.427   4.193   5.128  0.9082 -2.0442 -1.1671
 2205SOL    HW218252   1.565   4.166   5.078  0.5936  0.3411  0.4717
 2206SOL     OW18253   2.875   2.872  11.462  0.3822 -0.8328 -0.0219
 2206SOL    HW118254   2.849   2.918  11.382 -1.6161 -0.6230  0.7657
 2206SOL    HW218255   2.938   2.936  11.497 -0.7072  1.7800 -2.8339
 2207SOL     OW18256   1.187   2.467   4.289 -0.4129  0.1173  0.5079
 2207SOL    HW118257   1.125   2.401   4.254 -0.2950  0.8248 -1.0413
 2207SOL    HW218258   1.131   2.541   4.312  0.8153  1.1286  0.2254
 2208SOL     OW18259   1.944   3.453   3.624  0.7537  0.2734  0.7435
 2208SOL    HW118260   1.910   3.375   3.668  0.8579 -0.3242 -0.2366
 2208SOL    HW218261   1.985   3.414   3.547 -0.2308  0.2236  0.2412
 2209SOL     OW18262   3.174   2.755   6.680  0.2254  0.1003 -0.1820
 2209SOL    HW118263   3.270   2.754   6.673  0.3652 -1.4996  1.7630
 2209SOL    HW218264   3.149   2.784   6.768  1.8895  3.3962 -0.8045
 2210SOL     OW18265   1.624   0.969  15.221 -0.0882 -0.0559 -0.1307
 2210SOL    HW118266   1.703   0.917  15.212 -0.8940 -1.1475 -0.8324
 2210SOL    HW218267   1.602   0.978  15.129 -0.9333  0.6652  0.1312
 2211SOL     OW18268   3.387   3.069  17.654  0.7252  0.1149 -0.3769
 2211SOL    HW118269   3.461   3.054  17.713 -0.2503 -0.1041  0.7800
 2211SOL    HW218270   3.427   3.113  17.579  1.0210  0.1308 -0.2095
 2212SOL     OW18271   0.898   0.855   1.381  0.1586  0.5344 -0.6264
 2212SOL    HW118272   0.948   0.784   1.421  1.5454  0.8874 -1.7567
 2212SOL    HW218273   0.820   0.808   1.351 -0.3748  1.5008 -0.7482
 2213SOL     OW18274   3.113   3.612   5.532 -0.2040  0.4716  0.1290
 2213SOL    HW118275   3.096   3.551   5.460  0.7542 -0.4204  0.6459
 2213SOL    HW218276   3.095   3.549   5.601 -2.3659 -0.3206 -1.1668
 2214SOL     OW18277   3.061   3.786   6.917  0.1388 -0.2926 -0.2427
 2214SOL    HW118278   3.094   3.697   6.929  3.3972  0.9084 -0.2639
 2214SOL    HW218279   3.024   3.799   7.005  1.1981  0.9500  0.0103
 2215SOL     OW18280   0.372   2.330  14.205 -0.0225  0.2632  0.3448
 2215SOL    HW118281   0.358   2.288  14.290  0.7420 -0.0295  0.3255
 2215SOL    HW218282   0.331   2.415  14.221 -2.2503 -0.8005  0.3273
 2216SOL     OW18283   0.353   4.003   6.059 -0.1520 -0.4208  0.8460
 2216SOL    HW118284   0.362   4.098   6.069 -0.9579 -0.2096 -0.5166
 2216SOL    HW218285   0.439   3.981   6.096 -0.0837 -1.5669  0.0027
 2217SOL     OW18286   0.686   2.089  15.521 -0.2141 -0.1594  0.0025
 2217SOL    HW118287   0.629   2.075  15.598  0.5777 -2.2135  0.2195
 2217SOL    HW218288   0.657   2.179  15.504  1.2619  0.0416 -1.3792
 2218SOL     OW18289   0.831   3.708  14.904  0.9989 -0.0769 -0.4468
 2218SOL    HW118290   0.744   3.686  14.871  0.6914  3.0568 -1.7410
 2218SOL    HW218291   0.885   3.701  14.826 -0.5646  2.5456 -1.7933
 2219SOL     OW18292   4.437   1.721   8.525  0.3604  0.5485 -0.4872
 2219SOL    HW118293   4.434   1.765   8.440 -1.0947  2.4086  0.5418
 2219SOL    HW218294   4.477   1.640   8.492  0.1610 -0.0477  0.7468
 2220SOL     OW18295   1.396   0.891   0.895 -0.2221  0.6409  0.5697
 2220SOL    HW118296   1.424   0.899   0.804  0.1824  0.0720  0.6481
 2220SOL    HW218297   1.483   0.882   0.934  0.9010  2.0148 -1.5908
 2221SOL     OW18298   1.643   0.614   4.171 -0.2062  0.6074 -0.0501
 2221SOL    HW118299   1.701   0.570   4.109  0.1112  0.1655  0.5448
 2221SOL    HW218300   1.694   0.693   4.189 -0.8546  0.8253  0.8225
 2222SOL     OW18301   1.180   4.416   5.284  0.3017  0.4647  0.1993
 2222SOL    HW118302   1.129   4.395   5.205 -0.8197 -1.1275  1.3421
 2222SOL    HW218303   1.259   4.447   5.240  0.0313  0.2957 -0.4111
 2223SOL     OW18304   1.472   3.420   2.421  0.3194  0.2669  0.2495
 2223SOL    HW118305   1.531   3.388   2.490 -2.0264 -0.3066  1.9950
 2223SOL    HW218306   1.533   3.455   2.357 -1.4554  0.1930 -1.4813
 2224SOL     OW18307   2.581   1.082   8.302 -0.2787 -0.1042  0.3715
 2224SOL    HW118308   2.570   1.008   8.363  1.1849 -1.3143 -0.8471
 2224SOL    HW218309   2.489   1.102   8.285 -0.0383  0.0627 -0.6838
 2225SOL     OW18310   3.779   4.330   2.143  0.2774  0.1830  0.2047
 2225SOL    HW118311   3.740   4.245   2.164 -0.5932  0.9809  1.7920
 2225SOL    HW218312   3.745   4.340   2.054  2.2096  0.5874 -0.4862
 2226SOL     OW18313   4.011   3.461   0.917 -0.4254 -0.0292  0.4028
 2226SOL    HW118314   3.996   3.495   0.829  1.0540  1.2175  0.6386
 2226SOL    HW218315   4.005   3.371   0.886  1.3223  0.7234 -2.0789
 2227SOL     OW18316   2.043   0.041   7.010 -0.1457  0.4067 -0.0375
 2227SOL    HW118317   2.081   4.688   7.022  1.3826  1.1714  0.6064
 2227SOL    HW218318   2.036   0.042   6.914  1.0445 -2.7717 -0.1702
 2228SOL     OW18319   2.668   3.626   6.932 -0.4092  1.0525 -0.0744
 2228SOL    HW118320   2.651   3.554   6.993 -0.9191  1.8932  0.7762
 2228SOL    HW218321   2.618   3.598   6.856  2.1153  0.4537 -1.4942
 2229SOL     OW18322   3.175   0.406   1.372 -0.7242  0.6817 -0.2331
 2229SOL    HW118323   3.145   0.375   1.458 -0.1095 -0.8564 -0.5708
 2229SOL    HW218324   3.259   0.453   1.379 -0.5610  0.2184  1.0025
 2230SOL     OW18325   3.390   2.878   5.939 -0.6289 -0.3991 -0.2485
 2230SOL    HW118326   3.447   2.875   6.017 -0.7171 -0.0767 -0.1729
 2230SOL    HW218327   3.350   2.791   5.944  0.7541 -0.9984  0.5808
 2231SOL     OW18328   4.655   3.649   5.251  0.7454  0.0152 -0.0521
 2231SOL    HW118329   4.604   3.729   5.264  3.3260  1.4803  1.0737
 2231SOL    HW218330   4.709   3.665   5.328  0.5373 -1.0578  0.3208
 2232SOL     OW18331   3.996   4.283  14.019  0.0361 -0.2422 -0.8935
 2232SOL    HW118332   4.064   4.280  13.952 -0.5325 -1.5209 -1.4148
 2232SOL    HW218333   3.917   4.253  13.975 -2.0380  0.1478  2.5971
 2233SOL     OW18334   3.316   3.712   6.747  0.4747  0.0131 -0.6711
 2233SOL    HW118335   3.407   3.689   6.730  0.9568  0.3673  1.4792
 2233SOL    HW218336   3.321   3.808   6.738 -2.6295  0.1858 -0.4744
 2234SOL     OW18337   3.591   0.411   7.173  0.6871  0.1351 -0.1919
 2234SOL    HW118338   3.568   0.340   7.114 -1.0654  1.9207 -1.6439
 2234SOL    HW218339   3.506   0.455   7.180 -0.4785 -1.7251 -2.8279
 2235SOL     OW18340   3.088   4.640  10.013  0.3275 -0.5790  0.5763
 2235SOL    HW118341   3.074   4.708   9.946  2.6296  0.1939  0.8889
 2235SOL    HW218342   3.062   4.694  10.088 -1.5949  1.9510 -1.9009
 2236SOL     OW18343   4.149   2.770   4.472 -0.1068  0.1070 -0.4810
 2236SOL    HW118344   4.204   2.836   4.429 -1.4466  1.3294 -0.3120
 2236SOL    HW218345   4.087   2.821   4.525 -0.7684 -1.5080  0.2773
 2237SOL     OW18346   2.809   2.043   4.755 -0.1251 -0.0534  0.8490
 2237SOL    HW118347   2.724   2.078   4.730 -0.0083 -0.8138 -0.6207
 2237SOL    HW218348   2.840   2.021   4.667 -3.5428 -1.2967 -0.0338
 2238SOL     OW18349   2.287   0.151   2.890 -0.1617 -0.3866 -0.3740
 2238SOL    HW118350   2.357   0.209   2.860 -1.5287  0.3644 -2.1372
 2238SOL    HW218351   2.244   0.115   2.812 -0.2129  3.5473 -2.1760
 2239SOL     OW18352   0.638   1.076   5.733 -0.0600  0.9172 -0.0217
 2239SOL    HW118353   0.612   1.054   5.644  1.1483  0.6077 -0.3079
 2239SOL    HW218354   0.713   1.131   5.711 -0.9902  0.5509 -4.1302
 2240SOL     OW18355   4.180   1.458   5.152  0.1698 -0.1306  0.3990
 2240SOL    HW118356   4.161   1.501   5.235 -1.5824 -0.0314 -0.0482
 2240SOL    HW218357   4.093   1.436   5.119  0.0739 -0.5370  0.9031
 2241SOL     OW18358   3.336   1.727   5.717  0.4485  0.5040 -0.4015
 2241SOL    HW118359   3.400   1.660   5.738  0.1535 -0.0629 -1.2953
 2241SOL    HW218360   3.300   1.752   5.803  1.2934 -0.9638  0.3604
 2242SOL     OW18361   3.838   0.929   9.418 -0.0917  0.1685 -0.6108
 2242SOL    HW118362   3.876   0.857   9.369  0.4767  1.2231 -1.7255
 2242SOL    HW218363   3.744   0.912   9.404 -0.1226  1.1552 -1.6397
 2243SOL     OW18364   0.484   1.518   9.418  0.3245  0.4204 -0.3783
 2243SOL    HW118365   0.572   1.484   9.432 -1.0315 -3.4440 -1.1506
 2243SOL    HW218366   0.494   1.589   9.355 -0.1802  1.1725  0.3906
 2244SOL     OW18367   2.291   4.495   3.779  0.7254  0.1226  0.1655
 2244SOL    HW118368   2.381   4.491   3.810  0.7440 -1.3594 -0.0943
 2244SOL    HW218369   2.258   4.407   3.797  0.6322  1.0719  4.6971
 2245SOL     OW18370   4.303   2.822   7.027  1.0545  0.0892  0.1792
 2245SOL    HW118371   4.345   2.903   7.058  1.3814  0.2114 -0.5828
 2245SOL    HW218372   4.357   2.806   6.950  0.3546 -3.0866  0.3410
 2246SOL     OW18373   3.968   4.357   7.353 -0.5626  0.0263 -0.4937
 2246SOL    HW118374   3.909   4.432   7.360  0.1376  0.5987 -0.7546
 2246SOL    HW218375   3.982   4.341   7.260 -0.3582 -0.2909 -0.4103
 2247SOL     OW18376   0.544   1.121   6.867 -0.3642  0.0693 -0.7080
 2247SOL    HW118377   0.539   1.181   6.941 -0.5311  1.5747 -1.9143
 2247SOL    HW218378   0.503   1.187   6.810  0.9692  0.4334 -1.2577
 2248SOL     OW18379   3.979   3.604   1.871  0.1247  0.0212  0.4230
 2248SOL    HW118380   3.950   3.570   1.787 -0.4357  0.7865  0.3046
 2248SOL    HW218381   3.903   3.655   1.899 -0.9905 -1.2474 -0.3033
 2249SOL     OW18382   1.359   2.719  10.246 -0.4844  0.0364  0.4129
 2249SOL    HW118383   1.296   2.728  10.317 -2.6779 -1.4008 -1.3610
 2249SOL    HW218384   1.322   2.649  10.193 -3.5453  0.0140  2.6036
 2250SOL     OW18385   2.147   2.224   6.474  0.2847 -0.0920  0.5073
 2250SOL    HW118386   2.065   2.196   6.435  0.4321  1.0641 -0.6236
 2250SOL    HW218387   2.177   2.151   6.528  0.8129  1.4637  2.3103
 2251SOL     OW18388   0.895   2.729   9.413  0.0046 -0.1583  0.0018
 2251SOL    HW118389   0.978   2.718   9.459  0.2393  1.0822 -0.1183
 2251SOL    HW218390   0.905   2.657   9.351  0.6404  1.6952 -2.0260
 2252SOL     OW18391   0.324   1.002   1.972 -0.4881  0.2100  0.1804
 2252SOL    HW118392   0.241   0.981   2.015  1.4445 -0.8670  3.3889
 2252SOL    HW218393   0.384   0.945   2.020 -0.2221  0.3624  0.0251
 2253SOL     OW18394   2.001   1.395   4.351 -0.1497 -0.0319  0.4089
 2253SOL    HW118395   1.969   1.352   4.272  0.3018  1.0527 -0.3596
 2253SOL    HW218396   1.919   1.428   4.388 -0.2893  0.1828 -0.0955
 2254SOL     OW18397   1.260   4.053   4.994  0.2631  0.1037 -0.0926
 2254SOL    HW118398   1.215   4.057   5.078 -0.5806 -2.7218 -0.4304
 2254SOL    HW218399   1.235   3.969   4.957 -1.0382 -1.0314  3.3950
 2255SOL     OW18400   1.142   0.303   4.761  0.1404  0.2684  0.2457
 2255SOL    HW118401   1.066   0.286   4.705  0.8215  0.0699 -0.6209
 2255SOL    HW218402   1.186   0.218   4.764 -0.7827 -0.3790 -3.6825
 2256SOL     OW18403   3.685   0.375   5.231  0.8084 -0.5859  0.9113
 2256SOL    HW118404   3.769   0.358   5.273  1.1924  2.6230  1.4232
 2256SOL    HW218405   3.630   0.336   5.299 -0.5596  0.4149  0.3786
 2257SOL     OW18406   1.617   2.513   8.455  0.1153 -0.9029  0.1213
 2257SOL    HW118407   1.597   2.605   8.436 -1.4475 -1.0109  1.2944
 2257SOL    HW218408   1.564   2.499   8.533 -0.0771 -0.9793 -0.0227
 2258SOL     OW18409   3.689   3.682   5.847  0.2001  0.3418 -0.3422
 2258SOL    HW118410   3.673   3.600   5.895 -1.7204  0.6013 -0.5495
 2258SOL    HW218411   3.612   3.704   5.795 -1.3614  0.5191  2.0271
 2259SOL     OW18412   0.160   4.328   8.995  0.2773  0.1145  0.2401
 2259SOL    HW118413   0.181   4.409   8.948 -0.3369  0.8718  1.2805
 2259SOL    HW218414   0.165   4.261   8.927 -1.1011  0.2053  0.0487
 2260SOL     OW18415   3.283   2.680   9.535  0.3782 -0.2799  0.0636
 2260SOL    HW118416   3.319   2.609   9.589 -0.3558  0.7348  1.9094
 2260SOL    HW218417   3.190   2.658   9.542  0.5054 -0.8256  0.0505
 2261SOL     OW18418   1.788   0.525   3.132  0.2948 -0.1071 -0.2146
 2261SOL    HW118419   1.783   0.609   3.177  0.6384 -1.0539  1.6187
 2261SOL    HW218420   1.696   0.502   3.133 -0.5945  3.5741  1.7947
 2262SOL     OW18421   1.712   0.700  12.586  0.2010 -0.0579 -0.1572
 2262SOL    HW118422   1.653   0.775  12.583  0.4132  0.0168 -2.3777
 2262SOL    HW218423   1.769   0.735  12.655  0.1095  0.2904 -0.2617
 2263SOL     OW18424   2.188   1.308   5.418 -0.0496  0.1372  0.4141
 2263SOL    HW118425   2.231   1.389   5.394  0.2652 -0.4442 -1.0039
 2263SOL    HW218426   2.136   1.345   5.489 -0.7307  1.4711 -0.7889
 2264SOL     OW18427   0.878   0.271   1.710 -0.0407 -0.0081  0.0318
 2264SOL    HW118428   0.964   0.300   1.680 -0.2941 -0.4210 -1.1102
 2264SOL    HW218429   0.839   0.359   1.708 -1.3967 -0.6208 -1.1839
 2265SOL     OW18430   2.757   0.950   9.888  0.0832  0.0054  0.9104
 2265SOL    HW118431   2.798   0.880   9.938  0.9189  0.6171  1.0642
 2265SOL    HW218432   2.830   0.978   9.832 -0.0901 -1.2974  0.0325
 2266SOL     OW18433   1.199   1.100   4.250 -0.5265  0.2596 -0.1001
 2266SOL    HW118434   1.171   1.009   4.253 -0.9235  0.4073  0.8993
 2266SOL    HW218435   1.252   1.100   4.330  0.6184 -0.0732 -0.8462
 2267SOL     OW18436   2.199   2.091   0.163 -0.0636 -0.5355  0.2829
 2267SOL    HW118437   2.189   2.131   0.077  3.2748  0.8647  0.5557
 2267SOL    HW218438   2.129   2.026   0.159 -0.1411 -0.4345 -0.0288
 2268SOL     OW18439   3.314   4.201   4.266  0.2941 -0.4584 -0.3832
 2268SOL    HW118440   3.289   4.254   4.191 -0.5223 -1.4360 -0.8089
 2268SOL    HW218441   3.304   4.113   4.228 -0.6926 -0.5926  0.1993
 2269SOL     OW18442   0.392   2.934  16.443  0.4168  0.2224 -0.0657
 2269SOL    HW118443   0.302   2.967  16.451  0.9252  1.9903 -1.8722
 2269SOL    HW218444   0.432   2.997  16.384  0.4526  0.8333  0.6053
 2270SOL     OW18445   1.785   1.810   3.870  0.1558  0.3177  0.0598
 2270SOL    HW118446   1.754   1.900   3.878 -0.6247  0.1191 -0.6327
 2270SOL    HW218447   1.873   1.821   3.906 -1.0742 -3.4630  4.1769
 2271SOL     OW18448   0.317   0.198   3.376  0.0214 -0.2511  0.0857
 2271SOL    HW118449   0.225   0.217   3.355 -0.4818  0.0173  2.5242
 2271SOL    HW218450   0.304   0.118   3.427  1.8599 -0.3241  0.4392
 2272SOL     OW18451   3.203   3.492  11.548  0.2241  0.7306  0.1313
 2272SOL    HW118452   3.153   3.537  11.480  0.2528  0.4499 -0.0741
 2272SOL    HW218453   3.254   3.568  11.577 -1.3339  2.0504 -0.6112
 2273SOL     OW18454   3.046   2.000  15.185 -0.4474 -0.2757 -0.0555
 2273SOL    HW118455   3.109   1.948  15.135 -0.1005 -1.2480  1.4060
 2273SOL    HW218456   3.007   1.934  15.242 -0.3690  0.0620  0.3877
 2274SOL     OW18457   1.336   3.484   8.579  0.3495  0.4493 -0.4027
 2274SOL    HW118458   1.293   3.567   8.560  0.0366  1.0186  2.9073
 2274SOL    HW218459   1.399   3.470   8.507 -0.1832  3.5125 -1.4617
 2275SOL     OW18460   0.368   3.991  12.836  0.4380 -0.1110  0.6630
 2275SOL    HW118461   0.316   4.008  12.757  1.2159  2.0644  0.6059
 2275SOL    HW218462   0.296   4.001  12.898  1.1244  0.8769  1.2987
 2276SOL     OW18463   4.112   2.429  17.279  0.2070 -0.6124 -0.2528
 2276SOL    HW118464   4.149   2.352  17.234  1.3380  1.1401 -2.3600
 2276SOL    HW218465   4.077   2.471  17.200  0.3124  0.2274  0.1421
 2277SOL     OW18466   4.665   3.106   8.093 -0.0838 -0.5501  0.1169
 2277SOL    HW118467   4.648   3.190   8.134  0.6015 -0.1998 -0.3065
 2277SOL    HW218468   4.579   3.071   8.072 -0.8374  1.0009  0.6430
 2278SOL     OW18469   0.881   3.971   9.407 -0.5332 -0.7931 -0.1315
 2278SOL    HW118470   0.846   4.015   9.330 -0.9447 -0.1644  0.4098
 2278SOL    HW218471   0.818   3.901   9.423  0.0591 -1.1784  0.4847
 2279SOL     OW18472   4.392   0.272   7.992 -0.2697 -0.3482  0.1894
 2279SOL    HW118473   4.334   0.262   8.067  0.3413 -0.0919  0.6918
 2279SOL    HW218474   4.343   0.343   7.951 -1.5054 -2.8677 -2.7260
 2280SOL     OW18475   0.750   0.453   3.126 -0.5904 -0.0668 -0.1671
 2280SOL    HW118476   0.822   0.406   3.168  0.2300  1.0160 -0.3240
 2280SOL    HW218477   0.671   0.411   3.158 -1.1647 -1.3626 -3.3007
 2281SOL     OW18478   2.288   3.718   5.589 -0.4698  0.2451 -0.3481
 2281SOL    HW118479   2.312   3.668   5.511  0.8957 -0.1981  0.3610
 2281SOL    HW218480   2.202   3.754   5.567  1.5841  4.6564 -1.2154
 2282SOL     OW18481   2.039   4.680   2.650 -0.5572 -0.1245 -0.8857
 2282SOL    HW118482   2.048   4.634   2.734 -0.2172  1.6304  0.0436
 2282SOL    HW218483   1.945   4.672   2.639 -0.3918 -2.9026 -0.3782
 2283SOL     OW18484   0.915   3.714   7.107  0.1496 -0.0108 -0.0711
 2283SOL    HW118485   0.909   3.677   7.195 -1.5141  0.4447  0.0161
 2283SOL    HW218486   0.824   3.721   7.077  0.1010  0.0048  0.0791
 2284SOL     OW18487   4.474   1.642  14.629 -0.3338 -0.1202 -0.6824
 2284SOL    HW118488   4.566   1.667  14.622  0.1592 -2.1542 -1.4882
 2284SOL    HW218489   4.456   1.684  14.714 -1.5009 -1.4688 -0.2627
 2285SOL     OW18490   0.162   1.567  16.648 -0.0917  0.3830  0.3391
 2285SOL    HW118491   0.108   1.646  16.648 -1.5906 -0.6454  0.1416
 2285SOL    HW218492   0.222   1.575  16.723  1.2599  0.8670 -0.7938
 2286SOL     OW18493   2.219   1.618   7.407  0.3213  0.3121 -0.1991
 2286SOL    HW118494   2.133   1.576   7.412  0.6970 -0.8017 -2.6674
 2286SOL    HW218495   2.253   1.597   7.494 -0.7351 -0.5876  0.0028
 2287SOL     OW18496   3.834   1.762  12.636  0.1362  0.2474  0.0181
 2287SOL    HW118497   3.808   1.796  12.550  0.2606  1.1406  0.3367
 2287SOL    HW218498   3.869   1.842  12.675 -0.7026  1.8342 -2.5444
 2288SOL     OW18499   3.968   1.834   7.706  0.5013 -0.2909  0.2201
 2288SOL    HW118500   3.983   1.929   7.709 -1.0961  0.0624 -2.7602
 2288SOL    HW218501   3.897   1.838   7.770  0.0877 -1.5565 -0.1611
 2289SOL     OW18502   0.809   4.682   3.032 -0.1596  0.5767 -0.0391
 2289SOL    HW118503   0.751   4.711   2.962 -0.8606  1.3508  0.8557
 2289SOL    HW218504   0.850   4.604   2.995 -0.1112  1.2945 -1.4806
 2290SOL     OW18505   3.487   2.143   2.017 -0.2464  0.1732 -0.4484
 2290SOL    HW118506   3.479   2.219   2.075  0.0531  0.7831 -1.2024
 2290SOL    HW218507   3.413   2.156   1.959 -0.9942 -0.3822  0.3807
 2291SOL     OW18508   3.308   1.345   4.335  0.5024  0.0027 -0.5468
 2291SOL    HW118509   3.237   1.407   4.316 -0.6629 -0.9949  0.5920
 2291SOL    HW218510   3.373   1.409   4.365  0.5613 -1.9824  3.4409
 2292SOL     OW18511   3.312   4.479   3.263 -0.0914  0.7754 -0.4898
 2292SOL    HW118512   3.303   4.524   3.180 -0.8910  0.4674 -0.5772
 2292SOL    HW218513   3.370   4.540   3.309  0.2064  0.2418 -0.1588
 2293SOL     OW18514   4.010   1.696   3.053  0.4564  0.2523 -0.4392
 2293SOL    HW118515   4.042   1.646   2.978  2.1654 -1.9810  1.7476
 2293SOL    HW218516   3.960   1.771   3.023 -3.3198 -2.4763 -1.0190
 2294SOL     OW18517   0.219   4.094   7.514 -0.5150  0.1913  0.4760
 2294SOL    HW118518   0.205   4.112   7.607 -0.5040 -0.3451  0.5779
 2294SOL    HW218519   0.179   4.009   7.498  0.0273 -0.0837  0.5891
 2295SOL     OW18520   1.506   2.356   6.282  0.2092 -0.4382 -0.1126
 2295SOL    HW118521   1.549   2.433   6.319  0.8446 -1.4624  1.3005
 2295SOL    HW218522   1.525   2.286   6.344 -2.1151  0.9026  2.1095
 2296SOL     OW18523   3.111   0.438  13.694  0.3040  0.0007 -0.2755
 2296SOL    HW118524   3.197   0.404  13.721  0.9392  1.2951 -0.6418
 2296SOL    HW218525   3.086   0.493  13.768  0.3697  1.0252 -1.0132
 2297SOL     OW18526   3.601   3.759   0.925  0.0025  0.0061 -0.2923
 2297SOL    HW118527   3.575   3.700   0.996 -0.6119 -1.4581 -1.7443
 2297SOL    HW218528   3.695   3.753   0.943 -0.1502 -2.0310 -0.2437
 2298SOL     OW18529   4.569   0.074   7.391  0.5927  0.5222 -0.7218
 2298SOL    HW118530   4.552   0.008   7.458  2.0142 -0.0142 -0.8820
 2298SOL    HW218531   4.649   0.041   7.351  0.8803 -1.1897  1.2703
 2299SOL     OW18532   3.083   2.392  11.115  0.3136  0.4502 -0.8327
 2299SOL    HW118533   3.178   2.381  11.107  0.8368  1.6873  3.7993
 2299SOL    HW218534   3.056   2.332  11.045  0.2362  0.6505 -0.9757
 2300SOL     OW18535   0.395   2.218   6.892 -0.0852 -0.1364  0.1540
 2300SOL    HW118536   0.427   2.162   6.822 -1.0672 -0.6276  0.0970
 2300SOL    HW218537   0.315   2.252   6.852  1.0577  1.3137 -0.8541
 2301SOL     OW18538   2.979   1.530   0.410  0.2178  0.4570  0.6399
 2301SOL    HW118539   3.016   1.550   0.324  1.4827  3.0028  1.7434
 2301SOL    HW218540   3.014   1.443   0.428 -2.4398 -1.1445 -1.8629
 2302SOL     OW18541   3.444   0.004   5.459 -0.1991 -0.4033 -0.0618
 2302SOL    HW118542   3.498   0.026   5.536  1.9954 -2.6312 -0.9655
 2302SOL    HW218543   3.358   4.729   5.499  0.0330  1.5125  0.9324
 2303SOL     OW18544   2.938   1.346  14.768  0.0101  0.2385 -0.0873
 2303SOL    HW118545   2.882   1.419  14.792  0.5782  0.7345 -0.2598
 2303SOL    HW218546   2.923   1.289  14.843 -0.4020  1.6035  0.8690
 2304SOL     OW18547   1.388   1.048   4.485  0.5509  0.0091 -0.6187
 2304SOL    HW118548   1.366   1.061   4.577  0.4565 -0.2069 -0.6094
 2304SOL    HW218549   1.467   0.993   4.493  1.4972  1.4303 -0.2013
 2305SOL     OW18550   3.748   1.508   2.929  0.3593  0.6735  0.2202
 2305SOL    HW118551   3.827   1.544   2.887  0.0174  0.5205 -0.5519
 2305SOL    HW218552   3.706   1.460   2.858 -1.1373  1.7970  0.3490
 2306SOL     OW18553   2.583   0.027   7.691 -0.3226  0.5395 -0.3798
 2306SOL    HW118554   2.577   4.666   7.688  1.2057  0.4030  0.8231
 2306SOL    HW218555   2.630   0.036   7.774  0.2423  0.7266 -0.7243
 2307SOL     OW18556   0.636   3.424   9.641 -0.0919  0.6178  0.2630
 2307SOL    HW118557   0.707   3.484   9.621  0.6231  0.4562  2.2919
 2307SOL    HW218558   0.698   3.351   9.642  1.1345  1.6708  0.5573
 2308SOL     OW18559   1.088   3.103   3.156 -0.1239 -0.5510 -0.3959
 2308SOL    HW118560   1.161   3.130   3.212  0.0750 -1.1194 -0.3912
 2308SOL    HW218561   1.132   3.064   3.081  0.9915 -0.5223  0.2416
 2309SOL     OW18562   3.310   3.255  11.687  0.3748 -0.3252 -0.2293
 2309SOL    HW118563   3.276   3.336  11.649  1.4540  1.6019  2.8887
 2309SOL    HW218564   3.284   3.210  11.606  0.7992 -0.0994 -0.4970
 2310SOL     OW18565   1.651   4.455   6.815  0.1236 -0.2953 -0.0369
 2310SOL    HW118566   1.717   4.525   6.818  1.5852 -1.6461 -0.4858
 2310SOL    HW218567   1.576   4.498   6.774 -0.6030 -1.0965  0.4791
 2311SOL     OW18568   2.826   1.581  14.880  0.0458 -0.7219  0.2316
 2311SOL    HW118569   2.739   1.575  14.840  0.2127 -2.0057  0.0834
 2311SOL    HW218570   2.856   1.672  14.869 -2.7649  0.1619 -0.1924
 2312SOL     OW18571   1.346   2.186   9.962 -0.8782 -0.0279 -0.4578
 2312SOL    HW118572   1.298   2.269   9.956  3.0190  2.1521 -1.6446
 2312SOL    HW218573   1.428   2.219   9.926 -0.1103 -1.0088  0.4198
 2313SOL     OW18574   0.401   0.909   7.810 -0.0369 -0.3551  0.2096
 2313SOL    HW118575   0.470   0.844   7.793  0.4656  0.0039  0.9073
 2313SOL    HW218576   0.370   0.916   7.720  2.7898 -0.9449 -0.8217
 2314SOL     OW18577   1.436   2.618  13.970  0.0970 -0.0510 -0.1053
 2314SOL    HW118578   1.345   2.625  13.999 -0.4854  0.1968 -1.9988
 2314SOL    HW218579   1.464   2.709  13.965 -1.5861  0.4486 -0.3058
 2315SOL     OW18580   2.668   0.022   4.440  0.1321 -0.2046 -0.1963
 2315SOL    HW118581   2.666   0.098   4.382 -0.6602  0.7893  1.1669
 2315SOL    HW218582   2.595   4.707   4.402  1.0303 -0.2465 -1.8771
 2316SOL     OW18583   2.557   0.140   6.566 -0.2695 -0.2109  0.2259
 2316SOL    HW118584   2.538   0.233   6.576  0.3984  0.1300 -1.8580
 2316SOL    HW218585   2.485   0.101   6.616 -0.3516 -0.4499 -0.0847
 2317SOL     OW18586   4.639   3.864   8.810 -0.3847  0.4687 -0.0628
 2317SOL    HW118587   4.683   3.780   8.800  3.0587  1.9493  2.8685
 2317SOL    HW218588   4.587   3.860   8.891  0.1030 -1.4153  0.1667
 2318SOL     OW18589   2.533   0.528   2.329  0.0816 -1.0071  0.5693
 2318SOL    HW118590   2.576   0.599   2.283  0.8848 -1.9034 -0.0475
 2318SOL    HW218591   2.439   0.536   2.309  0.7652  1.3221 -1.6664
 2319SOL     OW18592   1.625   3.608  16.261  0.5062 -0.5253 -0.1488
 2319SOL    HW118593   1.553   3.665  16.288  1.9106  1.9847 -1.6831
 2319SOL    HW218594   1.589   3.521  16.277 -1.8652  0.3452 -0.8875
 2320SOL     OW18595   0.920   3.964   7.155 -0.6748 -0.6384  0.7065
 2320SOL    HW118596   0.957   4.009   7.079  0.1637 -0.2766  1.3182
 2320SOL    HW218597   0.946   3.873   7.141  1.0549  0.0360 -0.5975
 2321SOL     OW18598   3.930   2.625   4.339  0.2435 -0.4134  0.2986
 2321SOL    HW118599   3.917   2.657   4.250  1.3327  2.9974  1.3632
 2321SOL    HW218600   4.000   2.681   4.372 -1.9161  0.4744  3.3695
 2322SOL     OW18601   4.281   0.709  16.257  0.5370  0.0258  0.0637
 2322SOL    HW118602   4.274   0.774  16.187 -0.0683 -1.1192 -0.9481
 2322SOL    HW218603   4.222   0.640  16.225  1.4631 -0.2159 -1.1125
 2323SOL     OW18604   2.071   1.281   7.859  0.5014 -0.3437 -0.1170
 2323SOL    HW118605   2.069   1.307   7.767 -0.8407 -0.2481 -0.0542
 2323SOL    HW218606   1.996   1.223   7.861  0.0906  0.2544  2.2462
 2324SOL     OW18607   3.212   3.071  14.710 -0.2100  0.2308  0.6314
 2324SOL    HW118608   3.135   3.035  14.666  0.4845 -0.3531 -0.1044
 2324SOL    HW218609   3.284   3.052  14.649 -1.4193 -0.1738 -0.6670
 2325SOL     OW18610   3.492   3.060  14.807  0.3110  0.1184  0.5911
 2325SOL    HW118611   3.554   3.014  14.751  1.0448  1.5340  0.2471
 2325SOL    HW218612   3.407   3.019  14.792  0.2755  0.3826  0.0934
 2326SOL     OW18613   1.574   2.554  11.304 -0.3148  0.0865  0.4249
 2326SOL    HW118614   1.668   2.547  11.286 -0.5756 -1.5459 -0.3510
 2326SOL    HW218615   1.574   2.620  11.373 -0.1550  1.0781 -0.5172
 2327SOL     OW18616   0.649   0.410   0.372 -0.0737 -0.0631 -0.0666
 2327SOL    HW118617   0.718   0.351   0.402  0.7030  0.6410 -0.4625
 2327SOL    HW218618   0.626   0.431   0.462 -0.3422  1.2148 -0.4250
 2328SOL     OW18619   1.037   2.757   3.065 -0.0335  0.5378 -0.4090
 2328SOL    HW118620   0.969   2.824   3.061  0.6135  1.2317  0.3014
 2328SOL    HW218621   1.069   2.766   2.975 -1.7800  3.0025 -0.7848
 2329SOL     OW18622   0.947   2.030   2.403 -0.0094  0.2435  0.1455
 2329SOL    HW118623   0.950   2.125   2.386  0.3912  0.4101  1.1326
 2329SOL    HW218624   0.857   2.017   2.432  0.3026  0.9472  1.4440
 2330SOL     OW18625   4.521   0.533   2.502 -0.2446  0.2902  0.2449
 2330SOL    HW118626   4.450   0.529   2.566  1.3036 -0.2154  1.9238
 2330SOL    HW218627   4.462   0.575   2.440  1.5918  3.1764  0.4643
 2331SOL     OW18628   3.758   0.063   7.567  0.0326  0.2177 -0.5075
 2331SOL    HW118629   3.821   0.135   7.576  2.3931 -1.3934 -4.0108
 2331SOL    HW218630   3.677   0.111   7.581  0.9057  1.0860  1.5528
 2332SOL     OW18631   3.277   4.341  16.876  0.0908 -0.0869 -0.0698
 2332SOL    HW118632   3.296   4.434  16.888 -1.1901  0.4591 -2.4413
 2332SOL    HW218633   3.345   4.302  16.931  0.0458 -0.3106 -0.1729
 2333SOL     OW18634   2.388   1.625   2.748 -0.4028  0.4065 -0.3242
 2333SOL    HW118635   2.339   1.595   2.672 -0.1877 -0.0957 -0.2680
 2333SOL    HW218636   2.463   1.668   2.709 -1.5962 -0.9064 -4.0434
 2334SOL     OW18637   2.273   3.865   4.205 -0.3232  0.3561  0.4873
 2334SOL    HW118638   2.186   3.898   4.182 -0.3995 -0.6372 -0.6565
 2334SOL    HW218639   2.316   3.879   4.121  0.0002 -0.9920  0.4248
 2335SOL     OW18640   2.127   4.631   8.674  0.4666  0.5051 -0.5075
 2335SOL    HW118641   2.073   4.710   8.675  0.3931  0.4527 -0.2524
 2335SOL    HW218642   2.210   4.671   8.651  0.4063  1.0664  0.2214
 2336SOL     OW18643   3.456   3.619   5.257 -0.2610  0.5782 -0.0503
 2336SOL    HW118644   3.492   3.685   5.197 -1.8713 -0.4432 -2.1632
 2336SOL    HW218645   3.536   3.572   5.281 -1.2866 -1.4703 -0.5759
 2337SOL     OW18646   0.808   0.627  12.476 -0.2313 -0.0036  0.1883
 2337SOL    HW118647   0.817   0.677  12.557  1.9262  1.3202 -0.8654
 2337SOL    HW218648   0.728   0.577  12.495  1.6127 -2.2178  2.0020
 2338SOL     OW18649   2.328   2.151   5.248 -0.2300 -0.3698  0.1229
 2338SOL    HW118650   2.390   2.225   5.243 -2.6438  1.6293 -0.3600
 2338SOL    HW218651   2.385   2.075   5.240 -0.6080 -0.5680 -0.6768
 2339SOL     OW18652   1.432   0.679   4.003 -0.6220  0.3497 -0.0598
 2339SOL    HW118653   1.433   0.588   3.973 -1.5387 -0.1998  1.5431
 2339SOL    HW218654   1.473   0.671   4.089 -0.7298 -0.0699 -0.0427
 2340SOL     OW18655   2.569   1.147   5.661 -0.2758  0.1829 -0.5604
 2340SOL    HW118656   2.646   1.179   5.613 -0.0593  0.8434  0.2392
 2340SOL    HW218657   2.523   1.102   5.590 -3.2128 -0.4747  1.7653
 2341SOL     OW18658   3.081   4.268   4.900 -0.2707  0.2886 -0.4207
 2341SOL    HW118659   3.003   4.242   4.850 -0.1381  0.6817 -0.8302
 2341SOL    HW218660   3.062   4.251   4.992  1.1200  2.1169  0.1995
 2342SOL     OW18661   3.535   3.252   1.957 -0.4817 -0.0877 -0.3758
 2342SOL    HW118662   3.616   3.201   1.952  0.5427  1.5217 -0.5548
 2342SOL    HW218663   3.572   3.336   1.986 -0.5463  0.2300 -1.2161
 2343SOL     OW18664   4.634   1.761   2.977  0.1660 -0.6924 -0.3788
 2343SOL    HW118665   4.565   1.754   3.043 -1.8700  0.1852 -2.4123
 2343SOL    HW218666   4.706   1.810   3.017 -0.9216 -0.0306  0.7562
 2344SOL     OW18667   0.105   0.626   7.411 -0.3571 -0.5772 -0.0149
 2344SOL    HW118668   0.110   0.547   7.358 -0.3772 -0.5470 -0.0624
 2344SOL    HW218669   0.023   0.611   7.458 -0.4426 -0.7235 -0.2086
 2345SOL     OW18670   2.869   2.464   9.724  0.0449 -0.1463 -0.2949
 2345SOL    HW118671   2.843   2.533   9.785 -3.5976  0.0552 -2.0928
 2345SOL    HW218672   2.825   2.384   9.751 -0.7362  1.0465  1.9306
 2346SOL     OW18673   0.804   2.515   5.995 -0.0962 -0.1280  0.1034
 2346SOL    HW118674   0.890   2.487   6.025 -0.4908 -0.0740  1.3059
 2346SOL    HW218675   0.749   2.436   5.994 -0.9814  0.4998 -1.0756
 2347SOL     OW18676   0.453   1.519   7.211 -0.5615 -0.2437 -0.2284
 2347SOL    HW118677   0.466   1.521   7.306 -0.9564 -0.1446 -0.1768
 2347SOL    HW218678   0.508   1.596   7.197  1.2003 -2.1374 -3.6907
 2348SOL     OW18679   2.378   2.200   0.331  0.3089  0.0353  0.4386
 2348SOL    HW118680   2.385   2.108   0.357  3.5017  0.5127  1.2328
 2348SOL    HW218681   2.304   2.190   0.271  0.5636  0.2706  0.0898
 2349SOL     OW18682   1.268   0.459  13.169  0.3510 -0.4908 -0.6762
 2349SOL    HW118683   1.235   0.533  13.118  1.1400 -0.9725 -1.8941
 2349SOL    HW218684   1.212   0.462  13.246  1.6499  0.2920  0.2383
 2350SOL     OW18685   2.046   2.673   8.995 -0.2053 -0.4675  0.5160
 2350SOL    HW118686   2.041   2.580   9.016 -1.3483 -0.3591  0.7290
 2350SOL    HW218687   2.051   2.663   8.900  0.5338  0.8345  0.4137
 2351SOL     OW18688   1.202   2.359  16.645 -0.2663 -0.5220 -1.0476
 2351SOL    HW118689   1.139   2.358  16.574 -0.1765 -1.7792 -1.1115
 2351SOL    HW218690   1.281   2.366  16.592 -0.4484  1.0038 -1.1095
 2352SOL     OW18691   2.276   3.341   6.584  0.0926 -0.3177  0.5661
 2352SOL    HW118692   2.277   3.259   6.634 -0.1535 -0.4612  0.3412
 2352SOL    HW218693   2.370   3.342   6.564  0.4381  3.2062  2.4188
 2353SOL     OW18694   4.371   3.185   9.810 -0.3114 -0.0490 -0.3705
 2353SOL    HW118695   4.327   3.100   9.810 -1.6268  0.6337  0.4739
 2353SOL    HW218696   4.367   3.201   9.716  0.7459  2.6255  0.0501
 2354SOL     OW18697   1.318   2.506  17.325 -0.2225  0.3723  0.2135
 2354SOL    HW118698   1.345   2.530  17.414  0.4994 -0.4161  0.2053
 2354SOL    HW218699   1.297   2.593  17.291 -1.3764 -0.0143 -0.0551
 2355SOL     OW18700   2.607   1.139  11.087 -0.2211 -0.1528  0.2232
 2355SOL    HW118701   2.672   1.125  11.156  1.7473 -1.8746 -2.0192
 2355SOL    HW218702   2.592   1.234  11.094 -0.6663 -0.0022 -3.1923
 2356SOL     OW18703   3.473   2.491   7.877  0.5119  0.7027  0.5338
 2356SOL    HW118704   3.387   2.505   7.836  0.8449  4.0941  1.0797
 2356SOL    HW218705   3.523   2.532   7.806  0.9293  0.2351  0.5563
 2357SOL     OW18706   0.999   0.912  12.300 -0.1674 -0.2843  0.1909
 2357SOL    HW118707   0.975   0.949  12.385  0.0971 -0.6671  0.4333
 2357SOL    HW218708   0.912   0.877  12.281  0.0665  1.3265 -3.8644
 2358SOL     OW18709   1.998   4.287   6.745 -0.1058  0.6322  0.1547
 2358SOL    HW118710   1.961   4.245   6.667  1.9626  0.4281 -0.7093
 2358SOL    HW218711   1.990   4.228   6.820  0.9735  0.7793  0.3782
 2359SOL     OW18712   1.885   2.554   7.023 -0.5030 -0.0048 -0.4058
 2359SOL    HW118713   1.810   2.539   6.965 -1.9751  3.0132  0.7230
 2359SOL    HW218714   1.898   2.647   7.005 -0.0123  0.1377  0.6647
 2360SOL     OW18715   0.572   2.879  10.473 -0.1161 -0.2192  0.4798
 2360SOL    HW118716   0.543   2.935  10.401 -0.8832  1.3667  2.0245
 2360SOL    HW218717   0.503   2.813  10.478 -0.3613  0.1071  1.3000
 2361SOL     OW18718   4.408   2.291   8.687  0.4116  0.1538  0.2119
 2361SOL    HW118719   4.447   2.358   8.631 -1.1085  0.3919 -0.5857
 2361SOL    HW218720   4.353   2.251   8.619  0.5931 -0.0110  0.1620
 2362SOL     OW18721   1.988   2.464   5.520  0.3747 -0.1620  0.3278
 2362SOL    HW118722   2.065   2.460   5.463 -1.1184 -2.5559 -1.4770
 2362SOL    HW218723   1.919   2.510   5.472  0.2386 -1.3631 -0.6125
 2363SOL     OW18724   1.737   2.403   3.511 -0.2408 -0.2861 -0.1191
 2363SOL    HW118725   1.765   2.376   3.423 -0.1415  1.4678 -0.6332
 2363SOL    HW218726   1.738   2.321   3.559  1.3795  0.0057  0.3401
 2364SOL     OW18727   1.191   1.508   3.529 -0.2143 -0.0601 -0.0945
 2364SOL    HW118728   1.248   1.554   3.468  0.4752  0.2186  0.7618
 2364SOL    HW218729   1.224   1.535   3.615 -1.9581  2.3066 -0.1667
 2365SOL     OW18730   4.608   1.657   7.401 -0.5628 -0.4025  0.1655
 2365SOL    HW118731   4.580   1.728   7.343 -1.3254 -0.4325  0.4965
 2365SOL    HW218732   4.643   1.692   7.483 -1.3463 -0.9113  0.7234
 2366SOL     OW18733   0.781   0.515   7.072  0.1102  0.1258 -0.5364
 2366SOL    HW118734   0.780   0.426   7.038 -0.4753  0.1306 -0.5185
 2366SOL    HW218735   0.864   0.509   7.120 -0.9635  0.7316  1.4290
 2367SOL     OW18736   3.199   2.571   1.230  0.8300 -0.7146  0.7263
 2367SOL    HW118737   3.115   2.594   1.190  1.6632 -1.3331 -1.3733
 2367SOL    HW218738   3.176   2.551   1.320 -2.0483 -0.2258  0.0869
 2368SOL     OW18739   2.040   1.132   8.904 -0.0331  0.4673  0.3647
 2368SOL    HW118740   2.094   1.142   8.982  0.6884 -2.5024  0.2513
 2368SOL    HW218741   2.081   1.195   8.845  1.2542  0.6787  1.4931
 2369SOL     OW18742   0.712   2.366   7.386  0.3894  0.5571 -0.4508
 2369SOL    HW118743   0.777   2.421   7.429  1.7805 -0.6330 -1.0172
 2369SOL    HW218744   0.705   2.396   7.296  0.7992 -0.9759 -1.0019
 2370SOL     OW18745   2.264   3.435   8.624 -0.0422  0.0027 -0.7762
 2370SOL    HW118746   2.250   3.354   8.577  0.9010 -0.5857 -0.0576
 2370SOL    HW218747   2.346   3.425   8.673 -1.4483  0.0092  1.5704
 2371SOL     OW18748   4.300   4.430   5.418 -0.1562  0.3297 -0.0129
 2371SOL    HW118749   4.271   4.454   5.330 -3.0401 -0.9944  0.5633
 2371SOL    HW218750   4.216   4.436   5.464 -0.0496 -1.0083  0.3608
 2372SOL     OW18751   3.382   4.555  10.948 -0.5787  0.0524 -0.4104
 2372SOL    HW118752   3.334   4.561  11.031 -1.1070  1.3111 -0.8222
 2372SOL    HW218753   3.328   4.617  10.900 -0.2230  0.6541 -0.0335
 2373SOL     OW18754   4.490   0.088   0.393 -0.0358 -0.2161 -0.3872
 2373SOL    HW118755   4.422   0.143   0.353  0.3887 -0.5505 -1.5558
 2373SOL    HW218756   4.559   0.079   0.328 -0.5138 -2.2850 -0.6143
 2374SOL     OW18757   0.575   3.158   7.851 -0.1654 -0.3792  0.1800
 2374SOL    HW118758   0.530   3.231   7.809 -0.1971 -0.7201 -0.3817
 2374SOL    HW218759   0.609   3.107   7.778 -2.2574  0.2286 -1.2330
 2375SOL     OW18760   3.763   3.115   8.207 -0.1012  0.1776  0.1710
 2375SOL    HW118761   3.835   3.147   8.152 -0.4317 -0.5523 -0.6887
 2375SOL    HW218762   3.686   3.147   8.160 -0.2138 -1.9337 -1.0668
 2376SOL     OW18763   3.996   1.235   3.735 -0.0640  0.1311 -0.2738
 2376SOL    HW118764   3.904   1.234   3.759 -0.1151  1.7678 -0.4069
 2376SOL    HW218765   4.003   1.142   3.710  0.0017  0.4647 -1.5245
 2377SOL     OW18766   3.772   3.361  17.262  0.2377 -0.2216  0.4611
 2377SOL    HW118767   3.687   3.403  17.245 -0.4333 -1.6441  0.2748
 2377SOL    HW218768   3.833   3.433  17.254  1.5918 -1.4614 -0.3376
 2378SOL     OW18769   0.791   1.372  17.569 -0.3831 -0.0530 -0.4546
 2378SOL    HW118770   0.880   1.344  17.548  0.6539  0.4528  3.1984
 2378SOL    HW218771   0.741   1.294  17.592  0.0809 -0.6160 -1.3565
 2379SOL     OW18772   2.283   4.226   8.731  0.2369  0.4889  0.0591
 2379SOL    HW118773   2.261   4.244   8.639 -1.9614  0.1629  0.5161
 2379SOL    HW218774   2.231   4.289   8.781 -2.1742 -1.0579 -0.4548
 2380SOL     OW18775   1.630   3.543   2.238 -0.1117  0.1613  0.3417
 2380SOL    HW118776   1.575   3.498   2.174 -0.4656 -0.7389  1.2787
 2380SOL    HW218777   1.718   3.537   2.199  0.0267 -0.5315  0.7633
 2381SOL     OW18778   4.635   2.470  13.188  0.3552  0.2663 -0.6007
 2381SOL    HW118779   4.730   2.471  13.171  0.3430  2.1928 -0.5516
 2381SOL    HW218780   4.613   2.557  13.156 -2.4834  0.8841  3.0256
 2382SOL     OW18781   3.468   2.697   9.311  0.5221  0.4307  0.0826
 2382SOL    HW118782   3.400   2.681   9.376  0.7840 -0.0274  0.2493
 2382SOL    HW218783   3.544   2.694   9.370 -0.4118  2.2891  1.3488
 2383SOL     OW18784   3.127   2.498   1.494 -0.7025  0.5752 -0.2445
 2383SOL    HW118785   3.157   2.536   1.576 -1.1498  0.3051  0.0433
 2383SOL    HW218786   3.032   2.490   1.506 -0.8112 -0.9957 -2.0321
 2384SOL     OW18787   0.943   0.603   7.803  0.0721  0.0111 -0.1486
 2384SOL    HW118788   0.856   0.566   7.787 -0.1248 -0.2847  1.5314
 2384SOL    HW218789   0.947   0.606   7.899  3.0445  4.4131 -0.4001
 2385SOL     OW18790   0.700   4.066   5.411  0.4133 -0.1894  0.4212
 2385SOL    HW118791   0.628   4.082   5.473 -1.5595  3.1070 -2.7573
 2385SOL    HW218792   0.731   4.156   5.399 -1.4114  0.3615 -0.2392
 2386SOL     OW18793   4.394   0.548   9.643  0.1142 -0.1496  0.3499
 2386SOL    HW118794   4.453   0.613   9.604  0.5436 -1.3602 -0.9908
 2386SOL    HW218795   4.376   0.587   9.729 -2.0835 -1.4126  0.4514
 2387SOL     OW18796   3.334   2.884   8.259 -0.0942 -0.5117 -0.5421
 2387SOL    HW118797   3.314   2.943   8.186 -1.1161 -0.3238 -0.1166
 2387SOL    HW218798   3.429   2.895   8.256 -0.2744  0.7927 -1.4420
 2388SOL     OW18799   2.886   4.577   5.385  0.1398 -0.6664 -0.1821
 2388SOL    HW118800   2.838   4.495   5.374 -0.4051 -0.3971  0.1978
 2388SOL    HW218801   2.955   4.542   5.442 -0.1577  1.5079  1.4930
 2389SOL     OW18802   0.533   2.329   9.427 -0.0935 -0.1071  0.4932
 2389SOL    HW118803   0.445   2.306   9.458 -1.3622  1.4828 -1.9891
 2389SOL    HW218804   0.528   2.278   9.346 -0.4047 -0.9788  1.0597
 2390SOL     OW18805   3.758   1.379   3.507 -0.3272 -0.5060 -0.3200
 2390SOL    HW118806   3.798   1.293   3.501  1.0170  0.1756 -1.1575
 2390SOL    HW218807   3.763   1.399   3.413  0.0056  1.9016  0.2003
 2391SOL     OW18808   2.442   0.327  16.327  0.2936  0.2336  0.1992
 2391SOL    HW118809   2.522   0.338  16.276  0.5148  1.9582  0.9082
 2391SOL    HW218810   2.458   0.235  16.347 -2.8168 -0.4807 -0.6254
 2392SOL     OW18811   0.126   1.075   6.715  0.2993  0.2300 -0.0263
 2392SOL    HW118812   0.146   0.991   6.672 -0.2058  0.3596 -0.5017
 2392SOL    HW218813   0.132   1.140   6.645  0.7119  0.4439  0.2053
 2393SOL     OW18814   0.672   2.109   7.500  0.1225 -0.3837 -0.1227
 2393SOL    HW118815   0.598   2.092   7.442 -0.3570  2.0093 -0.2108
 2393SOL    HW218816   0.707   2.188   7.459  1.9587 -0.6011  1.0345
 2394SOL     OW18817   4.291   4.572   2.094 -0.5001 -0.4553 -0.3192
 2394SOL    HW118818   4.327   4.487   2.068 -0.4984 -0.8622  0.9926
 2394SOL    HW218819   4.215   4.584   2.037  0.2419 -0.1946 -1.2660
 2395SOL     OW18820   0.552   3.304   0.203  0.7291 -0.6075 -0.2066
 2395SOL    HW118821   0.592   3.222   0.231  0.0204 -0.5578  0.9638
 2395SOL    HW218822   0.578   3.370   0.268  0.7085  0.8928 -1.7046
 2396SOL     OW18823   0.068   4.138   6.314 -0.6670  0.4843 -0.3922
 2396SOL    HW118824   0.044   4.209   6.255 -2.0245 -1.0000 -1.6453
 2396SOL    HW218825   0.051   4.176   6.400  0.7700 -0.0423  0.1209
 2397SOL     OW18826   0.763   3.784   3.745 -0.4769  0.1610 -0.1603
 2397SOL    HW118827   0.674   3.818   3.758 -0.4718  0.2818 -0.4526
 2397SOL    HW218828   0.815   3.860   3.721 -1.2450 -0.2284 -3.0124
 2398SOL     OW18829   3.875   4.009   2.560  0.6982 -0.2392 -0.4567
 2398SOL    HW118830   3.926   3.928   2.567  0.8738 -0.0208  0.7767
 2398SOL    HW218831   3.789   3.967   2.562  0.8799 -0.4346  3.6088
 2399SOL     OW18832   2.790   4.719   6.554 -0.6882 -0.5776  0.2379
 2399SOL    HW118833   2.712   0.037   6.574  1.8610  3.1867  0.3730
 2399SOL    HW218834   2.819   4.692   6.641  0.8080  2.9294  0.8192
 2400SOL     OW18835   4.726   2.684   5.424  0.1455  0.0755  0.6706
 2400SOL    HW118836   0.043   2.742   5.368 -0.8803 -0.3303 -0.6940
 2400SOL    HW218837   4.646   2.734   5.445 -0.4323 -1.0141  1.0648
 2401SOL     OW18838   1.473   4.638   5.411  0.1970 -0.1416  0.5085
 2401SOL    HW118839   1.433   4.636   5.324  0.4407 -0.3719  0.4030
 2401SOL    HW218840   1.526   4.718   5.404  1.1145 -0.8502 -0.6221
 2402SOL     OW18841   4.615   3.963   9.546 -0.2517 -0.0685  0.0544
 2402SOL    HW118842   4.664   3.997   9.622  0.7937 -0.5004 -0.4303
 2402SOL    HW218843   4.535   4.013   9.560 -0.1477  0.2455 -0.4864
 2403SOL     OW18844   4.342   0.611   6.953 -0.5362 -0.7213 -0.3123
 2403SOL    HW118845   4.309   0.688   6.907  0.8845  0.6307  0.8996
 2403SOL    HW218846   4.297   0.551   6.894  1.1661  1.1126 -3.4476
 2404SOL     OW18847   0.966   4.392   9.158 -0.1115 -0.4462  0.9965
 2404SOL    HW118848   0.996   4.458   9.095  0.4254 -2.1788 -0.5471
 2404SOL    HW218849   1.051   4.350   9.166  0.2277  0.3140  1.4182
 2405SOL     OW18850   0.824   0.214   8.867  0.0281  0.3104 -0.0424
 2405SOL    HW118851   0.919   0.217   8.864  0.0363 -0.2436 -0.4215
 2405SOL    HW218852   0.799   0.174   8.784 -2.6275  1.0577  0.4022
 2406SOL     OW18853   3.685   3.263   1.620 -0.2200  0.6007  0.2967
 2406SOL    HW118854   3.713   3.224   1.537 -0.4997 -0.7974  0.8509
 2406SOL    HW218855   3.710   3.212   1.698  2.1807  0.5449 -0.5053
 2407SOL     OW18856   4.170   1.649   8.573  0.1574 -0.1853  0.3986
 2407SOL    HW118857   4.256   1.631   8.609 -0.5741 -2.1495  1.1634
 2407SOL    HW218858   4.180   1.739   8.543  3.6220 -0.8071 -0.2988
 2408SOL     OW18859   3.337   4.491   1.965  0.7216 -0.6260 -0.2066
 2408SOL    HW118860   3.376   4.574   1.937 -1.0307  0.8748  1.7810
 2408SOL    HW218861   3.376   4.417   1.919 -0.9036 -1.8403  0.3539
 2409SOL     OW18862   0.486   1.606   8.140 -0.0981  0.2755  0.0229
 2409SOL    HW118863   0.464   1.616   8.232  0.2842  3.1554 -0.2053
 2409SOL    HW218864   0.439   1.525   8.120 -0.4406  0.5933 -0.4614
 2410SOL     OW18865   4.012   4.419   8.049  0.1807  0.1283  0.1837
 2410SOL    HW118866   4.006   4.431   7.954 -0.5074 -1.6577  0.0064
 2410SOL    HW218867   3.955   4.342   8.054  0.1839  0.0274 -1.3696
 2411SOL     OW18868   1.732   0.208  16.092  0.0196  0.1569 -0.5647
 2411SOL    HW118869   1.692   0.277  16.144  1.4211 -0.8177  1.7970
 2411SOL    HW218870   1.656   0.176  16.043 -0.9641 -0.1652  1.1699
 2412SOL     OW18871   4.429   2.510   1.494  0.0545  0.0621 -0.5195
 2412SOL    HW118872   4.421   2.444   1.563 -1.8084 -0.4533 -1.2289
 2412SOL    HW218873   4.487   2.470   1.429 -2.6922 -1.9637 -1.7105
 2413SOL     OW18874   0.933   2.772  14.577  0.3962 -0.3961  0.4713
 2413SOL    HW118875   0.911   2.818  14.658 -0.1255  0.0059  0.1012
 2413SOL    HW218876   1.028   2.774  14.569  0.1875 -0.3260 -2.0105
 2414SOL     OW18877   3.166   3.356   9.393 -0.2907  0.6945 -0.0824
 2414SOL    HW118878   3.208   3.433   9.431  0.1355  0.6893 -0.5426
 2414SOL    HW218879   3.231   3.291   9.420 -2.4272 -2.2413 -1.9341
 2415SOL     OW18880   0.222   2.613  11.102 -0.2642 -0.0483  0.6787
 2415SOL    HW118881   0.152   2.633  11.164 -1.7529  0.4838 -1.1846
 2415SOL    HW218882   0.297   2.647  11.151 -1.0034 -0.6385  2.1954
 2416SOL     OW18883   1.111   4.238   4.326  0.6042  0.0673  0.0112
 2416SOL    HW118884   1.069   4.152   4.326  0.4256  0.1845  2.6870
 2416SOL    HW218885   1.145   4.230   4.236 -0.9706 -3.3304 -0.2825
 2417SOL     OW18886   0.335   0.730  11.314 -0.1538  0.2418 -0.2952
 2417SOL    HW118887   0.259   0.766  11.268 -0.4284 -0.9360 -0.7577
 2417SOL    HW218888   0.287   0.696  11.389  1.1206 -1.1027 -0.1013
 2418SOL     OW18889   0.524   4.434   6.564 -0.4719 -0.2201  0.4325
 2418SOL    HW118890   0.594   4.369   6.572  0.1518  0.1072 -2.2533
 2418SOL    HW218891   0.556   4.485   6.490 -2.3037  0.4990  0.1444
 2419SOL     OW18892   2.936   3.999   8.316 -0.3223  0.1871 -0.5678
 2419SOL    HW118893   2.954   4.002   8.222 -0.7826 -2.8374 -0.7529
 2419SOL    HW218894   3.015   3.961   8.354 -0.4330 -0.8471 -1.3739
 2420SOL     OW18895   0.095   2.476  11.562  0.3760  0.2648 -0.1939
 2420SOL    HW118896   0.142   2.405  11.606 -1.0802  0.0096  0.9502
 2420SOL    HW218897   0.105   2.543  11.630 -2.1487 -1.4162  1.8546
 2421SOL     OW18898   3.824   1.984   8.655  0.5311  0.1149 -0.0430
 2421SOL    HW118899   3.857   2.070   8.630  0.2299 -0.3172 -1.9432
 2421SOL    HW218900   3.779   1.960   8.574 -0.9406 -0.1793  0.8661
 2422SOL     OW18901   2.306   0.492  13.400  0.4816  0.0884  0.2736
 2422SOL    HW118902   2.342   0.576  13.429  2.7551 -0.1300 -1.8870
 2422SOL    HW218903   2.302   0.508  13.306 -0.3564 -0.6286  0.1918
 2423SOL     OW18904   0.975   2.017  14.275 -0.1783 -0.2500 -0.5802
 2423SOL    HW118905   0.998   2.076  14.347 -0.1833 -1.1777  0.1868
 2423SOL    HW218906   0.912   2.070  14.226  0.1259 -1.6073 -2.4245
 2424SOL     OW18907   1.641   0.201   9.064  0.4032  0.6729 -0.0396
 2424SOL    HW118908   1.734   0.188   9.046  0.0324 -0.1057 -1.3540
 2424SOL    HW218909   1.628   0.295   9.082 -0.8258  1.1845 -3.7606
 2425SOL     OW18910   0.841   0.983  10.588 -0.4356  0.3492 -0.1901
 2425SOL    HW118911   0.927   1.002  10.550  0.7110 -0.0567  2.1627
 2425SOL    HW218912   0.867   0.948  10.674  2.6229 -0.9449 -1.6234
 2426SOL     OW18913   3.810   1.165   4.360  0.0821  0.3734  0.4558
 2426SOL    HW118914   3.859   1.193   4.282 -1.4846 -1.4582 -1.1700
 2426SOL    HW218915   3.873   1.198   4.425  1.7286  1.8347 -1.8371
 2427SOL     OW18916   0.989   0.591   8.725  0.2071  0.3904  0.1147
 2427SOL    HW118917   1.037   0.667   8.758  0.6590 -1.1512  3.0179
 2427SOL    HW218918   1.019   0.587   8.634 -1.3720 -0.8026 -0.3501
 2428SOL     OW18919   3.680   2.844   2.746 -0.6369 -0.0440  0.3443
 2428SOL    HW118920   3.601   2.879   2.788 -1.0624  0.7921 -1.1712
 2428SOL    HW218921   3.647   2.755   2.760  1.4218 -1.2972 -2.8985
 2429SOL     OW18922   0.179   3.401   7.071 -0.2736 -0.3505 -0.0070
 2429SOL    HW118923   0.263   3.379   7.111 -0.4875 -2.9080 -0.9058
 2429SOL    HW218924   0.146   3.467   7.131  1.7503  1.5152 -0.9687
 2430SOL     OW18925   4.028   4.147   4.260  0.8331  0.1097 -0.1751
 2430SOL    HW118926   3.995   4.192   4.182  1.5467 -0.9571 -1.1042
 2430SOL    HW218927   3.968   4.177   4.327  2.4301 -0.0387  1.3150
 2431SOL     OW18928   3.125   3.754   0.979 -0.1924  0.1437 -0.4580
 2431SOL    HW118929   3.177   3.694   1.033 -0.6147 -0.4134 -0.6641
 2431SOL    HW218930   3.047   3.755   1.035  0.9101 -2.0923  1.1219
 2432SOL     OW18931   0.639   1.495   5.682  0.3643  0.5735 -0.4164
 2432SOL    HW118932   0.660   1.466   5.771 -0.3684  0.3533 -0.3131
 2432SOL    HW218933   0.649   1.590   5.691 -0.1826  0.5995 -0.0990
 2433SOL     OW18934   3.965   3.012   4.318  0.5834 -0.4442 -0.1785
 2433SOL    HW118935   3.887   2.976   4.361 -1.1673  3.2902 -0.2794
 2433SOL    HW218936   3.917   3.059   4.250 -0.7718  0.2485  1.2554
 2434SOL     OW18937   3.206   4.238   4.494 -0.6039 -0.0771 -0.2588
 2434SOL    HW118938   3.223   4.148   4.520 -0.3514 -0.1315 -0.6069
 2434SOL    HW218939   3.248   4.231   4.408  0.8815 -1.1368  0.5526
 2435SOL     OW18940   0.016   3.576   8.984  0.0628 -0.2986 -0.4295
 2435SOL    HW118941   4.718   3.661   9.015 -1.4874 -0.9700 -0.2093
 2435SOL    HW218942   0.022   3.597   8.891  3.3248  0.8919  0.0656
 2436SOL     OW18943   0.999   4.474  11.670  0.4692 -0.5472 -0.2690
 2436SOL    HW118944   1.003   4.384  11.701  3.1874 -0.1560  0.5108
 2436SOL    HW218945   0.904   4.485  11.665  0.2392 -1.9162  1.3125
 2437SOL     OW18946   4.501   4.260   7.857 -0.6867 -0.5290  0.2311
 2437SOL    HW118947   4.409   4.237   7.869 -1.0271  0.9273  0.5169
 2437SOL    HW218948   4.538   4.180   7.821 -1.3084 -0.5460 -0.3604
 2438SOL     OW18949   0.001   0.853   3.378 -0.3811  0.2864  0.2558
 2438SOL    HW118950   0.083   0.886   3.414 -0.9487  3.0400 -0.9789
 2438SOL    HW218951   4.687   0.860   3.461  0.4058  1.4521  0.6200
 2439SOL     OW18952   4.380   4.323   5.662 -0.0080  0.0256 -0.2856
 2439SOL    HW118953   4.358   4.348   5.572 -2.1804  0.0343  0.2555
 2439SOL    HW218954   4.340   4.236   5.667 -2.3458  1.1631  1.1854
 2440SOL     OW18955   3.725   3.945   4.214 -0.2562  0.1029  0.1433
 2440SOL    HW118956   3.680   3.982   4.290  0.5612  0.8275  0.2776
 2440SOL    HW218957   3.654   3.916   4.157 -0.2075  0.7593 -0.2590
 2441SOL     OW18958   3.117   2.849   0.011 -0.2025  0.7692  0.1781
 2441SOL    HW118959   3.075   2.763   0.010  0.5911  0.3808  0.2851
 2441SOL    HW218960   3.202   2.836  17.705  0.3512 -1.2201  1.8540
 2442SOL     OW18961   3.683   3.457   2.056 -0.2793 -0.1651 -0.3251
 2442SOL    HW118962   3.772   3.430   2.035 -0.4930 -0.3605 -1.0023
 2442SOL    HW218963   3.687   3.551   2.037 -0.8307 -0.1049 -0.1506
 2443SOL     OW18964   1.185   2.045   3.016  0.0110  0.4514 -0.0008
 2443SOL    HW118965   1.260   2.002   2.973  0.8751  1.3944  0.5681
 2443SOL    HW218966   1.216   2.135   3.022  0.3187  0.4120 -1.0344
 2444SOL     OW18967   4.439   1.619   4.359  0.3083  0.6289  0.3687
 2444SOL    HW118968   4.518   1.598   4.408 -1.1730 -2.8046  1.3022
 2444SOL    HW218969   4.385   1.637   4.435  1.4011 -1.8696  1.7288
 2445SOL     OW18970   0.936   0.108  16.716  0.0064  0.4118  0.0695
 2445SOL    HW118971   0.969   0.020  16.733 -0.2807 -0.1310 -2.1808
 2445SOL    HW218972   0.907   0.135  16.803 -0.4054 -0.3714  0.1793
 2446SOL     OW18973   3.190   0.013  14.071 -0.2151  0.0223 -0.2928
 2446SOL    HW118974   3.233   4.699  14.141 -2.1352  0.4229  1.1635
 2446SOL    HW218975   3.099   4.719  14.079 -0.6222  1.0188 -1.2614
 2447SOL     OW18976   3.780   0.401   7.702 -0.2201 -0.2145  0.5510
 2447SOL    HW118977   3.822   0.401   7.788  0.9140  3.4065 -0.0073
 2447SOL    HW218978   3.827   0.461   7.645 -1.4613 -0.1696 -0.4241
 2448SOL     OW18979   4.379   0.480   1.926 -0.2676  0.3848 -0.6129
 2448SOL    HW118980   4.350   0.504   2.014 -1.9102  1.0136 -1.3218
 2448SOL    HW218981   4.302   0.464   1.871 -1.0853  0.3550  0.5410
 2449SOL     OW18982   4.382   3.704  13.239  0.1534 -0.7779 -0.1159
 2449SOL    HW118983   4.434   3.628  13.265 -0.9378 -1.8541 -1.0480
 2449SOL    HW218984   4.375   3.698  13.144  1.4422 -2.1104 -0.1277
 2450SOL     OW18985   1.332   1.637   5.026 -0.1413  0.3472 -0.1916
 2450SOL    HW118986   1.328   1.694   5.102  2.4931  0.8748 -0.4338
 2450SOL    HW218987   1.419   1.660   4.993 -0.1028 -0.2016 -0.4916
 2451SOL     OW18988   0.130   2.484   3.353  0.1038 -0.1969  0.2737
 2451SOL    HW118989   0.162   2.526   3.273 -0.5362 -2.9170 -1.3886
 2451SOL    HW218990   0.103   2.561   3.403 -0.6206 -0.9474  1.0164
 2452SOL     OW18991   2.722   0.958   5.285  0.3574  0.1551  0.3408
 2452SOL    HW118992   2.707   1.012   5.363 -1.6098  1.4367 -0.9448
 2452SOL    HW218993   2.767   1.025   5.233  0.8543  0.8919  1.7138
 2453SOL     OW18994   2.295   4.272   6.700 -0.3527  0.1229 -0.6471
 2453SOL    HW118995   2.203   4.282   6.727 -0.2730 -1.1843  0.0995
 2453SOL    HW218996   2.333   4.290   6.786 -1.1068 -4.8086  0.7130
 2454SOL     OW18997   3.835   2.001   4.424  0.8189 -0.2152  0.1527
 2454SOL    HW118998   3.882   2.053   4.359  0.6907 -1.5135 -0.9799
 2454SOL    HW218999   3.813   1.927   4.367  1.2048 -0.9277  0.9235
 2455SOL     OW19000   0.293   2.179   7.850 -0.6242  0.0879  0.2590
 2455SOL    HW119001   0.218   2.150   7.902 -0.1549 -2.7686 -0.7140
 2455SOL    HW219002   0.279   2.132   7.768 -0.2854 -1.0937  0.8749
 2456SOL     OW19003   1.868   4.185   1.398  0.3270 -0.3235  0.5096
 2456SOL    HW119004   1.950   4.150   1.431  0.3770  2.1157  2.9797
 2456SOL    HW219005   1.832   4.109   1.352  0.7733  0.0692 -0.5093
 2457SOL     OW19006   4.329   2.550   4.422 -0.6247  0.0168  0.4284
 2457SOL    HW119007   4.257   2.612   4.433 -0.0788  0.3816  1.9617
 2457SOL    HW219008   4.368   2.577   4.339 -2.0884 -1.1778 -0.6604
 2458SOL     OW19009   2.632   4.339  17.051  0.6609 -0.0265  0.1698
 2458SOL    HW119010   2.613   4.424  17.011 -0.7572 -0.1197  0.6226
 2458SOL    HW219011   2.703   4.317  16.992  0.3340 -4.0218  1.3122
 2459SOL     OW19012   2.788   3.262   8.814  0.1474 -0.3449 -0.0253
 2459SOL    HW119013   2.802   3.222   8.728 -1.6499 -0.9847 -0.0094
 2459SOL    HW219014   2.803   3.196   8.882  0.4026  2.1888  2.3600
 2460SOL     OW19015   1.024   2.530   5.396  0.0071 -0.2390 -0.4407
 2460SOL    HW119016   1.104   2.543   5.447 -1.4631 -0.1927  1.8035
 2460SOL    HW219017   1.060   2.458   5.343  2.9175  0.8089  0.0687
 2461SOL     OW19018   3.248   4.563   2.983 -0.2545 -0.5105 -0.2135
 2461SOL    HW119019   3.318   4.541   2.921  1.3770  0.8062  1.1855
 2461SOL    HW219020   3.258   4.658   2.974 -1.1703 -0.2931  1.0377
 2462SOL     OW19021   0.168   2.912   5.935  0.4369 -0.0104  0.1998
 2462SOL    HW119022   0.206   2.863   6.008  0.8506 -0.1865 -0.1334
 2462SOL    HW219023   0.107   2.849   5.897  1.8314 -1.2387 -0.0050
 2463SOL     OW19024   3.395   2.092  15.878 -0.1716  0.0136 -0.3366
 2463SOL    HW119025   3.354   2.013  15.843  0.5576 -1.8844  3.0967
 2463SOL    HW219026   3.319   2.133  15.920 -0.5162 -0.5444 -0.4213
 2464SOL     OW19027   2.400   3.625   8.465 -0.0180 -0.6937  0.0391
 2464SOL    HW119028   2.393   3.720   8.455  0.6457 -0.4855  1.4502
 2464SOL    HW219029   2.339   3.607   8.537  0.5651  0.7173  0.8961
 2465SOL     OW19030   2.241   0.117   7.814 -0.1645  0.2466  0.2371
 2465SOL    HW119031   2.281   0.203   7.821  0.3302 -0.1030  1.7728
 2465SOL    HW219032   2.283   0.074   7.888  1.8183  1.4593 -0.1824
 2466SOL     OW19033   1.668   0.941   5.149  0.2917  0.3053 -0.0392
 2466SOL    HW119034   1.680   0.847   5.138 -1.9654 -0.0789  0.6952
 2466SOL    HW219035   1.633   0.943   5.238 -1.3838 -1.7349 -0.6272
 2467SOL     OW19036   3.173   4.176  14.795 -0.0114  0.1265  0.1242
 2467SOL    HW119037   3.133   4.102  14.750 -1.4276  1.0260 -0.1081
 2467SOL    HW219038   3.168   4.145  14.885  1.1939 -0.1390  0.0946
 2468SOL     OW19039   4.430   2.039  16.540 -0.4976 -0.2096  0.2675
 2468SOL    HW119040   4.420   2.133  16.526  0.2641  0.0498  1.3830
 2468SOL    HW219041   4.522   2.050  16.564 -0.5117  2.3658 -0.8540
 2469SOL     OW19042   3.643   4.117  15.264 -0.1533  0.6037  0.5392
 2469SOL    HW119043   3.724   4.080  15.298 -0.1893 -0.4636 -0.5386
 2469SOL    HW219044   3.648   4.210  15.287  3.2284  0.2946  0.9203
 2470SOL     OW19045   1.458   2.169   4.085  0.2104 -0.0367 -0.1647
 2470SOL    HW119046   1.440   2.109   4.157 -0.4253  0.7093  0.3023
 2470SOL    HW219047   1.492   2.246   4.131 -1.3036  0.4116  0.2031
 2471SOL     OW19048   0.818   4.376   8.315  0.4824  0.2606 -0.3490
 2471SOL    HW119049   0.805   4.461   8.272  1.2432  0.3409 -0.4188
 2471SOL    HW219050   0.874   4.335   8.249  1.0780 -0.5299  0.6698
 2472SOL     OW19051   3.916   1.885   8.982 -0.0675  0.0291 -0.2132
 2472SOL    HW119052   3.977   1.958   8.991 -3.0806  2.6951 -1.5834
 2472SOL    HW219053   3.939   1.857   8.893  2.6822  0.7624  0.2805
 2473SOL     OW19054   0.664   4.540   7.631  0.3963  0.4085 -0.1011
 2473SOL    HW119055   0.611   4.607   7.589 -1.1200 -0.8050 -0.1144
 2473SOL    HW219056   0.709   4.503   7.554  0.6055  2.3156 -0.8969
 2474SOL     OW19057   4.713   1.307   0.999 -0.0155  0.0574  0.0788
 2474SOL    HW119058   4.624   1.309   1.034 -0.6288  0.5903 -1.5251
 2474SOL    HW219059   0.024   1.326   1.081  0.0886 -0.2357  0.0924
 2475SOL     OW19060   1.931   1.677  15.362  0.2754  0.7767 -0.1418
 2475SOL    HW119061   1.846   1.682  15.406  1.0203 -0.8348  1.4895
 2475SOL    HW219062   1.914   1.633  15.279 -1.3038 -1.2870  1.2771
 2476SOL     OW19063   0.086   2.440  15.159 -0.7677 -0.1394  0.1232
 2476SOL    HW119064   0.156   2.478  15.213 -1.7432  1.3953  0.3097
 2476SOL    HW219065   0.115   2.461  15.071  1.3939 -0.0067  0.8608
 2477SOL     OW19066   1.487   1.503  14.860 -0.5264 -0.3535  0.0773
 2477SOL    HW119067   1.490   1.408  14.873  2.2996 -0.1647  0.6009
 2477SOL    HW219068   1.435   1.505  14.779 -0.5533 -0.4699  0.0916
 2478SOL     OW19069   2.966   0.737   4.988  0.2175  0.8079 -0.3790
 2478SOL    HW119070   2.939   0.707   5.075  2.3962  1.7333  0.6145
 2478SOL    HW219071   2.888   0.708   4.941 -0.1991 -0.1941  0.9311
 2479SOL     OW19072   0.750   0.808   4.761  0.4326 -0.0018 -0.1061
 2479SOL    HW119073   0.792   0.883   4.720  1.3234 -1.1494 -1.2979
 2479SOL    HW219074   0.823   0.749   4.779  0.6550 -0.2177 -1.7738
 2480SOL     OW19075   4.576   1.955   9.672  0.2538 -0.1783 -0.1770
 2480SOL    HW119076   4.545   1.880   9.622  1.4305 -1.5233  1.1206
 2480SOL    HW219077   4.578   2.009   9.593  0.7519  1.2458  0.8030
 2481SOL     OW19078   4.157   3.757   2.250 -0.1949  0.2836 -0.2099
 2481SOL    HW119079   4.177   3.850   2.262  0.6433  0.0561  0.1286
 2481SOL    HW219080   4.186   3.723   2.334 -0.4855 -0.1145 -0.2734
 2482SOL     OW19081   1.330   1.466   3.201  0.2733 -0.0212 -0.0303
 2482SOL    HW119082   1.344   1.544   3.255 -0.7619 -0.0607  0.2870
 2482SOL    HW219083   1.278   1.508   3.132 -1.2850 -2.6765 -0.4665
 2483SOL     OW19084   3.181   2.803   5.444  0.0514  0.1077  0.5288
 2483SOL    HW119085   3.218   2.772   5.362  0.9539  0.4482  0.8096
 2483SOL    HW219086   3.096   2.760   5.434 -1.0767  1.4728  4.2807
 2484SOL     OW19087   3.983   3.505   6.652  0.4257  0.3520 -0.6988
 2484SOL    HW119088   3.895   3.468   6.650  0.2697  0.6853 -0.1671
 2484SOL    HW219089   4.039   3.431   6.673 -1.9938 -0.8816  1.4145
 2485SOL     OW19090   4.656   3.112  15.518  0.3171  0.0395  0.0404
 2485SOL    HW119091   4.685   3.190  15.566 -3.5466 -0.2082  2.7223
 2485SOL    HW219092   4.626   3.057  15.591 -0.1615 -2.4668 -2.0438
 2486SOL     OW19093   1.824   3.544  14.369 -0.1919  0.9887 -0.5277
 2486SOL    HW119094   1.879   3.530  14.291  0.9307  0.2739  0.3958
 2486SOL    HW219095   1.862   3.620  14.413  0.0343  0.8620 -0.5042
 2487SOL     OW19096   0.143   0.666   9.148 -0.2468 -0.0213 -0.0140
 2487SOL    HW119097   0.159   0.759   9.136  0.7246 -0.3113 -0.9808
 2487SOL    HW219098   0.090   0.673   9.228 -0.0597 -1.2133  0.2260
 2488SOL     OW19099   0.662   4.025   1.994 -0.3439 -0.2293 -0.2555
 2488SOL    HW119100   0.703   3.995   1.913 -1.9747 -1.6568 -0.5504
 2488SOL    HW219101   0.649   4.119   1.982  0.0510 -0.1184  0.1655
 2489SOL     OW19102   3.225   1.570  15.857  0.4516  0.2417  0.1166
 2489SOL    HW119103   3.130   1.577  15.858  0.5139  0.9550  0.5436
 2489SOL    HW219104   3.241   1.533  15.770 -0.7476 -0.2215  0.0917
 2490SOL     OW19105   3.827   3.757   7.890 -0.4791  0.3937 -0.2072
 2490SOL    HW119106   3.831   3.696   7.816 -0.8610 -0.7343  0.7065
 2490SOL    HW219107   3.757   3.717   7.942  0.7704 -0.0478  1.1436
 2491SOL     OW19108   0.289   1.239   4.811 -0.4482 -0.0454 -0.4352
 2491SOL    HW119109   0.203   1.218   4.775  0.1836 -0.5499 -1.6753
 2491SOL    HW219110   0.274   1.328   4.841 -1.1730 -0.1664 -0.4296
 2492SOL     OW19111   0.977   1.435   5.782  0.2478 -0.5535  0.0370
 2492SOL    HW119112   1.066   1.408   5.760 -0.1684 -0.9159 -1.2062
 2492SOL    HW219113   0.988   1.517   5.830  0.9802 -0.5923 -0.0572
 2493SOL     OW19114   3.123   0.338   3.306 -0.3844 -0.4173 -0.9571
 2493SOL    HW119115   3.034   0.310   3.284  0.4471 -1.2504 -3.2092
 2493SOL    HW219116   3.107   0.432   3.313 -0.8326 -0.7950  3.5848
 2494SOL     OW19117   4.716   0.588   4.784 -0.6651 -0.7347 -0.1052
 2494SOL    HW119118   4.697   0.505   4.826  0.8079 -1.5744 -1.0949
 2494SOL    HW219119   0.032   0.556   4.709  1.4711 -1.2387  1.5800
 2495SOL     OW19120   0.619   3.769   9.173  0.0620 -0.3284 -0.0781
 2495SOL    HW119121   0.651   3.687   9.136 -1.9657 -1.1761  0.0660
 2495SOL    HW219122   0.528   3.756   9.148  0.1119  0.7258 -0.7987
 2496SOL     OW19123   3.202   0.558   8.420 -0.3347  0.0004  0.4855
 2496SOL    HW119124   3.109   0.537   8.423 -0.1928 -0.6684  0.2107
 2496SOL    HW219125   3.222   0.627   8.484  0.3649 -1.4921  1.8573
 2497SOL     OW19126   0.175   2.802   7.281 -0.2672 -0.4958  0.2086
 2497SOL    HW119127   0.127   2.882   7.261  2.4294  0.7277 -1.3922
 2497SOL    HW219128   0.252   2.841   7.323 -0.7976  1.3144 -0.5217
 2498SOL     OW19129   0.922   0.205   1.959 -0.3935  0.3246  0.0471
 2498SOL    HW119130   1.003   0.253   1.975 -0.1943  0.5882 -1.7556
 2498SOL    HW219131   0.912   0.208   1.863 -1.4643  2.0238  0.1997
 2499SOL     OW19132   4.205   3.790  13.427  0.1178 -0.3094  0.1188
 2499SOL    HW119133   4.272   3.746  13.374 -2.9591 -1.8665 -2.4701
 2499SOL    HW219134   4.236   3.880  13.420 -0.3619 -0.2598 -1.3543
 2500SOL     OW19135   3.901   4.008   6.145 -0.1591  0.9170 -0.7175
 2500SOL    HW119136   3.823   3.993   6.092 -1.0582  0.2990  0.7948
 2500SOL    HW219137   3.963   3.971   6.081  1.6821  1.6289  0.6645
 2501SOL     OW19138   0.546   3.871   4.930 -0.4589 -0.2845 -0.0812
 2501SOL    HW119139   0.502   3.954   4.915 -0.9296 -0.0741  2.5754
 2501SOL    HW219140   0.521   3.848   5.019 -1.7806  1.3767 -0.0355
 2502SOL     OW19141   2.660   1.722  11.852  0.8171  0.3692 -0.1835
 2502SOL    HW119142   2.711   1.802  11.865 -1.4135  1.5848  1.1661
 2502SOL    HW219143   2.641   1.721  11.758 -2.0754  0.6944  0.4066
 2503SOL     OW19144   2.002   1.102  16.374  0.5107 -0.3176  0.4058
 2503SOL    HW119145   2.024   1.025  16.321  0.1075 -0.3814  0.3340
 2503SOL    HW219146   2.016   1.163  16.301 -0.9374 -0.4328  0.0415
 2504SOL     OW19147   1.229   2.765   3.276  0.2860 -0.3470  0.1476
 2504SOL    HW119148   1.166   2.743   3.208  0.9118 -1.8653  0.0493
 2504SOL    HW219149   1.283   2.832   3.233 -1.2464 -0.6499 -2.2743
 2505SOL     OW19150   1.543   1.445   3.011 -0.1354 -0.5078  0.8450
 2505SOL    HW119151   1.616   1.407   3.061 -0.8236 -2.3448  0.4646
 2505SOL    HW219152   1.478   1.427   3.079 -0.8955  0.4785  0.3780
 2506SOL     OW19153   4.573   3.317  11.619  0.4027  0.2449  0.1288
 2506SOL    HW119154   4.617   3.279  11.696  1.6507  0.6381 -0.3891
 2506SOL    HW219155   4.604   3.262  11.547  0.0270  2.8552 -2.0125
 2507SOL     OW19156   1.597   4.293   9.193 -0.0236  0.1285  0.5416
 2507SOL    HW119157   1.576   4.207   9.230 -1.1304  1.1753  2.2998
 2507SOL    HW219158   1.597   4.351   9.269 -2.1285  2.3482 -1.1400
 2508SOL     OW19159   3.813   3.526   0.002  0.1355 -0.6157 -0.7259
 2508SOL    HW119160   3.886   3.587  17.726 -1.8683  1.7973 -0.6005
 2508SOL    HW219161   3.747   3.577  17.692 -0.5487  0.0553  0.9443
 2509SOL     OW19162   2.800   3.697   3.481 -0.3615 -0.1349 -0.0443
 2509SOL    HW119163   2.799   3.793   3.481  0.4743 -0.1303  1.0109
 2509SOL    HW219164   2.767   3.670   3.567  0.8520  0.8135  0.7241
 2510SOL     OW19165   4.176   2.601   0.261 -0.2869 -0.5841 -0.5213
 2510SOL    HW119166   4.184   2.575   0.353  1.2888 -0.2102 -0.5581
 2510SOL    HW219167   4.081   2.587   0.256 -0.0736 -2.5528  1.1292
 2511SOL     OW19168   1.795   1.946   9.429 -0.2196  0.6446  0.0278
 2511SOL    HW119169   1.700   1.952   9.444 -0.4084 -0.7344 -0.5529
 2511SOL    HW219170   1.812   1.852   9.417  0.0173  0.7498 -0.4533
 2512SOL     OW19171   0.397   4.028  15.581 -0.0622  0.1145 -0.3026
 2512SOL    HW119172   0.401   3.932  15.577 -0.8580  0.0830 -0.3343
 2512SOL    HW219173   0.315   4.050  15.625 -0.0259 -2.8500  1.2903
 2513SOL     OW19174   4.018   1.622   3.984 -0.2461 -0.4832  0.0020
 2513SOL    HW119175   3.955   1.675   3.935  1.0610  0.6433 -0.4862
 2513SOL    HW219176   4.087   1.687   4.001 -0.2915 -0.7749  1.3213
 2514SOL     OW19177   4.674   0.445   6.056 -0.0799 -0.2939  0.0573
 2514SOL    HW119178   4.644   0.462   5.966 -1.7858  0.0614  0.6980
 2514SOL    HW219179   4.591   0.427   6.101 -0.1294  0.6463  0.3506
 2515SOL     OW19180   2.308   3.135   8.551 -0.5704 -0.0494  0.6082
 2515SOL    HW119181   2.383   3.191   8.533 -1.7000  0.5970 -2.0963
 2515SOL    HW219182   2.253   3.160   8.477  3.1884  1.1340 -1.7400
 2516SOL     OW19183   3.056   4.406  13.476  0.6588 -0.7416  0.0809
 2516SOL    HW119184   2.983   4.445  13.427 -0.2650 -1.1676  1.1222
 2516SOL    HW219185   3.116   4.411  13.401 -0.6502  0.6448 -0.8588
 2517SOL     OW19186   1.903   3.179   4.286 -0.2539  0.2287  0.2112
 2517SOL    HW119187   1.838   3.248   4.294  0.7231  0.9348  2.0694
 2517SOL    HW219188   1.973   3.194   4.350  0.8827  0.6324 -1.1511
 2518SOL     OW19189   0.579   1.115  10.920 -0.5222  0.3857  0.0192
 2518SOL    HW119190   0.575   1.149  11.009  0.8971 -0.0330  0.2409
 2518SOL    HW219191   0.507   1.053  10.931 -1.2340  1.7491  2.9664
 2519SOL     OW19192   1.073   4.704   5.337 -0.3174  0.1619  0.1612
 2519SOL    HW119193   1.087   4.724   5.429 -0.0513  1.8983 -0.2637
 2519SOL    HW219194   1.087   4.610   5.327 -1.7337  0.2248 -2.5098
 2520SOL     OW19195   2.062   2.349   4.507 -0.4792 -0.1804 -1.2914
 2520SOL    HW119196   2.070   2.390   4.593  2.5176  0.1988 -1.7556
 2520SOL    HW219197   2.060   2.425   4.450 -0.3111  1.0010  0.2696
 2521SOL     OW19198   0.325   3.732   2.396  0.2919 -0.1694  0.1070
 2521SOL    HW119199   0.304   3.661   2.336  0.3486 -0.1782  0.0972
 2521SOL    HW219200   0.242   3.739   2.442 -0.4471 -0.9599 -1.1135
 2522SOL     OW19201   0.333   4.518   8.283 -0.1912  0.3123  0.3678
 2522SOL    HW119202   0.348   4.444   8.342  1.1042 -0.4537 -0.9502
 2522SOL    HW219203   0.383   4.488   8.207  0.6150  0.1293  0.9697
 2523SOL     OW19204   2.388   0.742   2.577 -0.1247 -0.4132 -0.9317
 2523SOL    HW119205   2.456   0.707   2.634 -0.3210 -1.3324 -1.2712
 2523SOL    HW219206   2.364   0.825   2.619 -0.2255 -0.3649 -1.0845
 2524SOL     OW19207   3.972   0.066  16.715 -0.4351  0.6286  0.1227
 2524SOL    HW119208   4.048   0.082  16.659 -1.6591  0.3341 -1.6109
 2524SOL    HW219209   4.020   0.026  16.787  1.8564 -0.6326 -2.1224
 2525SOL     OW19210   0.689   3.978   9.005 -0.6920  0.1453 -0.3175
 2525SOL    HW119211   0.697   3.924   9.083 -0.0465 -1.1621 -1.2763
 2525SOL    HW219212   0.687   4.071   9.028  0.9422  0.4742 -1.4754
 2526SOL     OW19213   2.641   4.247   3.957 -0.3321 -0.2091  0.2383
 2526SOL    HW119214   2.622   4.281   3.869  0.4884  0.0288  0.1523
 2526SOL    HW219215   2.733   4.275   3.965 -0.1945 -0.6863  0.3027
 2527SOL     OW19216   3.728   3.732  17.285  0.0222  0.6610 -0.0187
 2527SOL    HW119217   3.795   3.695  17.227  0.6293 -2.2570  2.4828
 2527SOL    HW219218   3.714   3.823  17.260  0.8497  0.9672  0.6571
 2528SOL     OW19219   4.568   3.613   1.622  0.2580  0.0920  0.1148
 2528SOL    HW119220   4.562   3.604   1.717 -1.7228  4.5091  0.4304
 2528SOL    HW219221   4.492   3.560   1.599 -0.7807  0.9192  1.6707
 2529SOL     OW19222   1.271   4.133   0.732 -0.4931  0.1383 -0.2918
 2529SOL    HW119223   1.297   4.205   0.790 -2.1987  0.8966 -0.4677
 2529SOL    HW219224   1.355   4.103   0.697 -0.0004  0.7515  0.3586
 2530SOL     OW19225   3.628   4.677   3.037 -0.0388  0.0078 -0.5862
 2530SOL    HW119226   3.559   4.621   3.002 -0.6775 -0.4007  1.3255
 2530SOL    HW219227   3.666   4.699   2.952 -1.5686 -2.1509 -1.8240
 2531SOL     OW19228   0.883   2.794  17.173 -0.0963 -0.8397  0.4834
 2531SOL    HW119229   0.885   2.839  17.257 -1.4730 -0.6761  0.4271
 2531SOL    HW219230   0.802   2.743  17.176 -0.2802 -0.6652 -1.1571
 2532SOL     OW19231   3.207   1.897  11.398 -0.3953  0.1525 -0.0055
 2532SOL    HW119232   3.158   1.973  11.365 -0.9502 -0.2007 -0.0059
 2532SOL    HW219233   3.268   1.888  11.325  0.2859  0.5773  0.5218
 2533SOL     OW19234   0.193   2.047  15.512 -0.3749  0.4039 -0.1279
 2533SOL    HW119235   0.138   2.122  15.537 -1.0704 -0.5538  1.2699
 2533SOL    HW219236   0.128   1.992  15.469 -2.2115  2.2370  0.2601
 2534SOL     OW19237   1.727   0.793  13.860  0.0152 -0.0810 -0.2938
 2534SOL    HW119238   1.632   0.781  13.864 -0.0049 -0.5080 -2.1058
 2534SOL    HW219239   1.735   0.882  13.895 -0.5150  0.0579 -0.5353
 2535SOL     OW19240   0.047   4.439  13.337 -0.3882  0.5287  0.2013
 2535SOL    HW119241   4.688   4.415  13.334  0.8445 -3.9676 -2.0657
 2535SOL    HW219242   0.090   4.358  13.310  1.0180  0.7614  1.7387
 2536SOL     OW19243   0.395   2.719   2.148 -0.2548  0.2940  0.0924
 2536SOL    HW119244   0.377   2.799   2.099 -1.2890  1.1510  1.8452
 2536SOL    HW219245   0.359   2.654   2.087 -0.7588 -0.7594  1.4916
 2537SOL     OW19246   0.173   2.897  17.387  0.0235 -0.4877  0.4082
 2537SOL    HW119247   0.173   2.935  17.298 -1.3954  1.0753  1.0639
 2537SOL    HW219248   0.264   2.869  17.393  0.1124 -0.5563 -1.1956
 2538SOL     OW19249   4.542   3.026   4.152 -0.7131  0.6154  0.1423
 2538SOL    HW119250   4.590   3.075   4.219  0.9147 -0.1785 -0.4609
 2538SOL    HW219251   4.589   3.053   4.073  0.0554  0.6447  0.6124
 2539SOL     OW19252   0.212   4.068   0.208  0.4231  0.7163 -0.9692
 2539SOL    HW119253   0.228   4.157   0.175  2.6385  0.0626 -1.6421
 2539SOL    HW219254   0.136   4.043   0.156 -0.0990  0.5882 -0.1551
 2540SOL     OW19255   4.186   3.055   1.652 -0.6909 -0.7536 -0.2388
 2540SOL    HW119256   4.109   3.004   1.676  0.3194 -3.0228 -1.9063
 2540SOL    HW219257   4.204   3.023   1.564  0.1022  2.2326 -1.1629
 2541SOL     OW19258   2.474   1.678  12.016  0.2036 -0.1612  0.0068
 2541SOL    HW119259   2.550   1.692  11.960 -0.5687  0.3248 -0.9289
 2541SOL    HW219260   2.451   1.592  11.980 -0.3035  0.9075 -2.2441
 2542SOL     OW19261   1.171   0.013   4.777  0.4614  0.5705 -0.0616
 2542SOL    HW119262   1.225   4.689   4.831 -0.5070  1.7336  2.1635
 2542SOL    HW219263   1.096   4.693   4.753  0.6804  0.0714  0.3802
 2543SOL     OW19264   2.185   0.788   9.203  0.5524  0.1867  0.9279
 2543SOL    HW119265   2.123   0.808   9.133  0.6430 -2.6713  0.0338
 2543SOL    HW219266   2.133   0.782   9.283  0.6825  1.1680  1.0940
 2544SOL     OW19267   3.270   0.401  17.201 -0.4782 -1.1409  0.0222
 2544SOL    HW119268   3.331   0.350  17.148 -0.4906 -0.6630 -0.4421
 2544SOL    HW219269   3.224   0.457  17.139  1.7008 -0.1291 -0.6761
 2545SOL     OW19270   4.451   4.145   4.714  0.6660  0.2827  0.4326
 2545SOL    HW119271   4.390   4.218   4.714 -1.9273 -1.8966 -0.2614
 2545SOL    HW219272   4.474   4.135   4.622 -1.4966  0.0037 -0.0820
 2546SOL     OW19273   2.983   4.086  12.318  0.5580  0.0576 -0.1895
 2546SOL    HW119274   3.054   4.072  12.256 -0.2745 -1.0358 -0.9057
 2546SOL    HW219275   2.973   3.997  12.351 -2.0591  1.3877  2.6713
 2547SOL     OW19276   2.773   1.473   6.008  0.3819  0.6010 -0.1802
 2547SOL    HW119277   2.824   1.516   6.076 -0.6955  2.0323 -0.2651
 2547SOL    HW219278   2.850   1.457   5.953  0.7483  0.5414  0.3494
 2548SOL     OW19279   3.698   2.497   1.744 -0.5810 -0.6013  0.0818
 2548SOL    HW119280   3.762   2.567   1.748  0.1373 -1.2079 -0.9720
 2548SOL    HW219281   3.722   2.432   1.810  1.0891 -0.4934 -0.4267
 2549SOL     OW19282   2.601   3.276   4.793 -0.3497  0.1448 -0.7051
 2549SOL    HW119283   2.653   3.291   4.714 -0.3034  2.7638 -0.1711
 2549SOL    HW219284   2.580   3.366   4.817  1.2772  1.4252 -4.0757
 2550SOL     OW19285   4.663   1.591   4.529  0.3816  0.3717 -0.1749
 2550SOL    HW119286   4.668   1.680   4.564  1.6447  0.7674 -1.3373
 2550SOL    HW219287   4.702   1.591   4.442 -0.5443  0.6705 -0.5899
 2551SOL     OW19288   4.300   2.015   3.503 -0.5751  0.5004 -0.5103
 2551SOL    HW119289   4.216   1.995   3.544  0.8582 -1.1333  1.5878
 2551SOL    HW219290   4.327   1.924   3.508 -2.2214  0.0056 -0.7031
 2552SOL     OW19291   1.357   2.531   2.771  0.1231 -0.2942 -0.1871
 2552SOL    HW119292   1.438   2.575   2.745 -0.3280  0.7423  0.1970
 2552SOL    HW219293   1.383   2.478   2.847 -0.1651 -0.4357 -0.1856
 2553SOL     OW19294   3.371   1.526   2.088  0.3010  0.2628 -0.2715
 2553SOL    HW119295   3.399   1.607   2.045  0.7916  0.4558  0.3975
 2553SOL    HW219296   3.354   1.554   2.178  0.0981  0.7142 -0.4522
 2554SOL     OW19297   0.344   1.108   5.395  0.1131 -0.3603  0.1286
 2554SOL    HW119298   0.304   1.193   5.415  0.1263 -0.3201 -0.0125
 2554SOL    HW219299   0.318   1.100   5.303  0.5946 -1.1163  0.0638
 2555SOL     OW19300   1.374   0.596   3.630  0.2870 -0.3791 -0.1876
 2555SOL    HW119301   1.452   0.555   3.667  0.3342  0.0472  0.1911
 2555SOL    HW219302   1.302   0.541   3.659 -0.8473  0.5426 -1.2726
 2556SOL     OW19303   3.131   0.050   5.216  0.0991 -0.2535 -0.5001
 2556SOL    HW119304   3.110   4.692   5.199  1.4379 -0.7540  0.4870
 2556SOL    HW219305   3.058   0.081   5.270  1.0206  1.4518 -0.2501
 2557SOL     OW19306   4.187   3.984  16.819  0.4615 -0.1606  0.1853
 2557SOL    HW119307   4.208   4.027  16.902 -0.3681  0.4439  0.0850
 2557SOL    HW219308   4.271   3.940  16.803  0.5201  0.2800 -0.6949
 2558SOL     OW19309   2.415   0.050  15.369 -0.5871  0.4142 -0.2017
 2558SOL    HW119310   2.491   4.728  15.353  0.4410  1.7924 -0.1437
 2558SOL    HW219311   2.411   0.072  15.463  0.4694  1.1871 -0.3391
 2559SOL     OW19312   1.857   1.802  10.412 -0.1749  0.1586 -0.0936
 2559SOL    HW119313   1.827   1.774  10.326 -2.1474  1.3287  0.2202
 2559SOL    HW219314   1.885   1.719  10.451  0.5382  0.0130 -0.9110
 2560SOL     OW19315   0.990   1.410   2.459  0.5714  0.5379  0.0084
 2560SOL    HW119316   0.924   1.381   2.396  1.1817  0.5110 -0.6159
 2560SOL    HW219317   0.927   1.423   2.530  1.8209  2.0285  0.8375
 2561SOL     OW19318   2.088   1.546   8.911 -0.4268  0.3517  0.2026
 2561SOL    HW119319   2.000   1.583   8.915 -0.8504 -0.6140 -0.1611
 2561SOL    HW219320   2.127   1.595   8.839  1.0855 -1.4442 -0.1981
 2562SOL     OW19321   3.288   0.259  15.356  0.0310  0.3928  0.1561
 2562SOL    HW119322   3.218   0.310  15.314 -1.7078 -1.7175  0.4924
 2562SOL    HW219323   3.309   0.317  15.430 -1.6456  1.3314 -0.0935
 2563SOL     OW19324   3.290   2.385  13.929  0.2506 -0.6747  0.1464
 2563SOL    HW119325   3.298   2.478  13.952 -2.6770 -0.5174  0.4432
 2563SOL    HW219326   3.361   2.371  13.866 -1.5977 -0.1648 -2.0266
 2564SOL     OW19327   2.927   3.425   7.518 -0.0821  0.6287 -0.1357
 2564SOL    HW119328   2.864   3.352   7.523 -1.3183  1.5971 -1.6021
 2564SOL    HW219329   2.889   3.474   7.446 -1.6209 -0.7786 -0.2923
 2565SOL     OW19330   3.069   3.882  12.715 -0.4566 -0.3200  0.4161
 2565SOL    HW119331   3.031   3.860  12.630  3.3055  0.7924 -1.5864
 2565SOL    HW219332   3.160   3.903  12.695  0.5637 -2.7847  2.5613
 2566SOL     OW19333   2.617   4.716   5.638 -0.4818  0.1513 -0.1817
 2566SOL    HW119334   2.687   4.729   5.702 -0.7985 -1.4122  0.4838
 2566SOL    HW219335   2.596   0.071   5.613  1.0969  0.1214 -1.6235
 2567SOL     OW19336   3.365   3.020   5.238 -0.2172  0.1988  0.2999
 2567SOL    HW119337   3.296   2.972   5.191  0.9087 -1.5680  0.4642
 2567SOL    HW219338   3.416   3.042   5.160  0.5744 -0.8116  0.5318
 2568SOL     OW19339   2.879   3.326  17.194  0.5020  0.5921 -0.3018
 2568SOL    HW119340   2.861   3.236  17.168  1.1841  0.0244  1.2372
 2568SOL    HW219341   2.891   3.326  17.289 -0.1888 -0.4542 -0.2175
 2569SOL     OW19342   3.423   1.115   0.813  0.2079  0.4936 -0.2267
 2569SOL    HW119343   3.510   1.091   0.781  0.3168 -0.2832  0.6775
 2569SOL    HW219344   3.363   1.046   0.786 -1.4733  1.7153  0.4427
 2570SOL     OW19345   0.875   1.205   6.372 -0.3185  0.3941 -0.1989
 2570SOL    HW119346   0.839   1.208   6.460 -2.2648 -2.6949 -0.8729
 2570SOL    HW219347   0.800   1.215   6.312  0.9162 -0.1140 -1.8291
 2571SOL     OW19348   0.274   1.730   9.891 -0.5307 -0.1862  0.4754
 2571SOL    HW119349   0.248   1.818   9.864 -1.5857 -1.3712 -2.4611
 2571SOL    HW219350   0.340   1.704   9.827 -1.1158  1.8092 -0.9299
 2572SOL     OW19351   4.175   0.097   4.993  0.2003 -0.0997  1.4058
 2572SOL    HW119352   4.223   0.062   5.068  0.7819  2.4896  2.2334
 2572SOL    HW219353   4.221   0.181   4.983 -0.7496  0.0919 -1.2568
 2573SOL     OW19354   1.693   4.674   7.164 -0.2947  0.0058  0.4985
 2573SOL    HW119355   1.620   4.614   7.150 -1.3099  1.1268  0.9404
 2573SOL    HW219356   1.709   4.721   7.082 -0.0282 -0.8317  0.0684
 2574SOL     OW19357   0.594   0.660   6.898  0.1037  0.2670  0.1537
 2574SOL    HW119358   0.662   0.624   6.955  1.3427  1.4093 -0.6117
 2574SOL    HW219359   0.519   0.625   6.946  0.5479 -0.3913  0.3702
 2575SOL     OW19360   3.402   1.699   3.665 -0.3675 -0.5016  0.2642
 2575SOL    HW119361   3.351   1.696   3.585 -3.4186  0.5856  2.1735
 2575SOL    HW219362   3.452   1.618   3.659  2.9312  1.5638 -0.4412
 2576SOL     OW19363   3.305   2.217   2.998 -0.0789 -0.2582 -0.6714
 2576SOL    HW119364   3.327   2.297   2.950  3.6086 -1.1718 -0.5496
 2576SOL    HW219365   3.317   2.251   3.087  1.2764 -0.8394 -0.6225
 2577SOL     OW19366   0.519   2.341  11.126 -0.3348  0.0731  0.0391
 2577SOL    HW119367   0.550   2.280  11.059 -0.7637 -0.2208  0.1118
 2577SOL    HW219368   0.426   2.323  11.122 -0.6261  1.4638  0.5024
 2578SOL     OW19369   2.397   3.799   8.900  0.3901  0.0622 -0.2842
 2578SOL    HW119370   2.458   3.833   8.834  0.3290 -2.1737 -1.5030
 2578SOL    HW219371   2.387   3.884   8.943 -0.5422 -0.7230  1.0781
 2579SOL     OW19372   3.042   4.128  16.583  0.3835 -0.0120 -0.3597
 2579SOL    HW119373   3.136   4.143  16.574  0.0543  1.2589 -1.6101
 2579SOL    HW219374   3.001   4.171  16.509 -0.1861  3.0527  1.7228
 2580SOL     OW19375   3.185   1.873   7.006  0.4842 -0.4413 -0.8310
 2580SOL    HW119376   3.164   1.888   7.098 -0.7329  2.0334 -1.4983
 2580SOL    HW219377   3.208   1.965   6.992  0.1797 -0.1295  0.7163
 2581SOL     OW19378   0.929   0.986   8.555  0.0232 -0.1174 -0.0309
 2581SOL    HW119379   1.024   0.996   8.545  0.0193 -0.0828 -0.0333
 2581SOL    HW219380   0.921   1.046   8.630  1.0992  1.9728 -1.5759
 2582SOL     OW19381   2.205   0.852  10.736 -0.2779 -0.2679 -0.1948
 2582SOL    HW119382   2.295   0.884  10.732  1.3679 -4.5460  2.3463
 2582SOL    HW219383   2.187   0.874  10.827  2.0366  0.6583  0.0268
 2583SOL     OW19384   2.471   3.939   1.131  0.3918 -0.0091 -0.0549
 2583SOL    HW119385   2.506   3.851   1.119  0.6337  0.0920 -0.0924
 2583SOL    HW219386   2.545   3.996   1.109 -0.4400  0.7622 -0.8477
 2584SOL     OW19387   2.332   3.161   0.592 -0.2055  0.4487  0.7208
 2584SOL    HW119388   2.334   3.257   0.590 -0.0883  0.4172 -1.4199
 2584SOL    HW219389   2.414   3.148   0.544  0.6419 -0.5820  2.4653
 2585SOL     OW19390   0.820   0.272   6.102  0.0390  0.0202 -0.1758
 2585SOL    HW119391   0.772   0.236   6.028  1.5217 -1.6737 -0.3197
 2585SOL    HW219392   0.761   0.339   6.137  2.1497  1.9556 -0.2863
 2586SOL     OW19393   4.171   1.122   3.014  0.2110 -0.4892 -0.0252
 2586SOL    HW119394   4.253   1.162   2.984  0.6792 -0.2731  1.5029
 2586SOL    HW219395   4.167   1.133   3.109 -2.8577 -0.7702 -0.1255
 2587SOL     OW19396   3.132   1.730   4.868 -0.4033  0.5125 -0.0595
 2587SOL    HW119397   3.078   1.704   4.794 -2.1939  1.3811  0.9280
 2587SOL    HW219398   3.103   1.818   4.891 -2.4292 -0.9998  3.0882
 2588SOL     OW19399   1.426   4.068  14.020 -0.3142 -0.1396 -0.1386
 2588SOL    HW119400   1.481   4.064  13.942 -2.4163  1.8040 -1.7384
 2588SOL    HW219401   1.491   4.053  14.088 -0.9209 -0.0766  0.4552
 2589SOL     OW19402   3.732   2.106   4.658  0.5369  0.1830 -0.1956
 2589SOL    HW119403   3.756   2.197   4.646  1.4138  0.0932  0.9606
 2589SOL    HW219404   3.765   2.069   4.576 -0.8336  0.2261 -0.7847
 2590SOL     OW19405   4.693   4.189  11.566  0.0599 -0.5513  0.3087
 2590SOL    HW119406   4.635   4.240  11.510 -0.7307 -0.6729  1.0214
 2590SOL    HW219407   4.682   4.223  11.655 -2.2954 -2.5700  0.7574
 2591SOL     OW19408   3.296   1.581   3.938  0.2914 -0.2486  0.2113
 2591SOL    HW119409   3.262   1.495   3.964  1.4686 -0.8210 -0.1270
 2591SOL    HW219410   3.381   1.552   3.905  0.0393  1.7796 -2.2169
 2592SOL     OW19411   1.597   4.121   6.177  0.4118  0.3748 -0.2339
 2592SOL    HW119412   1.659   4.084   6.114  0.6100 -0.6971  0.5856
 2592SOL    HW219413   1.523   4.142   6.120 -1.0958 -0.3914  1.4327
 2593SOL     OW19414   4.627   1.143   3.568 -0.6722 -0.3944 -0.7124
 2593SOL    HW119415   4.639   1.051   3.588  1.6330 -0.4113 -2.1550
 2593SOL    HW219416   4.714   1.174   3.592 -1.1917 -0.0594  0.7586
 2594SOL     OW19417   1.451   0.020   5.957 -0.6724 -0.1596 -0.1413
 2594SOL    HW119418   1.408   0.032   6.041 -0.9129 -2.8288  0.1344
 2594SOL    HW219419   1.508   0.097   5.956  0.4205 -0.9444  1.6943
 2595SOL     OW19420   0.408   1.323  13.274  1.0891 -0.0214 -0.3883
 2595SOL    HW119421   0.450   1.388  13.331  1.6454 -0.0804 -0.7279
 2595SOL    HW219422   0.416   1.367  13.189  2.1566  1.3848  0.4448
 2596SOL     OW19423   4.244   3.064   0.456  0.6534 -0.2045  0.2469
 2596SOL    HW119424   4.161   3.044   0.499  0.2985 -1.5109 -1.0463
 2596SOL    HW219425   4.282   2.981   0.427  1.0626 -0.3525  1.2084
 2597SOL     OW19426   2.201   1.655   7.684  0.1123  0.5939 -0.1533
 2597SOL    HW119427   2.224   1.747   7.696 -1.4835  0.8470  1.0211
 2597SOL    HW219428   2.114   1.648   7.723  0.1952 -0.0738 -0.0949
 2598SOL     OW19429   0.479   3.038   4.462  0.2356 -0.4180  0.2370
 2598SOL    HW119430   0.398   3.061   4.416 -1.2199  0.7574  3.4039
 2598SOL    HW219431   0.545   3.023   4.394  1.1134  0.0614  0.9834
 2599SOL     OW19432   0.282   3.180   5.654  0.4824 -0.2686 -0.5301
 2599SOL    HW119433   0.304   3.095   5.615 -0.2081 -1.2882  1.2893
 2599SOL    HW219434   0.317   3.164   5.741 -1.5068 -2.5528 -0.1359
 2600SOL     OW19435   2.261   0.353  11.622  0.2611 -0.0170 -0.4422
 2600SOL    HW119436   2.170   0.370  11.600  0.5370  1.6844 -0.2658
 2600SOL    HW219437   2.289   0.364  11.531  1.0681  1.3825 -0.0302
 2601SOL     OW19438   3.920   3.301   6.205  0.0143  0.1760 -0.3785
 2601SOL    HW119439   4.009   3.326   6.227  1.2988 -2.3449 -2.6658
 2601SOL    HW219440   3.941   3.228   6.147  1.4747  0.5486 -0.3100
 2602SOL     OW19441   0.821   2.776   4.214  0.5849  0.4629 -0.9226
 2602SOL    HW119442   0.871   2.740   4.287  0.6819  0.9255 -0.7640
 2602SOL    HW219443   0.851   2.722   4.141 -2.0845 -2.3904  0.1128
 2603SOL     OW19444   0.799   4.732  10.445 -0.3537 -0.0505 -0.0080
 2603SOL    HW119445   0.809   0.032  10.534 -1.6105 -1.2482  0.5923
 2603SOL    HW219446   0.886   4.730  10.406  0.4911 -0.1116  1.8729
 2604SOL     OW19447   4.399   3.112   4.871 -0.3903  0.1204 -0.2418
 2604SOL    HW119448   4.375   3.043   4.809 -1.3139  2.2244 -2.2194
 2604SOL    HW219449   4.401   3.059   4.951  0.1670 -0.5915 -0.7301
 2605SOL     OW19450   1.156   0.338   1.992  0.4446 -0.1883  0.0254
 2605SOL    HW119451   1.204   0.393   1.931  0.0743  2.6229  2.2786
 2605SOL    HW219452   1.123   0.401   2.056  3.0538  0.7874  0.4057
 2606SOL     OW19453   2.968   2.296   3.680 -0.0327 -0.4125 -0.6503
 2606SOL    HW119454   2.933   2.384   3.675  3.5652  0.9341 -1.9463
 2606SOL    HW219455   2.937   2.255   3.761  0.5611 -0.3362 -0.3808
 2607SOL     OW19456   3.447   4.698  16.546 -0.3641  0.3540  0.4708
 2607SOL    HW119457   3.416   4.696  16.636  0.4883 -0.8717  0.7253
 2607SOL    HW219458   3.500   0.044  16.542  0.2576 -0.1140 -0.9445
 2608SOL     OW19459   1.805   4.678   0.615  0.7291  0.2050  0.1134
 2608SOL    HW119460   1.888   4.633   0.601  1.1207  1.3891 -1.3588
 2608SOL    HW219461   1.818   4.707   0.706 -0.0614  0.6701  0.0735
 2609SOL     OW19462   0.285   2.071   4.797 -0.5369 -0.3218 -0.0217
 2609SOL    HW119463   0.340   2.145   4.826  0.3879  0.2116 -3.1726
 2609SOL    HW219464   0.213   2.113   4.750  0.8102  0.3490 -1.4863
 2610SOL     OW19465   0.096   0.215  17.493 -0.0221 -0.2946 -0.1939
 2610SOL    HW119466   0.082   0.293  17.441 -1.2093  1.2661  2.4801
 2610SOL    HW219467   0.005   0.187  17.502  0.0730 -0.3824  0.5028
 2611SOL     OW19468   0.760   1.775   1.703  0.1994 -0.1346 -0.0176
 2611SOL    HW119469   0.718   1.759   1.619 -1.3688  1.7021  0.4118
 2611SOL    HW219470   0.756   1.688   1.742  0.6638  0.4179  1.2858
 2612SOL     OW19471   2.058   1.985   3.271  0.9012  0.1923  0.3993
 2612SOL    HW119472   2.152   2.001   3.254  0.8637  1.2522  1.1705
 2612SOL    HW219473   2.059   1.915   3.336  2.0892  0.5639  0.7822
 2613SOL     OW19474   2.179   0.885   3.500 -0.1204 -0.4095 -0.0304
 2613SOL    HW119475   2.268   0.916   3.518 -0.9878  2.3334 -0.3958
 2613SOL    HW219476   2.126   0.939   3.559 -0.4477  1.1526 -1.7535
 2614SOL     OW19477   3.725   3.088   6.982  0.0002  0.1413 -0.5996
 2614SOL    HW119478   3.807   3.039   6.994 -1.1809 -1.6257  0.2406
 2614SOL    HW219479   3.722   3.072   6.887 -1.1233  1.9032 -0.8558
 2615SOL     OW19480   1.649   1.564   7.406 -0.2479  0.0969 -0.3278
 2615SOL    HW119481   1.582   1.568   7.338 -0.4718 -0.8482 -0.1712
 2615SOL    HW219482   1.658   1.658   7.418  2.4409 -0.2687  0.5287
 2616SOL     OW19483   2.378   4.451   9.764  0.0303 -0.1234  0.1363
 2616SOL    HW119484   2.347   4.385   9.826 -0.2525 -0.3027 -0.1935
 2616SOL    HW219485   2.295   4.498   9.761 -0.8463 -1.4900  2.5793
 2617SOL     OW19486   0.577   4.530   4.651  0.1174  0.6085  0.2218
 2617SOL    HW119487   0.559   4.602   4.711 -0.0592 -0.1065  1.0270
 2617SOL    HW219488   0.607   4.585   4.579  2.0696 -2.3199 -1.2310
 2618SOL     OW19489   4.210   4.545   9.693 -0.2613  0.5000 -0.1535
 2618SOL    HW119490   4.129   4.593   9.709 -0.8063 -0.1781 -0.8630
 2618SOL    HW219491   4.226   4.542   9.598  2.4759 -0.8408  0.3248
 2619SOL     OW19492   1.642   4.117   1.874 -0.1714 -0.0842  0.3569
 2619SOL    HW119493   1.640   4.123   1.779  2.0855 -1.9646  0.2017
 2619SOL    HW219494   1.734   4.095   1.881 -0.0073  0.8993  1.4618
 2620SOL     OW19495   3.228   1.763   8.932 -0.0741 -0.1193 -0.2683
 2620SOL    HW119496   3.321   1.744   8.917  0.1471  0.3988  0.4932
 2620SOL    HW219497   3.236   1.853   8.962  0.8448 -0.1770 -0.3281
 2621SOL     OW19498   3.111   1.019   7.093 -0.3028  0.2296 -0.1363
 2621SOL    HW119499   3.084   0.930   7.114  1.0181 -0.2838 -0.5782
 2621SOL    HW219500   3.026   1.053   7.067 -0.9475 -2.8559 -2.0942
 2622SOL     OW19501   0.862   1.425  14.938 -0.1235  0.2975 -0.2161
 2622SOL    HW119502   0.887   1.513  14.964 -1.1176  1.4122 -2.9210
 2622SOL    HW219503   0.937   1.396  14.887 -0.8836 -0.6704 -0.7895
 2623SOL     OW19504   1.619   0.669   8.145 -1.0121 -0.0724 -0.1138
 2623SOL    HW119505   1.692   0.631   8.098 -2.7329 -2.9690 -0.4616
 2623SOL    HW219506   1.663   0.740   8.192 -1.8907 -0.1767  0.8687
 2624SOL     OW19507   1.747   4.732  10.722  0.0506 -0.1830 -0.0546
 2624SOL    HW119508   1.798   0.009  10.642  3.1958 -1.9711  1.7314
 2624SOL    HW219509   1.783   4.646  10.742 -1.7840 -0.8914  0.2371
 2625SOL     OW19510   2.034   0.735   5.094 -0.0975 -0.0611 -0.1237
 2625SOL    HW119511   2.106   0.799   5.095 -1.0411  1.0054 -0.1153
 2625SOL    HW219512   2.032   0.707   5.002 -1.6948  0.4626 -0.2422
 2626SOL     OW19513   0.999   1.673  14.935 -0.4734 -0.3507  0.1457
 2626SOL    HW119514   1.086   1.694  14.971 -1.7426  1.3476  2.2394
 2626SOL    HW219515   1.003   1.721  14.852  0.8998 -2.5834 -1.0767
 2627SOL     OW19516   4.000   1.751   3.323  0.0323 -0.4487 -0.0598
 2627SOL    HW119517   3.972   1.741   3.232 -1.1038  0.4087  0.2022
 2627SOL    HW219518   4.094   1.733   3.325 -0.3658 -2.6791 -1.6047
 2628SOL     OW19519   4.376   1.283   5.179  0.5679  0.5659  0.5954
 2628SOL    HW119520   4.293   1.329   5.171  1.5956  2.2888 -0.3258
 2628SOL    HW219521   4.395   1.285   5.085  1.8317 -1.0224  0.8113
 2629SOL     OW19522   2.452   1.241   1.311  0.2166 -0.3582 -0.1689
 2629SOL    HW119523   2.510   1.165   1.306  0.7503  0.1169 -1.0927
 2629SOL    HW219524   2.394   1.237   1.236  0.5391 -0.7400 -0.3973
 2630SOL     OW19525   2.886   0.513   2.732 -0.1727 -0.0251  0.2840
 2630SOL    HW119526   2.914   0.590   2.683 -1.1741  0.5353  0.5752
 2630SOL    HW219527   2.797   0.504   2.697 -1.0488  5.7871  0.9190
 2631SOL     OW19528   0.154   1.729   4.345 -0.3783  0.2867 -0.0794
 2631SOL    HW119529   0.234   1.712   4.296  0.5907  4.1777  0.1486
 2631SOL    HW219530   0.089   1.678   4.297  0.2912 -0.8532  0.2218
 2632SOL     OW19531   1.985   3.430   4.775  0.2775 -0.0469  0.7873
 2632SOL    HW119532   1.930   3.381   4.713  0.6599  3.0693 -2.0130
 2632SOL    HW219533   2.028   3.484   4.710  0.2936  0.7260  1.4467
 2633SOL     OW19534   2.365   0.585   8.535 -0.4531  0.1752  0.0177
 2633SOL    HW119535   2.399   0.516   8.478  1.3618 -0.1370  1.4818
 2633SOL    HW219536   2.385   0.660   8.478  0.6056 -0.4603 -0.4566
 2634SOL     OW19537   1.514   0.686   2.910 -0.4293 -0.0018 -0.1881
 2634SOL    HW119538   1.590   0.656   2.961 -1.4321 -0.5356  1.0054
 2634SOL    HW219539   1.447   0.676   2.977 -1.5819 -0.2052 -1.3794
 2635SOL     OW19540   4.713   4.139  17.024 -0.6592 -0.2803  0.0033
 2635SOL    HW119541   0.023   4.207  16.974 -0.3586 -1.1836 -0.9440
 2635SOL    HW219542   4.653   4.086  16.972  0.1091 -0.2192 -0.9252
 2636SOL     OW19543   2.591   1.541   8.221 -0.0341 -0.2743  0.0539
 2636SOL    HW119544   2.623   1.460   8.181 -1.2372 -1.3172  1.2017
 2636SOL    HW219545   2.499   1.521   8.238 -0.0447  1.1630  1.7627
 2637SOL     OW19546   0.205   3.290   2.360 -0.3561 -0.6474 -0.3537
 2637SOL    HW119547   0.282   3.257   2.406  0.8948 -1.3781 -2.9480
 2637SOL    HW219548   0.173   3.210   2.318  0.8975 -0.0382 -2.4603
 2638SOL     OW19549   0.947   2.076   0.413  0.5572  0.3743 -0.5449
 2638SOL    HW119550   1.036   2.042   0.402  0.3431  0.1113 -1.4467
 2638SOL    HW219551   0.894   2.006   0.376  2.6855 -1.5132 -0.0102
 2639SOL     OW19552   4.225   1.531  14.891 -0.0389 -0.3527 -0.4949
 2639SOL    HW119553   4.195   1.573  14.811 -0.7483 -0.4917 -0.3017
 2639SOL    HW219554   4.157   1.465  14.908  1.6502 -1.3924  2.3139
 2640SOL     OW19555   3.808   2.355   7.230 -0.2418  0.2812  0.1804
 2640SOL    HW119556   3.854   2.280   7.266 -0.6746 -1.2482 -2.4698
 2640SOL    HW219557   3.806   2.332   7.137 -3.7059 -0.0384  0.3190
 2641SOL     OW19558   2.386   2.468   2.613 -0.0930  0.7198 -0.0825
 2641SOL    HW119559   2.301   2.487   2.651 -0.4093 -0.4782 -0.2185
 2641SOL    HW219560   2.440   2.519   2.673  2.5708  1.2347 -2.8689
 2642SOL     OW19561   3.369   3.731   0.276  0.1865 -0.3486  0.2514
 2642SOL    HW119562   3.329   3.663   0.329  1.1761 -1.1525 -0.0271
 2642SOL    HW219563   3.442   3.687   0.231 -0.4727 -1.3939  0.2065
 2643SOL     OW19564   4.617   1.175   2.013  0.3878  0.1165 -0.2238
 2643SOL    HW119565   4.562   1.242   2.053  1.4212 -0.4921  2.1975
 2643SOL    HW219566   4.605   1.110   2.082 -0.4318  0.0983 -0.3770
 2644SOL     OW19567   3.239   1.805   1.882 -0.5647 -0.5618  0.4603
 2644SOL    HW119568   3.231   1.833   1.790 -0.8677 -2.2175 -0.0153
 2644SOL    HW219569   3.170   1.855   1.924 -1.2507 -0.7446 -0.4360
 2645SOL     OW19570   1.172   4.422   8.882 -0.3840  0.6580  0.4752
 2645SOL    HW119571   1.234   4.370   8.933  0.8057 -0.2742 -1.9036
 2645SOL    HW219572   1.183   4.500   8.936  0.0164 -0.8606  2.6184
 2646SOL     OW19573   2.774   1.754   7.019  0.5542 -0.2079 -0.3065
 2646SOL    HW119574   2.738   1.809   6.949  1.6769  0.6902 -0.1735
 2646SOL    HW219575   2.791   1.827   7.078 -0.7703  0.1825 -0.4010
 2647SOL     OW19576   0.295   3.219   6.592  0.0766  0.2919 -0.1612
 2647SOL    HW119577   0.353   3.228   6.516  1.0965  1.0141  0.7134
 2647SOL    HW219578   0.273   3.312   6.593 -0.2332  0.2126  0.6103
 2648SOL     OW19579   3.537   2.090   8.421 -0.2390  0.0875 -0.5840
 2648SOL    HW119580   3.448   2.121   8.405  0.2691  1.2578 -1.1293
 2648SOL    HW219581   3.528   1.995   8.412  3.1936 -0.1421 -1.6416
 2649SOL     OW19582   2.293   3.699   2.016  0.0723  0.0171  0.0699
 2649SOL    HW119583   2.266   3.771   1.958 -0.1706  1.8861  2.5153
 2649SOL    HW219584   2.295   3.745   2.100  1.4616 -0.3312  0.2143
 2650SOL     OW19585   3.121   3.111   7.423 -0.0015 -0.0977  0.4591
 2650SOL    HW119586   3.137   3.159   7.505  1.2898  1.8466 -0.9239
 2650SOL    HW219587   3.174   3.154   7.355 -0.6987 -0.5335 -0.3579
 2651SOL     OW19588   2.431   1.535   9.370  0.0201  0.5161 -0.2936
 2651SOL    HW119589   2.497   1.593   9.409  0.4515  0.6210 -1.1835
 2651SOL    HW219590   2.395   1.497   9.450 -0.6576  2.8044  0.4804
 2652SOL     OW19591   2.290   2.942  11.366  0.0500  0.5495  0.7203
 2652SOL    HW119592   2.358   3.008  11.354  1.6207 -0.8519  1.8269
 2652SOL    HW219593   2.337   2.874  11.317 -1.4563  1.7760 -2.4001
 2653SOL     OW19594   3.872   4.311   8.562 -0.3222 -1.0173  0.5077
 2653SOL    HW119595   3.883   4.406   8.564  0.6349 -1.1380  1.0752
 2653SOL    HW219596   3.962   4.289   8.588  1.4157  0.2182 -4.4179
 2654SOL     OW19597   2.879   4.561   8.291  0.5793  0.1871  0.2301
 2654SOL    HW119598   2.949   4.595   8.347  0.9859 -2.1673  1.1880
 2654SOL    HW219599   2.877   4.469   8.317 -1.2407 -0.0117 -0.6070
 2655SOL     OW19600   3.064   2.403   0.155 -0.0836  0.9075 -0.5670
 2655SOL    HW119601   3.152   2.422   0.186 -0.0142  0.0816 -0.2537
 2655SOL    HW219602   3.059   2.463   0.080 -0.3750  2.2248  0.5076
 2656SOL     OW19603   0.531   3.318   4.244 -0.0942  0.6504  0.2986
 2656SOL    HW119604   0.470   3.247   4.264  1.0441 -0.7019 -0.9937
 2656SOL    HW219605   0.488   3.389   4.293 -0.2580  0.5085  0.3611
 2657SOL     OW19606   3.278   1.166   7.671 -0.2547  0.3529  0.3315
 2657SOL    HW119607   3.297   1.120   7.753  0.0997  1.1364  0.6894
 2657SOL    HW219608   3.317   1.105   7.609  2.1484  1.4744  0.7242
 2658SOL     OW19609   2.084   4.513   4.148  0.3607 -0.2952  0.2889
 2658SOL    HW119610   2.171   4.554   4.143 -0.2480  0.7061 -1.9918
 2658SOL    HW219611   2.099   4.434   4.095 -0.3204 -1.3283  1.6639
 2659SOL     OW19612   3.557   3.486  17.153  0.5665  0.1080 -0.1974
 2659SOL    HW119613   3.527   3.574  17.176  0.9734  0.0071  0.6941
 2659SOL    HW219614   3.479   3.433  17.169  1.2064 -1.2249 -1.5182
 2660SOL     OW19615   0.185   1.589   7.248  0.3899 -0.4359  0.2384
 2660SOL    HW119616   0.173   1.528   7.321  0.9497  0.6955  1.2919
 2660SOL    HW219617   0.252   1.537   7.202 -1.2197 -1.1874 -1.2305
 2661SOL     OW19618   2.604   0.495   4.398 -0.0512 -0.3390 -0.1778
 2661SOL    HW119619   2.636   0.584   4.380  0.9836 -0.8670 -0.9066
 2661SOL    HW219620   2.601   0.501   4.494 -1.6378  2.3156 -0.3917
 2662SOL     OW19621   1.716   2.803  12.243  0.4798  0.5283 -0.4120
 2662SOL    HW119622   1.682   2.861  12.176 -0.1519  1.3063  0.5744
 2662SOL    HW219623   1.803   2.780  12.211  0.6694 -3.1006  2.6781
 2663SOL     OW19624   3.841   2.072  16.513 -0.1775  0.6157  0.1239
 2663SOL    HW119625   3.894   1.995  16.499 -0.4252  0.4190  0.2622
 2663SOL    HW219626   3.869   2.093  16.602  1.6864 -2.5721  0.2540
 2664SOL     OW19627   3.626   2.232   6.626 -0.1244 -0.1081 -0.6894
 2664SOL    HW119628   3.678   2.287   6.685  0.4194 -2.7341  1.2924
 2664SOL    HW219629   3.685   2.158   6.611  0.1827 -0.0849  0.3975
 2665SOL     OW19630   4.310   4.711  17.317  0.1181 -0.3634  0.8160
 2665SOL    HW119631   4.310   4.642  17.250  0.2656  1.3944 -0.9759
 2665SOL    HW219632   4.323   4.657  17.394 -2.6808 -0.2052  1.4189
 2666SOL     OW19633   2.985   1.687   4.629 -0.3966  0.0074  0.4587
 2666SOL    HW119634   2.968   1.596   4.608 -0.0867 -0.0189  0.3135
 2666SOL    HW219635   3.001   1.728   4.543 -1.4967 -0.8075 -0.1346
 2667SOL     OW19636   4.435   1.058   4.141 -0.3634  0.6055 -0.1792
 2667SOL    HW119637   4.405   1.042   4.051 -0.4242 -1.1320  0.1511
 2667SOL    HW219638   4.376   1.006   4.196  0.2179 -0.0028 -0.1265
 2668SOL     OW19639   1.038   2.113  10.083 -0.0930  0.0812  0.4058
 2668SOL    HW119640   1.035   2.186  10.021 -0.5906  0.3991  0.8063
 2668SOL    HW219641   0.970   2.060  10.041  0.8199 -1.4446  0.8698
 2669SOL     OW19642   1.505   0.267   8.846  0.4112 -0.0759 -0.3068
 2669SOL    HW119643   1.428   0.261   8.902  2.3793  0.1425  2.4489
 2669SOL    HW219644   1.570   0.229   8.906 -0.0543  0.0698  0.2874
 2670SOL     OW19645   3.249   3.169  17.042 -0.3784  0.2814 -0.4209
 2670SOL    HW119646   3.269   3.175  17.136  1.1360  0.4753 -0.7533
 2670SOL    HW219647   3.335   3.181  17.002 -0.2974  2.8402  0.5091
 2671SOL     OW19648   2.438   0.847  15.902  0.2368 -0.6283 -0.3641
 2671SOL    HW119649   2.436   0.799  15.985 -1.8283  0.6097  0.3197
 2671SOL    HW219650   2.377   0.921  15.907 -0.2383 -0.9418 -1.7473
 2672SOL     OW19651   3.571   2.585   7.623 -0.4226  0.2620  0.4339
 2672SOL    HW119652   3.512   2.655   7.597  0.1264  1.0637  1.3602
 2672SOL    HW219653   3.577   2.550   7.534  2.1504 -1.2950  1.2213
 2673SOL     OW19654   0.691   0.294   7.736 -0.1628 -0.3253 -0.2609
 2673SOL    HW119655   0.731   0.217   7.696  2.3833  1.2357 -0.7505
 2673SOL    HW219656   0.694   0.341   7.653  1.3888 -0.2222 -0.1612
 2674SOL     OW19657   2.315   2.065   1.909 -0.2072  0.0709  0.5112
 2674SOL    HW119658   2.255   2.120   1.860  0.0287 -0.3090 -0.2056
 2674SOL    HW219659   2.365   2.021   1.840 -0.2136 -0.6564  0.9624
 2675SOL     OW19660   0.536   4.406  15.101  0.2127 -0.2997  0.2456
 2675SOL    HW119661   0.555   4.494  15.069  1.5542 -1.1003 -1.1528
 2675SOL    HW219662   0.618   4.371  15.137  0.0893 -1.0024 -0.1449
 2676SOL     OW19663   2.292   4.050   0.528 -0.3018  0.0166 -0.6356
 2676SOL    HW119664   2.218   4.111   0.521  0.9543  1.5056 -0.7590
 2676SOL    HW219665   2.347   4.076   0.602  0.8860 -3.4564 -0.2943
 2677SOL     OW19666   2.256   4.002   8.138  0.4349 -0.3439 -0.0023
 2677SOL    HW119667   2.194   4.019   8.209 -1.1812  0.6756 -1.6790
 2677SOL    HW219668   2.202   3.928   8.112 -0.2474 -0.1847  0.9771
 2678SOL     OW19669   0.528   2.238   8.309 -0.8563 -0.4706  0.3156
 2678SOL    HW119670   0.517   2.305   8.241 -0.2030  0.0272  0.7046
 2678SOL    HW219671   0.504   2.151   8.277 -0.3916 -0.6273  0.3984
 2679SOL     OW19672   3.526   3.320   7.481  0.4215 -0.0862  0.0914
 2679SOL    HW119673   3.609   3.352   7.446 -0.2165  0.2674 -1.0877
 2679SOL    HW219674   3.480   3.399   7.454  1.6271  1.3512  2.2037
 2680SOL     OW19675   2.450   2.531  14.903 -0.1971 -0.4081  0.5971
 2680SOL    HW119676   2.498   2.613  14.893 -0.8442  0.0002  0.8671
 2680SOL    HW219677   2.361   2.557  14.926 -0.2388  1.2968 -1.4673
 2681SOL     OW19678   1.359   3.009  12.996 -0.5359 -0.5410 -0.1921
 2681SOL    HW119679   1.444   3.009  13.040 -0.5879  1.0559 -0.0999
 2681SOL    HW219680   1.307   2.964  13.063 -0.0345 -0.2488  0.3965
 2682SOL     OW19681   2.185   3.656   3.145  0.3582 -0.0059 -0.4755
 2682SOL    HW119682   2.116   3.609   3.099  1.8869 -0.9850 -1.7452
 2682SOL    HW219683   2.217   3.705   3.070 -0.1249  2.2749  0.7858
 2683SOL     OW19684   2.032   1.553   1.381 -0.5113 -0.0989  0.0854
 2683SOL    HW119685   2.086   1.479   1.409 -2.4062 -1.3224  0.5021
 2683SOL    HW219686   1.971   1.524   1.313  1.0179 -0.0998 -1.2938
 2684SOL     OW19687   0.516   3.226   3.822  0.2875  0.5809  0.0268
 2684SOL    HW119688   0.452   3.271   3.768  1.0122  1.4039 -0.1402
 2684SOL    HW219689   0.529   3.306   3.873 -2.2302 -0.1259  1.7626
 2685SOL     OW19690   1.231   2.841   4.159 -0.2563  0.7994 -0.6188
 2685SOL    HW119691   1.157   2.848   4.219 -0.4166 -0.1237 -0.7026
 2685SOL    HW219692   1.275   2.925   4.171 -0.6173  1.0640 -1.1294
 2686SOL     OW19693   2.931   1.767   1.346  0.3335  0.5515  0.2399
 2686SOL    HW119694   2.994   1.716   1.397 -1.5774 -3.4468 -1.3915
 2686SOL    HW219695   2.849   1.743   1.388  0.7129 -0.6873  0.2835
 2687SOL     OW19696   0.032   2.365   5.790 -0.0876 -0.1854  0.2729
 2687SOL    HW119697   4.730   2.390   5.706 -1.7938  0.6026  1.2510
 2687SOL    HW219698   0.072   2.446   5.821 -0.8145  0.2155  0.1585
 2688SOL     OW19699   0.383   0.640   6.126  0.4570  0.3230  0.1378
 2688SOL    HW119700   0.295   0.666   6.152  0.6097 -0.0821  1.0584
 2688SOL    HW219701   0.374   0.549   6.099 -2.0793  0.4960  0.4364
 2689SOL     OW19702   3.448   2.208   1.557 -0.7245 -0.3779  0.1061
 2689SOL    HW119703   3.452   2.299   1.586  0.8088 -0.1097 -0.9449
 2689SOL    HW219704   3.434   2.210   1.462  0.7264 -0.0294 -0.0920
 2690SOL     OW19705   4.233   3.022   8.057 -0.1671 -0.0871 -0.2874
 2690SOL    HW119706   4.242   2.940   8.105  1.8038  1.4051  1.8912
 2690SOL    HW219707   4.250   3.002   7.964 -1.3128 -0.9956 -0.2967
 2691SOL     OW19708   0.146   4.524   5.134  0.0437 -0.2935 -0.1847
 2691SOL    HW119709   0.135   4.437   5.096  1.5438 -1.3628  1.8260
 2691SOL    HW219710   0.228   4.543   5.087 -0.9780  2.9960 -0.6338
 2692SOL     OW19711   2.934   2.869   2.331 -0.1735  0.1915  0.4092
 2692SOL    HW119712   2.912   2.882   2.423  1.1958 -0.0508  0.7843
 2692SOL    HW219713   3.028   2.884   2.344 -0.0836 -0.7868  0.9022
 2693SOL     OW19714   2.386   1.859  16.031  0.1678 -0.0727 -0.3567
 2693SOL    HW119715   2.291   1.869  16.021  0.0752 -2.5151 -1.9673
 2693SOL    HW219716   2.410   1.854  15.938  1.6260  2.1148 -0.0964
 2694SOL     OW19717   3.936   4.034  15.326  0.0035 -0.1970  0.5368
 2694SOL    HW119718   3.925   3.961  15.265 -0.4329 -2.0951  2.8946
 2694SOL    HW219719   3.950   4.109  15.268  2.1470 -0.4462  0.7585
 2695SOL     OW19720   2.231   0.557   8.964  0.2547  1.0871 -0.8900
 2695SOL    HW119721   2.302   0.582   8.905  1.3270  0.8465  0.3045
 2695SOL    HW219722   2.252   0.617   9.035  1.8672  0.0835 -0.5132
 2696SOL     OW19723   0.916   3.936   8.110  0.5997 -0.2718 -0.2842
 2696SOL    HW119724   0.969   3.916   8.033  2.2025  0.5165  0.6312
 2696SOL    HW219725   0.957   3.879   8.174 -0.0763 -1.6785 -1.0955
 2697SOL     OW19726   4.268   1.083   6.452 -0.0698  0.4081  0.1507
 2697SOL    HW119727   4.257   1.174   6.423  0.7674  0.1196 -1.0958
 2697SOL    HW219728   4.179   1.069   6.483 -0.9971  0.7390 -2.3936
 2698SOL     OW19729   3.919   4.114   3.167 -0.3490  0.1771 -0.0486
 2698SOL    HW119730   3.972   4.036   3.184 -1.3206 -0.5401 -0.3157
 2698SOL    HW219731   3.839   4.101   3.218 -0.9339 -1.4581 -1.3525
 2699SOL     OW19732   1.503   0.205   5.315 -0.0742  0.2890 -0.8096
 2699SOL    HW119733   1.408   0.205   5.311 -0.2042  0.1251  2.1386
 2699SOL    HW219734   1.526   0.292   5.283  0.2886 -0.2592 -2.0459
 2700SOL     OW19735   2.723   1.906   5.162 -0.7366 -0.7467 -0.0761
 2700SOL    HW119736   2.737   2.000   5.154 -1.3865 -0.6853 -0.5337
 2700SOL    HW219737   2.812   1.875   5.146 -0.0992  1.4169 -0.6807
 2701SOL     OW19738   3.335   2.270   4.330 -0.8361  0.2688 -0.5601
 2701SOL    HW119739   3.273   2.342   4.319 -1.2580 -0.0302 -0.1454
 2701SOL    HW219740   3.358   2.262   4.237  1.0475  0.4477 -0.1157
 2702SOL     OW19741   0.966   3.260   4.853  0.1436  0.4269 -0.4532
 2702SOL    HW119742   0.961   3.174   4.895  0.7601  0.5545 -0.1180
 2702SOL    HW219743   0.930   3.310   4.925  1.0706  0.1287  0.2238
 2703SOL     OW19744   0.520   0.617   8.943  0.1180 -0.1334  0.0449
 2703SOL    HW119745   0.550   0.634   9.032 -0.7387  2.1252 -0.0895
 2703SOL    HW219746   0.602   0.580   8.911  0.8189  0.7654  0.8166
 2704SOL     OW19747   2.938   3.214   8.536  0.2571  0.2918  0.4107
 2704SOL    HW119748   2.864   3.259   8.495  0.3846 -0.7807 -0.9880
 2704SOL    HW219749   2.925   3.125   8.502  0.2214  0.5380 -0.2253
 2705SOL     OW19750   1.069   4.638   9.066  0.4868 -0.3583 -0.2130
 2705SOL    HW119751   1.043   4.706   9.003 -0.7149 -0.9113 -0.3170
 2705SOL    HW219752   1.014   4.662   9.141  2.3299  2.6317  0.2063
 2706SOL     OW19753   0.351   0.011   4.437 -0.2949 -0.1755 -0.3792
 2706SOL    HW119754   0.275   4.713   4.486  0.9641  2.0791  3.1109
 2706SOL    HW219755   0.415   0.044   4.500 -0.9450  1.1687 -0.4345
 2707SOL     OW19756   0.174   4.700  11.209  0.4030 -0.5643 -0.6359
 2707SOL    HW119757   0.255   4.651  11.222  0.7493 -0.2511 -1.6401
 2707SOL    HW219758   0.191   0.001  11.122 -0.4752 -0.9060 -0.9476
 2708SOL     OW19759   2.298   3.884   1.807  0.2750 -0.2051  0.2980
 2708SOL    HW119760   2.350   3.832   1.745 -0.0186  0.3940 -0.4546
 2708SOL    HW219761   2.361   3.949   1.840 -0.5195  0.0113  1.3700
 2709SOL     OW19762   0.923   1.024   7.308 -0.1775  0.1884 -0.6267
 2709SOL    HW119763   0.889   1.113   7.322  0.3399  0.2501  0.2156
 2709SOL    HW219764   0.849   0.975   7.344 -1.5508  1.5286 -1.6007
 2710SOL     OW19765   3.491   0.128   4.038  0.6245  0.0719  0.3195
 2710SOL    HW119766   3.550   0.126   3.963 -2.1211 -2.2651 -1.8181
 2710SOL    HW219767   3.548   0.138   4.114 -0.0064 -4.0818  1.3549
 2711SOL     OW19768   1.799   0.133   5.691 -0.2614 -0.2609 -0.2987
 2711SOL    HW119769   1.799   0.229   5.698  0.5324 -0.4031  1.8068
 2711SOL    HW219770   1.712   0.135   5.651  0.1840  2.4954 -1.1295
 2712SOL     OW19771   3.661   0.352   1.339  0.3876 -1.0235 -0.1016
 2712SOL    HW119772   3.700   0.272   1.304 -0.9936 -0.6413 -2.4880
 2712SOL    HW219773   3.698   0.371   1.425  0.8840 -0.1165 -0.5088
 2713SOL     OW19774   0.913   3.177  16.088  0.2484  0.0751  0.0644
 2713SOL    HW119775   0.900   3.242  16.019 -0.4849 -0.2196 -0.0742
 2713SOL    HW219776   0.868   3.104  16.045 -0.4526  1.3324 -1.3144
 2714SOL     OW19777   0.292   0.766   7.266 -0.1136  0.3618 -0.4815
 2714SOL    HW119778   0.232   0.699   7.297 -0.3039  0.5594 -0.4226
 2714SOL    HW219779   0.301   0.736   7.175  2.3781 -3.8866  1.1912
 2715SOL     OW19780   2.252   1.729  12.150  0.2068 -0.1369 -0.0823
 2715SOL    HW119781   2.332   1.729  12.097  0.6995  0.5346  0.6584
 2715SOL    HW219782   2.284   1.658  12.206 -0.5758 -1.4888 -1.3603
 2716SOL     OW19783   1.919   2.677   2.150  0.4975  0.5107 -0.3667
 2716SOL    HW119784   1.929   2.582   2.143  0.0967  0.1570  3.9897
 2716SOL    HW219785   1.992   2.708   2.202 -0.1555  0.4419  0.5934
 2717SOL     OW19786   0.868   2.865  11.994  0.8694 -0.0790  0.8239
 2717SOL    HW119787   0.804   2.824  11.935 -0.0579 -0.6144  2.2093
 2717SOL    HW219788   0.835   2.955  11.998 -0.5459 -0.5797  0.4420
 2718SOL     OW19789   1.532   4.229   0.793  0.3158 -0.2925  0.0816
 2718SOL    HW119790   1.572   4.269   0.870 -3.2506  3.5366 -0.0272
 2718SOL    HW219791   1.578   4.277   0.724  0.3618  1.8726  1.6365
 2719SOL     OW19792   1.825   1.103   7.835 -0.6530  0.8758 -0.1234
 2719SOL    HW119793   1.825   1.043   7.761 -1.1698  0.3262  0.3223
 2719SOL    HW219794   1.779   1.041   7.890 -0.4531 -0.3051 -1.3023
 2720SOL     OW19795   0.611   2.503   5.349 -0.1798 -0.0590 -0.4069
 2720SOL    HW119796   0.542   2.452   5.391  0.0945  1.4933  1.9408
 2720SOL    HW219797   0.669   2.498   5.425  1.2823  0.4663 -1.4946
 2721SOL     OW19798   0.226   3.262  11.460  0.2994 -0.7210 -0.4799
 2721SOL    HW119799   0.179   3.178  11.454  1.4214 -1.4859  1.4903
 2721SOL    HW219800   0.151   3.316  11.436  1.4009  0.1874 -1.8414
 2722SOL     OW19801   2.635   0.158   7.227 -0.0619  0.5928 -0.5120
 2722SOL    HW119802   2.662   0.075   7.267 -0.9996 -0.1896 -1.5106
 2722SOL    HW219803   2.664   0.225   7.290 -0.5185  0.4674 -0.1716
 2723SOL     OW19804   1.422   4.289   4.251 -0.0698 -0.0765  0.4481
 2723SOL    HW119805   1.367   4.363   4.276  0.8730  0.8196 -0.1335
 2723SOL    HW219806   1.495   4.296   4.312  0.5999 -0.3557 -0.3272
 2724SOL     OW19807   4.663   1.915   1.680 -0.2187  0.3089  0.1933
 2724SOL    HW119808   4.586   1.943   1.729 -0.9184 -2.6974  0.8534
 2724SOL    HW219809   4.731   1.897   1.744  0.0227  0.0976 -0.1234
 2725SOL     OW19810   1.075   1.026   9.960 -0.9244  0.4911  0.1315
 2725SOL    HW119811   1.039   1.096   9.905 -0.2126  0.1441 -0.7790
 2725SOL    HW219812   1.161   1.017   9.919 -0.3673  3.7268  0.5678
 2726SOL     OW19813   0.655   2.766   1.627  0.0592  0.2363 -0.1379
 2726SOL    HW119814   0.608   2.704   1.571  0.2956 -1.9994  2.1633
 2726SOL    HW219815   0.623   2.755   1.716  3.5009 -3.9857  0.6157
 2727SOL     OW19816   2.053   2.771   3.853 -0.1850  0.0173  0.3360
 2727SOL    HW119817   2.098   2.759   3.937  0.1221 -1.4837 -0.0503
 2727SOL    HW219818   1.995   2.696   3.840 -0.9795  0.7213 -0.1515
 2728SOL     OW19819   1.353   1.713   2.702 -0.0931  0.0027 -0.4903
 2728SOL    HW119820   1.353   1.708   2.606  3.6429 -1.7556 -0.3819
 2728SOL    HW219821   1.301   1.635   2.722 -0.1912  0.1268 -0.2632
 2729SOL     OW19822   2.583   1.687   5.956  0.2982 -0.2913  0.1499
 2729SOL    HW119823   2.637   1.608   5.950  0.0619 -0.2913 -2.1095
 2729SOL    HW219824   2.629   1.738   5.889 -2.4644  1.1980 -0.5777
 2730SOL     OW19825   2.661   3.053  12.437  0.4644  0.8022  0.6039
 2730SOL    HW119826   2.626   3.082  12.521 -0.9507 -1.0226  0.6406
 2730SOL    HW219827   2.675   2.960  12.455 -0.8480  0.1791 -1.6192
 2731SOL     OW19828   2.458   0.884   4.950  0.0430 -0.2480  0.3109
 2731SOL    HW119829   2.417   0.812   4.997 -0.6761 -1.3205 -1.9645
 2731SOL    HW219830   2.549   0.868   4.975 -0.1128 -0.6914  0.5847
 2732SOL     OW19831   2.338   2.357  10.040 -0.0719  0.2568 -0.0557
 2732SOL    HW119832   2.404   2.413  10.082 -1.7020  1.3401  1.1145
 2732SOL    HW219833   2.272   2.426  10.029  0.7577  0.8500 -1.3196
 2733SOL     OW19834   1.532   1.447   4.619  0.2532  0.5629  0.0204
 2733SOL    HW119835   1.459   1.388   4.638  0.6591  0.1590  0.3279
 2733SOL    HW219836   1.488   1.512   4.564 -1.1305  0.5723  1.1318
 2734SOL     OW19837   4.493   2.189   9.142 -0.2976 -0.2808 -0.3412
 2734SOL    HW119838   4.498   2.095   9.161  1.5976  0.2085  1.6028
 2734SOL    HW219839   4.522   2.190   9.050  2.3591  0.3117  0.5023
 2735SOL     OW19840   2.055   1.343   2.715 -0.2237  0.9118 -0.2451
 2735SOL    HW119841   2.116   1.393   2.659 -1.9524  2.0696 -1.0949
 2735SOL    HW219842   2.032   1.398   2.790 -0.6971  0.4318 -0.0441
 2736SOL     OW19843   4.229   1.445   6.575 -0.7536  0.4882 -0.2056
 2736SOL    HW119844   4.214   1.399   6.492  1.6289 -0.0046 -0.3570
 2736SOL    HW219845   4.160   1.511   6.575  0.2278  1.5084 -1.4072
 2737SOL     OW19846   0.833   1.927   2.733 -0.6242 -0.3459 -0.2575
 2737SOL    HW119847   0.924   1.927   2.763 -1.1218  2.9028  1.2902
 2737SOL    HW219848   0.798   1.859   2.791  1.0450 -1.6483 -0.7933
 2738SOL     OW19849   2.205   3.532   0.311 -0.6510 -0.5518 -0.3446
 2738SOL    HW119850   2.214   3.591   0.386 -3.3282  1.0368 -1.2545
 2738SOL    HW219851   2.157   3.465   0.361 -0.7060  0.1683  0.5683
 2739SOL     OW19852   3.131   0.370   1.844  0.0180  0.4526  0.3272
 2739SOL    HW119853   3.136   0.351   1.937 -0.2155 -2.5772 -0.2614
 2739SOL    HW219854   3.221   0.387   1.815  0.8039 -1.8867  1.4064
 2740SOL     OW19855   4.309   2.053   5.672  0.2793 -0.2279  0.4483
 2740SOL    HW119856   4.355   1.970   5.667 -0.4005 -0.6849  1.5078
 2740SOL    HW219857   4.218   2.029   5.690 -0.1829  0.0655 -1.4739
 2741SOL     OW19858   3.951   3.195   0.741 -0.0794  0.2379 -0.1295
 2741SOL    HW119859   4.005   3.120   0.715  0.3505  1.4726 -2.8021
 2741SOL    HW219860   3.879   3.190   0.678 -0.2106 -0.1033  0.0458
 2742SOL     OW19861   1.258   3.273  10.130 -0.4018 -0.3345  0.2446
 2742SOL    HW119862   1.219   3.359  10.147 -0.8351 -0.6092  0.6096
 2742SOL    HW219863   1.239   3.240  10.217  0.2021  0.1349  0.5617
 2743SOL     OW19864   2.043   4.388  13.723 -0.1502 -0.1067 -0.3246
 2743SOL    HW119865   2.115   4.329  13.703  0.2085 -0.0469  0.7570
 2743SOL    HW219866   1.970   4.330  13.745  1.2211 -0.9947  1.8129
 2744SOL     OW19867   4.154   3.826   6.472 -0.2507  0.2824  0.1446
 2744SOL    HW119868   4.175   3.864   6.387  0.3050 -1.8715 -0.7028
 2744SOL    HW219869   4.081   3.766   6.457 -0.4634  0.7546 -0.6485
 2745SOL     OW19870   0.487   0.384  15.938 -0.0242 -0.4196  0.0701
 2745SOL    HW119871   0.433   0.334  16.000  0.5834  1.1188  1.8482
 2745SOL    HW219872   0.574   0.363  15.974 -0.2295 -2.3723 -0.5640
 2746SOL     OW19873   1.166   2.302   3.135 -1.1020 -0.4441 -0.4751
 2746SOL    HW119874   1.113   2.234   3.176  0.6632 -0.9263  1.0540
 2746SOL    HW219875   1.102   2.352   3.085  0.1640  0.1638 -1.4938
 2747SOL     OW19876   2.866   3.256  14.023  0.0015  0.2154  0.2715
 2747SOL    HW119877   2.837   3.303  13.945  0.4725  1.9085  1.1207
 2747SOL    HW219878   2.951   3.299  14.012  0.4398 -0.6949  0.0567
 2748SOL     OW19879   0.935   2.936  16.905 -0.2371 -0.2476 -0.3017
 2748SOL    HW119880   0.921   2.937  17.000  0.3649  0.2689 -0.2165
 2748SOL    HW219881   0.860   2.890  16.868 -1.9319  1.7574  0.6086
 2749SOL     OW19882   0.919   1.753   3.462 -0.2988 -0.0605 -0.2561
 2749SOL    HW119883   0.852   1.723   3.401  1.0331 -1.4349 -1.0479
 2749SOL    HW219884   0.978   1.680   3.482  1.0699  1.9166  2.9756
 2750SOL     OW19885   0.683   1.746   2.852 -0.1673 -0.2245 -0.1723
 2750SOL    HW119886   0.622   1.677   2.828  1.1413 -1.4595  0.0604
 2750SOL    HW219887   0.748   1.695   2.900 -0.5196  0.8134  1.4269
 2751SOL     OW19888   2.424   2.721   0.777  0.0054 -0.0693  0.4765
 2751SOL    HW119889   2.335   2.735   0.811 -0.7978 -0.1309 -1.5892
 2751SOL    HW219890   2.414   2.688   0.687 -1.1927  0.7624  0.2913
 2752SOL     OW19891   4.516   2.479   7.080 -0.0151  0.1420 -0.1935
 2752SOL    HW119892   4.491   2.441   7.164 -0.3545 -0.5220 -0.5836
 2752SOL    HW219893   4.549   2.561   7.116  0.0805 -0.4125  0.9884
 2753SOL     OW19894   2.255   1.361  11.189 -0.6322  0.1440 -0.0095
 2753SOL    HW119895   2.271   1.440  11.136  1.9090 -1.6396 -1.9039
 2753SOL    HW219896   2.165   1.344  11.163 -0.3554 -0.5173 -0.5218
 2754SOL     OW19897   3.818   3.256  16.914 -0.4267 -0.1998  0.8425
 2754SOL    HW119898   3.813   3.295  16.826 -2.2114 -2.7632 -0.1814
 2754SOL    HW219899   3.732   3.285  16.943 -1.2277 -1.5832 -0.1413
 2755SOL     OW19900   3.601   0.173   3.770  0.4108 -0.4515 -0.2653
 2755SOL    HW119901   3.587   0.079   3.777  0.8263 -0.4252  0.8302
 2755SOL    HW219902   3.686   0.174   3.726  0.8683  2.5784  0.6555
 2756SOL     OW19903   0.368   0.301   0.316 -0.1971  0.1203 -0.2994
 2756SOL    HW119904   0.326   0.373   0.363  0.1022  0.3153 -0.3361
 2756SOL    HW219905   0.458   0.330   0.303  0.4531 -1.3779  0.7284
 2757SOL     OW19906   1.160   4.661   6.768 -0.5379  0.0283  0.0142
 2757SOL    HW119907   1.222   4.654   6.840 -2.3499 -0.9011  1.4867
 2757SOL    HW219908   1.080   4.635   6.815  0.2404 -0.8147  0.8827
 2758SOL     OW19909   4.171   2.979   2.115 -0.3263  0.5222 -0.2669
 2758SOL    HW119910   4.198   2.887   2.123 -0.0317  0.6432  0.0867
 2758SOL    HW219911   4.258   3.011   2.094 -1.2523  2.2845 -1.4177
 2759SOL     OW19912   0.246   4.220   2.857 -0.2936  0.2316 -0.2284
 2759SOL    HW119913   0.191   4.216   2.779  0.2835 -1.1772 -0.5509
 2759SOL    HW219914   0.190   4.278   2.909  1.8057  1.0241  1.1771
 2760SOL     OW19915   2.640   0.680   2.996 -0.3719  0.3896 -0.6318
 2760SOL    HW119916   2.643   0.738   2.920 -0.8548  0.7821 -0.3499
 2760SOL    HW219917   2.584   0.612   2.958  0.4772  0.0894 -1.3411
 2761SOL     OW19918   3.324   4.585   7.444  0.4658 -0.8126 -0.0748
 2761SOL    HW119919   3.308   4.608   7.536 -0.2718  1.5446 -0.7862
 2761SOL    HW219920   3.262   4.512   7.438 -0.7976  0.2557 -0.1420
 2762SOL     OW19921   3.819   0.333   0.131 -0.2096  0.0578  0.5128
 2762SOL    HW119922   3.820   0.340   0.227  0.2758  3.2892  0.2885
 2762SOL    HW219923   3.726   0.355   0.130 -1.1664 -3.9256  1.1538
 2763SOL     OW19924   2.303   0.577   6.506 -0.3728  0.3150 -0.1578
 2763SOL    HW119925   2.271   0.654   6.553 -0.2933  2.3702 -3.4230
 2763SOL    HW219926   2.314   0.621   6.421 -0.7386  0.4428 -0.1393
 2764SOL     OW19927   2.683   3.268  12.244  0.6447  0.4775 -0.1679
 2764SOL    HW119928   2.738   3.229  12.175 -1.5669 -0.6298 -1.3062
 2764SOL    HW219929   2.678   3.189  12.297 -0.8731  0.6677 -0.0440
 2765SOL     OW19930   3.683   3.853   1.272 -0.3864 -1.0034 -0.6706
 2765SOL    HW119931   3.777   3.849   1.253  0.0635  1.6323  0.9197
 2765SOL    HW219932   3.690   3.802   1.353 -2.1911 -0.1001  0.0506
 2766SOL     OW19933   4.730   2.596   3.074  0.0896 -0.2183  0.0164
 2766SOL    HW119934   4.688   2.660   3.132 -2.4443 -2.5554  0.7741
 2766SOL    HW219935   0.039   2.653   3.011 -0.2034  0.4604  0.4263
 2767SOL     OW19936   1.961   1.017   8.641  0.5151  0.0678  0.6131
 2767SOL    HW119937   1.912   1.048   8.717 -2.2345  0.5981 -1.3730
 2767SOL    HW219938   1.985   0.926   8.660  0.3985 -0.3644 -1.2718
 2768SOL     OW19939   0.433   0.566   8.279  0.9459 -1.0377 -0.3775
 2768SOL    HW119940   0.424   0.475   8.307 -1.3629 -0.3559  1.0632
 2768SOL    HW219941   0.362   0.576   8.215 -0.9878 -1.5854  1.7093
 2769SOL     OW19942   1.505   1.157   4.233 -0.3655 -0.4064  0.2054
 2769SOL    HW119943   1.439   1.108   4.282  0.4791 -1.1593  0.5887
 2769SOL    HW219944   1.557   1.194   4.304  0.2561  1.1830 -1.0620
 2770SOL     OW19945   2.923   3.566   1.742 -0.4986 -0.1495  0.0265
 2770SOL    HW119946   2.883   3.653   1.740 -2.0455 -0.8905 -1.0475
 2770SOL    HW219947   2.940   3.564   1.648  0.3791 -1.3058  0.1963
 2771SOL     OW19948   2.383   2.820   9.404  0.3140 -0.7916 -0.0971
 2771SOL    HW119949   2.441   2.786   9.473  0.4118  1.8957  1.1787
 2771SOL    HW219950   2.444   2.852   9.337  0.9186  0.8747  1.2358
 2772SOL     OW19951   3.428   1.187   5.599 -1.3818  0.1526  0.2944
 2772SOL    HW119952   3.362   1.238   5.645 -1.2764  1.1591 -0.6569
 2772SOL    HW219953   3.363   1.139   5.547  4.2756 -5.3902 -1.6252
 2773SOL     OW19954   3.339   3.220   2.939 -0.0694  0.2138 -0.0504
 2773SOL    HW119955   3.249   3.250   2.930 -0.5920 -1.0032  1.0411
 2773SOL    HW219956   3.327   3.186   3.028  0.5801  0.8516  0.2842
 2774SOL     OW19957   1.801   3.324  10.572 -0.5673 -0.1827  0.3622
 2774SOL    HW119958   1.726   3.371  10.607 -0.2414  1.3862 -1.0503
 2774SOL    HW219959   1.787   3.318  10.478 -0.8352  0.6295  0.3532
 2775SOL     OW19960   3.912   4.449   7.811  0.3516 -0.4960 -0.1412
 2775SOL    HW119961   3.957   4.391   7.749  0.4741 -2.0831  1.4367
 2775SOL    HW219962   3.822   4.417   7.799 -0.1194  1.0840 -0.8127
 2776SOL     OW19963   3.003   2.474   8.006 -0.0568  0.7595  0.3541
 2776SOL    HW119964   3.058   2.502   8.079 -0.0272  1.0157  0.2338
 2776SOL    HW219965   3.059   2.487   7.929 -2.2926 -1.2827 -1.6335
 2777SOL     OW19966   1.214   0.533   7.542  0.0816  0.4764  0.2689
 2777SOL    HW119967   1.175   0.479   7.611 -3.3779  0.8113 -1.4200
 2777SOL    HW219968   1.143   0.597   7.545  0.3028  0.6349  2.1234
 2778SOL     OW19969   2.505   2.764   7.485 -0.4146  0.4879  0.0419
 2778SOL    HW119970   2.530   2.678   7.521 -1.3811  0.0952 -0.2325
 2778SOL    HW219971   2.471   2.812   7.561 -0.8822 -0.2767  0.3227
 2779SOL     OW19972   3.498   2.584   8.388  0.1245  0.4954  0.4317
 2779SOL    HW119973   3.526   2.622   8.472  1.5042 -1.9759  1.0982
 2779SOL    HW219974   3.551   2.632   8.325  1.4945 -1.8446 -0.1872
 2780SOL     OW19975   2.333   2.750   8.587  0.2791 -0.4764  0.0528
 2780SOL    HW119976   2.423   2.759   8.556  1.2952 -2.7313  2.3390
 2780SOL    HW219977   2.332   2.787   8.675  2.4663  0.5196 -0.3474
 2781SOL     OW19978   1.747   3.221   7.787  0.0212  0.3795 -0.7793
 2781SOL    HW119979   1.792   3.146   7.825 -1.1722 -2.0409 -4.1508
 2781SOL    HW219980   1.667   3.181   7.754  0.1347 -0.8399  0.3954
 2782SOL     OW19981   0.040   3.163  13.829 -0.2547  0.0094  0.2505
 2782SOL    HW119982   0.042   3.068  13.837 -2.7702  0.2076  3.7551
 2782SOL    HW219983   0.131   3.175  13.804 -0.6163 -0.3767 -1.2117
 2783SOL     OW19984   4.611   4.078   3.100 -0.2594 -0.1800  0.4467
 2783SOL    HW119985   4.679   4.136   3.136  0.9114 -1.1816 -0.1790
 2783SOL    HW219986   4.651   4.052   3.018  1.6835  1.0440  1.0076
 2784SOL     OW19987   2.539   3.817   5.648  0.4515  0.4644  0.3751
 2784SOL    HW119988   2.448   3.789   5.634  1.2542 -1.3066 -1.2977
 2784SOL    HW219989   2.531   3.910   5.627  0.9986  0.0387 -1.8047
 2785SOL     OW19990   0.659   2.119   3.878  0.4537  0.4680  0.0832
 2785SOL    HW119991   0.640   2.030   3.849 -2.9795  0.8756  1.0614
 2785SOL    HW219992   0.725   2.135   3.811 -0.9223 -2.6113 -1.9987
 2786SOL     OW19993   3.223   2.325   5.075 -0.7576  0.1171  0.4083
 2786SOL    HW119994   3.256   2.281   4.997 -3.0846 -0.3514 -0.3223
 2786SOL    HW219995   3.283   2.305   5.147 -1.7261 -1.4174  0.7932
 2787SOL     OW19996   4.527   4.104   2.314 -0.1972  0.0137 -0.2040
 2787SOL    HW119997   4.621   4.088   2.313  0.4300  3.5917 -0.2669
 2787SOL    HW219998   4.503   4.041   2.246  0.6776  0.1736 -0.6595
 2788SOL     OW19999   3.091   0.586  13.915  0.3843  0.3792  0.1604
 2788SOL    HW120000   3.019   0.610  13.974 -0.8474 -0.4010 -1.0289
 2788SOL    HW220001   3.166   0.584  13.975 -0.0954  0.8312  0.7840
 2789SOL     OW20002   1.056   1.529   4.976  0.4521  0.0317 -0.5549
 2789SOL    HW120003   1.134   1.563   4.933  0.7394 -0.5939 -0.5311
 2789SOL    HW220004   1.060   1.559   5.066 -0.3466 -0.7254 -0.2634
 2790SOL     OW20005   4.530   2.666   8.061  0.1667  0.4315  0.7638
 2790SOL    HW120006   4.472   2.592   8.040  1.6006  0.1722 -2.4248
 2790SOL    HW220007   4.584   2.673   7.982  0.7653 -0.3630  1.0918
 2791SOL     OW20008   1.718   0.445   6.653  0.0110 -0.0167  0.3265
 2791SOL    HW120009   1.759   0.379   6.596  0.2169  1.0709 -0.7933
 2791SOL    HW220010   1.774   0.433   6.730  0.4384 -1.2237 -0.1621
 2792SOL     OW20011   2.633   0.475   3.802 -0.0763 -0.4587 -0.2466
 2792SOL    HW120012   2.680   0.456   3.883 -0.3661 -1.1263 -0.2352
 2792SOL    HW220013   2.683   0.551   3.772 -0.9494  0.1165 -0.2412
 2793SOL     OW20014   1.186   1.389   8.323  0.3239 -0.0223 -0.1320
 2793SOL    HW120015   1.217   1.362   8.237 -0.8657 -1.1868 -0.2020
 2793SOL    HW220016   1.261   1.368   8.378 -1.0043 -1.3872  1.1782
 2794SOL     OW20017   0.954   1.185   5.117  0.5064 -0.5240  0.3575
 2794SOL    HW120018   0.935   1.097   5.086  1.4071 -0.8283  0.6536
 2794SOL    HW220019   0.877   1.195   5.172  1.0192  1.6967  0.6673
 2795SOL     OW20020   1.987   2.882  11.106 -0.1583  0.0088 -0.3647
 2795SOL    HW120021   2.052   2.901  11.038 -0.9390 -0.9428 -1.3863
 2795SOL    HW220022   1.932   2.960  11.101  1.0939  0.9214  0.4802
 2796SOL     OW20023   3.800   2.944   5.175  0.2971  0.2342  0.5462
 2796SOL    HW120024   3.886   2.920   5.139  0.7180  3.7214 -0.7426
 2796SOL    HW220025   3.821   3.019   5.231  1.9546  0.0951  0.1340
 2797SOL     OW20026   0.189   4.208   9.615 -0.4654  0.2609 -0.0687
 2797SOL    HW120027   0.108   4.238   9.656 -1.2612  0.0363 -1.4761
 2797SOL    HW220028   0.218   4.143   9.679 -0.0737  0.8669  0.3694
 2798SOL     OW20029   0.446   1.076  10.617  0.4733  0.5021 -0.4588
 2798SOL    HW120030   0.465   1.097  10.709 -0.7607 -1.6210  0.2687
 2798SOL    HW220031   0.418   0.985  10.628 -1.5653  1.0518 -1.1457
 2799SOL     OW20032   1.643   1.939  17.325  0.0079  0.2051 -0.3628
 2799SOL    HW120033   1.607   1.858  17.291  2.3317 -0.3266 -1.5212
 2799SOL    HW220034   1.600   1.944  17.411  1.8006 -2.0272  0.6691
 2800SOL     OW20035   3.491   2.178   7.760  0.3187  0.1553  0.0311
 2800SOL    HW120036   3.469   2.270   7.774 -1.1758 -0.2347  0.2081
 2800SOL    HW220037   3.513   2.150   7.849 -0.6416 -2.7848 -0.6658
 2801SOL     OW20038   1.505   1.309   9.263  0.3374  0.0019  0.1727
 2801SOL    HW120039   1.412   1.305   9.286  0.3385  1.9409  0.4324
 2801SOL    HW220040   1.522   1.216   9.281  0.8706 -0.3601 -2.0749
 2802SOL     OW20041   0.038   0.184  10.064  0.3764  0.0075 -0.7933
 2802SOL    HW120042   0.061   0.104  10.111  0.0283  0.4331  0.1063
 2802SOL    HW220043   0.030   0.166   9.971  0.9708 -1.4276 -0.5679
 2803SOL     OW20044   4.689   3.997   4.492 -0.5587  0.3065  0.6281
 2803SOL    HW120045   0.032   3.985   4.437  0.3908  0.6979  1.8842
 2803SOL    HW220046   4.691   3.917   4.544  0.1311 -0.1412 -0.0882
 2804SOL     OW20047   4.063   2.887   2.996 -0.7204  0.6154 -0.2761
 2804SOL    HW120048   4.028   2.865   2.909  0.1769 -3.2331  0.3643
 2804SOL    HW220049   4.152   2.914   2.973 -0.1228 -1.3769 -0.2675
 2805SOL     OW20050   2.396   2.099   9.483 -0.1458  0.1625  0.3173
 2805SOL    HW120051   2.375   2.190   9.459 -0.2246 -0.2090 -1.0328
 2805SOL    HW220052   2.318   2.069   9.528  0.2599 -1.7050 -0.2290
 2806SOL     OW20053   2.401   4.287  12.921 -0.0548  0.7313 -0.4651
 2806SOL    HW120054   2.308   4.282  12.898 -0.1805  1.1144 -0.0341
 2806SOL    HW220055   2.428   4.292  12.830  0.0937 -0.2285 -0.4709
 2807SOL     OW20056   4.064   2.157   6.941 -0.8408 -0.0264  0.2757
 2807SOL    HW120057   4.087   2.229   6.882  0.6943 -0.4742  0.3407
 2807SOL    HW220058   4.151   2.122   6.958 -1.0451 -0.9072 -0.5145
 2808SOL     OW20059   4.514   0.093   5.558  0.4035  0.2287  0.0318
 2808SOL    HW120060   4.447   0.026   5.569  1.9344 -1.3785 -0.4968
 2808SOL    HW220061   4.594   0.044   5.575 -0.7314 -0.7497  2.5163
 2809SOL     OW20062   3.987   1.039   7.905 -0.8188 -0.6672  0.3247
 2809SOL    HW120063   3.941   1.121   7.886  0.0163  0.1945  2.0653
 2809SOL    HW220064   4.000   1.017   7.812  1.5411  2.2573 -0.0482
 2810SOL     OW20065   3.755   0.660   3.525  0.4972  0.1935 -0.5407
 2810SOL    HW120066   3.781   0.646   3.616 -0.7909 -0.8424 -0.3415
 2810SOL    HW220067   3.788   0.582   3.482  0.1219  0.1640 -0.7664
 2811SOL     OW20068   2.787   0.141  11.716  0.5806 -0.0708 -0.0991
 2811SOL    HW120069   2.693   0.157  11.726  0.9673  0.7813  2.1355
 2811SOL    HW220070   2.811   0.083  11.789  0.8741  1.3508  0.9324
 2812SOL     OW20071   3.647   1.439  15.511  0.6640  0.1125 -0.3545
 2812SOL    HW120072   3.739   1.424  15.532  0.5397 -0.2843 -0.0845
 2812SOL    HW220073   3.622   1.527  15.537 -0.1670 -0.1795 -0.1761
 2813SOL     OW20074   4.523   1.391   7.721 -0.0334  0.2067  0.0604
 2813SOL    HW120075   4.565   1.397   7.635 -0.4965 -2.0487 -0.3097
 2813SOL    HW220076   4.471   1.471   7.729  1.6318  1.2711  0.2439
 2814SOL     OW20077   2.075   1.964  13.525  0.2026 -0.2432 -0.3210
 2814SOL    HW120078   2.049   2.030  13.590  1.1176  0.0491 -0.2524
 2814SOL    HW220079   2.121   2.014  13.458 -1.0825  1.0389 -0.2426
 2815SOL     OW20080   3.476   1.051   7.542  0.0518 -0.1037 -0.6070
 2815SOL    HW120081   3.527   1.128   7.519 -0.4145 -0.5351 -3.0225
 2815SOL    HW220082   3.473   0.994   7.465 -2.5782  1.3143 -1.5362
 2816SOL     OW20083   4.733   0.286   1.398  0.0374 -0.1585 -0.2226
 2816SOL    HW120084   4.665   0.229   1.435 -1.7914  2.2992  0.1516
 2816SOL    HW220085   0.021   0.251   1.312 -1.7060 -1.1988 -0.2592
 2817SOL     OW20086   1.857   0.117  10.008  0.5672 -0.3025 -0.1731
 2817SOL    HW120087   1.801   0.044   9.983  2.4775 -1.7089 -0.3236
 2817SOL    HW220088   1.865   0.123  10.103 -0.8435  0.1118 -0.0832
 2818SOL     OW20089   0.794   0.919  15.293 -0.4148 -0.1537  0.3493
 2818SOL    HW120090   0.846   0.969  15.355  0.2018  1.8746 -1.8001
 2818SOL    HW220091   0.854   0.848  15.268 -2.3309 -1.5998 -0.2166
 2819SOL     OW20092   4.468   4.024   6.926  0.1058 -0.5807 -0.1407
 2819SOL    HW120093   4.428   4.079   6.993  0.1555  1.2489 -1.6205
 2819SOL    HW220094   4.412   4.040   6.850 -0.3751 -0.5068  0.2240
 2820SOL     OW20095   2.259   4.733   0.253 -0.2388  1.0306  0.1730
 2820SOL    HW120096   2.247   4.662   0.191  0.3855  1.9558 -1.0083
 2820SOL    HW220097   2.170   0.026   0.276 -0.0011  0.8865  1.2506
 2821SOL     OW20098   0.537   0.118   4.593 -0.0735 -0.5224 -0.2909
 2821SOL    HW120099   0.624   0.084   4.572  0.9537  0.9704  1.4780
 2821SOL    HW220100   0.537   0.206   4.555 -1.1577 -1.6753 -2.8995
 2822SOL     OW20101   0.946   3.313   2.636  0.0519  0.1885  0.3234
 2822SOL    HW120102   0.955   3.406   2.654  0.2946 -0.1017  1.6599
 2822SOL    HW220103   0.928   3.308   2.542  2.2636 -0.9631 -0.0423
 2823SOL     OW20104   2.581   2.449   9.870 -0.5373  0.6407 -0.0943
 2823SOL    HW120105   2.645   2.519   9.889 -1.7237  1.8153 -0.4402
 2823SOL    HW220106   2.606   2.382   9.933 -1.3283 -0.3216 -0.8263
 2824SOL     OW20107   0.652   4.111   2.672 -0.0522  0.2180  0.3458
 2824SOL    HW120108   0.716   4.041   2.683  0.5966  0.6418 -0.6530
 2824SOL    HW220109   0.590   4.096   2.743  1.5008  0.0820  1.6931
 2825SOL     OW20110   1.019   3.523   5.539 -0.6464 -0.2896  0.5185
 2825SOL    HW120111   0.936   3.518   5.492 -2.0495  2.0008  2.7146
 2825SOL    HW220112   1.022   3.619   5.537 -1.9281 -0.2439  0.6271
 2826SOL     OW20113   3.130   2.979   9.950  0.1317 -0.1183  0.4095
 2826SOL    HW120114   3.153   3.030  10.028 -0.5762 -0.6490  0.9686
 2826SOL    HW220115   3.208   2.930   9.923  0.0461 -0.5955  1.0106
 2827SOL     OW20116   3.058   0.067  16.566 -0.0389 -0.1548  0.4522
 2827SOL    HW120117   3.123   0.014  16.612 -0.4003 -1.5074 -0.6079
 2827SOL    HW220118   3.099   0.154  16.568 -0.9818  0.3075 -0.1500
 2828SOL     OW20119   2.584   2.159   6.352 -0.1861  0.5330  0.1557
 2828SOL    HW120120   2.620   2.089   6.406 -1.0243  0.6136  0.8103
 2828SOL    HW220121   2.587   2.236   6.409 -0.0605  1.8861 -1.6790
 2829SOL     OW20122   0.042   0.387   7.655 -0.8532 -0.1202  0.5333
 2829SOL    HW120123   4.711   0.448   7.621  0.5633  0.0539 -1.8907
 2829SOL    HW220124   4.712   0.329   7.695 -0.5223 -0.7930  0.0822
 2830SOL     OW20125   1.582   0.518   6.926 -0.3323  0.0882 -0.0684
 2830SOL    HW120126   1.675   0.509   6.905 -0.1349  0.5763  0.5820
 2830SOL    HW220127   1.542   0.443   6.883 -0.5840  1.0283 -1.4659
 2831SOL     OW20128   3.680   2.276   2.660  0.5916 -0.7400  0.2209
 2831SOL    HW120129   3.709   2.219   2.588 -0.0513 -0.2085 -0.4554
 2831SOL    HW220130   3.619   2.220   2.709 -0.0205 -0.8597 -0.6714
 2832SOL     OW20131   3.575   0.095   0.421 -0.0183 -0.0416  0.2916
 2832SOL    HW120132   3.492   0.062   0.385  0.9971  0.0938 -2.1678
 2832SOL    HW220133   3.577   0.174   0.368 -0.8460  0.1680  0.5705
 2833SOL     OW20134   3.588   4.381  14.785 -0.1661  0.1355  0.2730
 2833SOL    HW120135   3.636   4.350  14.862 -0.7706  0.6917  0.8648
 2833SOL    HW220136   3.550   4.301  14.748 -2.5559  0.7581  1.3776
 2834SOL     OW20137   4.110   0.623  14.363  0.7527  0.1046  0.1546
 2834SOL    HW120138   4.182   0.571  14.326  0.8537  1.6574 -1.8022
 2834SOL    HW220139   4.137   0.710  14.334 -1.1131  0.1421 -1.4107
 2835SOL     OW20140   4.327   2.973  10.878  0.2324  0.4556  0.3273
 2835SOL    HW120141   4.347   2.904  10.941  0.3029 -1.1770 -1.4646
 2835SOL    HW220142   4.359   2.943  10.793 -0.5065 -0.5394  0.4056
 2836SOL     OW20143   0.508   0.941  17.333 -0.0278  0.1425  0.3533
 2836SOL    HW120144   0.536   1.007  17.396 -1.9706  1.6324 -0.3455
 2836SOL    HW220145   0.571   0.962  17.264  0.7111 -1.0879  0.6520
 2837SOL     OW20146   0.668   0.920   7.028 -0.6031 -0.1155 -0.3009
 2837SOL    HW120147   0.630   0.983   6.967 -1.5395 -0.4180 -0.0187
 2837SOL    HW220148   0.741   0.873   6.986  0.0023 -0.3036  0.9795
 2838SOL     OW20149   4.250   3.270   3.560 -0.0629 -0.4450  0.2319
 2838SOL    HW120150   4.198   3.300   3.485 -0.4583 -1.2193  0.1957
 2838SOL    HW220151   4.182   3.225   3.610 -0.9489 -0.2340 -0.7568
 2839SOL     OW20152   3.923   3.180   2.925  0.2720 -0.0582 -0.2002
 2839SOL    HW120153   3.982   3.181   3.000 -1.4937 -1.7407  1.2153
 2839SOL    HW220154   3.982   3.148   2.856 -2.5962  0.0977 -2.7571
 2840SOL     OW20155   4.482   0.331   2.162 -0.1392  0.3377 -0.1858
 2840SOL    HW120156   4.466   0.240   2.189  1.0016 -0.1062 -0.9825
 2840SOL    HW220157   4.469   0.332   2.067  2.0365 -0.2386 -0.4975
 2841SOL     OW20158   3.965   1.078   8.441 -0.0559 -0.2266  0.2608
 2841SOL    HW120159   4.038   1.076   8.379 -0.2334 -2.6277  0.1342
 2841SOL    HW220160   3.926   0.990   8.438  1.6101 -1.0185  1.6979
 2842SOL     OW20161   0.412   3.966  15.177  0.2915  0.7105  0.2124
 2842SOL    HW120162   0.358   4.017  15.237 -0.3854  2.5439 -1.9604
 2842SOL    HW220163   0.434   4.042  15.123  2.1019  1.3022  1.7840
 2843SOL     OW20164   0.622   3.651   1.902 -0.5639  0.7053 -0.3513
 2843SOL    HW120165   0.692   3.673   1.963  0.7324 -0.4645 -1.4053
 2843SOL    HW220166   0.539   3.657   1.949 -1.0813  3.3465 -1.5770
 2844SOL     OW20167   4.491   3.074   7.074 -0.2267 -0.3596 -0.5656
 2844SOL    HW120168   4.417   3.113   7.028  0.0494  1.7349  0.7876
 2844SOL    HW220169   4.550   3.149   7.072  0.3772 -0.8289 -0.4089
 2845SOL     OW20170   3.628   3.155   0.885 -0.1678  0.3798 -0.1275
 2845SOL    HW120171   3.554   3.121   0.835 -0.2417  2.2733 -1.2833
 2845SOL    HW220172   3.603   3.145   0.977 -0.2844  3.6504  0.1990
 2846SOL     OW20173   3.312   2.574   4.850 -0.2122  0.2937 -0.0689
 2846SOL    HW120174   3.268   2.517   4.787 -1.0853  1.3787 -0.4258
 2846SOL    HW220175   3.242   2.593   4.912  1.4491  1.9725  1.3083
 2847SOL     OW20176   0.149   1.739   3.819  0.3354  0.3918 -0.2003
 2847SOL    HW120177   0.116   1.810   3.875  0.9049  0.6678 -0.2205
 2847SOL    HW220178   0.077   1.676   3.829 -0.8610  1.7072 -0.4072
 2848SOL     OW20179   4.480   3.464  12.958 -0.3230 -0.7683  0.3489
 2848SOL    HW120180   4.559   3.440  13.008  0.8577  2.6185  0.0763
 2848SOL    HW220181   4.499   3.405  12.885  0.5600 -0.0110 -0.0380
 2849SOL     OW20182   1.269   0.538   1.834  0.9625  0.1119 -0.1559
 2849SOL    HW120183   1.280   0.579   1.748  2.5769 -0.1611 -0.0792
 2849SOL    HW220184   1.285   0.618   1.886  1.5761 -1.0382  1.4333
 2850SOL     OW20185   1.154   3.211  10.357  0.2180  0.6687 -0.4448
 2850SOL    HW120186   1.069   3.224  10.398  0.0744  0.8261 -0.7863
 2850SOL    HW220187   1.190   3.130  10.392 -1.9500  0.2091  0.7071
 2851SOL     OW20188   1.295   2.462   9.954  0.3166 -0.7004 -0.1009
 2851SOL    HW120189   1.281   2.556   9.951  2.7152 -0.4521 -3.6830
 2851SOL    HW220190   1.258   2.450  10.041  0.4760  0.2376  0.0995
 2852SOL     OW20191   4.116   3.283   1.810 -0.5708 -0.2943  0.2013
 2852SOL    HW120192   4.195   3.337   1.804 -2.2240  1.9664 -0.7196
 2852SOL    HW220193   4.151   3.199   1.780 -2.3891 -0.8898 -0.2292
 2853SOL     OW20194   3.479   4.572  16.906  0.3679  0.4834  0.2163
 2853SOL    HW120195   3.527   4.643  16.864  0.4626 -0.6182 -1.5076
 2853SOL    HW220196   3.511   4.494  16.861 -2.0624 -0.0448 -0.5878
 2854SOL     OW20197   1.446   3.327  13.917  0.4461 -0.1186 -0.1927
 2854SOL    HW120198   1.454   3.421  13.901 -2.3237  0.1303 -0.1254
 2854SOL    HW220199   1.460   3.291  13.829 -2.4426 -1.6504 -0.0363
 2855SOL     OW20200   2.403   1.896   1.725  0.1982 -0.7316 -0.4709
 2855SOL    HW120201   2.439   1.922   1.640 -0.5140  0.2166 -0.4867
 2855SOL    HW220202   2.435   1.806   1.730  0.0313 -0.9515 -3.1443
 2856SOL     OW20203   4.546   0.166   8.774 -0.4384 -0.4668  0.1594
 2856SOL    HW120204   4.640   0.161   8.787  0.0228 -1.9542 -3.6845
 2856SOL    HW220205   4.524   0.078   8.742 -1.9453  0.1006 -0.4176
 2857SOL     OW20206   2.404   3.043   2.063  0.3921 -0.3354 -0.2250
 2857SOL    HW120207   2.388   3.052   1.969 -1.5625 -0.1020  0.1323
 2857SOL    HW220208   2.468   3.109   2.089 -0.8468  0.3275  1.1751
 2858SOL     OW20209   4.402   0.747   7.460  0.6674 -0.1621 -0.0097
 2858SOL    HW120210   4.444   0.800   7.528 -0.2126  1.0057 -0.3773
 2858SOL    HW220211   4.393   0.818   7.397 -1.7364  0.5457  1.1114
 2859SOL     OW20212   1.709   0.402   3.557  0.4955 -0.4017 -0.4046
 2859SOL    HW120213   1.746   0.370   3.475  1.2434  0.4020 -0.3888
 2859SOL    HW220214   1.709   0.319   3.606 -0.4783  0.8808  1.7289
 2860SOL     OW20215   3.011   0.571   5.344 -0.2823  0.8802  0.3722
 2860SOL    HW120216   2.949   0.538   5.409  1.1438 -0.9105  0.8094
 2860SOL    HW220217   2.949   0.608   5.282 -0.5326 -0.6594 -0.2828
 2861SOL     OW20218   0.553   2.307  15.410 -0.4287 -0.4704  0.0185
 2861SOL    HW120219   0.627   2.362  15.385 -1.2378  0.5223 -0.1964
 2861SOL    HW220220   0.487   2.368  15.443 -0.0490 -0.1018  0.1012
 2862SOL     OW20221   2.688   2.390  10.425 -0.0402  0.0238 -0.3322
 2862SOL    HW120222   2.756   2.396  10.493 -0.2729 -0.4878 -0.0538
 2862SOL    HW220223   2.727   2.349  10.348  1.0618 -0.6390  0.5758
 2863SOL     OW20224   0.219   2.013  12.715 -0.4481  0.2949 -0.2929
 2863SOL    HW120225   0.211   1.992  12.808 -1.4162 -0.4187 -0.5287
 2863SOL    HW220226   0.127   2.031  12.695 -0.1948  0.6838 -1.1313
 2864SOL     OW20227   2.496   1.988   2.640 -0.1111 -0.3165  0.0604
 2864SOL    HW120228   2.435   2.015   2.572  1.5058 -0.6184 -1.4895
 2864SOL    HW220229   2.550   2.063   2.664 -2.2189  0.8351  1.1625
 2865SOL     OW20230   3.074   1.403   0.195  0.4134 -0.3567  1.0317
 2865SOL    HW120231   3.082   1.449   0.111  2.2739  1.1635  2.0531
 2865SOL    HW220232   3.064   1.310   0.175  0.4980  0.3256 -2.1601
 2866SOL     OW20233   0.745   4.589   8.150 -0.4296  0.0709 -0.4475
 2866SOL    HW120234   0.811   4.654   8.175 -0.6049  0.4129 -0.8582
 2866SOL    HW220235   0.744   4.593   8.054 -0.9566 -1.2741 -0.5028
 2867SOL     OW20236   1.811   0.252  12.811  0.1711  0.4933 -0.1710
 2867SOL    HW120237   1.746   0.295  12.756 -1.1913  0.4162  1.3836
 2867SOL    HW220238   1.807   0.170  12.763  2.0072  0.4606 -0.3013
 2868SOL     OW20239   2.058   1.339   3.806  0.4284  0.1833 -0.1198
 2868SOL    HW120240   1.981   1.396   3.800  0.1019 -0.2523 -0.0926
 2868SOL    HW220241   2.020   1.251   3.804  0.7846  0.0386 -0.5416
 2869SOL     OW20242   3.795   4.714   4.280  0.6561  0.0334 -0.1421
 2869SOL    HW120243   3.867   0.036   4.251 -0.8093  0.9393 -2.0328
 2869SOL    HW220244   3.840   4.630   4.271 -3.5157 -2.2628  0.2864
 2870SOL     OW20245   1.527   1.561  10.220  0.2765  0.2521 -0.3079
 2870SOL    HW120246   1.511   1.611  10.300 -0.1608 -0.8534  0.2799
 2870SOL    HW220247   1.506   1.635  10.163 -2.6637 -0.9801 -0.8094
 2871SOL     OW20248   2.731   3.604  17.497 -0.7423 -0.4894 -1.1111
 2871SOL    HW120249   2.790   3.540  17.537  2.4658  2.1735 -1.5295
 2871SOL    HW220250   2.649   3.564  17.524 -1.4888  1.6150 -0.2713
 2872SOL     OW20251   3.040   3.191   7.070  0.5118 -0.6035 -0.2600
 2872SOL    HW120252   3.100   3.158   7.003  0.1530 -0.1053 -0.8212
 2872SOL    HW220253   3.106   3.223   7.132  1.4188 -1.4012 -0.8000
 2873SOL     OW20254   4.585   1.862   2.130 -0.3151 -0.3009  0.2961
 2873SOL    HW120255   4.540   1.874   2.046  0.7221  2.5598  0.1299
 2873SOL    HW220256   4.516   1.837   2.190 -2.4313  1.5492 -1.3782
 2874SOL     OW20257   1.946   3.948   7.363 -0.1787 -0.7949 -0.3970
 2874SOL    HW120258   2.039   3.932   7.348  0.5129  1.4003  1.5294
 2874SOL    HW220259   1.930   4.010   7.292  1.2143 -0.1164 -0.1257
 2875SOL     OW20260   0.699   4.094  13.086 -0.1169  0.2649 -0.5797
 2875SOL    HW120261   0.626   4.156  13.086 -1.1345 -0.9292 -1.4933
 2875SOL    HW220262   0.712   4.096  12.991  1.4369 -2.7421 -0.4193
 2876SOL     OW20263   2.313   3.336   6.275 -0.2282  0.3331 -0.8455
 2876SOL    HW120264   2.255   3.273   6.232 -0.9246  0.9728 -0.8484
 2876SOL    HW220265   2.266   3.352   6.357 -1.0784  1.2721 -1.5033
 2877SOL     OW20266   4.608   2.177   5.929 -0.9999  0.5695 -0.4362
 2877SOL    HW120267   4.653   2.247   5.881  0.6674 -0.1335  0.0779
 2877SOL    HW220268   4.566   2.138   5.852 -1.0427 -0.9547  0.3653
 2878SOL     OW20269   4.073   1.867   6.044  0.3076  0.4826 -0.1573
 2878SOL    HW120270   4.107   1.782   6.015 -0.6558  0.0004  0.1045
 2878SOL    HW220271   3.995   1.835   6.089  0.6202  1.0182  0.7537
 2879SOL     OW20272   2.588   2.910   7.057  0.2702  0.1562 -0.4439
 2879SOL    HW120273   2.547   2.884   6.975  1.8804  2.3325 -1.9266
 2879SOL    HW220274   2.667   2.856   7.053  0.3507  0.1168  1.5301
 2880SOL     OW20275   3.148   2.170  15.942  0.1368  0.2363  0.0443
 2880SOL    HW120276   3.118   2.259  15.921  0.4370  1.0450  3.0156
 2880SOL    HW220277   3.112   2.116  15.872 -1.5764  0.3824  0.8134
 2881SOL     OW20278   3.625   2.533   3.831  0.0185 -0.1397  0.1146
 2881SOL    HW120279   3.587   2.620   3.849 -0.2781 -0.8364  2.8716
 2881SOL    HW220280   3.660   2.550   3.744  0.5112 -0.3523  0.2760
 2882SOL     OW20281   0.018   1.558   5.157  0.6285  0.3745 -0.2469
 2882SOL    HW120282   4.733   1.484   5.213  2.3323 -0.5077 -0.8208
 2882SOL    HW220283   0.040   1.510   5.077  2.3225 -4.1545  2.9974
 2883SOL     OW20284   3.804   2.677   0.939 -0.0787  0.0880 -0.3698
 2883SOL    HW120285   3.809   2.708   0.849  0.2123 -0.1609 -0.4399
 2883SOL    HW220286   3.749   2.599   0.940 -0.5998  0.4607  0.0780
 2884SOL     OW20287   2.971   2.185   5.708  0.0610 -0.9800 -0.6385
 2884SOL    HW120288   2.973   2.168   5.803 -0.7911 -1.5156 -0.7143
 2884SOL    HW220289   3.021   2.113   5.668  1.2219 -0.9369  0.7324
 2885SOL     OW20290   1.130   3.638  13.932  0.2441 -0.6074 -0.1327
 2885SOL    HW120291   1.169   3.724  13.947 -0.5697 -0.0151 -1.4169
 2885SOL    HW220292   1.055   3.634  13.992  0.6680  0.4023  0.4561
 2886SOL     OW20293   2.103   3.774   8.997  0.4148  0.9548 -0.3409
 2886SOL    HW120294   2.118   3.790   8.904  0.0017 -0.8783 -0.7075
 2886SOL    HW220295   2.187   3.760   9.042 -0.3341  1.1272  1.1345
 2887SOL     OW20296   0.971   2.905   6.698  0.2497 -0.0389 -0.1060
 2887SOL    HW120297   1.025   2.940   6.769 -1.0265 -0.3618  1.0147
 2887SOL    HW220298   0.895   2.874   6.747  1.4927  0.4566  2.1478
 2888SOL     OW20299   0.897   0.764   1.718  0.2184  0.8491  0.1054
 2888SOL    HW120300   0.906   0.733   1.808  1.5178  0.5242 -0.1437
 2888SOL    HW220301   0.806   0.795   1.714 -1.0939 -2.8649  0.8082
 2889SOL     OW20302   2.083   2.979   2.177 -0.2152  0.0799  0.0007
 2889SOL    HW120303   2.092   2.981   2.082 -2.2718 -0.2694 -0.2035
 2889SOL    HW220304   2.028   3.057   2.190  0.3011  0.3955  0.2774
 2890SOL     OW20305   4.284   1.470   6.948 -0.0898  0.3270  0.7619
 2890SOL    HW120306   4.300   1.386   6.992  0.6478 -0.0540 -0.2237
 2890SOL    HW220307   4.366   1.479   6.900 -0.5080  0.7712  0.1159
 2891SOL     OW20308   0.771   0.513   1.658  0.9267 -0.3968  0.3881
 2891SOL    HW120309   0.700   0.572   1.635 -1.1852 -2.8248  0.5964
 2891SOL    HW220310   0.845   0.540   1.605  1.8147 -2.3549  0.6010
 2892SOL     OW20311   2.592   0.224  16.628 -0.6570 -0.2877  0.5590
 2892SOL    HW120312   2.644   0.281  16.572  0.1963 -1.8066 -0.1953
 2892SOL    HW220313   2.529   0.291  16.654 -1.0256  0.1475 -1.5002
 2893SOL     OW20314   1.875   1.084   5.498 -0.4485  0.0886  0.0672
 2893SOL    HW120315   1.896   1.148   5.430  2.1750 -0.0160  0.7828
 2893SOL    HW220316   1.791   1.048   5.471  0.7864 -3.4734  0.8973
 2894SOL     OW20317   3.754   3.120   4.806 -0.3161 -0.0488  0.1380
 2894SOL    HW120318   3.710   3.073   4.876  2.3311 -1.6457  0.7576
 2894SOL    HW220319   3.777   3.204   4.846  2.7259 -0.7982  0.0065
 2895SOL     OW20320   4.397   3.810   5.625  0.3842  0.0829  0.1778
 2895SOL    HW120321   4.446   3.737   5.661  0.5264  0.0832 -0.0151
 2895SOL    HW220322   4.328   3.761   5.581 -0.5688  0.1095  1.6169
 2896SOL     OW20323   2.322   0.494   5.853  0.1158 -0.3186 -0.5928
 2896SOL    HW120324   2.285   0.557   5.915 -0.1834 -1.1606  0.0878
 2896SOL    HW220325   2.382   0.545   5.799  1.3644 -0.0695  1.0259
 2897SOL     OW20326   3.512   2.824   1.411 -0.5772 -0.2487 -0.3159
 2897SOL    HW120327   3.458   2.830   1.490  0.8178 -0.5518  0.6587
 2897SOL    HW220328   3.527   2.731   1.393  0.0992  0.0505 -1.3149
 2898SOL     OW20329   4.009   1.123   3.286 -0.2708 -0.4433 -0.1097
 2898SOL    HW120330   3.919   1.144   3.261  0.1450 -0.3722 -1.5337
 2898SOL    HW220331   3.986   1.062   3.356  1.1999 -1.2486 -0.3299
 2899SOL     OW20332   3.800   2.595   8.453 -0.3126 -0.9546  0.6745
 2899SOL    HW120333   3.737   2.595   8.525 -1.6109  2.2805 -0.4805
 2899SOL    HW220334   3.877   2.555   8.493  1.1410  2.1613  1.0340
 2900SOL     OW20335   4.563   4.595   8.688  0.4798  0.4459  0.4004
 2900SOL    HW120336   4.647   4.548   8.687 -0.2097 -0.7196 -2.5186
 2900SOL    HW220337   4.512   4.553   8.757  1.0302  0.3263  0.7354
 2901SOL     OW20338   1.397   1.738   8.532  0.1569  0.4851  0.6015
 2901SOL    HW120339   1.490   1.746   8.555 -0.3274 -1.4049  3.2068
 2901SOL    HW220340   1.366   1.814   8.581  1.4824 -0.3401  2.7205
 2902SOL     OW20341   0.845   1.670   2.012  0.3863  0.3334 -0.4325
 2902SOL    HW120342   0.846   1.598   1.948  3.0459  2.5623 -2.9611
 2902SOL    HW220343   0.779   1.636   2.072  0.6258  1.7429  0.6312
 2903SOL     OW20344   0.240   3.748  15.262  0.2887 -0.5729  0.4319
 2903SOL    HW120345   0.243   3.782  15.173  0.7053  0.4397  0.8268
 2903SOL    HW220346   0.313   3.802  15.293 -0.3837  0.3036  0.4884
 2904SOL     OW20347   4.469   4.658   3.018  0.2788  0.5270 -0.0544
 2904SOL    HW120348   4.375   4.669   3.010 -0.0455 -0.2437  2.6367
 2904SOL    HW220349   4.481   4.668   3.113 -0.4476 -0.9086  0.1732
 2905SOL     OW20350   3.581   0.582   6.860 -0.2835  0.1785 -0.3895
 2905SOL    HW120351   3.576   0.486   6.854  0.1788  0.0484  1.2728
 2905SOL    HW220352   3.645   0.580   6.789  0.2555  0.9316  0.0843
 2906SOL     OW20353   4.168   2.828  16.589 -0.2700 -0.2411 -0.3415
 2906SOL    HW120354   4.126   2.879  16.520 -0.3061  0.2641  0.0526
 2906SOL    HW220355   4.165   2.745  16.541  0.1370 -0.4337 -0.0368
 2907SOL     OW20356   2.188   0.062  14.444 -0.1821  0.3364 -0.0467
 2907SOL    HW120357   2.122   0.132  14.448 -0.8179 -0.2679 -0.1033
 2907SOL    HW220358   2.244   0.067  14.522  1.4762  2.8819 -1.3938
 2908SOL     OW20359   1.558   0.871  13.585 -0.3103  0.6719  0.3931
 2908SOL    HW120360   1.465   0.860  13.601 -0.2506  0.5795  0.6827
 2908SOL    HW220361   1.601   0.829  13.661  1.8774  1.0802 -0.6026
 2909SOL     OW20362   1.532   2.694   2.092 -0.8343 -0.4062  0.7349
 2909SOL    HW120363   1.594   2.677   2.162 -0.8980  1.7592  1.3200
 2909SOL    HW220364   1.581   2.646   2.025 -2.0708 -0.6208 -0.0266
 2910SOL     OW20365   3.070   4.240   2.670 -0.4699 -0.0220  0.2698
 2910SOL    HW120366   3.035   4.329   2.676 -0.8210 -0.2197  1.1927
 2910SOL    HW220367   3.068   4.222   2.576  1.0329 -0.2679  0.2880
 2911SOL     OW20368   1.817   0.596   7.970 -0.2413  0.2246  0.1943
 2911SOL    HW120369   1.773   0.574   7.888 -0.2789 -0.5840  0.4293
 2911SOL    HW220370   1.904   0.582   7.932 -1.1425 -0.9422 -1.4582
 2912SOL     OW20371   2.902   1.250  16.648  0.2754  0.2548 -0.9442
 2912SOL    HW120372   2.835   1.239  16.715  1.9106 -1.6188  0.3750
 2912SOL    HW220373   2.844   1.246  16.572 -1.0421  1.8976 -0.0421
 2913SOL     OW20374   4.007   4.169   0.058 -0.1778 -0.1436  0.1627
 2913SOL    HW120375   4.096   4.167   0.092  0.3232  0.2234 -1.1307
 2913SOL    HW220376   3.956   4.168   0.139  1.0581  1.0410  0.9543
 2914SOL     OW20377   2.881   0.220   2.552  0.6736 -0.1165  0.2293
 2914SOL    HW120378   2.909   0.223   2.460  1.3265  0.8944  0.4604
 2914SOL    HW220379   2.832   0.302   2.560 -0.7768 -1.0161  0.4591
 2915SOL     OW20380   1.339   2.634   5.931  0.4876 -0.1943 -0.1174
 2915SOL    HW120381   1.356   2.618   6.024  0.4491  1.2982  0.1505
 2915SOL    HW220382   1.369   2.550   5.895 -0.5650 -0.2350 -0.8809
 2916SOL     OW20383   0.487   1.665   9.010 -0.2617  0.2911 -0.0829
 2916SOL    HW120384   0.463   1.740   8.956 -1.5106  0.2803  0.4524
 2916SOL    HW220385   0.454   1.605   8.943  0.6843  1.6764 -1.7686
 2917SOL     OW20386   1.386   0.386   9.652  0.4229 -0.3651 -0.4946
 2917SOL    HW120387   1.338   0.308   9.681 -0.0308  0.5384  1.1681
 2917SOL    HW220388   1.467   0.349   9.687  0.4758 -0.8207 -1.0966
 2918SOL     OW20389   4.002   0.972   3.668  0.2652  0.1787 -0.1589
 2918SOL    HW120390   4.002   0.919   3.588 -1.0020  0.0457 -0.0718
 2918SOL    HW220391   4.092   0.947   3.690  0.4984  0.7342 -0.4596
 2919SOL     OW20392   2.283   4.664  15.048  0.1665  0.2052 -0.0381
 2919SOL    HW120393   2.192   4.660  15.079  0.7905  0.1570  1.7445
 2919SOL    HW220394   2.269   4.657  14.953  2.0761 -0.3962 -0.2649
 2920SOL     OW20395   3.143   2.123   5.419 -0.3034  0.7789  0.8893
 2920SOL    HW120396   3.114   2.074   5.342 -0.8982  0.9092  1.0372
 2920SOL    HW220397   3.115   2.059   5.484  0.3962 -0.9587 -0.5232
 2921SOL     OW20398   3.251   4.527   6.387 -0.1791  0.4629  0.6612
 2921SOL    HW120399   3.226   4.495   6.300  0.4772  0.1719  0.5777
 2921SOL    HW220400   3.277   4.616   6.365  1.5544 -0.3945 -0.8350
 2922SOL     OW20401   4.713   4.183  12.628  0.1175  0.0467 -0.3458
 2922SOL    HW120402   0.057   4.127  12.627 -0.9139 -1.4199  0.9608
 2922SOL    HW220403   0.022   4.265  12.604  1.0920 -0.5980 -0.8079
 2923SOL     OW20404   0.197   2.623   6.433 -0.9388 -0.4140 -0.3978
 2923SOL    HW120405   0.286   2.589   6.439 -0.3900  0.9533 -0.5837
 2923SOL    HW220406   0.218   2.714   6.454 -1.0242 -0.8564  1.5341
 2924SOL     OW20407   0.442   2.491   3.239  0.1120 -0.6319 -0.5902
 2924SOL    HW120408   0.390   2.542   3.302 -0.7742 -1.3719 -0.7207
 2924SOL    HW220409   0.477   2.559   3.182 -0.3332  0.4109  0.3677
 2925SOL     OW20410   3.609   2.707   5.405  0.5229 -0.0742 -0.4282
 2925SOL    HW120411   3.662   2.655   5.344  1.0935 -0.0539  0.0550
 2925SOL    HW220412   3.626   2.796   5.374 -0.4770 -0.0786 -0.9895
 2926SOL     OW20413   0.419   4.232   4.078 -0.6239  0.2411  0.0551
 2926SOL    HW120414   0.331   4.195   4.079 -0.4676 -0.1171  0.6741
 2926SOL    HW220415   0.408   4.302   4.143 -1.6790  0.8869 -0.8142
 2927SOL     OW20416   0.267   1.021   7.166 -0.6116  0.0950  0.1781
 2927SOL    HW120417   0.266   0.983   7.078  0.3956 -0.7088  0.5158
 2927SOL    HW220418   0.284   0.935   7.205 -0.4800 -0.4584 -1.1048
 2928SOL     OW20419   3.028   1.973   4.900 -0.0726  0.4081 -0.0117
 2928SOL    HW120420   2.950   1.959   4.846  0.8208 -1.3201 -0.8394
 2928SOL    HW220421   3.046   2.062   4.868 -0.8891  1.5058  2.6173
 2929SOL     OW20422   4.347   3.152  12.765 -0.6366  0.0761 -0.2478
 2929SOL    HW120423   4.317   3.115  12.682  1.1888 -0.7957 -0.5148
 2929SOL    HW220424   4.442   3.156  12.754 -0.6121 -0.2220 -0.1448
 2930SOL     OW20425   0.774   1.307  13.388 -0.1113 -0.1982  0.1877
 2930SOL    HW120426   0.787   1.228  13.441  1.2526  0.4533  0.8318
 2930SOL    HW220427   0.683   1.330  13.402  0.0570  0.1436  0.7165
 2931SOL     OW20428   3.268   0.329   7.531 -0.2966 -0.5382  0.2536
 2931SOL    HW120429   3.201   0.318   7.464 -0.6185 -1.3777  0.7249
 2931SOL    HW220430   3.237   0.414   7.562 -1.3076 -1.1577  0.9134
 2932SOL     OW20431   2.303   2.126  15.198 -0.0212 -0.0832  0.6233
 2932SOL    HW120432   2.378   2.136  15.257  0.4724 -1.2740  0.2170
 2932SOL    HW220433   2.292   2.031  15.196 -0.3300 -0.0183 -1.2591
 2933SOL     OW20434   3.581   3.804   7.597  0.5508 -0.7770 -0.0908
 2933SOL    HW120435   3.646   3.749   7.641 -2.0478 -2.0644  2.1576
 2933SOL    HW220436   3.511   3.782   7.658 -0.1890  1.2559 -0.2020
 2934SOL     OW20437   3.977   1.816   8.297  0.4991 -0.3793 -0.9146
 2934SOL    HW120438   3.950   1.725   8.293 -1.7439  0.1771  1.1997
 2934SOL    HW220439   3.918   1.844   8.367  1.5036  5.8703 -2.5655
 2935SOL     OW20440   4.546   0.687  16.352 -0.0879 -0.6744 -0.3497
 2935SOL    HW120441   4.466   0.645  16.320 -0.7009  0.8130 -0.8166
 2935SOL    HW220442   4.564   0.745  16.278  1.7792 -0.2730  0.4087
 2936SOL     OW20443   0.454   4.001   2.182 -0.4234  0.0237 -0.2661
 2936SOL    HW120444   0.525   3.991   2.119 -1.0190  1.9286 -1.2377
 2936SOL    HW220445   0.486   4.053   2.257  0.3715 -1.3156  0.3217
 2937SOL     OW20446   2.506   4.060   8.260 -0.5422 -0.2427 -0.0989
 2937SOL    HW120447   2.479   4.020   8.343  1.9264  0.1388  0.8840
 2937SOL    HW220448   2.429   4.039   8.208  0.5746 -1.4183 -1.2874
 2938SOL     OW20449   2.590   3.148   7.168  0.1153  0.0012  0.1167
 2938SOL    HW120450   2.579   3.057   7.142 -0.4201 -0.1017  0.6924
 2938SOL    HW220451   2.599   3.124   7.261  0.5947 -1.5058 -0.3130
 2939SOL     OW20452   3.202   0.249   3.783 -0.4072 -0.8754  0.1399
 2939SOL    HW120453   3.110   0.244   3.757 -0.1199 -2.0112 -0.6329
 2939SOL    HW220454   3.237   0.164   3.756 -0.4155 -0.6472 -0.6099
 2940SOL     OW20455   1.181   3.369  15.372  0.3332 -0.3921 -0.7379
 2940SOL    HW120456   1.100   3.417  15.390 -0.0731 -1.3232 -0.0910
 2940SOL    HW220457   1.230   3.411  15.442  0.3306  1.4863 -1.8644
 2941SOL     OW20458   4.524   0.048   6.694  0.1102  0.0160 -0.5343
 2941SOL    HW120459   4.476   0.099   6.759 -2.0081 -0.1397 -1.9951
 2941SOL    HW220460   4.460   0.034   6.625  0.9129 -3.0597 -0.6387
 2942SOL     OW20461   0.917   1.773   7.596 -0.3217 -0.4444  0.5108
 2942SOL    HW120462   1.012   1.765   7.582 -0.1007  1.0122  1.1366
 2942SOL    HW220463   0.903   1.839   7.663 -0.4667 -0.6412  0.6722
 2943SOL     OW20464   2.019   4.507   2.860 -0.5065  0.5486  0.2365
 2943SOL    HW120465   1.942   4.523   2.915  0.4948  0.6253  1.5866
 2943SOL    HW220466   2.089   4.519   2.923  0.2913 -3.3990  0.0798
 2944SOL     OW20467   4.501   1.023   4.423 -0.4184 -0.1121  0.1494
 2944SOL    HW120468   4.495   1.043   4.330 -2.5850  0.7667  0.4833
 2944SOL    HW220469   4.490   0.928   4.417  1.2712 -0.3994  1.5953
 2945SOL     OW20470   0.141   1.223   9.963 -0.4669  0.6621  0.0499
 2945SOL    HW120471   0.154   1.151  10.025  1.5137  0.8593 -0.1471
 2945SOL    HW220472   0.175   1.297  10.013 -0.2944 -0.6004  1.8075
 2946SOL     OW20473   3.897   4.227   1.697  0.1066  0.4244  0.3774
 2946SOL    HW120474   3.829   4.276   1.743  1.3485  0.7487  1.8836
 2946SOL    HW220475   3.884   4.140   1.735  2.2553  0.6080  1.5181
 2947SOL     OW20476   0.562   1.136   4.237  0.4509  0.1764  0.7185
 2947SOL    HW120477   0.594   1.218   4.274  0.3460 -0.7585  2.8686
 2947SOL    HW220478   0.634   1.077   4.261  0.0514 -0.2342  0.9243
 2948SOL     OW20479   2.260   1.619  16.750 -0.3660 -0.2938  0.2845
 2948SOL    HW120480   2.309   1.613  16.832 -0.9006 -2.1468  0.4688
 2948SOL    HW220481   2.333   1.640  16.692 -0.9360 -0.1426 -0.3868
 2949SOL     OW20482   4.419   4.505  14.863 -0.3246 -0.2580  0.2845
 2949SOL    HW120483   4.473   4.557  14.803  0.7619 -1.6701  0.0329
 2949SOL    HW220484   4.333   4.546  14.851  0.6741  1.2230 -1.7324
 2950SOL     OW20485   0.241   4.067   7.885  0.2427  0.4927  0.2871
 2950SOL    HW120486   0.275   3.980   7.905  2.2872  1.1274 -0.3676
 2950SOL    HW220487   0.156   4.044   7.848 -0.4402  0.6335  1.7822
 2951SOL     OW20488   0.500   4.515   2.759  0.4361  0.2153  0.9961
 2951SOL    HW120489   0.442   4.505   2.683  1.7278  1.2973 -0.1407
 2951SOL    HW220490   0.558   4.439   2.751  0.0621  0.3552 -2.9196
 2952SOL     OW20491   1.082   3.152   7.598 -0.2838  0.3914 -0.3436
 2952SOL    HW120492   1.030   3.231   7.591  1.3132  1.6324  1.6665
 2952SOL    HW220493   1.168   3.169   7.560  0.4869 -0.8271  0.8395
 2953SOL     OW20494   4.182   0.628  15.422 -0.4805 -0.4288  0.3264
 2953SOL    HW120495   4.122   0.645  15.350  0.9898  1.5788 -0.4308
 2953SOL    HW220496   4.119   0.652  15.489  1.0186  2.6584  0.6095
 2954SOL     OW20497   0.217   3.208  15.439 -0.3699 -0.0362  0.1365
 2954SOL    HW120498   0.140   3.256  15.470 -0.6341 -1.0712  1.0766
 2954SOL    HW220499   0.207   3.126  15.487 -3.9257  0.8727  0.9589
 2955SOL     OW20500   3.638   2.865   4.974 -0.0323 -0.0270 -0.1306
 2955SOL    HW120501   3.636   2.770   4.959  1.6299  0.1712 -1.7230
 2955SOL    HW220502   3.683   2.874   5.058  0.4998 -0.9484 -0.3204
 2956SOL     OW20503   2.148   4.328   6.192 -0.7506 -0.1158 -0.0495
 2956SOL    HW120504   2.114   4.257   6.137 -0.7780 -0.8568  0.9280
 2956SOL    HW220505   2.239   4.314   6.164  0.7099  0.3856  4.4705
 2957SOL     OW20506   0.432   4.399   2.985  0.0230 -0.1309 -0.2338
 2957SOL    HW120507   0.459   4.464   2.920 -0.6287  1.0185  0.6300
 2957SOL    HW220508   0.373   4.336   2.943 -0.6413  0.4543 -0.1901
 2958SOL     OW20509   2.503   4.491   8.615 -0.5950  0.2703  0.1052
 2958SOL    HW120510   2.574   4.534   8.569 -0.0017 -0.0972  0.6854
 2958SOL    HW220511   2.485   4.411   8.567  0.0845  1.0694 -1.4496
 2959SOL     OW20512   2.535   2.428   2.388 -0.6195 -0.0708  0.1684
 2959SOL    HW120513   2.463   2.433   2.450 -1.2021  1.1210 -0.6044
 2959SOL    HW220514   2.577   2.511   2.413  0.4042  0.0158 -1.7834
 2960SOL     OW20515   0.713   0.357  11.970  0.1381 -0.3819 -0.2746
 2960SOL    HW120516   0.772   0.299  11.923  0.0645 -1.3969  0.9074
 2960SOL    HW220517   0.718   0.306  12.050  0.0399 -0.6658 -0.4491
 2961SOL     OW20518   2.857   3.335   5.432 -0.0729 -0.7794 -0.4062
 2961SOL    HW120519   2.806   3.333   5.351  1.5324 -1.2472 -1.3867
 2961SOL    HW220520   2.937   3.375   5.399 -1.1212  1.2721 -0.4437
 2962SOL     OW20521   2.295   0.296   8.491  0.2646 -0.2124 -0.0094
 2962SOL    HW120522   2.212   0.339   8.469 -0.0028 -0.8935 -0.3315
 2962SOL    HW220523   2.358   0.332   8.429  0.5295 -2.5888 -1.0956
 2963SOL     OW20524   3.931   2.704   3.447  0.9868 -0.0499 -0.1786
 2963SOL    HW120525   3.996   2.702   3.377  0.9258 -3.0077 -0.1635
 2963SOL    HW220526   3.952   2.622   3.492  0.5733 -1.0754 -1.8669
 2964SOL     OW20527   2.848   2.437   8.744 -0.2470  0.3781  0.1906
 2964SOL    HW120528   2.879   2.450   8.654 -1.5270 -0.4523 -0.3605
 2964SOL    HW220529   2.928   2.466   8.788  1.1513 -1.9763 -0.8390
 2965SOL     OW20530   4.570   2.019  16.827 -0.2770 -0.0926 -0.3968
 2965SOL    HW120531   4.624   2.055  16.757 -1.6155 -1.1486 -1.9755
 2965SOL    HW220532   4.614   2.062  16.901 -1.2928  0.4409 -0.1093
 2966SOL     OW20533   1.217   1.243   8.991  0.1438 -0.1470 -0.4192
 2966SOL    HW120534   1.180   1.257   8.904 -0.8304  1.0610  0.1831
 2966SOL    HW220535   1.308   1.272   8.985  0.4069 -0.8213  0.3585
 2967SOL     OW20536   3.568   3.434  16.437  0.7569 -0.7908  0.0618
 2967SOL    HW120537   3.632   3.416  16.368  0.5787  0.6703 -0.4676
 2967SOL    HW220538   3.492   3.379  16.419 -1.0476  1.8502 -0.3212
 2968SOL     OW20539   4.207   3.109  12.992  0.3042  0.2466  0.4478
 2968SOL    HW120540   4.248   3.118  12.906  0.2276 -0.0078  0.3838
 2968SOL    HW220541   4.277   3.134  13.052 -2.3975  0.7319  3.3626
 2969SOL     OW20542   4.451   2.508   6.247  0.1394 -0.3856 -0.0009
 2969SOL    HW120543   4.541   2.533   6.226  0.1673 -1.4032 -1.0731
 2969SOL    HW220544   4.477   2.457   6.325  0.0970 -0.1387  0.1743
 2970SOL     OW20545   1.548   0.221   3.420  0.4224 -0.1771  0.4359
 2970SOL    HW120546   1.556   0.125   3.421  0.5289 -0.1757 -0.6146
 2970SOL    HW220547   1.558   0.240   3.514 -1.4057  1.1910  0.3403
 2971SOL     OW20548   4.575   2.578  17.304  0.1900 -0.1807 -0.0994
 2971SOL    HW120549   4.532   2.643  17.247 -0.8082  0.3740  1.2948
 2971SOL    HW220550   4.544   2.606  17.390  1.6883  0.6622  0.1741
 2972SOL     OW20551   0.424   1.850   6.395 -0.0611 -0.0002 -0.6618
 2972SOL    HW120552   0.437   1.825   6.486 -2.0623 -1.0101 -0.6781
 2972SOL    HW220553   0.348   1.804   6.361  1.0503 -0.4119 -2.6132
 2973SOL     OW20554   1.853   1.713   5.002 -0.2476 -0.2130  0.2211
 2973SOL    HW120555   1.829   1.620   4.995  0.0241 -0.0550 -2.6655
 2973SOL    HW220556   1.832   1.737   4.912  0.8449 -1.2982 -0.3218
 2974SOL     OW20557   1.410   0.997   6.908 -0.5223 -0.1447 -0.2981
 2974SOL    HW120558   1.428   0.940   6.833 -0.1697 -0.9113  0.3749
 2974SOL    HW220559   1.426   0.943   6.985  1.1826 -0.6287 -0.9841
 2975SOL     OW20560   0.830   3.940   2.791  0.4080  0.0627  0.0178
 2975SOL    HW120561   0.856   3.887   2.716  0.3692  1.3654 -0.9155
 2975SOL    HW220562   0.832   3.881   2.867  0.0295 -1.3448 -1.0569
 2976SOL     OW20563   1.809   0.812   3.162  0.0112  0.4292 -0.2174
 2976SOL    HW120564   1.892   0.826   3.207 -0.5843  1.9705  0.4008
 2976SOL    HW220565   1.824   0.835   3.071 -0.1623 -1.2249 -0.6596
 2977SOL     OW20566   3.348   3.607   3.936 -0.3273  0.5844 -0.5465
 2977SOL    HW120567   3.416   3.626   4.001  1.9714 -2.5235 -2.0433
 2977SOL    HW220568   3.282   3.582   4.001 -2.0320  2.7429 -1.4404
 2978SOL     OW20569   3.033   4.638  14.791  0.1919  0.5371  0.7899
 2978SOL    HW120570   2.965   4.649  14.724 -0.2415 -1.4224  0.9074
 2978SOL    HW220571   3.041   4.543  14.792 -0.6075  0.4970  2.3480
 2979SOL     OW20572   4.456   2.281   7.831  0.4824 -0.3869 -0.2439
 2979SOL    HW120573   4.385   2.219   7.852  0.1327 -0.7978 -2.6671
 2979SOL    HW220574   4.470   2.272   7.737  1.1706 -2.6738  0.0723
 2980SOL     OW20575   4.025   3.891   7.016  0.8178  1.1603 -0.4137
 2980SOL    HW120576   3.986   3.830   6.954  1.8259 -0.9991  1.0785
 2980SOL    HW220577   3.951   3.920   7.069  0.5699 -1.1909  0.4871
 2981SOL     OW20578   2.436   1.704   6.587 -0.1527 -0.2684 -0.0831
 2981SOL    HW120579   2.417   1.765   6.659 -1.2672 -1.0134  0.2571
 2981SOL    HW220580   2.495   1.637   6.622  0.0557  1.1096  2.1816
 2982SOL     OW20581   3.717   1.021  16.028 -0.4166  0.5475  0.0977
 2982SOL    HW120582   3.695   0.932  16.056  0.3817  0.9032  1.8470
 2982SOL    HW220583   3.726   1.060  16.115 -0.8564 -1.1221  0.8816
 2983SOL     OW20584   1.290   3.748   5.236  0.4980 -0.1855  0.0440
 2983SOL    HW120585   1.217   3.801   5.268 -2.0956 -3.0513 -1.0613
 2983SOL    HW220586   1.268   3.659   5.266  1.8087 -0.8165 -0.8749
 2984SOL     OW20587   2.135   4.396  10.264  0.3057  0.3731 -0.4512
 2984SOL    HW120588   2.133   4.300  10.260  0.7519  0.3544 -0.2654
 2984SOL    HW220589   2.226   4.421  10.248  0.6012 -1.4737 -1.7064
 2985SOL     OW20590   1.407   3.892   1.734  0.3391  0.4728  0.1815
 2985SOL    HW120591   1.379   3.808   1.772 -0.8427  1.2793  1.0611
 2985SOL    HW220592   1.361   3.950   1.793 -1.3404 -0.2400 -0.4176
 2986SOL     OW20593   0.418   2.909   8.260  0.0947  0.8005  0.1424
 2986SOL    HW120594   0.390   2.998   8.279 -1.6742 -0.2003  2.2637
 2986SOL    HW220595   0.429   2.881   8.351  2.9659 -3.0491 -1.3786
 2987SOL     OW20596   3.675   0.443   3.151 -0.5413 -0.2717  0.0313
 2987SOL    HW120597   3.594   0.426   3.200 -1.1578  0.7489 -0.6249
 2987SOL    HW220598   3.731   0.371   3.180 -2.2471 -2.3209 -1.7889
 2988SOL     OW20599   0.167   4.183  13.244  0.3403 -0.2731 -0.1155
 2988SOL    HW120600   0.129   4.129  13.313 -4.9417 -0.9965 -3.6022
 2988SOL    HW220601   0.261   4.169  13.260  0.4366  2.0281  1.2915
 2989SOL     OW20602   1.070   1.376   7.614  0.3250  0.0240 -0.3305
 2989SOL    HW120603   1.017   1.302   7.642 -1.1611  0.5286 -1.7779
 2989SOL    HW220604   1.057   1.431   7.691 -2.6990  0.4264 -1.1278
 2990SOL     OW20605   3.421   4.176   8.590  0.5167  0.5783 -0.0091
 2990SOL    HW120606   3.453   4.263   8.566  2.1015 -0.0752 -0.2599
 2990SOL    HW220607   3.504   4.134   8.615  0.3357 -0.2760 -0.8338
 2991SOL     OW20608   1.858   0.493   5.272  0.1411  0.3948  0.5743
 2991SOL    HW120609   1.856   0.583   5.240  3.1235  0.4327  0.5070
 2991SOL    HW220610   1.866   0.507   5.366  0.6013  2.1616  0.2728
 2992SOL     OW20611   0.371   4.634   1.958 -0.0282 -0.0524 -0.0298
 2992SOL    HW120612   0.413   4.718   1.973 -0.2709 -0.1940  1.3880
 2992SOL    HW220613   0.354   4.636   1.863 -2.4608 -3.3014  0.3212
 2993SOL     OW20614   2.313   1.105   7.435 -0.2933  0.1245 -0.0763
 2993SOL    HW120615   2.249   1.109   7.506  1.1973  3.6760  1.0399
 2993SOL    HW220616   2.364   1.027   7.457 -0.5437 -0.2532 -0.7969
 2994SOL     OW20617   0.421   1.302   6.698 -0.0400  0.4127 -1.0697
 2994SOL    HW120618   0.382   1.389   6.696  0.2073  0.5693  1.2605
 2994SOL    HW220619   0.357   1.257   6.643  0.0623 -0.6001 -0.3646
 2995SOL     OW20620   3.992   4.350   3.252 -0.1163  0.4108  0.4301
 2995SOL    HW120621   3.969   4.266   3.212 -1.1232  2.0308 -2.4225
 2995SOL    HW220622   3.979   4.412   3.180  0.7583 -0.6572 -0.6525
 2996SOL     OW20623   0.474   0.330   1.143  0.2779  0.5463  0.0503
 2996SOL    HW120624   0.414   0.255   1.151 -1.5527  1.8241 -1.6402
 2996SOL    HW220625   0.553   0.294   1.184  2.5668  3.5473 -1.7305
 2997SOL     OW20626   2.258   2.315   9.415  0.2022 -0.4784  0.5767
 2997SOL    HW120627   2.168   2.286   9.398  1.1854 -2.9582 -0.3795
 2997SOL    HW220628   2.241   2.410   9.410 -1.5821 -0.9174 -1.6852
 2998SOL     OW20629   1.310   0.118   8.429  0.6312 -0.2163 -0.1536
 2998SOL    HW120630   1.268   0.204   8.440  1.9231  0.3555  0.3621
 2998SOL    HW220631   1.319   0.090   8.520  1.1689 -2.4035 -0.8922
 2999SOL     OW20632   4.269   2.306   9.479  0.2437  0.0620 -0.1824
 2999SOL    HW120633   4.322   2.227   9.488 -0.7556 -0.5316  0.4184
 2999SOL    HW220634   4.329   2.353   9.421 -0.7547 -0.7911 -1.9030
 3000SOL     OW20635   4.524   0.092  15.438  0.1103 -0.2750 -0.6550
 3000SOL    HW120636   4.508   0.101  15.345  0.9830 -2.7635 -1.0677
 3000SOL    HW220637   4.580   0.168  15.453 -0.8602  0.3515 -0.2068
 3001SOL     OW20638   3.527   0.432   2.218  0.1296  0.4638  0.6814
 3001SOL    HW120639   3.591   0.369   2.184 -2.2679 -2.5470  1.6890
 3001SOL    HW220640   3.525   0.499   2.150 -1.2472  1.0014  1.2549
 3002SOL     OW20641   0.165   4.629   8.597  0.4502  0.0990  0.2583
 3002SOL    HW120642   0.209   4.630   8.682 -1.1867 -0.7508  1.1102
 3002SOL    HW220643   0.186   4.719   8.572 -3.9274  1.1094  0.2918
 3003SOL     OW20644   0.230   0.413   6.056 -0.0627 -0.1999 -0.3113
 3003SOL    HW120645   0.255   0.320   6.054 -0.7368 -0.3943  0.3375
 3003SOL    HW220646   0.142   0.398   6.091 -0.2208 -2.2458 -1.5658
 3004SOL     OW20647   1.174   0.239   9.854 -0.3565 -0.0133  0.0577
 3004SOL    HW120648   1.164   0.315   9.911 -1.5721  1.0351 -1.5302
 3004SOL    HW220649   1.129   0.282   9.781  1.5236 -0.7828 -1.5553
 3005SOL     OW20650   1.860   1.880  12.443  0.2673 -0.1869  0.2192
 3005SOL    HW120651   1.895   1.791  12.441 -1.2703 -0.8071  0.7820
 3005SOL    HW220652   1.789   1.873  12.507  0.8131 -2.6834  0.5336
 3006SOL     OW20653   3.501   0.699   6.382  0.7872 -0.2074 -0.2384
 3006SOL    HW120654   3.424   0.745   6.418  1.2157 -0.5289  1.1094
 3006SOL    HW220655   3.462   0.613   6.363  0.8095 -0.7554  2.1930
 3007SOL     OW20656   4.561   3.731   6.660  0.2259 -0.1055 -0.5793
 3007SOL    HW120657   4.466   3.723   6.668  0.0491 -0.0878 -2.6374
 3007SOL    HW220658   4.573   3.775   6.576  2.0884  1.3342  0.4410
 3008SOL     OW20659   2.546   1.212   5.253  0.2702 -0.1591  0.2505
 3008SOL    HW120660   2.521   1.152   5.323 -1.9013  0.0712 -0.3455
 3008SOL    HW220661   2.619   1.259   5.294  0.8482 -1.7214  1.0150
 3009SOL     OW20662   1.243   3.410   2.683  0.4127  0.4001 -0.2783
 3009SOL    HW120663   1.232   3.375   2.772  1.4263  0.9179  0.0511
 3009SOL    HW220664   1.251   3.327   2.635  1.1917  0.1138  0.3362
 3010SOL     OW20665   3.293   0.142   3.330  0.2561  0.9097 -0.7165
 3010SOL    HW120666   3.221   0.204   3.318 -0.2756  0.2869 -0.7356
 3010SOL    HW220667   3.345   0.196   3.390  0.5809  0.3732 -0.5158
 3011SOL     OW20668   0.367   1.965   5.610  0.0826 -0.0797 -0.8806
 3011SOL    HW120669   0.319   2.038   5.648 -0.5901  0.0157 -1.9016
 3011SOL    HW220670   0.339   1.892   5.664  0.9430  1.1981  1.3093
 3012SOL     OW20671   1.173   3.069   8.169 -0.1784  0.1488 -0.0350
 3012SOL    HW120672   1.230   3.130   8.122 -0.8670  0.0440 -1.0222
 3012SOL    HW220673   1.209   2.986   8.136 -0.6844  0.6178 -1.7707
 3013SOL     OW20674   1.855   0.555  17.103 -0.2139  0.4137 -0.2420
 3013SOL    HW120675   1.884   0.503  17.178 -2.2793 -0.1637  0.1378
 3013SOL    HW220676   1.930   0.554  17.043 -0.5308 -1.7505 -0.5869
 3014SOL     OW20677   3.738   3.351  14.580 -0.6717  0.8305  0.6078
 3014SOL    HW120678   3.797   3.306  14.641 -2.0176 -0.8714  0.6401
 3014SOL    HW220679   3.771   3.441  14.582  0.0467  0.6460 -2.4892
 3015SOL     OW20680   3.412   2.617   2.452  0.0666  0.2317 -0.1070
 3015SOL    HW120681   3.483   2.570   2.497 -0.0224 -0.4234 -0.6406
 3015SOL    HW220682   3.382   2.677   2.519 -2.2248 -2.5039  1.3125
 3016SOL     OW20683   3.110   0.057  10.693  0.6849 -0.1031  0.2868
 3016SOL    HW120684   3.164   0.114  10.638 -0.7505  1.1072  0.1294
 3016SOL    HW220685   3.105   4.712  10.640  0.3771 -0.2782  0.5817
 3017SOL     OW20686   0.653   3.461   7.685  0.1449  0.3387 -0.1955
 3017SOL    HW120687   0.674   3.437   7.775 -0.6025  2.3711  0.5372
 3017SOL    HW220688   0.693   3.548   7.680  0.1268  0.4558  1.8350
 3018SOL     OW20689   2.285   1.696   9.199 -0.0207  0.0405 -0.5851
 3018SOL    HW120690   2.327   1.782   9.206 -0.3828  0.0384  1.6285
 3018SOL    HW220691   2.344   1.644   9.252  0.2937  0.5675 -0.4185
 3019SOL     OW20692   3.869   0.884   5.856 -0.1031 -0.0709 -0.2640
 3019SOL    HW120693   3.808   0.811   5.863 -0.2167  0.1243  0.9097
 3019SOL    HW220694   3.874   0.897   5.762  0.4615  3.0935  0.1866
 3020SOL     OW20695   2.178   3.348  14.591 -0.2320 -0.2093 -0.6670
 3020SOL    HW120696   2.146   3.260  14.569 -0.4172  0.2273 -2.1582
 3020SOL    HW220697   2.096   3.397  14.584 -1.7377 -2.5296  0.5825
 3021SOL     OW20698   1.880   1.684   6.830  0.1718  0.2268  0.1065
 3021SOL    HW120699   1.798   1.640   6.806  2.2566 -2.6318 -1.8467
 3021SOL    HW220700   1.885   1.666   6.924  0.5225  2.0364  0.4250
 3022SOL     OW20701   1.465   0.665   1.306 -0.2752 -0.0082 -0.0376
 3022SOL    HW120702   1.448   0.653   1.212  2.8856 -0.4522 -0.5558
 3022SOL    HW220703   1.471   0.760   1.303 -0.6194 -0.0012 -0.5968
 3023SOL     OW20704   3.833   0.011   0.315  0.9531  0.4256 -0.5985
 3023SOL    HW120705   3.746   4.725   0.349  0.9359  0.9779 -0.3165
 3023SOL    HW220706   3.861   0.089   0.363  0.3783  1.6608 -2.2825
 3024SOL     OW20707   2.836   4.351  14.629  0.1137 -0.5955  0.1220
 3024SOL    HW120708   2.841   4.275  14.572 -1.6026 -0.5613 -0.0759
 3024SOL    HW220709   2.915   4.404  14.616 -0.6639  0.2052 -1.3532
 3025SOL     OW20710   1.335   2.870   8.075  0.5064 -0.1360 -0.0569
 3025SOL    HW120711   1.407   2.807   8.078  0.4560 -0.1512  0.7922
 3025SOL    HW220712   1.326   2.897   7.983 -2.6886  0.2837  0.3813
 3026SOL     OW20713   3.869   1.942   5.357  0.1385  0.6101 -0.1648
 3026SOL    HW120714   3.831   1.870   5.409  1.1855 -0.2462 -0.5829
 3026SOL    HW220715   3.789   1.993   5.344  2.2997  4.3262  1.2223
 3027SOL     OW20716   0.144   3.053   7.145  0.1022  0.5632 -0.2770
 3027SOL    HW120717   0.158   3.083   7.055  0.5332 -0.1802 -0.4591
 3027SOL    HW220718   0.144   3.136   7.193  0.6414  0.8560 -0.7928
 3028SOL     OW20719   3.577   0.544   9.250 -0.5849 -0.3240  0.3601
 3028SOL    HW120720   3.598   0.615   9.190  0.0188 -2.2647 -1.7392
 3028SOL    HW220721   3.645   0.554   9.316  1.5247  1.4035 -2.0790
 3029SOL     OW20722   3.966   0.234   6.671  0.2059  0.3777  0.4499
 3029SOL    HW120723   3.998   0.149   6.701  0.7880  0.4365 -0.0043
 3029SOL    HW220724   3.936   0.271   6.754 -3.6603 -2.4605  0.2888
 3030SOL     OW20725   2.858   1.548   7.933  0.1185 -0.0300 -0.1048
 3030SOL    HW120726   2.898   1.586   7.855  2.3830  0.0227  1.0812
 3030SOL    HW220727   2.893   1.599   8.006  0.8594 -0.1670 -0.3555
 3031SOL     OW20728   1.978   0.760  10.201  0.1381  0.3254  0.1394
 3031SOL    HW120729   2.006   0.669  10.197 -1.0554 -0.0638  0.6488
 3031SOL    HW220730   1.886   0.743  10.223  0.0344  1.4834  0.6173
 3032SOL     OW20731   0.898   3.542   9.621 -0.7675  0.6680 -0.6209
 3032SOL    HW120732   0.966   3.522   9.685 -3.6743  0.0182  2.2461
 3032SOL    HW220733   0.949   3.529   9.541  1.8506 -1.0390  1.3292
 3033SOL     OW20734   2.000   3.533   9.067 -0.4374  0.1542  0.1367
 3033SOL    HW120735   2.023   3.622   9.040  0.4649  0.2136  1.0968
 3033SOL    HW220736   2.082   3.484   9.062 -1.9448 -2.3503  0.0089
 3034SOL     OW20737   3.325   4.699   4.847  0.0963  0.1914  0.9233
 3034SOL    HW120738   3.332   4.622   4.790 -2.6359  1.4763 -1.1130
 3034SOL    HW220739   3.248   4.667   4.893  0.0216  1.2373  1.5228
 3035SOL     OW20740   3.329   2.800   2.692  0.0154  0.2793 -0.2637
 3035SOL    HW120741   3.373   2.874   2.734 -1.7306  0.3378  1.4316
 3035SOL    HW220742   3.244   2.798   2.736  0.6849 -5.8942  0.7458
 3036SOL     OW20743   3.082   4.715   3.203 -0.1232 -0.2617 -0.4503
 3036SOL    HW120744   3.174   4.703   3.225  0.2425 -0.9334 -2.4110
 3036SOL    HW220745   3.072   4.703   3.109  0.5965  1.4570 -0.7547
 3037SOL     OW20746   0.730   1.945   6.952 -0.2066  0.2552 -0.3819
 3037SOL    HW120747   0.638   1.957   6.927  0.0072  1.0422 -0.8045
 3037SOL    HW220748   0.768   2.023   6.911 -1.1966  0.1889 -1.4153
 3038SOL     OW20749   2.743   4.027   2.536  0.1479  0.2136  0.2871
 3038SOL    HW120750   2.667   4.080   2.514  0.0966  1.4127  3.3839
 3038SOL    HW220751   2.723   3.946   2.489  0.6969 -1.4079  2.8059
 3039SOL     OW20752   2.721   1.923   1.712  0.1843  0.2873  0.3459
 3039SOL    HW120753   2.685   1.921   1.623 -0.9174 -0.2574  0.8027
 3039SOL    HW220754   2.673   1.850   1.752  1.7344 -0.5819  0.6349
 3040SOL     OW20755   0.105   1.680   6.932  0.6360  0.1619  0.3052
 3040SOL    HW120756   0.083   1.623   7.005 -0.4668 -2.1528 -1.8610
 3040SOL    HW220757   0.149   1.755   6.973  1.2263 -1.0088  1.8093
 3041SOL     OW20758   3.141   2.253  10.220 -0.0644 -0.8222  0.8527
 3041SOL    HW120759   3.181   2.196  10.286 -0.0871  0.6863  2.1566
 3041SOL    HW220760   3.166   2.203  10.142  1.3581  2.8059 -0.9816
 3042SOL     OW20761   3.198   1.146   0.993  0.1300 -0.9865  0.5753
 3042SOL    HW120762   3.198   1.232   1.036 -0.7525 -0.5674 -0.2476
 3042SOL    HW220763   3.269   1.158   0.931 -0.7503  0.4527 -0.1689
 3043SOL     OW20764   0.469   1.903   5.106  0.6151  0.3993 -0.5923
 3043SOL    HW120765   0.391   1.912   5.052  0.7256 -0.3996 -0.8784
 3043SOL    HW220766   0.424   1.885   5.188 -1.5599 -0.8890 -2.0833
 3044SOL     OW20767   1.260   3.336   6.852  0.8321 -0.4076 -0.3782
 3044SOL    HW120768   1.235   3.301   6.937  0.6727  1.0751  0.1923
 3044SOL    HW220769   1.288   3.253   6.813 -2.7130 -1.9920  0.4991
 3045SOL     OW20770   4.138   3.258   4.908  0.4207 -0.1426  0.2957
 3045SOL    HW120771   4.228   3.233   4.887  0.5570  0.5831 -0.0082
 3045SOL    HW220772   4.097   3.255   4.821 -2.1364  1.6931  1.4221
 3046SOL     OW20773   3.559   0.465   1.114 -0.3735  0.2007  0.0532
 3046SOL    HW120774   3.617   0.413   1.058 -0.1629  0.2415  0.2328
 3046SOL    HW220775   3.595   0.455   1.202 -2.5290 -0.6709  0.8202
 3047SOL     OW20776   0.150   3.076  16.432 -0.6063 -0.4535 -0.1255
 3047SOL    HW120777   0.098   3.154  16.418 -1.1238 -0.9346 -0.8519
 3047SOL    HW220778   0.140   3.015  16.359 -0.2609  1.1925 -1.5507
 3048SOL     OW20779   3.051   2.586  11.342 -0.8400  0.6484 -0.0545
 3048SOL    HW120780   3.042   2.498  11.306  0.5321  0.2265  0.6428
 3048SOL    HW220781   3.114   2.622  11.279  0.7446  0.3913  1.4158
 3049SOL     OW20782   3.169   4.576   3.913 -0.0108  0.0382  0.0998
 3049SOL    HW120783   3.091   4.630   3.906  1.2508  1.9878  0.8775
 3049SOL    HW220784   3.205   4.567   3.825 -0.0615  0.6433  0.0158
 3050SOL     OW20785   2.486   0.479   6.234 -0.5354  0.3360 -0.1371
 3050SOL    HW120786   2.457   0.399   6.190 -0.8162  1.2079 -1.5343
 3050SOL    HW220787   2.413   0.539   6.217 -1.3100 -0.9696 -1.3860
 3051SOL     OW20788   1.633   2.125   8.245 -0.7760 -0.6212 -0.7325
 3051SOL    HW120789   1.597   2.157   8.161 -0.2349  1.3764 -0.2106
 3051SOL    HW220790   1.694   2.195   8.269 -0.7317 -0.7824 -0.3803
 3052SOL     OW20791   4.577   0.130   5.007  0.0841  0.3598  0.0198
 3052SOL    HW120792   4.553   0.109   4.917  0.2192  0.0174  0.0619
 3052SOL    HW220793   4.503   0.093   5.056  0.5761 -1.7845 -0.8561
 3053SOL     OW20794   2.759   0.796   3.366 -0.1671 -0.4009  0.2458
 3053SOL    HW120795   2.790   0.883   3.342 -1.9160  0.8610  2.5236
 3053SOL    HW220796   2.668   0.804   3.340  0.4547  0.9029 -1.4851
 3054SOL     OW20797   4.453   2.831  12.303 -0.3467  0.1924  0.1806
 3054SOL    HW120798   4.426   2.779  12.227  0.4787 -0.0329  0.0374
 3054SOL    HW220799   4.524   2.777  12.338 -0.5289  0.7369  1.3969
 3055SOL     OW20800   3.779   3.824   4.967  0.1048  0.0070  0.5577
 3055SOL    HW120801   3.750   3.808   4.877 -1.2437  0.0328  0.9898
 3055SOL    HW220802   3.703   3.795   5.017 -1.5463  2.5687 -0.4637
 3056SOL     OW20803   3.678   0.420   8.740 -0.3911  0.5116  0.4160
 3056SOL    HW120804   3.759   0.446   8.785 -0.2216 -1.0849  1.0290
 3056SOL    HW220805   3.623   0.410   8.817  0.9451  1.4332  1.4849
 3057SOL     OW20806   3.835   4.099   7.586 -0.1163  0.4986  0.4375
 3057SOL    HW120807   3.876   4.183   7.607  1.6156 -0.3965  0.6641
 3057SOL    HW220808   3.838   4.067   7.676  0.7524  0.7934  0.5161
 3058SOL     OW20809   4.278   0.928   3.913 -0.2426 -0.3884 -0.9935
 3058SOL    HW120810   4.332   0.963   3.842 -4.0105  0.2379 -3.5277
 3058SOL    HW220811   4.240   0.847   3.879 -0.4658 -0.2216 -1.1412
 3059SOL     OW20812   0.022   0.166   6.646  0.4305 -0.2443 -0.7570
 3059SOL    HW120813   0.092   0.103   6.666 -0.6033 -1.3516 -0.6055
 3059SOL    HW220814   4.681   0.107   6.646 -1.8218  2.6259 -0.4614
 3060SOL     OW20815   3.758   1.699   4.935  0.0778  0.0158 -0.0416
 3060SOL    HW120816   3.798   1.767   4.990  0.2204 -0.0136 -0.1084
 3060SOL    HW220817   3.704   1.747   4.872 -1.7512  0.9048  2.2165
 3061SOL     OW20818   1.454   1.345   1.956  0.4689  0.0137  0.7426
 3061SOL    HW120819   1.369   1.302   1.954 -0.4266  1.7127  2.0122
 3061SOL    HW220820   1.446   1.420   2.015  0.3587  0.0409  0.6930
 3062SOL     OW20821   1.452   0.847   2.699  0.1950 -0.6399 -0.1343
 3062SOL    HW120822   1.540   0.881   2.689  0.8047 -1.1467  3.2753
 3062SOL    HW220823   1.475   0.780   2.764  1.8052  0.9884  0.9905
 3063SOL     OW20824   3.967   0.628   3.261  0.5857  0.1446 -0.3509
 3063SOL    HW120825   3.983   0.563   3.329 -1.8205  0.7398  0.7574
 3063SOL    HW220826   4.057   0.646   3.234  1.3166  0.6475  2.4092
 3064SOL     OW20827   4.667   3.843   6.432  0.0850  0.9837 -0.0951
 3064SOL    HW120828   4.651   3.821   6.340 -1.7888  0.3184  0.4002
 3064SOL    HW220829   0.028   3.849   6.431  0.2447 -1.1993  4.5650
 3065SOL     OW20830   3.589   1.810   4.001 -0.0115  0.2575 -0.1250
 3065SOL    HW120831   3.609   1.860   3.922 -1.1788  3.4926  1.6374
 3065SOL    HW220832   3.493   1.809   3.995 -0.0123  1.7922 -0.4050
 3066SOL     OW20833   3.165   1.604  11.068  0.5241 -0.1804 -0.2168
 3066SOL    HW120834   3.244   1.592  11.014  0.7350 -3.3613  0.7659
 3066SOL    HW220835   3.133   1.514  11.075  1.1038 -0.3010  0.8218
 3067SOL     OW20836   4.077   4.146   8.665 -0.3589  0.6473  0.6447
 3067SOL    HW120837   4.165   4.126   8.698  0.2632 -0.5425 -1.7712
 3067SOL    HW220838   4.090   4.103   8.581 -2.1087 -0.3111  0.8671
 3068SOL     OW20839   0.654   3.179   3.208  0.3093  0.0564 -0.3377
 3068SOL    HW120840   0.742   3.218   3.209 -0.1095  1.0044 -0.5304
 3068SOL    HW220841   0.597   3.254   3.189  0.3783  0.0349 -0.6316
 3069SOL     OW20842   2.304   4.104   8.986 -0.1965  0.2428 -0.4151
 3069SOL    HW120843   2.219   4.119   9.027 -0.1766  0.5103 -0.4655
 3069SOL    HW220844   2.282   4.143   8.901  1.4756 -1.5058 -1.6600
 3070SOL     OW20845   2.959   1.994   4.135 -0.3130 -0.8540  0.4326
 3070SOL    HW120846   2.904   1.917   4.154  0.1840 -1.3387 -0.0885
 3070SOL    HW220847   3.047   1.960   4.118 -0.6656 -1.2690 -0.5900
 3071SOL     OW20848   4.176   0.580  12.669 -0.0510 -0.1951 -0.2640
 3071SOL    HW120849   4.269   0.601  12.671  0.1650 -0.9627 -2.1511
 3071SOL    HW220850   4.169   0.541  12.756 -1.0833 -0.8158 -0.6215
 3072SOL     OW20851   0.201   1.260   6.527 -0.5639 -0.2010 -0.1138
 3072SOL    HW120852   0.176   1.352   6.514 -3.0107 -1.2503 -2.9666
 3072SOL    HW220853   0.184   1.207   6.449  1.8301 -0.2781 -0.5751
 3073SOL     OW20854   0.828   0.631   9.418 -0.2120  0.1899 -0.6956
 3073SOL    HW120855   0.742   0.591   9.429  0.0926 -0.1119  0.5726
 3073SOL    HW220856   0.882   0.552   9.421 -1.0356 -0.3578 -0.1947
 3074SOL     OW20857   0.189   4.677  14.583  0.5722  0.3023 -0.1336
 3074SOL    HW120858   0.221   0.010  14.523  1.5791 -2.8327 -3.1224
 3074SOL    HW220859   0.140   4.729  14.647 -0.4091 -0.5695 -0.1929
 3075SOL     OW20860   3.134   3.090  15.012 -0.2019  0.1321 -0.5086
 3075SOL    HW120861   3.227   3.095  15.035 -0.2248  1.9090 -0.8495
 3075SOL    HW220862   3.146   3.098  14.918 -0.9843  1.6244 -0.4697
 3076SOL     OW20863   1.501   4.394  13.139  0.4315  0.1190 -0.1335
 3076SOL    HW120864   1.572   4.354  13.090 -0.6322 -3.2893  1.1203
 3076SOL    HW220865   1.503   4.333  13.213  1.5875 -0.1011 -0.3549
 3077SOL     OW20866   0.048   3.307   0.581  0.5391 -0.3739  0.0710
 3077SOL    HW120867   0.002   3.379   0.623  1.2351 -0.6584  1.3045
 3077SOL    HW220868   4.719   3.286   0.512 -0.9306  1.5673  0.8386
 3078SOL     OW20869   0.905   2.605   2.648  0.3512 -0.1199 -0.6472
 3078SOL    HW120870   0.865   2.580   2.565  2.7087  0.7925 -2.0662
 3078SOL    HW220871   0.990   2.564   2.631  1.2738  1.2379  0.6833
 3079SOL     OW20872   0.124   3.510   2.767  0.4672  0.3160 -0.1090
 3079SOL    HW120873   0.219   3.513   2.758  0.5912 -1.1840  0.6958
 3079SOL    HW220874   0.110   3.456   2.845  1.9739  2.6202  1.7694
 3080SOL     OW20875   1.694   4.050   6.719 -0.3358 -0.1921  0.4799
 3080SOL    HW120876   1.779   4.050   6.676  1.4556 -0.7270  4.0306
 3080SOL    HW220877   1.680   3.955   6.719 -0.4417 -0.1734 -0.6113
 3081SOL     OW20878   3.810   3.678  14.737  0.3972  0.5607  0.1817
 3081SOL    HW120879   3.863   3.756  14.719  0.6240  0.3768  0.0536
 3081SOL    HW220880   3.755   3.669  14.659 -0.5872  1.9089  0.7292
 3082SOL     OW20881   0.125   1.046   6.388 -0.0366 -0.1824  0.2951
 3082SOL    HW120882   0.157   0.985   6.455  0.7083  0.5297  0.5807
 3082SOL    HW220883   0.170   1.017   6.309  0.0437 -0.6291  0.5027
 3083SOL     OW20884   4.356   4.379   4.889  0.4842  0.2752 -0.0226
 3083SOL    HW120885   4.354   4.390   4.794  0.2181 -1.4026 -0.2138
 3083SOL    HW220886   4.292   4.311   4.907  0.3062  0.9724  1.9505
 3084SOL     OW20887   2.674   4.482  10.220  0.4283 -0.1580  0.2863
 3084SOL    HW120888   2.684   4.471  10.125 -2.3341  0.3201 -0.0546
 3084SOL    HW220889   2.760   4.443  10.234  1.8554  2.1824 -1.8494
 3085SOL     OW20890   0.145   2.186  15.911 -0.1227  0.2615  0.2254
 3085SOL    HW120891   0.070   2.187  15.970  1.1762  0.2247  1.8802
 3085SOL    HW220892   0.130   2.097  15.878  0.3938  0.1635  0.2471
 3086SOL     OW20893   4.617   2.652  13.641 -0.5306 -0.2506 -0.6621
 3086SOL    HW120894   4.587   2.711  13.572 -2.1331 -0.2307  0.0484
 3086SOL    HW220895   4.646   2.584  13.581 -0.1559  0.0169 -0.7860
 3087SOL     OW20896   4.401   2.940  15.289  0.0443 -0.0939 -0.1675
 3087SOL    HW120897   4.336   2.892  15.237  0.6703  0.5184 -1.5058
 3087SOL    HW220898   4.367   2.918  15.376 -0.4413 -2.6315 -1.0058
 3088SOL     OW20899   4.010   2.912   4.658 -0.1961 -0.0756  0.0792
 3088SOL    HW120900   3.915   2.906   4.668 -0.0129 -1.5607  1.0646
 3088SOL    HW220901   4.042   2.890   4.746 -0.1576  2.0522  0.5927
 3089SOL     OW20902   4.631   2.601   9.384 -0.9319  0.5951 -0.1154
 3089SOL    HW120903   4.637   2.672   9.449  0.2566 -0.0987  0.5520
 3089SOL    HW220904   4.644   2.531   9.448 -1.8085  1.5117  1.0646
 3090SOL     OW20905   2.300   1.679   9.614 -0.1827 -0.3613 -0.3303
 3090SOL    HW120906   2.360   1.689   9.541 -0.7748 -0.8532 -0.8814
 3090SOL    HW220907   2.230   1.730   9.574 -0.7731 -0.2763  0.8023
 3091SOL     OW20908   2.422   0.496  12.360  0.0975 -0.1422 -0.1963
 3091SOL    HW120909   2.483   0.558  12.399 -1.8702  1.2881  0.6034
 3091SOL    HW220910   2.367   0.553  12.306 -0.6392  0.4469  1.1905
 3092SOL     OW20911   1.852   4.628   8.454  0.2075  0.5639  0.0866
 3092SOL    HW120912   1.771   4.627   8.403 -0.1335  2.3737  0.6061
 3092SOL    HW220913   1.821   4.654   8.540 -1.0532  0.2403 -0.2781
 3093SOL     OW20914   1.932   1.056   4.309 -0.0838 -0.1336 -0.3485
 3093SOL    HW120915   1.971   1.129   4.259  1.2805  0.8639  2.2040
 3093SOL    HW220916   1.842   1.087   4.322 -0.0018  0.1366 -0.4195
 3094SOL     OW20917   0.931   2.303   9.508 -0.1049 -0.1334  0.5843
 3094SOL    HW120918   0.958   2.363   9.438  0.0933 -1.1923 -0.2327
 3094SOL    HW220919   0.838   2.324   9.523  0.3595  1.2666  1.4911
 3095SOL     OW20920   4.168   2.643   7.705  0.9333  0.1803  0.5034
 3095SOL    HW120921   4.244   2.618   7.757  1.4535 -1.3262 -0.9697
 3095SOL    HW220922   4.121   2.561   7.687  1.6336  0.0378 -0.6739
 3096SOL     OW20923   0.956   2.071   4.518  0.0537 -0.0303 -0.1835
 3096SOL    HW120924   0.916   1.991   4.483 -0.7865 -0.0849  0.8716
 3096SOL    HW220925   0.956   2.058   4.613  3.6869  1.8350  0.0784
 3097SOL     OW20926   0.599   1.370   3.330 -0.0007 -0.1286 -0.3952
 3097SOL    HW120927   0.601   1.315   3.408 -0.8087  0.8214  0.2883
 3097SOL    HW220928   0.673   1.429   3.345 -0.0817 -0.2368  0.4376
 3098SOL     OW20929   2.740   2.798   2.918 -0.1408 -0.1791 -0.3005
 3098SOL    HW120930   2.766   2.746   2.995 -1.2072  0.0265  0.2156
 3098SOL    HW220931   2.697   2.874   2.958 -0.0945  0.4781 -1.5258
 3099SOL     OW20932   4.351   3.461   8.105 -0.0910 -0.7681 -0.0941
 3099SOL    HW120933   4.314   3.479   8.191  0.0285 -1.1809  0.0440
 3099SOL    HW220934   4.365   3.366   8.113 -1.8696 -1.3141 -2.9824
 3100SOL     OW20935   1.682   1.704   8.577 -0.4465 -0.3679 -0.3936
 3100SOL    HW120936   1.742   1.717   8.503 -2.1217  0.6129 -1.5676
 3100SOL    HW220937   1.726   1.742   8.653  1.1982 -1.5413 -0.7511
 3101SOL     OW20938   1.763   3.640   4.884 -0.3031  0.0657 -0.4213
 3101SOL    HW120939   1.702   3.589   4.937 -1.7388  0.5988 -1.5551
 3101SOL    HW220940   1.799   3.569   4.830  0.1620 -1.1591  1.5206
 3102SOL     OW20941   0.319   3.924   4.747  0.5304 -0.2064 -0.2425
 3102SOL    HW120942   0.353   3.999   4.698 -0.1876  0.2485 -0.0533
 3102SOL    HW220943   0.384   3.858   4.724  0.3671 -1.1031  1.9324
 3103SOL     OW20944   0.438   1.991  10.504  0.0836 -0.3357 -0.0483
 3103SOL    HW120945   0.487   2.073  10.503 -0.5000  0.0293  1.1008
 3103SOL    HW220946   0.440   1.959  10.414 -1.2338 -0.7435  0.0598
 3104SOL     OW20947   2.848   4.627   6.812  0.3633 -0.6618 -0.1419
 3104SOL    HW120948   2.934   4.586   6.822  0.6453  0.7535  3.0558
 3104SOL    HW220949   2.837   4.663   6.899  0.8769 -3.3561  1.0525
 3105SOL     OW20950   3.323   4.193  12.825 -0.5609 -0.2236  0.1280
 3105SOL    HW120951   3.344   4.117  12.770  0.7733 -1.3991  2.2535
 3105SOL    HW220952   3.228   4.186  12.816 -0.5944  0.5992 -0.1300
 3106SOL     OW20953   2.032   1.506  16.688 -0.0514  0.1604  0.3931
 3106SOL    HW120954   2.114   1.542  16.722 -0.0336 -1.6105  2.1927
 3106SOL    HW220955   1.969   1.531  16.754  1.3219  1.6258  1.1327
 3107SOL     OW20956   0.545   1.385   4.650 -0.2530 -0.0526  0.7194
 3107SOL    HW120957   0.512   1.367   4.738  0.1669 -1.8795  0.5077
 3107SOL    HW220958   0.535   1.297   4.614 -1.4007  0.4456 -0.1710
 3108SOL     OW20959   2.774   0.285   3.418  0.3468  0.2220 -0.0941
 3108SOL    HW120960   2.747   0.362   3.468 -0.7310  0.8796 -1.6988
 3108SOL    HW220961   2.758   0.319   3.330  1.6040  0.6451 -0.1653
 3109SOL     OW20962   4.372   3.452   2.354  0.2070  0.2420 -0.4862
 3109SOL    HW120963   4.282   3.474   2.376  0.0196  0.5042 -1.5215
 3109SOL    HW220964   4.420   3.460   2.437 -0.9847 -2.1858  0.4405
 3110SOL     OW20965   1.926   4.399   4.861  1.0065  0.0213  0.2103
 3110SOL    HW120966   1.878   4.482   4.855  1.0951  0.1742  1.6849
 3110SOL    HW220967   1.953   4.411   4.952 -0.9355 -1.3591  0.9768
 3111SOL     OW20968   2.180   2.598   4.631 -0.0093  0.0111 -0.0440
 3111SOL    HW120969   2.178   2.670   4.695  0.2938 -0.4571  0.4896
 3111SOL    HW220970   2.111   2.631   4.573  0.9576 -1.2418 -1.9022
 3112SOL     OW20971   3.570   4.321   4.330  0.0483  0.2600  0.2994
 3112SOL    HW120972   3.490   4.288   4.290  0.2395  2.2269 -1.7074
 3112SOL    HW220973   3.532   4.368   4.404 -1.7434  0.3223 -0.6541
 3113SOL     OW20974   2.772   1.004   4.862  0.3389  0.3111 -0.0353
 3113SOL    HW120975   2.763   0.910   4.880 -2.0590  0.5959  0.3184
 3113SOL    HW220976   2.857   1.023   4.900  0.1183 -1.9574  1.6185
 3114SOL     OW20977   0.053   1.629  15.394 -0.1215  0.4633  0.1477
 3114SOL    HW120978   4.731   1.633  15.317  0.8919 -0.9859 -0.6818
 3114SOL    HW220979   0.133   1.594  15.355  0.5392 -0.1869  2.0851
 3115SOL     OW20980   0.312   0.349   9.969 -0.0188  0.0952  0.3736
 3115SOL    HW120981   0.327   0.330  10.062  0.3079  0.1600  0.3347
 3115SOL    HW220982   0.340   0.265   9.933 -1.2077 -1.2292  2.5238
 3116SOL     OW20983   2.993   3.087   3.151  0.2011  0.1322 -0.3205
 3116SOL    HW120984   2.991   3.042   3.066  1.7193  2.5163 -1.6186
 3116SOL    HW220985   3.039   3.023   3.206 -1.8657 -1.0159  0.0918
 3117SOL     OW20986   2.255   2.062   3.938  0.1623  0.2974  0.0252
 3117SOL    HW120987   2.321   2.108   3.989  0.8981 -0.1914 -0.4821
 3117SOL    HW220988   2.288   1.974   3.955  0.8746  0.8625  1.5499
 3118SOL     OW20989   0.230   2.724   7.997  0.2735  0.3607 -0.0269
 3118SOL    HW120990   0.147   2.705   7.953 -0.3044 -0.2488  1.3303
 3118SOL    HW220991   0.286   2.655   7.963  0.6837  1.0284 -0.7127
 3119SOL     OW20992   1.444   4.415  15.352  0.1757 -0.4655 -0.3268
 3119SOL    HW120993   1.375   4.420  15.418  0.8498  3.5744  0.0689
 3119SOL    HW220994   1.472   4.324  15.363  0.4949 -0.5417 -1.7863
 3120SOL     OW20995   2.805   2.020   7.709 -0.2972 -0.3411 -0.4948
 3120SOL    HW120996   2.861   1.953   7.748  1.4880  2.2905  1.4617
 3120SOL    HW220997   2.816   2.093   7.769  2.8349 -1.3009  0.0677
 3121SOL     OW20998   2.082   2.949  17.345 -0.4464  0.2601  0.7525
 3121SOL    HW120999   2.050   2.859  17.353  0.5820  0.0040  1.9955
 3121SOL    HW221000   2.170   2.935  17.308 -0.6536 -1.7631  1.0086
 3122SOL     OW21001   4.638   2.066   7.371  0.0433  0.7390 -0.1682
 3122SOL    HW121002   4.687   2.136   7.328  2.1513 -1.9581 -2.1843
 3122SOL    HW221003   4.627   1.991   7.312 -1.9150  2.7414 -2.3060
 3123SOL     OW21004   2.809   4.315   0.791  0.5080 -0.1997 -0.2800
 3123SOL    HW121005   2.881   4.374   0.811  0.2282  0.2528 -0.6146
 3123SOL    HW221006   2.814   4.252   0.863  0.1128  0.9086  0.7200
 3124SOL     OW21007   3.601   3.488  15.142  0.1902  0.2926  0.1597
 3124SOL    HW121008   3.578   3.478  15.050  2.1411 -0.0847 -0.2866
 3124SOL    HW221009   3.643   3.574  15.139 -0.1695  0.4725  0.3218
 3125SOL     OW21010   3.376   4.661   5.219 -0.5739  0.3182  0.0243
 3125SOL    HW121011   3.404   4.665   5.311 -3.6802  0.6492  0.9486
 3125SOL    HW221012   3.298   4.715   5.228 -1.2927 -0.5996 -0.8092
 3126SOL     OW21013   0.228   2.980   8.054  0.5500 -0.9736 -0.8842
 3126SOL    HW121014   0.137   2.951   8.054  0.6187 -1.1977 -0.1058
 3126SOL    HW221015   0.272   2.895   8.060  3.1649  0.4785  0.8054
 3127SOL     OW21016   1.086   4.350   2.218 -0.4988 -0.3331  0.1298
 3127SOL    HW121017   0.991   4.338   2.225 -0.4441 -0.5494  0.4968
 3127SOL    HW221018   1.105   4.312   2.132  0.5309 -1.3406  0.8048
 3128SOL     OW21019   2.094   3.489   0.615 -0.3432 -0.2708 -0.1538
 3128SOL    HW121020   2.113   3.408   0.568 -0.6396  0.2949 -1.2490
 3128SOL    HW221021   2.017   3.525   0.572  0.2926 -0.0216 -1.1030
 3129SOL     OW21022   1.916   1.387   8.642 -0.2907  0.1369  0.6255
 3129SOL    HW121023   1.959   1.396   8.557  1.1696  2.2509  1.5965
 3129SOL    HW221024   1.982   1.330   8.681  1.1761  0.5497 -1.2771
 3130SOL     OW21025   3.572   2.751   1.896 -0.0885 -0.4528  0.2500
 3130SOL    HW121026   3.611   2.798   1.822  2.7889 -1.7098  0.9997
 3130SOL    HW221027   3.640   2.691   1.924  1.0683  1.8703  2.4238
 3131SOL     OW21028   2.713   2.766   4.927 -0.9523 -1.0811  0.0367
 3131SOL    HW121029   2.715   2.842   4.986 -1.7053 -1.6353  0.7619
 3131SOL    HW221030   2.639   2.784   4.869 -1.1911  0.7831  0.8901
 3132SOL     OW21031   1.700   1.630  11.390 -0.5865  0.4260 -0.4000
 3132SOL    HW121032   1.681   1.717  11.425  2.0941  0.4046  1.1007
 3132SOL    HW221033   1.626   1.594  11.440  0.6499  0.8070  1.7255
 3133SOL     OW21034   1.546   4.503   9.380 -0.1139  0.3925  0.3588
 3133SOL    HW121035   1.495   4.562   9.324 -1.6824 -0.2149  1.1467
 3133SOL    HW221036   1.574   4.556   9.455 -1.5331 -0.7964  1.7489
 3134SOL     OW21037   1.659   0.740   5.379  0.3011  0.0783  0.7949
 3134SOL    HW121038   1.749   0.751   5.409 -0.6803  1.3952  3.3366
 3134SOL    HW221039   1.631   0.827   5.409  0.2275  0.0311  0.8643
 3135SOL     OW21040   0.638   4.103  12.802  0.4303 -0.4484  0.0915
 3135SOL    HW121041   0.612   4.152  12.724 -1.2365  0.6396  1.3498
 3135SOL    HW221042   0.559   4.080  12.850 -0.5444  0.7252 -0.9785
 3136SOL     OW21043   4.028   2.499   2.357 -0.2744 -0.5892  0.2232
 3136SOL    HW121044   4.009   2.486   2.264  0.6099 -1.1553  0.1206
 3136SOL    HW221045   4.029   2.595   2.356  0.7230 -0.5973  0.5133
 3137SOL     OW21046   3.679   2.968   7.618  0.2038 -0.3383 -0.6152
 3137SOL    HW121047   3.762   2.941   7.580 -0.2689 -3.0372  0.2978
 3137SOL    HW221048   3.615   2.971   7.547  2.1118  1.0916 -2.2691
 3138SOL     OW21049   1.942   3.378   7.386 -0.0806  0.1576 -0.2289
 3138SOL    HW121050   1.879   3.449   7.399  0.0923  0.0837  1.0517
 3138SOL    HW221051   2.004   3.400   7.456 -0.3690 -2.9934  1.0162
 3139SOL     OW21052   2.075   1.294   3.500 -0.3836  0.8520  0.2474
 3139SOL    HW121053   1.983   1.317   3.489  0.1400  2.3306 -0.9885
 3139SOL    HW221054   2.068   1.303   3.595 -0.6591 -0.4712  0.3554
 3140SOL     OW21055   3.404   1.226   7.093 -0.1658 -0.2771  0.3739
 3140SOL    HW121056   3.399   1.131   7.081  0.6944 -0.3659  0.7490
 3140SOL    HW221057   3.380   1.254   7.005 -0.8862  0.8292  0.9166
 3141SOL     OW21058   3.423   0.263   3.569 -0.2626 -0.4399  0.3753
 3141SOL    HW121059   3.353   0.301   3.622 -1.5910 -2.1622 -0.1502
 3141SOL    HW221060   3.470   0.206   3.630 -1.5159 -0.6745  1.1424
 3142SOL     OW21061   0.714   0.860  11.610 -0.4351  0.4944  0.7296
 3142SOL    HW121062   0.757   0.872  11.695  1.2640 -0.4686  0.0187
 3142SOL    HW221063   0.653   0.792  11.637 -0.4405 -0.5644 -1.9376
 3143SOL     OW21064   0.209   3.709  14.721  0.5725  0.0521 -0.2648
 3143SOL    HW121065   0.197   3.620  14.754  1.6812 -0.3382 -0.9254
 3143SOL    HW221066   0.251   3.750  14.797 -0.2696 -1.5632  1.0752
 3144SOL     OW21067   1.758   2.643   0.167  0.4639  0.0065  0.3400
 3144SOL    HW121068   1.836   2.687   0.133  1.0818 -1.0336  0.3927
 3144SOL    HW221069   1.699   2.713   0.194 -0.5521 -1.1256  1.0406
 3145SOL     OW21070   4.579   2.927   6.236  0.0289 -0.0544  0.4738
 3145SOL    HW121071   4.501   2.879   6.263 -0.0242  0.4872  1.2979
 3145SOL    HW221072   4.623   2.939   6.321  1.5957 -0.6964 -0.2598
 3146SOL     OW21073   4.342   3.100   7.492 -0.4101  0.2911  0.4931
 3146SOL    HW121074   4.314   3.191   7.498 -1.0242  0.0493  1.2785
 3146SOL    HW221075   4.334   3.081   7.586  1.7095 -1.1862  0.3921
 3147SOL     OW21076   3.966   0.137   5.783  0.0369 -0.5970 -0.2016
 3147SOL    HW121077   3.965   0.077   5.709 -0.2852 -0.8424 -0.0029
 3147SOL    HW221078   3.991   0.221   5.745  1.4764 -1.4978 -1.2598
 3148SOL     OW21079   4.577   4.529  13.106 -0.0893  0.1646 -0.4377
 3148SOL    HW121080   4.575   4.455  13.167 -0.9287  0.1424 -0.5008
 3148SOL    HW221081   4.507   4.583  13.141  0.4809  2.2617 -2.4696
 3149SOL     OW21082   0.908   4.392   3.083 -0.1534 -0.1358  0.4248
 3149SOL    HW121083   0.870   4.322   3.029 -0.6447  0.8589 -0.5360
 3149SOL    HW221084   0.940   4.459   3.022 -0.6647 -1.0060 -0.7968
 3150SOL     OW21085   3.842   2.687   1.903 -0.4149  0.4927  0.5067
 3150SOL    HW121086   3.858   2.747   1.976  0.6207 -0.5089  1.0904
 3150SOL    HW221087   3.931   2.656   1.888 -0.1908  1.3234  0.0941
 3151SOL     OW21088   2.578   3.830  17.509 -0.4577  0.2277 -0.1920
 3151SOL    HW121089   2.642   3.758  17.508 -1.2466 -0.4916  0.2682
 3151SOL    HW221090   2.579   3.866  17.597  0.5343 -0.5712  0.1264
 3152SOL     OW21091   2.180   2.142   4.274  0.3975 -0.5734 -0.1749
 3152SOL    HW121092   2.122   2.081   4.228  0.8479  0.0456 -1.5655
 3152SOL    HW221093   2.116   2.210   4.296  0.7269 -0.2458 -0.2229
 3153SOL     OW21094   1.965   4.507  13.465  0.5748 -0.1138  0.4529
 3153SOL    HW121095   1.876   4.542  13.475  1.0047  0.1959  3.1884
 3153SOL    HW221096   1.971   4.454  13.544  0.2747 -0.5084  0.2129
 3154SOL     OW21097   1.116   0.863   9.631 -0.2948  0.0832 -0.1143
 3154SOL    HW121098   1.163   0.830   9.554 -0.7045  2.3850 -1.3726
 3154SOL    HW221099   1.178   0.899   9.695 -0.6869  2.3972 -1.0085
 3155SOL     OW21100   0.588   2.677   3.091 -0.1084 -0.5387 -0.1253
 3155SOL    HW121101   0.591   2.762   3.048  0.4129 -0.6976 -0.4004
 3155SOL    HW221102   0.572   2.624   3.012 -1.4351 -0.5667  0.1544
 3156SOL     OW21103   0.224   1.014   3.433  0.6926  0.0526  0.1793
 3156SOL    HW121104   0.301   0.993   3.379 -0.1055 -0.5037 -0.7429
 3156SOL    HW221105   0.204   1.104   3.409  2.4371  0.7846  1.4401
 3157SOL     OW21106   4.089   0.740   6.440 -0.9338  0.1621 -0.2339
 3157SOL    HW121107   4.077   0.725   6.534  2.1234 -2.5570 -0.2697
 3157SOL    HW221108   4.062   0.831   6.431 -1.5537  0.0966  0.8679
 3158SOL     OW21109   1.840   3.612   5.766  0.3339 -0.1711 -0.3380
 3158SOL    HW121110   1.886   3.692   5.745 -1.4036  0.5192 -1.5104
 3158SOL    HW221111   1.760   3.639   5.811  1.0557  0.5762  0.5002
 3159SOL     OW21112   1.109   1.561  14.192  0.0470  0.6183 -0.5814
 3159SOL    HW121113   1.099   1.509  14.112 -0.0756 -0.6790  0.2670
 3159SOL    HW221114   1.161   1.636  14.164 -0.0887  1.6092  1.8155
 3160SOL     OW21115   1.605   2.545   2.672  0.2696  0.0217  0.2487
 3160SOL    HW121116   1.621   2.453   2.648 -1.1622 -0.6276  1.8280
 3160SOL    HW221117   1.675   2.580   2.617  1.3796 -2.8399 -0.1699
 3161SOL     OW21118   2.338   0.642  11.769 -0.4145  0.1606  0.3709
 3161SOL    HW121119   2.270   0.684  11.715  0.3668  1.3015  0.2667
 3161SOL    HW221120   2.332   0.704  11.841 -0.2546 -0.3846  0.8504
 3162SOL     OW21121   2.079   2.679   7.920  0.0077  1.0303 -0.1151
 3162SOL    HW121122   1.985   2.660   7.912  0.5138  0.3901 -4.5754
 3162SOL    HW221123   2.072   2.756   7.977 -0.0014  0.3986  0.7349
 3163SOL     OW21124   3.733   2.137   4.118 -0.2473  0.0116 -0.4652
 3163SOL    HW121125   3.759   2.122   4.027 -0.7566 -2.5557 -0.2013
 3163SOL    HW221126   3.820   2.134   4.158  0.1233  0.7708 -1.2312
 3164SOL     OW21127   1.588   1.351  14.208 -0.2352  0.4433  0.1739
 3164SOL    HW121128   1.670   1.394  14.232 -0.0546 -0.3243  0.9454
 3164SOL    HW221129   1.605   1.260  14.231 -0.1185  0.3710 -0.2062
 3165SOL     OW21130   4.462   0.892  11.561 -0.0015 -0.2583 -0.0955
 3165SOL    HW121131   4.445   0.798  11.558 -0.6262 -0.1317 -0.6300
 3165SOL    HW221132   4.377   0.931  11.579  0.3611  1.0895 -1.3429
 3166SOL     OW21133   3.610   3.169  11.629  0.2019 -0.8779  0.3085
 3166SOL    HW121134   3.704   3.166  11.647  0.2491  0.3025  0.2396
 3166SOL    HW221135   3.565   3.209  11.704  1.9662  0.3018  0.7383
 3167SOL     OW21136   2.852   3.825   4.451 -0.1964  0.3451  0.0459
 3167SOL    HW121137   2.880   3.854   4.538  0.6277 -0.7810  0.1502
 3167SOL    HW221138   2.883   3.900   4.399  0.5747  0.5721  0.8466
 3168SOL     OW21139   2.561   3.943  17.269  0.4900  0.0369 -0.0503
 3168SOL    HW121140   2.550   3.885  17.345  0.2305 -0.1095 -0.2002
 3168SOL    HW221141   2.648   3.910  17.246 -0.1918 -1.2136 -0.8335
 3169SOL     OW21142   2.310   2.171   0.661  0.7833 -0.3114  0.1295
 3169SOL    HW121143   2.319   2.250   0.608  1.6516  0.2090  1.0501
 3169SOL    HW221144   2.324   2.197   0.752  0.9309  1.5965 -0.4322
 3170SOL     OW21145   0.377   2.486  17.085 -0.4472  0.4943  0.4649
 3170SOL    HW121146   0.380   2.480  16.989  0.2219  2.7653  0.3521
 3170SOL    HW221147   0.331   2.569  17.102 -1.5868  0.0847 -0.5870
 3171SOL     OW21148   2.828   3.991  17.458  0.9168 -0.4113  0.0141
 3171SOL    HW121149   2.748   4.039  17.481  1.1011 -0.2001  0.2067
 3171SOL    HW221150   2.799   3.916  17.407  0.0245 -0.7593  1.0277
 3172SOL     OW21151   0.289   3.858   5.832  0.8204 -0.0398 -0.0595
 3172SOL    HW121152   0.381   3.831   5.834  0.7829 -0.2105 -0.9331
 3172SOL    HW221153   0.278   3.905   5.915  0.3047 -0.8892  0.3514
 3173SOL     OW21154   0.394   4.398   2.500 -0.4903 -0.3608  0.1102
 3173SOL    HW121155   0.422   4.461   2.434 -3.2146  1.5333  0.7547
 3173SOL    HW221156   0.298   4.402   2.492 -0.6301 -0.4211  1.7501
 3174SOL     OW21157   3.649   0.951   6.474 -0.3250  0.0179 -0.0184
 3174SOL    HW121158   3.675   1.008   6.402  0.6980 -0.5896 -0.1333
 3174SOL    HW221159   3.617   0.873   6.428  3.1217 -0.8991 -0.8995
 3175SOL     OW21160   2.951   3.886   1.256  0.9366 -0.1277  0.7048
 3175SOL    HW121161   3.019   3.944   1.221  1.1586 -1.6944 -1.4797
 3175SOL    HW221162   3.001   3.809   1.281 -1.0061 -0.7638  2.5716
 3176SOL     OW21163   1.038   3.062   6.929  0.2114 -0.5052 -0.1989
 3176SOL    HW121164   0.975   3.134   6.925  1.1480  0.2988 -0.3307
 3176SOL    HW221165   1.081   3.071   7.014  1.9172  2.5667 -1.3953
 3177SOL     OW21166   2.592   4.016   2.154 -0.1743  0.1324 -0.1506
 3177SOL    HW121167   2.588   4.019   2.058 -0.1419 -1.0786 -0.1903
 3177SOL    HW221168   2.682   4.047   2.160 -0.3822  0.3291  2.0452
 3178SOL     OW21169   4.210   0.815   8.989 -0.3754 -0.4198  0.1532
 3178SOL    HW121170   4.207   0.903   9.025 -2.0218 -0.8352  1.0496
 3178SOL    HW221171   4.233   0.827   8.897 -1.9395 -0.3875 -0.2388
 3179SOL     OW21172   1.971   0.495   2.946 -0.5979  0.6385 -0.6820
 3179SOL    HW121173   1.899   0.501   3.008 -0.3480 -0.8320 -0.2458
 3179SOL    HW221174   2.008   0.582   2.963  2.5362 -0.7144 -0.4861
 3180SOL     OW21175   2.897   2.792   4.327  0.2501  0.2654 -0.4014
 3180SOL    HW121176   2.895   2.854   4.255  0.5767  1.9388  1.0229
 3180SOL    HW221177   2.803   2.771   4.327  0.4057 -0.4060 -1.8460
 3181SOL     OW21178   3.966   3.934  16.703  0.4064 -0.4155 -0.3275
 3181SOL    HW121179   4.044   3.955  16.753  0.1616  1.2425 -0.6307
 3181SOL    HW221180   3.917   3.911  16.782 -0.4106 -1.1692 -1.0471
 3182SOL     OW21181   3.385   0.697   8.242 -0.3451  0.5721 -0.2641
 3182SOL    HW121182   3.457   0.633   8.243 -0.1257  0.7969 -1.6156
 3182SOL    HW221183   3.326   0.659   8.307  1.6035 -1.6689  0.2027
 3183SOL     OW21184   4.555   2.552  15.864 -0.3023  0.1351  0.4904
 3183SOL    HW121185   4.520   2.553  15.775  0.5700  0.1535  0.1411
 3183SOL    HW221186   4.492   2.487  15.896 -1.3898  1.1449  0.3982
 3184SOL     OW21187   0.475   3.245  16.744 -0.4359 -0.2365  0.8689
 3184SOL    HW121188   0.564   3.244  16.710  0.6354 -1.6222  3.7358
 3184SOL    HW221189   0.448   3.331  16.712 -0.3644 -0.3316  0.5555
 3185SOL     OW21190   1.787   0.678  12.193 -0.0520  0.6606  0.2661
 3185SOL    HW121191   1.769   0.606  12.254 -0.7765 -0.3119 -1.0881
 3185SOL    HW221192   1.879   0.661  12.173  0.8044 -0.8714  5.7308
 3186SOL     OW21193   4.299   1.676   8.064 -0.2321  0.0321  0.5805
 3186SOL    HW121194   4.212   1.656   8.030  0.7339  0.6716 -2.2664
 3186SOL    HW221195   4.280   1.614   8.134 -1.2446 -0.6925 -0.3361
 3187SOL     OW21196   3.158   3.011   4.792  0.2408 -0.3245  0.8478
 3187SOL    HW121197   3.223   3.012   4.721  0.1202  1.7828  0.7634
 3187SOL    HW221198   3.085   2.961   4.756  1.6380 -2.0629  0.4136
 3188SOL     OW21199   2.162   3.019   8.288  0.4433  0.3108  0.0411
 3188SOL    HW121200   2.127   3.105   8.310 -2.7458 -0.5704 -1.4610
 3188SOL    HW221201   2.105   2.986   8.218  2.6719 -1.0409 -1.1562
 3189SOL     OW21202   4.240   2.417   4.886 -0.7010 -0.5810  0.3121
 3189SOL    HW121203   4.286   2.343   4.848 -0.2383 -1.3319  2.3454
 3189SOL    HW221204   4.298   2.488   4.859 -0.2660 -0.4973  1.4683
 3190SOL     OW21205   3.661   1.037   1.552 -0.0012 -0.0100 -0.4362
 3190SOL    HW121206   3.584   1.021   1.498  0.0261  1.0166 -0.7591
 3190SOL    HW221207   3.638   0.985   1.630  0.2971 -0.4696 -0.6513
 3191SOL     OW21208   2.310   1.936  11.852 -0.1546  0.8617  0.0492
 3191SOL    HW121209   2.235   1.988  11.824  0.7140  4.1203  3.7239
 3191SOL    HW221210   2.288   1.845  11.832 -0.9166  1.3052 -1.1300
 3192SOL     OW21211   4.501   3.587   1.896  0.0189 -0.3127  0.2099
 3192SOL    HW121212   4.496   3.600   1.990 -2.1247  0.9261 -0.0489
 3192SOL    HW221213   4.409   3.582   1.868  0.0547  1.9136 -0.3792
 3193SOL     OW21214   0.143   1.217   8.496  0.5250  0.3632 -0.1443
 3193SOL    HW121215   0.224   1.167   8.486 -0.3760 -1.2774  0.6694
 3193SOL    HW221216   0.138   1.264   8.413 -1.1333  0.4161 -0.0157
 3194SOL     OW21217   4.417   0.503   3.629  0.0381 -0.4368 -0.2627
 3194SOL    HW121218   4.330   0.494   3.666  0.4458  1.7406  1.2409
 3194SOL    HW221219   4.478   0.445   3.674  0.3822  0.3864  0.3245
 3195SOL     OW21220   3.652   1.980   3.792 -0.2429  0.1035  0.4569
 3195SOL    HW121221   3.739   2.020   3.784  0.7051 -1.6901  1.6991
 3195SOL    HW221222   3.645   1.975   3.697 -1.2838  0.1221  0.5381
 3196SOL     OW21223   1.071   4.417  15.779 -0.4033  0.6098 -0.5262
 3196SOL    HW121224   1.102   4.476  15.847 -1.1646  0.9621 -0.4905
 3196SOL    HW221225   1.105   4.331  15.802 -3.8072 -0.5050  0.3122
 3197SOL     OW21226   1.639   2.868   8.589  0.0592  0.1317  0.0461
 3197SOL    HW121227   1.568   2.932   8.587  1.0229  1.2511  1.4755
 3197SOL    HW221228   1.604   2.802   8.648  0.8225  0.1999  0.5801
 3198SOL     OW21229   2.906   0.241  10.966  0.1375 -0.3262 -0.1305
 3198SOL    HW121230   2.917   0.333  10.991  0.2003 -0.4639  0.3415
 3198SOL    HW221231   2.915   0.252  10.871 -0.2187 -0.2058 -0.1484
 3199SOL     OW21232   4.664   1.730   8.753  0.0779 -0.0876 -0.0248
 3199SOL    HW121233   4.698   1.649   8.714 -0.9991 -1.1216  1.1939
 3199SOL    HW221234   4.647   1.698   8.842 -0.6252 -1.2326 -0.5739
 3200SOL     OW21235   3.755   4.265   8.958  0.2243  0.7990 -0.2572
 3200SOL    HW121236   3.684   4.206   8.983  1.1131  0.1153  0.6357
 3200SOL    HW221237   3.812   4.196   8.924  0.8878 -0.2951  2.9929
 3201SOL     OW21238   2.023   0.389  11.481  0.4698  0.0441 -0.1409
 3201SOL    HW121239   1.936   0.350  11.483  1.1353 -1.4139  0.2573
 3201SOL    HW221240   1.995   0.476  11.511 -3.2906 -0.7463 -1.3598
 3202SOL     OW21241   3.244   1.010   6.656 -0.6418  0.2686 -0.8126
 3202SOL    HW121242   3.311   0.957   6.698 -0.2719  1.8340  0.5582
 3202SOL    HW221243   3.165   0.958   6.671 -0.8908  1.0881  0.7478
 3203SOL     OW21244   3.576   3.238  17.525 -0.8593  0.4552 -0.8298
 3203SOL    HW121245   3.646   3.192  17.478 -1.1237  0.4452 -1.2163
 3203SOL    HW221246   3.628   3.305  17.569  0.8302 -0.0064 -2.0991
 3204SOL     OW21247   2.653   2.988   3.058 -0.1576 -0.2065  0.5611
 3204SOL    HW121248   2.639   3.028   3.144 -0.5282  2.6097 -0.7844
 3204SOL    HW221249   2.602   3.049   3.003  0.2103 -0.8199 -0.4585
 3205SOL     OW21250   1.848   0.696  10.802  0.0005 -0.3369 -0.0048
 3205SOL    HW121251   1.802   0.704  10.886 -0.1931  3.1183 -0.4802
 3205SOL    HW221252   1.816   0.778  10.767  1.1088 -1.3748 -3.4373
 3206SOL     OW21253   3.563   3.630   2.882 -0.3452  0.0932 -0.6008
 3206SOL    HW121254   3.522   3.547   2.859 -0.2592  0.0402 -0.5668
 3206SOL    HW221255   3.512   3.696   2.835  1.2129  0.7346 -1.3971
 3207SOL     OW21256   2.693   1.424   3.212 -0.7942 -0.3973 -0.0863
 3207SOL    HW121257   2.667   1.506   3.170 -1.9324 -0.4571  0.4956
 3207SOL    HW221258   2.679   1.446   3.305  1.1001 -0.4982  0.2209
 3208SOL     OW21259   0.581   3.233  10.315 -0.3703  0.0336  0.2551
 3208SOL    HW121260   0.674   3.229  10.338 -0.8153 -0.5804  1.9522
 3208SOL    HW221261   0.546   3.216  10.403 -2.0232  1.9164 -0.0557
 3209SOL     OW21262   0.011   1.967   3.125 -0.0407  0.4946  0.5896
 3209SOL    HW121263   4.670   1.942   3.179  0.2152  1.4431  1.3874
 3209SOL    HW221264   0.060   2.018   3.190  1.0557 -0.8258  0.8028
 3210SOL     OW21265   0.971   3.320   8.129  0.3575 -0.3852  0.0798
 3210SOL    HW121266   0.906   3.254   8.105 -1.5604  2.3367 -2.2097
 3210SOL    HW221267   1.042   3.264   8.160 -0.5583 -1.0579  0.9639
 3211SOL     OW21268   3.137   2.505   4.239 -0.0029  0.1898 -0.1355
 3211SOL    HW121269   3.226   2.491   4.208  0.1937  0.3491  0.3520
 3211SOL    HW221270   3.147   2.594   4.274 -0.1878  0.5130 -0.9036
 3212SOL     OW21271   1.728   3.576   7.367 -0.2357 -0.9613 -0.4146
 3212SOL    HW121272   1.714   3.527   7.448  1.1294 -0.7471 -0.0360
 3212SOL    HW221273   1.779   3.646   7.407  0.6427 -1.9379  0.1731
 3213SOL     OW21274   0.191   0.909  13.994 -0.4325 -0.1057 -0.1383
 3213SOL    HW121275   0.250   0.901  14.069 -0.6722  0.2928  0.0932
 3213SOL    HW221276   0.119   0.853  14.020 -0.8663  0.2720 -0.5225
 3214SOL     OW21277   3.661   2.606  13.167 -0.2749 -0.3602  0.1768
 3214SOL    HW121278   3.746   2.650  13.166 -1.0221  1.0854 -1.7315
 3214SOL    HW221279   3.651   2.586  13.260  0.1885  2.8834  0.9216
 3215SOL     OW21280   4.458   1.473  13.226 -0.0522 -0.4191  0.1567
 3215SOL    HW121281   4.421   1.440  13.144 -1.5726 -0.6338  0.9315
 3215SOL    HW221282   4.545   1.432  13.230  1.1512  2.0262 -0.6812
 3216SOL     OW21283   1.703   3.614   8.677 -0.0227 -0.0109 -0.0568
 3216SOL    HW121284   1.655   3.663   8.609 -2.9570 -0.9671  1.3217
 3216SOL    HW221285   1.652   3.639   8.754  0.7849 -0.1420  0.5195
 3217SOL     OW21286   3.187   1.537   5.045 -0.4624 -0.3433 -0.2301
 3217SOL    HW121287   3.181   1.596   4.970 -2.0128  0.9763  0.9314
 3217SOL    HW221288   3.280   1.516   5.031 -0.4483  1.0513 -2.2598
 3218SOL     OW21289   0.514   0.821   3.537  0.1711 -0.1232  0.2343
 3218SOL    HW121290   0.499   0.879   3.462 -2.2409 -0.3960  0.4820
 3218SOL    HW221291   0.453   0.752   3.507 -0.7851  0.1348  1.5930
 3219SOL     OW21292   0.932   1.049   9.611 -0.7236  0.7612 -0.3320
 3219SOL    HW121293   0.988   1.116   9.649  0.5475 -0.0307 -0.8155
 3219SOL    HW221294   0.986   0.970   9.616 -3.4981 -0.9794  2.6709
 3220SOL     OW21295   0.967   0.669   3.710 -0.8335 -0.5851  0.1003
 3220SOL    HW121296   1.035   0.652   3.646  1.7917  1.2869  2.3796
 3220SOL    HW221297   0.890   0.676   3.654 -1.8877 -0.3613  1.5592
 3221SOL     OW21298   2.831   0.657  16.427 -0.1251 -0.2282 -0.2987
 3221SOL    HW121299   2.888   0.594  16.382  0.3309 -0.8909  1.2086
 3221SOL    HW221300   2.891   0.690  16.494  0.5051 -0.2264 -0.8514
 3222SOL     OW21301   0.901   1.028  11.419  0.3354  0.0008  0.3442
 3222SOL    HW121302   0.856   0.981  11.489 -1.6992  0.6977 -0.5039
 3222SOL    HW221303   0.970   1.076  11.465  2.3823 -2.2318 -0.3997
 3223SOL     OW21304   1.881   4.118   2.390 -0.4373 -0.4423  0.7632
 3223SOL    HW121305   1.797   4.111   2.435 -0.0558 -2.1312  1.2263
 3223SOL    HW221306   1.885   4.213   2.382  0.2067 -0.3055  2.6810
 3224SOL     OW21307   2.852   2.146   9.767 -0.0145  0.2612  0.8260
 3224SOL    HW121308   2.788   2.143   9.696  1.1657  2.8796 -0.3493
 3224SOL    HW221309   2.806   2.104   9.839 -0.9846  1.2353  0.7773
 3225SOL     OW21310   0.605   1.348   4.943 -0.4834  0.2744 -0.9152
 3225SOL    HW121311   0.522   1.389   4.968  0.3885  0.5547  1.5020
 3225SOL    HW221312   0.668   1.418   4.924  2.0912 -2.0216 -0.9123
 3226SOL     OW21313   3.922   1.366   8.866 -0.1824  0.1089  0.1511
 3226SOL    HW121314   3.931   1.336   8.776  1.0097 -1.3985  0.7865
 3226SOL    HW221315   3.958   1.297   8.921  2.4819  1.8871  0.6653
 3227SOL     OW21316   3.186   2.394   6.627 -0.5702  0.3950  0.1083
 3227SOL    HW121317   3.195   2.435   6.712 -1.8928 -1.1460  0.9891
 3227SOL    HW221318   3.273   2.359   6.605 -0.6597 -0.6981  1.5104
 3228SOL     OW21319   1.042   2.108  12.183  0.1475 -0.2234 -0.2980
 3228SOL    HW121320   1.137   2.105  12.194  0.1763 -0.5381 -0.6025
 3228SOL    HW221321   1.052   2.107  12.087  2.4530 -0.6137 -0.0508
 3229SOL     OW21322   2.206   2.152   6.065 -0.0560 -0.1664  0.4432
 3229SOL    HW121323   2.195   2.166   5.971  1.6200  1.9879  0.5631
 3229SOL    HW221324   2.238   2.062   6.073  0.3039 -0.1199 -0.4514
 3230SOL     OW21325   4.318   3.773   2.483  0.3717  0.0758  0.0611
 3230SOL    HW121326   4.384   3.706   2.498  0.5152  0.1465 -0.2676
 3230SOL    HW221327   4.362   3.848   2.524  0.1449  0.5149 -0.4836
 3231SOL     OW21328   0.158   1.461  10.699  0.5406  0.1777 -0.3423
 3231SOL    HW121329   0.119   1.537  10.656 -0.0804 -0.1154 -0.3086
 3231SOL    HW221330   0.125   1.472  10.789  1.2738 -0.6134  0.0214
 3232SOL     OW21331   4.521   2.422  10.130  0.0552 -0.4452  0.4141
 3232SOL    HW121332   4.531   2.517  10.124  1.0309 -0.4098  2.7424
 3232SOL    HW221333   4.429   2.414  10.105  0.7646 -0.2339 -2.2494
 3233SOL     OW21334   3.021   2.249   4.844 -0.5552  0.1472 -0.5979
 3233SOL    HW121335   2.929   2.276   4.839 -0.7650 -0.2948  0.8269
 3233SOL    HW221336   3.061   2.280   4.926 -0.9638 -0.1972 -0.2675
 3234SOL     OW21337   2.321   2.918  13.862  0.4136 -0.3107 -0.1758
 3234SOL    HW121338   2.364   2.853  13.918  0.4683 -0.0831  0.0473
 3234SOL    HW221339   2.265   2.966  13.923  0.8884  1.4728 -1.1427
 3235SOL     OW21340   0.070   2.868   3.805  0.2447 -0.5578 -0.4336
 3235SOL    HW121341   0.154   2.905   3.776  0.8474  0.0758  2.1245
 3235SOL    HW221342   0.029   2.953   3.820  0.5671 -0.2002 -1.5835
 3236SOL     OW21343   1.724   0.651  10.252 -0.2367  0.2495  0.2613
 3236SOL    HW121344   1.671   0.718  10.295  1.7051  0.4435  2.3439
 3236SOL    HW221345   1.727   0.580  10.315  2.5094 -0.3808 -0.5588
 3237SOL     OW21346   1.447   2.237   3.122 -0.1277  0.2276 -0.0178
 3237SOL    HW121347   1.353   2.250   3.129 -0.0179  0.4191  1.0594
 3237SOL    HW221348   1.478   2.327   3.127  1.0286 -0.1123 -0.9998
 3238SOL     OW21349   0.946   2.658   5.778  0.3271  0.0077  0.1714
 3238SOL    HW121350   0.908   2.640   5.864 -3.6872  1.3094 -1.3452
 3238SOL    HW221351   1.037   2.634   5.795  0.5531  0.5981 -0.2173
 3239SOL     OW21352   2.732   1.299   8.129 -0.2844  0.2371 -0.3506
 3239SOL    HW121353   2.821   1.264   8.129 -0.4375 -0.1617  0.3491
 3239SOL    HW221354   2.688   1.243   8.194  1.5694  1.3704  1.8865
 3240SOL     OW21355   0.430   2.288   7.583 -0.5466  0.1609 -0.0449
 3240SOL    HW121356   0.377   2.211   7.564  0.6829 -0.7366  0.1150
 3240SOL    HW221357   0.473   2.303   7.499  0.0140 -1.2042 -0.0154
 3241SOL     OW21358   3.192   4.216   2.108  0.2608  0.0136  0.2466
 3241SOL    HW121359   3.257   4.256   2.049 -0.1780 -0.2415 -0.4171
 3241SOL    HW221360   3.167   4.156   2.037  0.0006  1.0751 -0.5537
 3242SOL     OW21361   4.201   2.791  15.141  0.0431 -0.2824 -0.7647
 3242SOL    HW121362   4.244   2.735  15.077  1.0689 -1.8003  1.2636
 3242SOL    HW221363   4.108   2.768  15.133  0.0320 -0.5472  0.1192
 3243SOL     OW21364   2.521   0.296   3.645 -0.5373 -0.2083  0.6429
 3243SOL    HW121365   2.511   0.225   3.708 -0.6517  0.5065  1.4324
 3243SOL    HW221366   2.575   0.357   3.696  0.1259 -0.0292 -0.2638
 3244SOL     OW21367   1.626   2.667  12.465 -0.4617  0.0961 -0.3282
 3244SOL    HW121368   1.535   2.692  12.477 -0.2273  0.0811  1.5914
 3244SOL    HW221369   1.645   2.712  12.383 -0.3440  0.0560 -0.3229
 3245SOL     OW21370   2.244   1.287   4.323 -0.1133  0.3640 -0.7185
 3245SOL    HW121371   2.153   1.312   4.340  0.5541  1.1817  1.7720
 3245SOL    HW221372   2.270   1.301   4.414 -0.1701 -1.1685 -0.4663
 3246SOL     OW21373   0.841   1.741  13.271  0.0257  0.6047 -0.2252
 3246SOL    HW121374   0.859   1.650  13.296 -1.7201  0.5164  0.7216
 3246SOL    HW221375   0.925   1.787  13.268 -0.8038  2.2686  1.9789
 3247SOL     OW21376   4.074   3.423   1.549  0.0047  0.1577 -0.6973
 3247SOL    HW121377   4.065   3.381   1.634  0.8618  0.7511 -0.3163
 3247SOL    HW221378   3.990   3.469   1.553 -0.4123 -0.6815  0.4361
 3248SOL     OW21379   2.615   0.980   1.003 -0.6465 -0.5567  0.1352
 3248SOL    HW121380   2.635   0.918   0.933  1.8381  1.8050 -1.2597
 3248SOL    HW221381   2.520   0.990   1.002 -0.4965  0.8079  0.5700
 3249SOL     OW21382   3.513   1.970   3.197 -0.3318 -0.4063  0.0949
 3249SOL    HW121383   3.530   1.878   3.217  2.1961 -0.2709 -1.2976
 3249SOL    HW221384   3.427   1.968   3.157 -0.0727  1.1543 -0.5691
 3250SOL     OW21385   2.951   2.008   7.453 -0.3864  0.1704  0.1427
 3250SOL    HW121386   2.882   1.994   7.518  0.8030  0.9544  1.5685
 3250SOL    HW221387   3.003   2.078   7.493 -0.6113 -0.6441  1.8414
 3251SOL     OW21388   4.486   3.993  15.747  0.1446  0.2197 -0.5610
 3251SOL    HW121389   4.418   4.019  15.685  0.2645  0.7856 -0.4573
 3251SOL    HW221390   4.520   4.082  15.756 -1.4299  0.6235  1.4658
 3252SOL     OW21391   1.499   2.840   6.896  0.0677  0.1932 -0.5484
 3252SOL    HW121392   1.576   2.878   6.854  0.8688  0.0945  0.8473
 3252SOL    HW221393   1.503   2.756   6.849 -0.9604  0.5524 -1.2885
 3253SOL     OW21394   1.707   1.995   4.237  0.5806 -0.7261 -0.6859
 3253SOL    HW121395   1.692   1.901   4.253  1.8627 -0.2331  3.2124
 3253SOL    HW221396   1.630   2.028   4.284  0.2522 -1.5237 -0.6605
 3254SOL     OW21397   1.596   1.664   6.090  0.0236 -0.2091  0.2037
 3254SOL    HW121398   1.528   1.692   6.150  0.5368  1.0549  0.1945
 3254SOL    HW221399   1.669   1.702   6.139 -1.3551 -0.1960  2.2549
 3255SOL     OW21400   2.869   2.579   4.829  0.1564 -0.1051  0.0198
 3255SOL    HW121401   2.831   2.522   4.762  0.8442 -0.3003 -0.2059
 3255SOL    HW221402   2.800   2.645   4.837  0.9753  0.6612  0.7298
 3256SOL     OW21403   2.582   3.410  12.523 -0.1540 -0.2944 -0.1982
 3256SOL    HW121404   2.571   3.505  12.522  0.4980 -0.2124  0.3895
 3256SOL    HW221405   2.630   3.397  12.442 -1.3704  0.7995 -1.0935
 3257SOL     OW21406   4.285   1.946   2.281  0.8538  0.0890 -0.3683
 3257SOL    HW121407   4.262   1.853   2.284  3.8806 -0.5687  2.2355
 3257SOL    HW221408   4.313   1.953   2.190 -1.0735 -0.8787 -1.0459
 3258SOL     OW21409   0.199   1.963   6.656 -0.1396  0.0837  0.0903
 3258SOL    HW121410   0.275   1.917   6.621 -0.9513 -0.2110 -1.2681
 3258SOL    HW221411   0.206   2.054   6.627  1.8601  0.3201  1.2939
 3259SOL     OW21412   0.839   0.080   6.320 -0.2682  0.3391 -0.2557
 3259SOL    HW121413   0.875   0.143   6.381  0.8531 -0.6653  0.1230
 3259SOL    HW221414   0.813   0.128   6.242  0.6594  0.5492 -0.4299
 3260SOL     OW21415   2.040   0.722   6.826 -0.0937  0.1982 -0.7160
 3260SOL    HW121416   1.976   0.780   6.786 -1.1929 -0.1029  0.6130
 3260SOL    HW221417   2.108   0.728   6.758 -0.8310 -0.4157 -1.4961
 3261SOL     OW21418   3.010   4.468   2.415  0.0856 -0.1155  0.0869
 3261SOL    HW121419   3.065   4.448   2.340  0.6427 -1.4356  0.8547
 3261SOL    HW221420   3.080   4.493   2.476 -1.2502 -0.5885  1.8127
 3262SOL     OW21421   3.164   3.018  16.460  0.2624  0.0307 -0.1026
 3262SOL    HW121422   3.134   2.931  16.487 -0.1109 -0.0259 -0.7084
 3262SOL    HW221423   3.129   3.077  16.527 -0.3734 -0.2169 -0.2122
 3263SOL     OW21424   4.269   3.653  17.071  0.1960 -0.1951  0.1141
 3263SOL    HW121425   4.342   3.673  17.012  0.0944  0.0828  0.0821
 3263SOL    HW221426   4.203   3.643  17.002 -0.2089  0.7260  0.3637
 3264SOL     OW21427   3.902   3.584  14.452 -0.2235 -0.0269 -0.0455
 3264SOL    HW121428   3.831   3.605  14.391  0.1426 -2.0859 -1.1827
 3264SOL    HW221429   3.948   3.668  14.459 -0.5471  0.2048 -0.6928
 3265SOL     OW21430   0.176   4.442  12.104 -0.3444  0.7830  0.3970
 3265SOL    HW121431   0.136   4.496  12.172 -0.0869 -0.0751  1.2254
 3265SOL    HW221432   0.128   4.489  12.035  2.4847  0.5522 -1.7282
 3266SOL     OW21433   0.518   3.124   6.830 -0.2575 -0.0176  0.2241
 3266SOL    HW121434   0.423   3.115   6.822 -0.5649  2.7829  0.7145
 3266SOL    HW221435   0.548   3.201   6.782  0.9260 -0.2822  0.5621
 3267SOL     OW21436   0.681   1.485  16.823 -0.1375  0.0354 -0.0293
 3267SOL    HW121437   0.756   1.544  16.823  0.7504 -1.0813 -0.8437
 3267SOL    HW221438   0.699   1.436  16.903 -0.4683 -0.2533 -0.1294
 3268SOL     OW21439   0.270   0.884   6.572 -0.2857  0.0870 -0.0206
 3268SOL    HW121440   0.338   0.871   6.637  1.4380  0.7633 -1.7100
 3268SOL    HW221441   0.241   0.793   6.565 -0.8018  0.4238 -2.2331
 3269SOL     OW21442   2.892   4.348  12.163 -0.3363  0.5755  0.1602
 3269SOL    HW121443   2.945   4.356  12.083  2.0382  0.3749  1.7168
 3269SOL    HW221444   2.916   4.263  12.200  1.1272  2.0188  2.4682
 3270SOL     OW21445   0.786   4.596  14.604  0.0486  0.0853  0.2561
 3270SOL    HW121446   0.739   4.513  14.617  1.2562 -0.4121  1.4518
 3270SOL    HW221447   0.784   4.592  14.508  0.6135  0.4050  0.2346
 3271SOL     OW21448   3.835   3.686  13.100  0.4969 -0.3986 -0.5755
 3271SOL    HW121449   3.928   3.674  13.119  0.7273  4.2678  1.4160
 3271SOL    HW221450   3.789   3.635  13.167  1.3649 -0.0217  0.3040
 3272SOL     OW21451   2.824   3.849  12.882 -0.1386  0.4167  0.0620
 3272SOL    HW121452   2.901   3.872  12.829  0.1909  0.0893  0.4003
 3272SOL    HW221453   2.815   3.755  12.868  1.3420  0.2641  0.1630
 3273SOL     OW21454   2.138   1.549   2.861  0.0985 -0.1437 -0.3710
 3273SOL    HW121455   2.103   1.595   2.938 -0.3546 -1.5618  0.2756
 3273SOL    HW221456   2.232   1.559   2.875 -0.0807  0.5531  0.3506
 3274SOL     OW21457   4.723   2.843  17.153 -0.1323 -0.8327 -0.1237
 3274SOL    HW121458   4.630   2.835  17.133  0.3019 -3.3877 -1.0983
 3274SOL    HW221459   0.002   2.927  17.109 -1.3244 -0.5874 -0.0284
 3275SOL     OW21460   3.580   0.697  15.556 -0.4955 -0.2975 -0.4749
 3275SOL    HW121461   3.634   0.755  15.609 -0.0143 -1.0796 -0.1157
 3275SOL    HW221462   3.647   0.648  15.508  1.1639 -0.4477  2.0375
 3276SOL     OW21463   4.732   0.656   2.682 -0.1236 -0.0985 -0.1242
 3276SOL    HW121464   4.654   0.650   2.627 -0.2301  2.2645 -0.2263
 3276SOL    HW221465   4.697   0.655   2.771 -0.7502 -0.5592 -0.3784
 3277SOL     OW21466   3.414   2.839   7.005 -0.1754  0.3233  0.0651
 3277SOL    HW121467   3.466   2.774   7.053 -0.4517  1.2437  1.6109
 3277SOL    HW221468   3.425   2.824   6.911 -2.4736  1.2848 -0.3598
 3278SOL     OW21469   4.194   2.311   2.550  0.0422 -0.1044  0.5511
 3278SOL    HW121470   4.117   2.357   2.583 -1.4263 -0.8507 -1.9162
 3278SOL    HW221471   4.262   2.332   2.614 -1.5125  1.3275  1.7360
 3279SOL     OW21472   3.373   3.975   1.957  0.2583 -0.0652 -0.5561
 3279SOL    HW121473   3.293   4.013   1.922 -0.1701  0.5824  1.1282
 3279SOL    HW221474   3.430   3.997   1.883 -1.4902  1.3819 -1.4627
 3280SOL     OW21475   2.876   2.590  16.975 -0.0691 -0.2811 -0.1127
 3280SOL    HW121476   2.906   2.618  17.061 -0.7708 -0.8522  0.3103
 3280SOL    HW221477   2.844   2.502  16.993 -0.0187 -0.3114 -0.1717
 3281SOL     OW21478   2.449   0.364   9.576  0.9052 -0.1799 -0.4869
 3281SOL    HW121479   2.524   0.397   9.625 -1.7875  3.2068  1.3712
 3281SOL    HW221480   2.464   0.408   9.492 -2.3402  1.1037 -0.4116
 3282SOL     OW21481   1.276   2.899   2.437  0.3177  0.1907  0.5083
 3282SOL    HW121482   1.269   2.909   2.532  1.0560 -0.8058  0.6685
 3282SOL    HW221483   1.262   2.806   2.422 -2.6864  0.9048 -1.0266
 3283SOL     OW21484   4.351   0.827  13.579 -0.3254  0.4050 -0.1871
 3283SOL    HW121485   4.342   0.880  13.657  0.0652 -1.1017  0.8776
 3283SOL    HW221486   4.392   0.886  13.516  1.1012 -1.4022 -0.9747
 3284SOL     OW21487   0.670   1.463  10.110  0.3241 -0.3209 -0.7400
 3284SOL    HW121488   0.718   1.507  10.040  0.5131  1.3667  0.4371
 3284SOL    HW221489   0.726   1.481  10.185 -0.1036 -0.2910 -0.4317
 3285SOL     OW21490   0.695   2.452   8.746  0.3246 -0.2601  0.3368
 3285SOL    HW121491   0.617   2.484   8.700  0.8050 -0.4821 -0.6343
 3285SOL    HW221492   0.724   2.395   8.674  0.1333 -1.0611  0.8881
 3286SOL     OW21493   3.218   2.217   3.720 -0.1597  0.9772  0.0335
 3286SOL    HW121494   3.275   2.276   3.769 -0.2314  0.1700  1.0943
 3286SOL    HW221495   3.136   2.266   3.712  0.3323  1.6523 -0.8771
 3287SOL     OW21496   3.979   2.392   6.100  0.4863  0.1177 -0.3281
 3287SOL    HW121497   3.985   2.303   6.064 -1.8168  0.0515 -0.5919
 3287SOL    HW221498   3.916   2.376   6.171  0.2304  0.0708 -0.5644
 3288SOL     OW21499   3.349   2.792   4.139 -0.4475  0.1060 -0.4450
 3288SOL    HW121500   3.342   2.875   4.187 -1.0552 -0.3573  0.2644
 3288SOL    HW221501   3.291   2.810   4.065 -1.9722  1.2166  1.0197
 3289SOL     OW21502   2.898   4.487   6.380 -0.3156  0.1238 -0.4313
 3289SOL    HW121503   2.870   4.565   6.427  1.8351  0.2284  0.6587
 3289SOL    HW221504   2.899   4.518   6.289  1.9392 -0.1505 -0.5164
 3290SOL     OW21505   1.832   3.609  17.713  1.3925  0.3693 -0.3188
 3290SOL    HW121506   1.873   3.548  17.652  0.9936  2.4068 -2.6249
 3290SOL    HW221507   1.906   3.625   0.035  1.5571  2.9466 -1.2262
 3291SOL     OW21508   3.663   1.275  14.426  0.0933 -0.0803 -0.0940
 3291SOL    HW121509   3.704   1.362  14.424 -0.5360  0.2656  1.5257
 3291SOL    HW221510   3.572   1.292  14.451 -0.1153  0.7597 -1.4278
 3292SOL     OW21511   1.635   0.752   0.990  0.2404  0.5965  0.2415
 3292SOL    HW121512   1.706   0.763   0.927 -0.3053  2.4788 -0.0382
 3292SOL    HW221513   1.685   0.759   1.072  1.3347 -2.6754 -0.1460
 3293SOL     OW21514   0.363   2.690  14.988 -0.1486 -0.3409  0.4230
 3293SOL    HW121515   0.351   2.701  15.082 -1.4142 -0.2357  0.2395
 3293SOL    HW221516   0.423   2.615  14.980 -0.3679 -0.5418  0.6762
 3294SOL     OW21517   0.973   4.427  10.587  0.5710  0.1972  0.2252
 3294SOL    HW121518   0.914   4.437  10.513 -0.1823  2.3821  1.1277
 3294SOL    HW221519   0.992   4.333  10.578 -0.8673  0.0931 -1.4977
 3295SOL     OW21520   2.321   1.532   7.162 -0.6977  0.7870 -0.6694
 3295SOL    HW121521   2.301   1.613   7.115  2.9384  1.9354 -0.2383
 3295SOL    HW221522   2.310   1.570   7.249  2.0209 -0.8890  0.4043
 3296SOL     OW21523   1.565   1.889   4.932  0.1695 -0.3993 -0.1633
 3296SOL    HW121524   1.581   1.803   4.971  0.2484 -0.5714 -0.5688
 3296SOL    HW221525   1.486   1.866   4.883 -0.3812  1.5503 -0.1794
 3297SOL     OW21526   4.244   3.635   3.584 -0.1945  0.7983 -0.8064
 3297SOL    HW121527   4.270   3.589   3.504  1.8070  0.0093  0.2905
 3297SOL    HW221528   4.313   3.700   3.600  0.8441 -0.5390  0.1171
 3298SOL     OW21529   3.322   3.235   1.324 -0.3374 -0.2118 -0.7568
 3298SOL    HW121530   3.283   3.312   1.282  1.4023  0.3560 -1.3283
 3298SOL    HW221531   3.325   3.266   1.415  4.2445 -1.7393 -0.3844
 3299SOL     OW21532   2.625   2.459  16.664 -0.4161 -0.4213  0.1853
 3299SOL    HW121533   2.576   2.378  16.673  0.4365 -1.2049 -2.2922
 3299SOL    HW221534   2.556   2.526  16.660  0.4042  0.5662  2.4765
 3300SOL     OW21535   1.764   0.718   2.640 -0.2390 -0.4735 -0.1865
 3300SOL    HW121536   1.732   0.805   2.615 -1.0851 -1.0126 -0.9787
 3300SOL    HW221537   1.743   0.711   2.733 -0.4375 -0.2486 -0.2145
 3301SOL     OW21538   4.017   4.251   3.499 -0.3717  0.0103 -0.0333
 3301SOL    HW121539   3.993   4.327   3.447 -0.0351  0.4185  0.4099
 3301SOL    HW221540   4.036   4.193   3.426 -0.0364  0.3435 -0.2076
 3302SOL     OW21541   3.755   2.884   1.626  0.2898  0.3247  0.2932
 3302SOL    HW121542   3.758   2.806   1.570 -3.5624  0.5677 -0.2244
 3302SOL    HW221543   3.842   2.895   1.665  1.6312 -1.2712 -2.2442
 3303SOL     OW21544   1.721   3.662   3.956  0.1434 -0.2453 -0.4688
 3303SOL    HW121545   1.686   3.740   3.913  0.1223 -0.4656 -0.8554
 3303SOL    HW221546   1.659   3.599   3.918 -1.0286  0.2972  0.5277
 3304SOL     OW21547   2.582   3.964   5.021  0.3206  0.3301 -0.6495
 3304SOL    HW121548   2.647   4.033   5.029  0.2080  0.5705 -1.8778
 3304SOL    HW221549   2.514   3.999   5.080 -0.6720 -0.3233 -1.4145
 3305SOL     OW21550   4.378   0.770  16.702 -0.1921  0.1470 -0.4456
 3305SOL    HW121551   4.356   0.677  16.695 -0.3751  0.1531  0.0455
 3305SOL    HW221552   4.341   0.813  16.624  1.3536  0.3212 -1.0723
 3306SOL     OW21553   1.133   3.545   2.035  0.2441  0.3555 -0.0089
 3306SOL    HW121554   1.049   3.520   1.997 -0.6013 -0.3335  2.2973
 3306SOL    HW221555   1.156   3.468   2.086  0.4322  0.1652 -0.3832
 3307SOL     OW21556   4.489   2.171  12.451 -0.0301  0.3033  0.2121
 3307SOL    HW121557   4.478   2.087  12.404  0.1458  0.7648 -0.6548
 3307SOL    HW221558   4.573   2.204  12.418 -0.5493 -0.8228 -2.2786
 3308SOL     OW21559   3.550   2.274  13.335 -0.7161 -0.3769 -0.0527
 3308SOL    HW121560   3.578   2.208  13.271 -1.0623  0.4519 -1.0568
 3308SOL    HW221561   3.560   2.347  13.275 -3.2735  0.1132  0.1267
 3309SOL     OW21562   2.811   4.505   4.241  0.0784 -0.3478  0.4798
 3309SOL    HW121563   2.906   4.497   4.235 -0.1616 -3.3182  0.8174
 3309SOL    HW221564   2.790   4.548   4.158  3.6814  0.6049  0.0847
 3310SOL     OW21565   4.264   3.672   0.671 -0.3705 -0.1706  0.1117
 3310SOL    HW121566   4.235   3.617   0.598 -1.4442  0.9459 -0.3063
 3310SOL    HW221567   4.214   3.749   0.643 -0.2753  0.1934  0.9393
 3311SOL     OW21568   3.780   0.912   2.960 -0.0330 -0.1884  0.0115
 3311SOL    HW121569   3.699   0.861   2.959  0.6490 -1.2753 -1.0185
 3311SOL    HW221570   3.752   0.998   2.931  3.3815  0.8446 -0.2500
 3312SOL     OW21571   2.526   1.709   3.868  0.3217 -0.1441 -0.4890
 3312SOL    HW121572   2.596   1.773   3.860 -0.4809  0.7909  0.0060
 3312SOL    HW221573   2.540   1.649   3.794 -0.2151  1.3023 -1.7559
 3313SOL     OW21574   2.286   1.603  14.252  0.5192  0.1446  0.6370
 3313SOL    HW121575   2.268   1.529  14.309  1.0285 -0.9587 -0.6404
 3313SOL    HW221576   2.306   1.671  14.316 -1.3274 -1.5167  2.9534
 3314SOL     OW21577   1.384   2.225  16.188  0.7668  0.0723  0.2896
 3314SOL    HW121578   1.463   2.185  16.150  1.5420  0.7898  1.1400
 3314SOL    HW221579   1.415   2.248  16.275 -0.9618 -2.0618  1.4598
 3315SOL     OW21580   1.686   1.644  14.978  0.4491  0.3020  0.5349
 3315SOL    HW121581   1.607   1.630  14.925  0.4398  1.1774  0.3227
 3315SOL    HW221582   1.741   1.683  14.911  0.1111  0.2750  0.2376
 3316SOL     OW21583   2.592   3.902   8.727 -0.7666  0.0888 -0.4991
 3316SOL    HW121584   2.637   3.904   8.642  1.8128  1.4318  0.9138
 3316SOL    HW221585   2.624   3.982   8.769 -2.5969 -0.4297  1.8758
 3317SOL     OW21586   2.577   2.185   0.849  0.1983  0.3534 -0.2403
 3317SOL    HW121587   2.631   2.132   0.908  1.1467  2.8311  1.1079
 3317SOL    HW221588   2.548   2.117   0.788 -0.1785 -0.5216  0.9148
 3318SOL     OW21589   1.769   1.267   3.197  0.3634  0.4455  0.3138
 3318SOL    HW121590   1.833   1.219   3.251  1.8070  2.1918  0.1247
 3318SOL    HW221591   1.824   1.306   3.130  1.3717  1.0807  1.5134
 3319SOL     OW21592   4.529   3.817   0.662 -0.7003 -0.2030  0.0947
 3319SOL    HW121593   4.569   3.772   0.737 -0.9848  0.6463  0.7517
 3319SOL    HW221594   4.446   3.770   0.658  0.0262 -1.4262 -0.8932
 3320SOL     OW21595   4.048   3.253   4.641  0.1224 -0.4868  0.3184
 3320SOL    HW121596   3.984   3.183   4.630  0.0292 -0.2909 -0.3772
 3320SOL    HW221597   4.068   3.284   4.552  0.2605  1.9932  1.2018
 3321SOL     OW21598   2.093   3.804   8.064 -0.0857  0.2036  0.1597
 3321SOL    HW121599   2.014   3.773   8.021  0.0896  0.9883 -0.7346
 3321SOL    HW221600   2.156   3.753   8.013  1.3504  1.7091  0.3842
 3322SOL     OW21601   4.655   2.694   8.670  0.2228 -0.3235  0.5476
 3322SOL    HW121602   4.607   2.777   8.665 -0.2165 -0.5691  0.6836
 3322SOL    HW221603   4.616   2.628   8.614 -0.3013 -2.4108  3.3602
 3323SOL     OW21604   4.526   3.623   2.203 -0.6156  0.3333 -0.0555
 3323SOL    HW121605   4.467   3.562   2.247 -0.3099  0.0742 -0.0045
 3323SOL    HW221606   4.605   3.570   2.193  1.1864  3.0144  0.0276
 3324SOL     OW21607   0.644   1.134   9.313  0.0436  0.2517  0.0999
 3324SOL    HW121608   0.642   1.039   9.300 -0.3853  0.3098 -0.2517
 3324SOL    HW221609   0.550   1.143   9.324 -0.2902 -2.1614 -0.9196
 3325SOL     OW21610   0.288   4.569   5.428  0.5849  0.4223 -0.3516
 3325SOL    HW121611   0.316   4.500   5.488 -0.4869  0.2307 -0.0754
 3325SOL    HW221612   0.227   4.516   5.376 -0.6280  0.7230  0.7592
 3326SOL     OW21613   2.940   0.208   5.365  0.4827  0.1221 -0.2894
 3326SOL    HW121614   2.851   0.243   5.374  1.0439  1.6175 -0.6039
 3326SOL    HW221615   2.983   0.218   5.450 -2.6098 -2.6545  1.6252
 3327SOL     OW21616   1.201   2.296   7.924  0.1598  0.3528 -0.0706
 3327SOL    HW121617   1.210   2.214   7.973 -2.3588  1.2349  1.8957
 3327SOL    HW221618   1.131   2.326   7.983 -1.3613  0.1774 -1.7938
 3328SOL     OW21619   1.532   1.455   3.815 -0.5285  0.0346 -0.1270
 3328SOL    HW121620   1.465   1.501   3.766 -0.8155  2.6761  2.7887
 3328SOL    HW221621   1.517   1.457   3.909  0.3944  2.1267 -0.0171
 3329SOL     OW21622   1.093   0.285   8.827 -0.2508 -0.0337 -0.3224
 3329SOL    HW121623   1.113   0.378   8.836  1.1104 -0.1807 -1.6969
 3329SOL    HW221624   1.164   0.242   8.875  0.5383  0.3248 -1.1678
 3330SOL     OW21625   0.909   2.452   8.339  0.3269 -0.0079  0.6550
 3330SOL    HW121626   0.823   2.428   8.373  0.6563 -1.3353  0.5417
 3330SOL    HW221627   0.893   2.546   8.332 -1.6989 -0.2539  1.9190
 3331SOL     OW21628   1.167   4.108   6.335  0.1687  0.2177 -0.4008
 3331SOL    HW121629   1.189   4.201   6.342  1.2505 -0.0602 -0.0877
 3331SOL    HW221630   1.185   4.079   6.424 -0.1546 -1.2763 -0.8294
 3332SOL     OW21631   0.994   3.097   0.228  0.0610 -0.2659  0.1362
 3332SOL    HW121632   1.068   3.111   0.168  1.8279 -1.0330  2.1119
 3332SOL    HW221633   1.004   3.002   0.230  0.0071 -0.2834 -0.5579
 3333SOL     OW21634   2.054   2.263   8.815  0.1212 -0.3292  0.3862
 3333SOL    HW121635   2.146   2.243   8.833  0.5010  1.1518  0.0495
 3333SOL    HW221636   2.060   2.349   8.774  2.0633 -1.7732 -2.3735
 3334SOL     OW21637   1.341   1.443   8.540  0.1152 -0.0004 -0.2257
 3334SOL    HW121638   1.254   1.477   8.560  0.5927  0.1073  1.6697
 3334SOL    HW221639   1.382   1.526   8.514  1.7518 -0.5922  0.4347
 3335SOL     OW21640   2.634   1.937   6.510  0.2788 -0.0370  0.2658
 3335SOL    HW121641   2.576   1.931   6.586  0.7995 -2.1813  0.5068
 3335SOL    HW221642   2.710   1.886   6.539  0.5592  0.5902  0.6329
 3336SOL     OW21643   0.755   0.805  12.285 -0.8527 -0.5469 -0.2476
 3336SOL    HW121644   0.712   0.753  12.217 -0.3138 -1.5818  0.2066
 3336SOL    HW221645   0.780   0.740  12.350  0.2890  1.2403  1.0964
 3337SOL     OW21646   1.416   0.667   9.590 -0.4494 -0.2719  0.2216
 3337SOL    HW121647   1.392   0.575   9.599 -1.1634 -0.1040  0.1037
 3337SOL    HW221648   1.466   0.687   9.668  2.7532 -2.4627 -1.2890
 3338SOL     OW21649   2.947   2.471   9.019 -0.6477 -0.7276 -0.6342
 3338SOL    HW121650   3.041   2.490   9.021 -0.4095 -1.9867 -0.2496
 3338SOL    HW221651   2.912   2.526   9.090  1.2895  1.3818 -1.3150
 3339SOL     OW21652   2.426   2.234   9.800  0.1723 -0.4124  0.2283
 3339SOL    HW121653   2.392   2.273   9.881  1.6561 -1.6511  1.4482
 3339SOL    HW221654   2.491   2.304   9.787  0.0917 -0.0164  1.9733
 3340SOL     OW21655   0.472   3.305   2.473  0.8467  0.2575 -0.1882
 3340SOL    HW121656   0.516   3.328   2.392  1.1946  1.4972  0.3551
 3340SOL    HW221657   0.441   3.389   2.505 -0.4044  0.7967 -2.8805
 3341SOL     OW21658   2.951   1.319   3.156 -0.5621 -0.3030 -0.0143
 3341SOL    HW121659   3.011   1.318   3.230 -1.5897 -1.6008  0.8070
 3341SOL    HW221660   2.869   1.359   3.185 -1.4998 -0.6086 -2.1628
 3342SOL     OW21661   0.804   0.090   5.274  0.2147  0.6652 -0.3145
 3342SOL    HW121662   0.874   0.025   5.267 -0.5645 -0.2912  0.7740
 3342SOL    HW221663   0.728   0.038   5.252 -0.0335 -0.1915  2.4992
 3343SOL     OW21664   1.666   3.708   9.464  0.3848  0.3343  0.4064
 3343SOL    HW121665   1.588   3.708   9.520 -1.9362 -0.4540 -2.8472
 3343SOL    HW221666   1.738   3.700   9.526 -0.2804 -2.6775  0.8102
 3344SOL     OW21667   3.668   2.471   4.573  0.2183 -0.5933  0.1603
 3344SOL    HW121668   3.723   2.447   4.499  0.3380  0.2058 -0.0114
 3344SOL    HW221669   3.610   2.534   4.529 -0.8025 -0.6301  1.4599
 3345SOL     OW21670   1.025   2.364  13.350 -0.2111 -0.2708 -0.8730
 3345SOL    HW121671   1.008   2.435  13.412 -0.4174  0.1932 -1.4563
 3345SOL    HW221672   0.953   2.374  13.288 -0.9762 -0.0091  0.0489
 3346SOL     OW21673   0.657   0.704   1.374  0.0423 -0.0162  0.3951
 3346SOL    HW121674   0.565   0.696   1.348 -0.7401  0.0390  3.1935
 3346SOL    HW221675   0.642   0.689   1.467 -0.1427  2.3371  0.7384
 3347SOL     OW21676   1.326   0.643   3.089 -0.0052 -0.1196 -0.3400
 3347SOL    HW121677   1.256   0.582   3.112  0.3620  0.1005  1.3135
 3347SOL    HW221678   1.308   0.718   3.145  2.5436  0.2193  0.0192
 3348SOL     OW21679   2.129   0.379  15.861 -0.0009  0.0828  0.0200
 3348SOL    HW121680   2.099   0.295  15.897 -1.2295  1.0430  1.2164
 3348SOL    HW221681   2.102   0.434  15.935 -1.4239  2.6514 -2.4181
 3349SOL     OW21682   4.730   3.769   4.681 -0.4914 -0.2120 -0.8809
 3349SOL    HW121683   0.064   3.710   4.651 -0.2557  0.0385 -0.8328
 3349SOL    HW221684   0.024   3.779   4.771 -1.1548  2.9117 -1.0119
 3350SOL     OW21685   1.790   1.755   5.819 -0.1337  0.1404 -0.0338
 3350SOL    HW121686   1.777   1.800   5.902  0.7332  1.0693 -0.3865
 3350SOL    HW221687   1.779   1.820   5.749 -1.2194 -2.9290 -2.7421
 3351SOL     OW21688   4.625   3.348   8.182 -0.0968  0.2233 -0.1588
 3351SOL    HW121689   4.558   3.391   8.128 -0.0630  0.1057 -0.2933
 3351SOL    HW221690   4.575   3.344   8.263 -0.5111 -0.7180 -0.4539
 3352SOL     OW21691   4.458   3.912   2.149  0.3107  0.2944 -0.1099
 3352SOL    HW121692   4.483   3.823   2.174 -0.1186  0.1870 -0.0739
 3352SOL    HW221693   4.508   3.928   2.068 -0.2501 -1.4328 -0.7838
 3353SOL     OW21694   4.620   4.558   9.551  0.0204  0.1162  0.1422
 3353SOL    HW121695   4.688   4.491   9.542 -0.3486 -0.0761 -1.2410
 3353SOL    HW221696   4.567   4.524   9.624  3.0780 -1.7176  1.4679
 3354SOL     OW21697   0.716   1.907   2.143  0.3765  0.0538 -0.5008
 3354SOL    HW121698   0.780   1.876   2.207  0.5612  0.0933 -0.6666
 3354SOL    HW221699   0.717   1.839   2.075 -0.4526  0.4373 -0.8987
 3355SOL     OW21700   1.905   4.308   9.973 -0.6523  0.3349 -0.3911
 3355SOL    HW121701   1.998   4.315   9.992 -0.2637 -3.0626 -1.1168
 3355SOL    HW221702   1.899   4.255   9.893 -1.1836 -0.0133 -0.1194
 3356SOL     OW21703   1.706   2.641   1.601  0.4715 -0.2149  0.0792
 3356SOL    HW121704   1.746   2.558   1.575 -2.3343 -1.3617 -0.4976
 3356SOL    HW221705   1.772   2.696   1.558  1.0822  0.9634  2.5195
 3357SOL     OW21706   0.011   1.334   5.996 -0.1092  0.2843  0.0893
 3357SOL    HW121707   0.067   1.256   5.990 -0.6710  0.0103 -1.4578
 3357SOL    HW221708   4.662   1.290   5.987  0.3850 -0.6709  0.1584
 3358SOL     OW21709   2.444   4.653   3.559 -0.2126 -0.4816 -0.1130
 3358SOL    HW121710   2.531   4.689   3.577 -0.5924  1.2699 -1.8224
 3358SOL    HW221711   2.458   4.602   3.480 -1.0619  0.2991 -0.7664
 3359SOL     OW21712   3.838   3.988   3.560  0.5577  0.1779  0.2532
 3359SOL    HW121713   3.887   3.916   3.519 -1.3295 -1.1828  0.3746
 3359SOL    HW221714   3.874   4.057   3.506  1.3152 -0.2621  0.1929
 3360SOL     OW21715   1.849   2.588   3.791 -0.7249 -0.0916 -0.0115
 3360SOL    HW121716   1.774   2.562   3.846 -2.2758  2.0742 -1.1130
 3360SOL    HW221717   1.809   2.619   3.711 -0.5181 -0.5384 -0.2904
 3361SOL     OW21718   4.378   0.179   7.247  0.3410 -0.6478  0.2406
 3361SOL    HW121719   4.303   0.152   7.300  0.1058 -0.8335 -0.1810
 3361SOL    HW221720   4.456   0.151   7.294  0.5809 -0.5686 -0.1063
 3362SOL     OW21721   2.145   2.780   4.850 -0.4248  0.3971 -0.2192
 3362SOL    HW121722   2.057   2.745   4.837 -0.1329 -0.0996 -0.8429
 3362SOL    HW221723   2.139   2.818   4.938  0.3267 -0.4814  0.2152
 3363SOL     OW21724   0.707   1.018  17.164 -0.6287  0.0184 -0.2549
 3363SOL    HW121725   0.776   1.083  17.154 -0.5745 -0.2476 -1.6136
 3363SOL    HW221726   0.658   1.035  17.083  0.1702  0.7591 -0.5783
 3364SOL     OW21727   0.311   2.553   1.965  0.0833 -0.3199  0.5862
 3364SOL    HW121728   0.333   2.469   2.006  0.7999 -0.1787  0.4882
 3364SOL    HW221729   0.389   2.568   1.912  0.3311  2.2209  1.6832
 3365SOL     OW21730   4.503   4.392   3.005 -0.1353  0.3275 -0.1432
 3365SOL    HW121731   4.481   4.480   2.975  1.9861  0.7567 -0.4896
 3365SOL    HW221732   4.451   4.337   2.948  0.8948  1.7368 -2.4535
 3366SOL     OW21733   0.277   1.478  15.757  0.6082 -0.7299  0.2108
 3366SOL    HW121734   0.302   1.502  15.667  1.1431  0.7155  0.7362
 3366SOL    HW221735   0.340   1.520  15.816  0.7467 -0.5297 -0.0778
 3367SOL     OW21736   2.279   4.510  12.636 -0.2124  0.7732 -0.2039
 3367SOL    HW121737   2.234   4.518  12.551  0.0802 -0.1440 -0.4458
 3367SOL    HW221738   2.337   4.441  12.605  0.3981  1.4833 -0.6456
 3368SOL     OW21739   2.081   1.056  10.529 -0.0317 -0.0419 -0.4133
 3368SOL    HW121740   2.136   0.996  10.479 -0.9692 -1.3225  0.1115
 3368SOL    HW221741   2.111   1.030  10.616  0.0569 -1.1980 -0.7915
 3369SOL     OW21742   3.658   4.365   3.095 -0.4950 -0.1959 -0.0518
 3369SOL    HW121743   3.630   4.275   3.080 -1.3658 -0.2585  1.9532
 3369SOL    HW221744   3.692   4.385   3.008 -2.8710 -1.1732 -1.2018
 3370SOL     OW21745   2.197   0.793   5.613 -0.5373 -0.4174 -0.1784
 3370SOL    HW121746   2.155   0.867   5.659  1.4380  0.5862 -0.0048
 3370SOL    HW221747   2.224   0.841   5.535  1.0728  0.3276  0.8461
 3371SOL     OW21748   2.708   1.479   3.477  0.3229 -0.1053 -0.3139
 3371SOL    HW121749   2.680   1.466   3.568 -1.0537 -0.8386 -0.8329
 3371SOL    HW221750   2.794   1.518   3.487  0.7748 -1.2417  0.2795
 3372SOL     OW21751   2.721   1.499   2.507 -0.7637  0.0463 -0.0940
 3372SOL    HW121752   2.781   1.494   2.582 -2.4428  1.0561  1.2993
 3372SOL    HW221753   2.693   1.589   2.525 -1.0893  0.2347 -1.6101
 3373SOL     OW21754   2.944   0.749   2.205  0.2905 -0.1149  0.2579
 3373SOL    HW121755   2.962   0.838   2.237  1.0841 -0.6411  1.2733
 3373SOL    HW221756   3.010   0.694   2.248  0.4635 -0.5783 -0.5981
 3374SOL     OW21757   2.994   1.244   1.892  0.4961  0.1137  0.0880
 3374SOL    HW121758   3.072   1.189   1.880  0.3767 -0.4577  1.8372
 3374SOL    HW221759   3.014   1.310   1.825 -0.8428 -0.0088 -0.4181
 3375SOL     OW21760   0.929   1.213  17.103  0.3542  0.0578  0.3902
 3375SOL    HW121761   0.953   1.273  17.033 -1.2371  1.2685  0.8857
 3375SOL    HW221762   0.848   1.255  17.130 -0.2019  0.1405 -1.4356
 3376SOL     OW21763   2.273   2.469   7.298  0.0839 -0.0445  0.1926
 3376SOL    HW121764   2.210   2.496   7.364 -0.9740 -0.1343 -0.7792
 3376SOL    HW221765   2.212   2.457   7.225 -0.6350  0.1779  0.7597
 3377SOL     OW21766   3.148   3.833  17.448 -0.2526  0.2592  0.0422
 3377SOL    HW121767   3.105   3.801  17.368 -1.1431  2.4867 -0.3718
 3377SOL    HW221768   3.208   3.898  17.413 -0.6143 -0.1055 -1.2769
 3378SOL     OW21769   1.167   2.421   8.498  0.1916 -0.8054 -0.0686
 3378SOL    HW121770   1.207   2.401   8.413  2.8327  0.3024  0.9082
 3378SOL    HW221771   1.077   2.446   8.478  0.8671 -0.8806 -3.2337
 3379SOL     OW21772   2.376   2.783   3.211  1.0225  0.1047 -0.6938
 3379SOL    HW121773   2.385   2.689   3.198 -0.8585 -0.3299  1.0891
 3379SOL    HW221774   2.460   2.803   3.252  1.7583  0.2465 -2.2699
 3380SOL     OW21775   0.189   2.496  14.909  0.6452 -0.1222  0.0116
 3380SOL    HW121776   0.233   2.573  14.945  2.6468 -0.4363 -1.7598
 3380SOL    HW221777   0.227   2.480  14.823 -1.4290  1.0866 -1.1201
 3381SOL     OW21778   2.951   0.327   7.614 -0.2770 -0.1089  0.1065
 3381SOL    HW121779   2.971   0.411   7.657 -1.4247  0.4080 -0.3585
 3381SOL    HW221780   3.000   0.263   7.666 -1.0604 -1.1524 -0.4524
 3382SOL     OW21781   4.054   0.776   8.205 -0.0011  0.0478  0.2659
 3382SOL    HW121782   4.024   0.713   8.272  0.2639 -1.1757 -0.7662
 3382SOL    HW221783   4.146   0.751   8.211 -0.0419 -0.0175  0.6218
 3383SOL     OW21784   4.513   0.564   8.625  0.4344 -0.5617 -0.6507
 3383SOL    HW121785   4.491   0.626   8.694 -1.4152 -0.0403 -1.7307
 3383SOL    HW221786   4.465   0.610   8.557 -0.7855 -2.3922 -0.9973
 3384SOL     OW21787   1.161   2.100  16.863  0.1219  0.1028 -0.0183
 3384SOL    HW121788   1.183   2.063  16.949  1.8343  1.6502  0.2082
 3384SOL    HW221789   1.166   2.194  16.874  2.0912 -0.1147  0.9926
 3385SOL     OW21790   4.440   3.199  13.164 -0.5132 -0.0792  0.2134
 3385SOL    HW121791   4.427   3.211  13.258  0.7816  0.4401  0.3254
 3385SOL    HW221792   4.499   3.124  13.160  0.7971  0.9842 -0.8170
 3386SOL     OW21793   1.826   3.512   4.343  0.2356 -0.3169 -0.0513
 3386SOL    HW121794   1.864   3.546   4.262 -0.4029 -0.6140 -0.4748
 3386SOL    HW221795   1.750   3.570   4.345 -0.1002 -0.7401 -0.5314
 3387SOL     OW21796   4.249   4.157   7.904  0.4104 -0.5754 -0.3487
 3387SOL    HW121797   4.181   4.123   7.846  0.7749  2.4190 -2.5787
 3387SOL    HW221798   4.192   4.182   7.977 -0.1045 -2.0365 -0.2555
 3388SOL     OW21799   3.975   3.848   8.131 -0.2938 -0.0191 -0.1752
 3388SOL    HW121800   3.895   3.842   8.079 -1.3581 -2.9976  1.7817
 3388SOL    HW221801   4.040   3.803   8.078  0.4278  1.1987 -0.3194
 3389SOL     OW21802   4.282   1.481   8.263  0.5223  0.0873  0.5373
 3389SOL    HW121803   4.197   1.482   8.306  0.9063 -0.4466  1.3062
 3389SOL    HW221804   4.321   1.401   8.296  0.2798  0.2777  1.2847
 3390SOL     OW21805   0.785   3.793   3.210  0.4821 -0.3747  0.4517
 3390SOL    HW121806   0.828   3.798   3.125 -0.2137 -1.2354  0.0491
 3390SOL    HW221807   0.859   3.807   3.269  1.1768  2.3302 -1.0873
 3391SOL     OW21808   1.061   0.785   8.903  0.3382  0.3391  0.0215
 3391SOL    HW121809   1.109   0.852   8.952  0.8619  0.6010 -0.8469
 3391SOL    HW221810   0.973   0.821   8.908  0.0269 -0.5114  0.6176
 3392SOL     OW21811   3.258   2.560   0.613 -0.2884  0.2457 -0.7997
 3392SOL    HW121812   3.173   2.535   0.576 -0.1756  0.8121 -1.4449
 3392SOL    HW221813   3.224   2.634   0.663 -0.3774 -0.9746  0.9552
 3393SOL     OW21814   1.700   1.119   4.443 -0.6455 -0.0669  0.1647
 3393SOL    HW121815   1.714   1.033   4.482  1.1731 -0.1412 -0.6358
 3393SOL    HW221816   1.690   1.168   4.524 -2.9188  0.2652 -0.3030
 3394SOL     OW21817   1.681   2.815   7.473  0.6764 -0.1741  0.2504
 3394SOL    HW121818   1.687   2.841   7.381 -1.7254 -0.7022 -0.0648
 3394SOL    HW221819   1.662   2.722   7.468  0.1683 -0.0191 -0.6473
 3395SOL     OW21820   0.836   1.264   6.920  0.2837  0.1182 -0.4457
 3395SOL    HW121821   0.866   1.334   6.978 -1.2793  0.4163 -0.0138
 3395SOL    HW221822   0.759   1.225   6.961  0.2291  0.4307 -0.2529
 3396SOL     OW21823   3.239   3.357   8.655 -0.6768 -0.0770  0.4909
 3396SOL    HW121824   3.254   3.283   8.714  0.7158  1.1198  1.6216
 3396SOL    HW221825   3.245   3.310   8.571  2.4652 -2.2156  1.9432
 3397SOL     OW21826   0.240   3.537   8.526 -0.0642  0.5669  0.0937
 3397SOL    HW121827   0.191   3.522   8.607 -2.5497 -1.5834 -1.8097
 3397SOL    HW221828   0.190   3.486   8.462 -1.5862  1.5509  0.4823
 3398SOL     OW21829   4.258   3.288   0.294 -0.5206  0.3213  0.0213
 3398SOL    HW121830   4.217   3.274   0.209  0.5392 -2.7403  0.0460
 3398SOL    HW221831   4.233   3.216   0.352  0.5286 -0.7433 -0.8542
 3399SOL     OW21832   1.113   3.516   9.461 -0.5776 -0.6690  0.7756
 3399SOL    HW121833   1.182   3.488   9.521  0.4190  1.8452  0.8120
 3399SOL    HW221834   1.147   3.603   9.441  0.9503 -1.4921 -0.1892
 3400SOL     OW21835   3.583   3.912   8.217 -0.4690  0.2695 -0.3378
 3400SOL    HW121836   3.556   3.949   8.302 -0.6338 -1.0401  0.1836
 3400SOL    HW221837   3.638   3.841   8.252 -0.7750 -0.8326 -2.1093
 3401SOL     OW21838   1.749   0.869   8.273  0.1085  0.8252  0.3170
 3401SOL    HW121839   1.837   0.902   8.293  0.4063  0.5495 -0.5561
 3401SOL    HW221840   1.734   0.844   8.364  0.1714  0.1274  0.1379
 3402SOL     OW21841   3.366   1.103   5.939 -0.2479 -0.0145  1.3236
 3402SOL    HW121842   3.337   1.031   5.995  1.7648 -1.0900  0.9820
 3402SOL    HW221843   3.445   1.062   5.903 -0.4083  0.3289  0.5805
 3403SOL     OW21844   2.251   4.245   7.896  0.0443 -0.4234  0.0892
 3403SOL    HW121845   2.256   4.333   7.857 -2.5113 -0.1828  0.3215
 3403SOL    HW221846   2.268   4.266   7.988  2.5511  2.2482 -0.9776
 3404SOL     OW21847   1.559   0.163   9.697  0.2283  0.3452  0.2435
 3404SOL    HW121848   1.561   0.067   9.690 -2.1603  0.3472 -0.5508
 3404SOL    HW221849   1.528   0.165   9.787 -2.4247 -4.1110 -0.5849
 3405SOL     OW21850   1.464   1.034   9.306 -0.0416  0.0252 -0.1271
 3405SOL    HW121851   1.531   0.969   9.327 -0.2576  0.0847  0.7688
 3405SOL    HW221852   1.443   1.073   9.391 -0.4395 -2.2399  0.8166
 3406SOL     OW21853   1.783   0.554   0.526  0.1182 -0.1079 -0.7142
 3406SOL    HW121854   1.776   0.630   0.584 -1.6919 -0.0298 -1.0354
 3406SOL    HW221855   1.804   0.481   0.585 -0.5906  1.8944  1.9905
 3407SOL     OW21856   4.673   4.391   1.553  0.0522 -0.2074  0.4383
 3407SOL    HW121857   0.016   4.399   1.608 -0.7908 -1.5105  1.8229
 3407SOL    HW221858   4.638   4.478   1.573 -1.0511 -0.3617 -0.8877
 3408SOL     OW21859   1.897   0.419   9.989  0.1291  0.3089 -0.4949
 3408SOL    HW121860   1.883   0.325  10.000  1.3926  0.0811 -0.8840
 3408SOL    HW221861   1.935   0.454  10.069  2.0161 -0.6497 -0.9756
 3409SOL     OW21862   0.652   2.972   7.323 -0.3305  0.1916  0.0924
 3409SOL    HW121863   0.748   2.978   7.324 -0.3557  0.7030 -0.3667
 3409SOL    HW221864   0.630   2.982   7.230  0.9190 -0.2238 -0.2590
 3410SOL     OW21865   1.600   0.230   6.014  0.1014 -0.4723 -0.2139
 3410SOL    HW121866   1.639   0.188   6.090 -1.5947 -0.7959  0.4808
 3410SOL    HW221867   1.527   0.274   6.058  0.2309 -0.9244  0.4516
 3411SOL     OW21868   4.019   3.435  12.090 -0.1600 -0.3073  0.1155
 3411SOL    HW121869   3.999   3.514  12.141  1.4207 -0.3642  0.8370
 3411SOL    HW221870   4.089   3.397  12.143  0.4620  0.5447 -0.0906
 3412SOL     OW21871   4.595   1.876   6.913  0.4340  0.1619  0.0699
 3412SOL    HW121872   4.538   1.904   6.841 -0.7282 -2.0586  0.1378
 3412SOL    HW221873   4.655   1.815   6.870  1.3920  1.5994 -0.6331
 3413SOL     OW21874   0.641   2.730   5.102 -0.2854  0.3180 -0.0936
 3413SOL    HW121875   0.663   2.821   5.121  0.8086  0.2888 -1.2287
 3413SOL    HW221876   0.691   2.669   5.156 -0.7597 -0.2940 -0.3415
 3414SOL     OW21877   2.125   0.766   4.245 -0.2838  0.1370 -0.6440
 3414SOL    HW121878   2.087   0.678   4.239  0.3436 -0.1289 -0.6978
 3414SOL    HW221879   2.204   0.754   4.297 -0.3370  0.8658 -0.3960
 3415SOL     OW21880   4.258   4.600   5.847  0.0206 -0.5905  0.6763
 3415SOL    HW121881   4.287   4.578   5.936  3.6893 -0.7530 -0.5791
 3415SOL    HW221882   4.206   4.520   5.840 -0.3034 -0.4182  1.0860
 3416SOL     OW21883   1.203   0.040  16.937  0.2070 -0.1266  0.0692
 3416SOL    HW121884   1.215   0.086  16.854 -1.1223  0.4991  0.2291
 3416SOL    HW221885   1.180   4.689  16.902 -2.0293  0.8899 -0.9327
 3417SOL     OW21886   4.697   0.819   5.880  0.4166  0.3965  0.1974
 3417SOL    HW121887   4.640   0.885   5.841 -0.0184  0.0169  0.1891
 3417SOL    HW221888   0.053   0.843   5.858  1.1606 -1.0198  1.7628
 3418SOL     OW21889   2.362   0.684   1.908 -0.3682 -0.3270 -0.2690
 3418SOL    HW121890   2.354   0.619   1.978  0.1379  1.0293  1.0616
 3418SOL    HW221891   2.276   0.676   1.869 -0.3977 -0.2944 -0.2109
 3419SOL     OW21892   4.368   0.495   4.935  0.2979 -0.5104  0.3688
 3419SOL    HW121893   4.392   0.446   5.014  1.0917  0.0671  0.4887
 3419SOL    HW221894   4.393   0.581   4.970  0.1953 -0.5964  0.6572
 3420SOL     OW21895   0.009   2.238   8.373 -0.4326  0.0013  0.6920
 3420SOL    HW121896   0.071   2.309   8.357  2.0702 -2.7039 -1.5114
 3420SOL    HW221897   4.679   2.239   8.302 -2.3286 -0.4950  2.4064
 3421SOL     OW21898   2.377   3.202  10.869  0.0442  0.4344  0.2009
 3421SOL    HW121899   2.449   3.264  10.878  0.3367  0.1536 -0.2242
 3421SOL    HW221900   2.423   3.118  10.865 -0.2186  0.2223  1.6183
 3422SOL     OW21901   0.465   3.296   0.593 -0.1467  0.0243 -0.1655
 3422SOL    HW121902   0.393   3.360   0.585 -0.5813 -0.0038  3.2936
 3422SOL    HW221903   0.534   3.347   0.551  2.2490 -1.8678  1.4960
 3423SOL     OW21904   1.252   3.191  15.183  0.4942 -0.0042  0.2310
 3423SOL    HW121905   1.219   3.254  15.247  2.5973 -0.6710  1.9501
 3423SOL    HW221906   1.220   3.109  15.219 -2.5076  1.1088  0.1373
 3424SOL     OW21907   2.942   1.393   4.575  0.1139 -0.3552  0.0951
 3424SOL    HW121908   2.987   1.315   4.607 -0.1500 -0.9738 -1.0188
 3424SOL    HW221909   2.879   1.360   4.511  0.4813  0.5289 -0.7275
 3425SOL     OW21910   2.662   2.773   0.867  0.3906  0.4973 -0.5181
 3425SOL    HW121911   2.571   2.748   0.849  0.4451 -0.9771  1.3638
 3425SOL    HW221912   2.688   2.778   0.775 -0.8341  1.2936 -0.8332
 3426SOL     OW21913   3.177   3.586   1.903 -0.0461 -0.1311 -0.0510
 3426SOL    HW121914   3.102   3.574   1.844  0.5917 -0.2870 -0.8198
 3426SOL    HW221915   3.139   3.539   1.978  1.5762 -0.5491  0.5125
 3427SOL     OW21916   3.046   3.182  16.654  0.3841  0.2899 -0.3664
 3427SOL    HW121917   3.023   3.179  16.747  2.8733  0.1250  0.2613
 3427SOL    HW221918   2.973   3.217  16.604 -0.7150 -1.1277  0.2582
 3428SOL     OW21919   4.137   0.620   9.549  0.1671 -0.0381  0.0466
 3428SOL    HW121920   4.221   0.576   9.538 -0.3256 -1.2468  1.1918
 3428SOL    HW221921   4.124   0.650   9.459  1.1723 -2.3400 -0.8597
 3429SOL     OW21922   4.696   4.658   7.038  0.2325  0.2665 -0.7528
 3429SOL    HW121923   4.706   4.605   7.117 -2.0050 -1.2285 -1.4964
 3429SOL    HW221924   4.658   4.599   6.974 -0.3061 -2.2546  1.9174
 3430SOL     OW21925   2.580   2.565  12.549  0.6657 -0.2043 -0.3257
 3430SOL    HW121926   2.546   2.511  12.477  0.0272 -0.1448 -0.0665
 3430SOL    HW221927   2.496   2.598  12.582  0.1433  0.3960 -2.2316
 3431SOL     OW21928   3.148   2.890   1.585 -0.2524 -0.7596  0.6457
 3431SOL    HW121929   3.059   2.855   1.588 -0.8582  0.6931 -0.4281
 3431SOL    HW221930   3.150   2.915   1.493  0.3732  0.8607  1.1040
 3432SOL     OW21931   3.662   3.301   2.281  0.1170 -0.5514 -0.0063
 3432SOL    HW121932   3.677   3.351   2.201 -0.3355  0.7907  0.7447
 3432SOL    HW221933   3.575   3.266   2.267 -0.8738  2.0134 -0.2457
 3433SOL     OW21934   0.883   2.292   2.406 -0.0288  0.1338  0.2608
 3433SOL    HW121935   0.840   2.326   2.328 -0.9350  2.1521  1.6311
 3433SOL    HW221936   0.805   2.270   2.456  1.5927 -1.3314  2.1515
 3434SOL     OW21937   3.048   4.418   5.174  0.3800  0.1255 -0.6241
 3434SOL    HW121938   2.963   4.382   5.200  1.0802 -0.4865  0.7917
 3434SOL    HW221939   3.094   4.431   5.256 -0.4026 -1.1610  0.0234
 3435SOL     OW21940   3.304   3.563   9.482  0.2120  0.0278 -0.6758
 3435SOL    HW121941   3.274   3.647   9.518  1.5280 -0.3857  1.3945
 3435SOL    HW221942   3.399   3.571   9.490  0.1592 -0.2605  0.2795
 3436SOL     OW21943   4.384   3.065   5.513  0.3184  0.4518  0.0213
 3436SOL    HW121944   4.299   3.038   5.547  0.5891 -4.1202 -2.7997
 3436SOL    HW221945   4.364   3.157   5.500 -0.5783  0.0386 -1.6231
 3437SOL     OW21946   2.108   1.829   6.353 -0.3986  0.3868  0.4167
 3437SOL    HW121947   2.139   1.741   6.375  0.3362  0.6303  0.3683
 3437SOL    HW221948   2.094   1.822   6.258  0.1253 -3.1502  0.5962
 3438SOL     OW21949   1.891   0.070   8.969  0.0610 -0.0325  0.2759
 3438SOL    HW121950   1.966   0.013   8.986  0.8324  0.0925 -2.7336
 3438SOL    HW221951   1.932   0.150   8.938 -1.6476  0.3132 -1.0702
 3439SOL     OW21952   0.466   2.572  17.318  0.1419  0.2772 -0.6184
 3439SOL    HW121953   0.429   2.517  17.250  3.0980 -1.2416 -1.0295
 3439SOL    HW221954   0.420   2.533  17.392 -2.1567  0.4446 -1.9858
 3440SOL     OW21955   1.090   3.716   6.618 -0.1367 -0.2057  0.3434
 3440SOL    HW121956   1.133   3.790   6.660 -0.2848  1.6727 -2.7727
 3440SOL    HW221957   1.092   3.648   6.685 -0.5327  0.2081  0.7727
 3441SOL     OW21958   2.333   4.284   4.527  0.0040  0.5330  0.0175
 3441SOL    HW121959   2.249   4.311   4.564  0.9935  2.2582  1.0018
 3441SOL    HW221960   2.382   4.253   4.604  0.7796  0.9763 -0.3028
 3442SOL     OW21961   0.601   2.722  17.044  0.3917 -0.4300  0.3920
 3442SOL    HW121962   0.601   2.774  16.964 -0.3533 -1.9568 -0.5914
 3442SOL    HW221963   0.557   2.784  17.102  0.8101 -2.0966  2.4950
 3443SOL     OW21964   2.024   3.927   2.225  0.0517  0.2322 -0.6047
 3443SOL    HW121965   1.944   3.884   2.194 -0.4627  0.2532  0.6767
 3443SOL    HW221966   1.983   4.002   2.270 -0.5763  0.2206 -1.1504
 3444SOL     OW21967   2.069   2.436   5.087  0.1715 -0.0517  0.2582
 3444SOL    HW121968   2.050   2.374   5.017 -3.1542  1.2815  0.0042
 3444SOL    HW221969   1.992   2.492   5.095 -0.6880 -1.0250 -1.3906
 3445SOL     OW21970   1.258   3.742   9.481 -0.1809 -0.4281  0.4372
 3445SOL    HW121971   1.330   3.750   9.543 -0.5666 -0.0899  0.8374
 3445SOL    HW221972   1.309   3.743   9.400 -0.9875 -0.2833 -0.0697
 3446SOL     OW21973   3.706   2.733  14.447 -0.5570 -0.2982  0.1510
 3446SOL    HW121974   3.717   2.638  14.443 -1.8217 -0.3495 -1.7894
 3446SOL    HW221975   3.663   2.754  14.364  0.0742 -1.6513 -0.5086
 3447SOL     OW21976   2.781   4.258   6.446  0.1275  0.1335  0.1654
 3447SOL    HW121977   2.812   4.346   6.426 -0.8378  0.1432 -1.2659
 3447SOL    HW221978   2.861   4.207   6.436 -1.5445 -1.8720 -2.7876
 3448SOL     OW21979   3.284   0.308   2.056  0.3268 -0.3006 -0.4716
 3448SOL    HW121980   3.306   0.380   2.115  1.0251 -1.9545  1.2900
 3448SOL    HW221981   3.347   0.324   1.986  0.2698 -3.1302 -1.1904
 3449SOL     OW21982   3.243   0.016  14.556 -0.1975  0.6653  0.4211
 3449SOL    HW121983   3.322   4.697  14.555 -0.6966 -0.0198 -1.4322
 3449SOL    HW221984   3.188   4.718  14.627 -1.8106  0.7364 -0.8140
 3450SOL     OW21985   2.076   4.019  11.774 -0.4598  0.1227 -0.0965
 3450SOL    HW121986   2.034   3.960  11.711 -0.7754  1.9592 -1.6049
 3450SOL    HW221987   2.131   3.959  11.824 -0.0608  0.5471 -0.0247
 3451SOL     OW21988   0.840   4.190   7.359  0.5481 -0.5360  0.4857
 3451SOL    HW121989   0.911   4.129   7.340 -0.8776 -1.8362 -0.6392
 3451SOL    HW221990   0.783   4.174   7.284  3.3623 -0.8779 -1.5598
 3452SOL     OW21991   0.969   3.545   3.684  0.1116  0.0030  0.0215
 3452SOL    HW121992   0.915   3.601   3.629 -0.7407 -1.6702 -0.8531
 3452SOL    HW221993   0.905   3.533   3.753  0.6561  1.4880  0.7760
 3453SOL     OW21994   3.494   3.965   1.707  0.1066 -0.3198  0.4510
 3453SOL    HW121995   3.546   4.004   1.637 -1.2189  2.0951  0.7866
 3453SOL    HW221996   3.493   3.874   1.678  0.4975 -0.1728 -0.0218
 3454SOL     OW21997   2.349   0.356   7.820 -0.2460  0.0779 -0.2757
 3454SOL    HW121998   2.327   0.446   7.794  0.9702  0.5092  0.1851
 3454SOL    HW221999   2.439   0.377   7.847  0.1112 -0.7398 -0.8515
 3455SOL     OW22000   0.838   4.448  10.350  0.0101  0.4104  0.0577
 3455SOL    HW122001   0.791   4.531  10.350  0.5347  0.7092  0.5129
 3455SOL    HW222002   0.844   4.433  10.256  2.7728  0.1850  0.2460
 3456SOL     OW22003   2.377   1.358  16.599 -0.1580  1.0616 -0.3667
 3456SOL    HW122004   2.386   1.414  16.522  1.0361  1.3048 -0.0617
 3456SOL    HW222005   2.289   1.326  16.583 -0.1879  0.9049  0.1261
 3457SOL     OW22006   3.031   0.863   1.697 -0.3196  0.4317 -0.1636
 3457SOL    HW122007   3.020   0.860   1.792 -3.0517 -0.2970 -0.4993
 3457SOL    HW222008   3.041   0.769   1.684  2.4009  0.6474  0.3121
 3458SOL     OW22009   2.989   4.139   2.435 -0.5466  0.9370  0.1368
 3458SOL    HW122010   2.921   4.088   2.480  0.4129  0.6339  1.2331
 3458SOL    HW222011   3.033   4.071   2.383 -0.1140  2.1828 -1.1254
 3459SOL     OW22012   1.331   3.561   4.667  0.1624  0.1836  0.0292
 3459SOL    HW122013   1.358   3.496   4.733  1.8551 -0.3779 -1.2145
 3459SOL    HW222014   1.375   3.535   4.587 -1.1718 -1.1210 -0.2833
 3460SOL     OW22015   2.574   0.863   1.927 -0.9295 -0.7374  0.3185
 3460SOL    HW122016   2.536   0.937   1.879  2.2241  0.2911 -0.5484
 3460SOL    HW222017   2.496   0.807   1.919 -0.2762 -1.3148 -2.0031
 3461SOL     OW22018   1.281   1.138   1.725  0.4691 -0.2648 -0.1547
 3461SOL    HW122019   1.211   1.103   1.671 -0.0598  0.8582 -0.1919
 3461SOL    HW222020   1.248   1.155   1.814  5.0550  1.3906  1.2405
 3462SOL     OW22021   4.686   1.786  11.899  0.0952 -0.6011  0.4371
 3462SOL    HW122022   4.661   1.790  11.807  0.7346 -0.5154  0.2717
 3462SOL    HW222023   0.045   1.771  11.884  0.2163 -0.4895  1.0581
 3463SOL     OW22024   1.225   2.220   6.378  0.3207  0.3347 -0.0654
 3463SOL    HW122025   1.299   2.264   6.419  1.0765 -0.8393 -0.1619
 3463SOL    HW222026   1.159   2.289   6.372  0.6284  0.7509  1.4888
 3464SOL     OW22027   4.702   2.331   3.117 -0.0512 -1.0567  0.1776
 3464SOL    HW122028   4.667   2.322   3.205  1.3861 -1.6533  0.6909
 3464SOL    HW222029   4.703   2.426   3.111  0.0565 -0.9557  1.8445
 3465SOL     OW22030   1.477   1.328   8.913 -0.0395  0.2021 -0.0782
 3465SOL    HW122031   1.532   1.299   8.839 -0.3963  0.2600 -0.3688
 3465SOL    HW222032   1.516   1.282   8.987  1.4875 -0.0976 -1.0703
 3466SOL     OW22033   4.683   4.089  12.090 -0.1554 -0.3924 -0.6745
 3466SOL    HW122034   4.693   4.083  12.185 -0.7036 -0.3917 -0.6167
 3466SOL    HW222035   4.674   3.996  12.070 -1.3555 -0.2200 -0.9546
 3467SOL     OW22036   0.331   1.792   8.752 -0.2729  0.2969 -0.1180
 3467SOL    HW122037   0.242   1.810   8.780 -1.1837 -1.5538 -1.8168
 3467SOL    HW222038   0.343   1.876   8.708  1.2080 -0.9501 -2.1169
 3468SOL     OW22039   2.170   4.559   7.222 -0.5841 -0.2112 -0.4551
 3468SOL    HW122040   2.161   4.469   7.253  1.9498  0.2045  1.5330
 3468SOL    HW222041   2.093   4.598   7.262 -1.4673 -1.6375 -0.7610
 3469SOL     OW22042   0.470   1.318   5.210  0.2852 -0.5819  0.3816
 3469SOL    HW122043   0.398   1.279   5.160 -1.2712 -2.1516  3.8969
 3469SOL    HW222044   0.428   1.377   5.273 -0.0958 -1.5365  1.0204
 3470SOL     OW22045   1.957   1.493   7.409  0.5198  0.2185  0.0948
 3470SOL    HW122046   1.924   1.419   7.359  0.4735  1.1340 -1.2267
 3470SOL    HW222047   1.874   1.532   7.436  0.3667  1.4278 -2.1258
 3471SOL     OW22048   4.020   0.335   7.254 -0.1449  0.3744 -0.1171
 3471SOL    HW122049   3.990   0.292   7.334  2.1166  0.9959  1.0684
 3471SOL    HW222050   4.046   0.267   7.192  1.7167  1.1451 -0.1874
 3472SOL     OW22051   3.531   0.473   8.345 -0.5135  0.3727 -0.2676
 3472SOL    HW122052   3.548   0.386   8.380 -1.0192 -0.0594 -1.1015
 3472SOL    HW222053   3.568   0.454   8.258 -0.4539  1.4525 -0.4799
 3473SOL     OW22054   3.548   0.148   0.682  0.8154 -0.1076 -0.7224
 3473SOL    HW122055   3.571   0.137   0.590 -0.3110 -2.1048 -0.7769
 3473SOL    HW222056   3.479   0.082   0.686 -1.4403  2.3396  0.6841
 3474SOL     OW22057   0.655   0.961   8.319 -0.0328  0.1458 -0.0215
 3474SOL    HW122058   0.632   1.038   8.371  1.0222 -0.5992  1.5378
 3474SOL    HW222059   0.677   1.003   8.236  0.0971 -1.3756 -0.7547
 3475SOL     OW22060   1.450   4.276   9.548 -0.0390 -0.5251 -0.2460
 3475SOL    HW122061   1.463   4.356   9.497 -0.9785  0.3822  0.9305
 3475SOL    HW222062   1.448   4.210   9.479 -1.1648  0.6730 -1.3426
 3476SOL     OW22063   0.806   2.884  10.147 -0.2047  0.4577 -0.0956
 3476SOL    HW122064   0.770   2.972  10.135  0.8616  1.2727  2.7121
 3476SOL    HW222065   0.836   2.894  10.237  1.3975 -0.6510 -0.5118
 3477SOL     OW22066   4.093   2.120   3.292  0.1885 -0.1284 -0.5015
 3477SOL    HW122067   4.071   2.163   3.374  0.4735 -0.1389 -0.4191
 3477SOL    HW222068   4.153   2.053   3.323  0.0336 -0.0508 -0.0437
 3478SOL     OW22069   2.801   3.184   1.680  0.2467  0.0126 -0.6464
 3478SOL    HW122070   2.822   3.244   1.751  0.8911  1.3279 -1.9409
 3478SOL    HW222071   2.890   3.187   1.645  0.1008  0.4547 -0.9842
 3479SOL     OW22072   0.546   0.877  15.308  0.4554  0.5706 -0.5798
 3479SOL    HW122073   0.533   0.810  15.240  0.2861 -1.3327  1.3219
 3479SOL    HW222074   0.632   0.909  15.281 -0.0628  1.2388 -1.4558
 3480SOL     OW22075   3.272   0.384   5.509 -0.1487 -0.6159  0.6700
 3480SOL    HW122076   3.276   0.366   5.415 -3.6607 -1.5556  0.6960
 3480SOL    HW222077   3.281   0.479   5.501 -0.6662 -0.6254  0.0359
 3481SOL     OW22078   0.187   2.765   6.762 -0.0405 -0.4063 -0.3927
 3481SOL    HW122079   0.196   2.817   6.682 -1.6494  1.0021  0.3372
 3481SOL    HW222080   0.094   2.747   6.750 -0.0790 -0.9593  0.6851
 3482SOL     OW22081   0.404   3.667   7.227 -0.2267  0.0423  0.3859
 3482SOL    HW122082   0.386   3.758   7.204 -3.4199 -0.6335  0.2532
 3482SOL    HW222083   0.317   3.630   7.236 -0.1627 -0.5157 -1.1582
 3483SOL     OW22084   1.694   1.653   2.900 -0.3109  0.0126  0.2606
 3483SOL    HW122085   1.673   1.667   2.992 -1.1262  2.6121 -0.2969
 3483SOL    HW222086   1.692   1.557   2.902  0.8911 -0.0368 -0.8824
 3484SOL     OW22087   3.525   3.091   0.402 -0.9725  0.7839  0.4152
 3484SOL    HW122088   3.481   3.018   0.447  0.5844 -0.3993  0.0405
 3484SOL    HW222089   3.454   3.136   0.357  0.6585  1.6560 -1.2717
 3485SOL     OW22090   3.442   2.204  13.722  0.5642  0.4117 -0.0830
 3485SOL    HW122091   3.406   2.274  13.668 -0.3652 -0.4436 -0.5704
 3485SOL    HW222092   3.528   2.200  13.681  0.5133 -0.3843 -0.0988
 3486SOL     OW22093   3.618   1.258   5.145 -0.1003  0.7414 -0.0024
 3486SOL    HW122094   3.613   1.337   5.199 -0.9235  0.0820  0.8903
 3486SOL    HW222095   3.624   1.286   5.054 -1.5611  1.5824  0.1583
 3487SOL     OW22096   0.563   2.981   3.031  0.3403 -0.1667  0.4976
 3487SOL    HW122097   0.596   3.030   3.107 -0.3506  0.8718  0.1146
 3487SOL    HW222098   0.618   3.021   2.964  0.1323 -2.1209 -0.8458
 3488SOL     OW22099   3.115   4.380  14.598  0.1949 -0.4553  0.6666
 3488SOL    HW122100   3.198   4.364  14.642 -0.4238 -1.1775  1.5686
 3488SOL    HW222101   3.133   4.334  14.517 -1.2923  0.0290  0.0435
 3489SOL     OW22102   1.595   1.277   0.455 -0.2584 -0.6998  0.1077
 3489SOL    HW122103   1.587   1.201   0.397  2.3188 -1.9637  1.4102
 3489SOL    HW222104   1.634   1.340   0.394 -1.3559 -0.3348 -0.2274
 3490SOL     OW22105   1.521   4.692  10.222  0.1836 -0.4616 -0.9126
 3490SOL    HW122106   1.452   4.704  10.156 -0.2263  0.1282 -0.3756
 3490SOL    HW222107   1.473   4.658  10.297  1.2313  0.5690  0.2234
 3491SOL     OW22108   3.053   3.695   8.071 -0.5271 -0.2464  0.1182
 3491SOL    HW122109   3.131   3.671   8.021 -0.3306 -1.8239  1.1429
 3491SOL    HW222110   3.085   3.725   8.156  1.0391  0.0548 -0.5809
 3492SOL     OW22111   4.586   1.561   6.159 -0.2334 -0.0431  0.5189
 3492SOL    HW122112   4.600   1.643   6.112 -1.4825 -0.4209 -0.5307
 3492SOL    HW222113   4.660   1.511   6.125 -0.4100 -0.1486  0.2946
 3493SOL     OW22114   0.928   2.492   9.261  0.1570 -0.2591  0.5892
 3493SOL    HW122115   0.962   2.459   9.177 -0.9498 -1.4822  0.6283
 3493SOL    HW222116   0.836   2.511   9.244  0.1485 -1.0965 -0.3029
 3494SOL     OW22117   0.814   0.067   6.711 -0.4152  0.3846  1.0703
 3494SOL    HW122118   0.855   0.094   6.793  1.3503  1.2783 -0.0968
 3494SOL    HW222119   0.773   0.148   6.683 -0.4125  0.1401  0.3700
 3495SOL     OW22120   1.903   0.263  10.241  0.0519 -0.2919 -0.5349
 3495SOL    HW122121   1.927   0.288  10.331  0.7658  0.3337 -0.9051
 3495SOL    HW222122   1.811   0.289  10.241  0.4812  1.1748 -0.5826
 3496SOL     OW22123   0.865   1.112   9.001 -0.5151 -0.3248  0.1604
 3496SOL    HW122124   0.789   1.054   9.001  0.0529 -1.0875 -1.4086
 3496SOL    HW222125   0.855   1.150   9.088 -3.0679 -2.1852  0.6662
 3497SOL     OW22126   1.356   2.679   8.623  0.2547 -0.7718 -0.5515
 3497SOL    HW122127   1.373   2.670   8.529 -1.0886 -1.4751 -0.7295
 3497SOL    HW222128   1.327   2.588   8.633  1.4027 -0.9073  1.5062
 3498SOL     OW22129   3.450   3.918   0.785 -0.5523 -0.0566  0.0756
 3498SOL    HW122130   3.464   3.885   0.695 -1.1654  0.3670 -0.1750
 3498SOL    HW222131   3.509   3.872   0.844  0.2494  0.7398 -0.1127
 3499SOL     OW22132   1.589   0.584  11.451 -0.0001 -0.3149 -0.1356
 3499SOL    HW122133   1.561   0.588  11.543 -0.2512 -0.1213 -0.2218
 3499SOL    HW222134   1.657   0.516  11.451  0.9132  0.6063  0.2425
 3500SOL     OW22135   2.975   2.675  15.098  0.4220  0.1443 -0.1057
 3500SOL    HW122136   2.991   2.600  15.155 -0.4021 -0.7371 -1.0367
 3500SOL    HW222137   2.991   2.737  15.169 -2.6642 -1.0387  1.6227
 3501SOL     OW22138   0.155   1.497  14.585  0.3001  0.2577  0.3958
 3501SOL    HW122139   0.097   1.562  14.627  1.0393  0.7252  0.6967
 3501SOL    HW222140   0.190   1.559  14.522 -0.0950 -2.1699 -2.1995
 3502SOL     OW22141   2.620   2.988  12.029  0.0377  0.4178 -0.0915
 3502SOL    HW122142   2.677   3.061  12.005  1.2052 -0.3472  0.3436
 3502SOL    HW222143   2.671   2.918  12.070 -3.5591 -0.7676  2.4063
 3503SOL     OW22144   1.501   0.623  11.719 -0.1276 -0.4172 -0.1663
 3503SOL    HW122145   1.424   0.670  11.686 -0.0426  0.7534  1.3469
 3503SOL    HW222146   1.529   0.675  11.794 -1.0924  1.4137 -1.0762
 3504SOL     OW22147   1.829   3.811   6.186 -0.5200 -0.0014 -0.4918
 3504SOL    HW122148   1.900   3.862   6.226 -1.1428 -0.2328  0.9221
 3504SOL    HW222149   1.850   3.824   6.094 -2.5867 -0.0619 -0.9740
 3505SOL     OW22150   1.078   1.938  13.563 -0.3219  0.5203  0.3711
 3505SOL    HW122151   1.169   1.957  13.539 -0.5233 -0.1353 -0.8978
 3505SOL    HW222152   1.097   1.912  13.653 -0.6636  0.8083  0.5274
 3506SOL     OW22153   2.545   2.747  13.686  0.6936  0.4322  0.5681
 3506SOL    HW122154   2.501   2.715  13.765  1.8541  2.3100  2.0047
 3506SOL    HW222155   2.633   2.714  13.700 -0.0371 -1.0985  1.6175
 3507SOL     OW22156   1.637   0.992   9.955  0.0301 -0.5035  0.4299
 3507SOL    HW122157   1.567   0.933   9.983  1.0637 -1.2158  1.5172
 3507SOL    HW222158   1.663   1.020  10.043  0.4810  1.4881 -0.3514
 3508SOL     OW22159   3.608   4.149  14.984  0.1465  0.0059  0.5217
 3508SOL    HW122160   3.639   4.106  15.064  1.1973  0.5751  0.4128
 3508SOL    HW222161   3.682   4.128  14.927 -0.2661  1.3789 -0.5010
 3509SOL     OW22162   2.776   3.723   2.801  0.2903 -0.2613  0.6985
 3509SOL    HW122163   2.793   3.783   2.729 -0.6549  0.4871  1.0855
 3509SOL    HW222164   2.686   3.693   2.788  0.5553 -0.4104 -0.7943
 3510SOL     OW22165   0.667   3.863  17.401 -0.3665  0.0390 -0.2405
 3510SOL    HW122166   0.711   3.788  17.443  0.6358  0.2743 -0.8769
 3510SOL    HW222167   0.639   3.913  17.478 -0.1033  1.0292 -0.7967
 3511SOL     OW22168   4.256   0.892   4.283 -0.0655 -0.0826 -0.4255
 3511SOL    HW122169   4.197   0.819   4.263  1.9584 -1.8966  0.3457
 3511SOL    HW222170   4.250   0.901   4.378 -1.7216 -0.7050 -0.4629
 3512SOL     OW22171   3.426   3.517  16.825 -0.6076  0.2717 -0.4618
 3512SOL    HW122172   3.372   3.582  16.870  1.2703  0.6938  1.1840
 3512SOL    HW222173   3.364   3.477  16.763 -1.1833  0.8235 -0.2422
 3513SOL     OW22174   0.099   1.157  16.928  0.2343  0.2920 -0.1097
 3513SOL    HW122175   0.067   1.185  16.843  2.0631  0.0482 -0.8794
 3513SOL    HW222176   0.027   1.097  16.948  2.8766 -2.9062 -0.1677
 3514SOL     OW22177   3.696   4.316   1.833  0.2501 -0.1768 -0.5567
 3514SOL    HW122178   3.692   4.412   1.839 -0.6495 -0.1775 -1.1631
 3514SOL    HW222179   3.603   4.295   1.834  0.5448 -1.4697 -1.0566
 3515SOL     OW22180   4.040   2.006   5.649  0.2209  0.5784 -0.3530
 3515SOL    HW122181   3.964   2.059   5.674 -0.3982 -0.0637 -0.8743
 3515SOL    HW222182   4.002   1.922   5.673  1.9339 -0.2222 -0.4875
 3516SOL     OW22183   4.228   0.903   4.569  0.4962  0.1928 -0.0204
 3516SOL    HW122184   4.247   0.978   4.626 -0.3843 -0.6239  1.3595
 3516SOL    HW222185   4.154   0.866   4.618 -0.7099  3.8699  0.9315
 3517SOL     OW22186   2.877   4.128   5.818 -0.2309  0.2510 -0.3192
 3517SOL    HW122187   2.884   4.080   5.900 -1.2216  1.5435  0.5359
 3517SOL    HW222188   2.919   4.211   5.839  0.8978 -0.1217 -1.1155
 3518SOL     OW22189   0.971   0.828   8.312  0.4627 -0.2675 -0.3657
 3518SOL    HW122190   1.027   0.903   8.290  1.1633 -1.1344 -1.5347
 3518SOL    HW222191   0.954   0.846   8.404 -1.2279  2.4174 -1.2194
 3519SOL     OW22192   0.333   0.605   3.498  0.5350  0.4179  1.0920
 3519SOL    HW122193   0.251   0.570   3.533  0.1951 -0.5720 -0.7320
 3519SOL    HW222194   0.340   0.553   3.418 -0.5673  0.6474  0.8424
 3520SOL     OW22195   2.079   1.014  10.071 -0.1229 -0.2342 -0.0490
 3520SOL    HW122196   2.172   1.023  10.093  0.0998 -0.7672 -0.7593
 3520SOL    HW222197   2.040   0.991  10.155 -0.6031 -2.6635 -0.9351
 3521SOL     OW22198   4.258   1.972   6.791 -0.7569  0.1904 -0.3770
 3521SOL    HW122199   4.169   1.997   6.815 -1.0002  1.0752 -2.2261
 3521SOL    HW222200   4.254   1.877   6.798  2.1179  0.0590 -0.4854
 3522SOL     OW22201   1.899   3.222   0.776  0.0129  0.0495  0.8039
 3522SOL    HW122202   1.867   3.131   0.780  4.6522 -1.5958  0.0380
 3522SOL    HW222203   1.992   3.205   0.785  0.5283  2.2534 -0.4919
 3523SOL     OW22204   0.716   0.632  12.056  0.2848  0.2537 -0.0759
 3523SOL    HW122205   0.732   0.547  12.015 -0.8144 -1.2272  2.5812
 3523SOL    HW222206   0.765   0.688  11.996 -1.5441  1.5919 -0.3232
 3524SOL     OW22207   1.140   3.898   2.625  0.8388 -0.1809  0.1078
 3524SOL    HW122208   1.054   3.865   2.595  0.8735  0.3028 -0.5205
 3524SOL    HW222209   1.200   3.824   2.619  0.0783 -0.6979 -1.2893
 3525SOL     OW22210   0.632   2.979   2.207 -0.1882  0.4965 -0.1791
 3525SOL    HW122211   0.715   2.940   2.234  0.2424  0.6500 -1.2611
 3525SOL    HW222212   0.576   2.935   2.270 -1.4591  0.2103 -1.5242
 3526SOL     OW22213   2.630   1.433   7.858  0.5801 -0.0834 -0.0575
 3526SOL    HW122214   2.616   1.517   7.813 -1.3077  0.0133  0.7376
 3526SOL    HW222215   2.713   1.462   7.897  1.5630 -0.4221 -1.8583
 3527SOL     OW22216   0.339   1.338   2.957  0.7812  0.5889  0.4186
 3527SOL    HW122217   0.256   1.380   2.980  0.3428  0.0475 -0.1666
 3527SOL    HW222218   0.338   1.322   2.863 -1.1485  0.8218  0.3994
 3528SOL     OW22219   1.794   2.933   0.502 -0.0855  0.5408  0.2995
 3528SOL    HW122220   1.824   3.016   0.466  0.1719  1.0282  1.6268
 3528SOL    HW222221   1.715   2.964   0.547 -1.0614  1.2408 -1.9039
 3529SOL     OW22222   1.045   3.798  16.218 -0.1676 -0.5544 -0.2904
 3529SOL    HW122223   0.964   3.812  16.266 -0.8526  1.3043 -2.0097
 3529SOL    HW222224   1.037   3.706  16.191  1.2605 -1.0428  0.8664
 3530SOL     OW22225   0.480   0.011   5.810 -0.6986 -0.0999 -0.5550
 3530SOL    HW122226   0.538   4.731   5.735 -0.5044 -1.4492 -0.1504
 3530SOL    HW222227   0.402   0.053   5.775 -2.2224 -0.9926  1.8181
 3531SOL     OW22228   3.828   3.736   1.479 -0.2132 -0.3086  0.2924
 3531SOL    HW122229   3.811   3.660   1.424 -0.4400  1.0295 -1.5142
 3531SOL    HW222230   3.923   3.740   1.493 -0.1449 -0.0934 -0.2053
 3532SOL     OW22231   0.261   3.470  14.471  0.9581 -0.0825 -0.0074
 3532SOL    HW122232   0.188   3.465  14.409  0.7151 -0.6484  0.3214
 3532SOL    HW222233   0.336   3.471  14.412 -3.4332  0.4648 -5.5361
 3533SOL     OW22234   2.050   0.901   0.621 -0.0716 -0.3163 -0.3595
 3533SOL    HW122235   2.123   0.840   0.610  0.5705 -0.0846  2.5905
 3533SOL    HW222236   2.069   0.924   0.712 -1.0772 -0.9936  0.0276
 3534SOL     OW22237   3.275   3.340   1.562  0.0753 -0.2643  0.4247
 3534SOL    HW122238   3.312   3.417   1.606 -0.5347 -0.5906  1.5107
 3534SOL    HW222239   3.271   3.275   1.633  1.0030 -0.5759  0.1915
 3535SOL     OW22240   1.196   3.284   5.667  0.4491 -0.5991 -0.4573
 3535SOL    HW122241   1.170   3.365   5.624  1.9561  0.2071  0.1455
 3535SOL    HW222242   1.110   3.242   5.659 -0.8982  2.2756 -1.0654
 3536SOL     OW22243   4.729   0.992  13.577  0.2076 -0.5748  0.6440
 3536SOL    HW122244   4.661   0.979  13.511  0.5032 -0.2147  0.2763
 3536SOL    HW222245   4.716   1.084  13.597  0.4729 -0.4866  0.4060
 3537SOL     OW22246   3.554   4.624   3.633  0.1457 -0.1186  0.3790
 3537SOL    HW122247   3.521   4.563   3.567 -0.2831 -0.2443  0.7077
 3537SOL    HW222248   3.648   4.613   3.643  0.5341  1.0953 -1.9302
 3538SOL     OW22249   4.242   3.302   5.452  0.6485  0.0363  0.3116
 3538SOL    HW122250   4.172   3.270   5.396  0.1446  1.8301 -0.0685
 3538SOL    HW222251   4.281   3.357   5.384 -0.8620 -1.5892 -1.8735
 3539SOL     OW22252   1.414   3.937   2.723 -0.1654 -0.1352 -0.2653
 3539SOL    HW122253   1.412   3.989   2.643 -0.0468 -0.8184 -0.7156
 3539SOL    HW222254   1.345   3.965   2.783  0.7748  3.3456 -0.8056
 3540SOL     OW22255   3.225   0.223  13.870  0.5901  0.7179  0.3822
 3540SOL    HW122256   3.265   0.184  13.947 -0.1951 -2.3391 -0.7435
 3540SOL    HW222257   3.135   0.192  13.884  0.3705  1.5010  0.6819
 3541SOL     OW22258   3.674   3.656  17.548 -0.1038 -0.0470  0.1798
 3541SOL    HW122259   3.605   3.716  17.576  0.0763 -1.0790  2.8441
 3541SOL    HW222260   3.673   3.674  17.454 -2.1500  0.5547  0.3020
 3542SOL     OW22261   3.173   3.056   0.623  0.3037  0.5252  0.2275
 3542SOL    HW122262   3.136   3.108   0.553 -1.2071  1.0740  1.4377
 3542SOL    HW222263   3.136   2.971   0.599  1.6185 -0.0567  0.2270
 3543SOL     OW22264   1.425   3.302  10.482 -0.0440  0.2132 -0.8045
 3543SOL    HW122265   1.354   3.346  10.436 -1.4529 -0.8552  0.3510
 3543SOL    HW222266   1.490   3.334  10.419  0.7104 -1.5542 -0.9313
 3544SOL     OW22267   3.956   2.109   6.073 -0.1887  0.5600  0.3055
 3544SOL    HW122268   3.913   2.113   6.159 -0.9247 -2.1491  0.0604
 3544SOL    HW222269   3.970   2.015   6.059  1.8860  0.9292 -0.0797
 3545SOL     OW22270   3.315   4.142   2.757 -0.0913  0.3270  0.1734
 3545SOL    HW122271   3.353   4.154   2.670 -1.7063 -1.7895 -0.8213
 3545SOL    HW222272   3.228   4.176   2.736 -0.2921 -1.2770 -1.5981
 3546SOL     OW22273   3.134   3.059   6.853  0.2867  0.0870 -0.1441
 3546SOL    HW122274   3.216   3.048   6.804 -0.5374 -2.7033 -0.9110
 3546SOL    HW222275   3.071   3.053   6.781  0.6723  3.4615 -0.7555
 3547SOL     OW22276   2.612   0.847   9.494  0.9806 -0.4004 -0.0319
 3547SOL    HW122277   2.661   0.928   9.484  0.1461  0.0151 -0.7402
 3547SOL    HW222278   2.528   0.883   9.521  0.1973 -1.0240 -1.6202
 3548SOL     OW22279   2.562   4.095  11.310 -0.7022 -0.3272 -0.0877
 3548SOL    HW122280   2.607   4.023  11.353 -1.1075 -1.5897 -1.7834
 3548SOL    HW222281   2.637   4.141  11.272 -1.3298  0.0850 -0.8379
 3549SOL     OW22282   0.034   3.623   0.583  0.3751 -0.0811  0.0952
 3549SOL    HW122283   0.039   3.607   0.678 -0.7922 -1.4153 -0.0689
 3549SOL    HW222284   0.063   3.714   0.585 -1.6154  0.5389  0.9809
 3550SOL     OW22285   0.957   2.173   5.046 -0.3197 -0.4273 -0.5022
 3550SOL    HW122286   0.895   2.139   5.111  0.4559 -1.0177 -0.0712
 3550SOL    HW222287   1.013   2.222   5.106 -0.3293  0.1476 -0.9683
 3551SOL     OW22288   0.972   3.148   6.328 -0.3493  0.2193  0.1067
 3551SOL    HW122289   0.969   3.218   6.392  1.1071  0.3938 -0.0287
 3551SOL    HW222290   1.063   3.120   6.331 -0.6207 -0.6000  0.8124
 3552SOL     OW22291   4.651   0.544   2.192  0.3207  0.7140  0.5219
 3552SOL    HW122292   4.653   0.564   2.099  1.9722 -0.5501  0.2857
 3552SOL    HW222293   4.612   0.457   2.184 -1.0584  1.2205  1.8570
 3553SOL     OW22294   2.053   3.538   6.210 -0.1767  0.6243 -0.6723
 3553SOL    HW122295   2.067   3.632   6.200 -0.1360  0.5951 -0.8834
 3553SOL    HW222296   2.048   3.522   6.304  0.9359 -0.4840 -0.8035
 3554SOL     OW22297   1.285   0.478   2.809  0.2284 -0.1537 -0.5098
 3554SOL    HW122298   1.372   0.516   2.821  0.3978 -1.0820  1.1775
 3554SOL    HW222299   1.232   0.557   2.802  1.3196  0.6829  0.7170
 3555SOL     OW22300   3.016   3.969   5.341  0.1799  0.3704 -0.3143
 3555SOL    HW122301   3.094   3.951   5.393  1.7818  0.9594 -2.5322
 3555SOL    HW222302   2.972   4.014   5.413 -1.3971 -1.1412 -0.3359
 3556SOL     OW22303   1.708   3.688   7.731  0.3984 -0.3515  0.1684
 3556SOL    HW122304   1.752   3.742   7.665 -1.0034 -0.1362 -0.5880
 3556SOL    HW222305   1.761   3.704   7.809 -0.2559 -0.5059  0.6381
 3557SOL     OW22306   2.494   4.711   6.909 -0.0289 -0.2446 -0.0421
 3557SOL    HW122307   2.470   4.685   6.998  1.2958  0.2426  0.4558
 3557SOL    HW222308   2.588   4.723   6.923 -0.3289  0.2131  1.5847
 3558SOL     OW22309   2.167   2.801   2.356 -0.0233  0.0606 -0.3159
 3558SOL    HW122310   2.136   2.855   2.283  1.7313  0.1847 -0.9749
 3558SOL    HW222311   2.261   2.799   2.337  0.3426  0.7926  1.4887
 3559SOL     OW22312   2.075   3.713   8.424  0.2841  0.2806 -0.2479
 3559SOL    HW122313   2.033   3.780   8.478  1.6437  2.8161 -2.3031
 3559SOL    HW222314   2.036   3.628   8.443  1.3690 -0.6489 -2.1861
 3560SOL     OW22315   3.713   3.617  16.746  0.0076 -0.5371  0.0448
 3560SOL    HW122316   3.712   3.529  16.709  0.8364 -0.5318  0.0026
 3560SOL    HW222317   3.626   3.638  16.780  0.5681 -0.8818  1.6628
 3561SOL     OW22318   2.175   4.067  15.754  0.2627  0.3613 -0.0536
 3561SOL    HW122319   2.155   4.138  15.815 -1.7447 -0.8015  0.6072
 3561SOL    HW222320   2.203   4.120  15.679 -2.1231  0.5359 -0.7965
 3562SOL     OW22321   3.103   2.202  14.010 -0.4697  0.0412 -0.2985
 3562SOL    HW122322   3.174   2.138  14.005  1.4598  2.0099  2.1005
 3562SOL    HW222323   3.159   2.279  14.001 -1.3047  0.5002 -1.5252
 3563SOL     OW22324   2.138   1.229  16.573  0.3871 -0.6687 -0.1884
 3563SOL    HW122325   2.072   1.298  16.580  0.2004 -0.8869  0.1710
 3563SOL    HW222326   2.097   1.169  16.511 -1.8056  0.2361  0.3990
 3564SOL     OW22327   2.723   1.492   9.395  0.5100 -0.8340 -0.2606
 3564SOL    HW122328   2.702   1.413   9.346  1.0945 -0.6001 -0.8783
 3564SOL    HW222329   2.818   1.488   9.384  0.7377  1.6116  0.8595
 3565SOL     OW22330   0.857   2.823   3.593  0.5416  0.7940  0.1119
 3565SOL    HW122331   0.833   2.821   3.500  1.0824  0.0250 -0.0159
 3565SOL    HW222332   0.933   2.880   3.597 -0.0645  1.5693  0.4164
 3566SOL     OW22333   1.567   4.167   6.446  0.0658  0.0764 -0.1350
 3566SOL    HW122334   1.585   4.129   6.360  0.8660  0.4678 -0.1321
 3566SOL    HW222335   1.627   4.128   6.510  0.2121  1.1457  0.3827
 3567SOL     OW22336   1.242   2.595   7.578  0.4004 -0.6188  0.4544
 3567SOL    HW122337   1.307   2.526   7.591 -0.8240 -1.8832 -0.1329
 3567SOL    HW222338   1.168   2.535   7.581  2.1582 -2.8681 -1.1504
 3568SOL     OW22339   3.557   1.284   4.051  0.1660 -0.0153 -0.4375
 3568SOL    HW122340   3.484   1.227   4.028  0.2814 -0.3500  0.0385
 3568SOL    HW222341   3.550   1.353   3.985 -1.0791 -1.4047 -1.7550
 3569SOL     OW22342   0.316   1.099   4.163 -0.1977  0.3672 -0.0449
 3569SOL    HW122343   0.402   1.093   4.206  0.7443  0.1864 -1.9420
 3569SOL    HW222344   0.338   1.069   4.074  2.4470  0.7974  0.4674
 3570SOL     OW22345   0.612   2.515  12.663  0.4980  0.0632 -0.0800
 3570SOL    HW122346   0.668   2.472  12.598  1.1872  1.7352 -0.5908
 3570SOL    HW222347   0.642   2.475  12.745 -3.0695 -1.1217  0.6668
 3571SOL     OW22348   2.717   3.380   3.012 -0.1983  0.0343  0.5499
 3571SOL    HW122349   2.680   3.342   3.092  0.6789  0.3658  1.1099
 3571SOL    HW222350   2.764   3.455   3.048 -2.2169  2.5417 -2.1204
 3572SOL     OW22351   2.481   0.501  15.307 -0.0425  0.5634 -0.0370
 3572SOL    HW122352   2.414   0.562  15.276  0.2008  0.5193 -0.6372
 3572SOL    HW222353   2.447   0.481  15.395 -0.2534  0.8078 -0.0635
 3573SOL     OW22354   0.528   0.694   3.092  0.1740 -0.3327 -0.0149
 3573SOL    HW122355   0.557   0.661   3.007  1.4235 -1.9453  1.0370
 3573SOL    HW222356   0.457   0.751   3.065  1.1112  0.3150 -1.1127
 3574SOL     OW22357   2.599   2.628   2.766  0.3700  0.3020  0.2145
 3574SOL    HW122358   2.639   2.638   2.680  2.2703  1.7067  1.2613
 3574SOL    HW222359   2.644   2.703   2.805  0.2002  0.6932 -0.3516
 3575SOL     OW22360   2.374   2.748  11.201  0.1493  0.3217  0.4434
 3575SOL    HW122361   2.359   2.737  11.107  0.7467 -1.4623  0.5514
 3575SOL    HW222362   2.398   2.657  11.220  1.0131  0.0715 -1.8204
 3576SOL     OW22363   1.770   3.979   8.834 -0.0254  0.2102  0.1465
 3576SOL    HW122364   1.708   4.033   8.786 -0.9331 -0.5553  0.4639
 3576SOL    HW222365   1.803   4.043   8.898 -1.7421  1.1753  0.0771
 3577SOL     OW22366   0.000   1.832  15.743  0.6629 -0.2658 -0.1874
 3577SOL    HW122367   0.087   1.808  15.712  1.2719 -1.6872  2.6981
 3577SOL    HW222368   4.677   1.778  15.689  0.7809  1.5057 -2.1191
 3578SOL     OW22369   3.810   4.695   3.707  0.2433 -0.8793 -0.1921
 3578SOL    HW122370   3.887   4.639   3.700 -0.7956 -2.3556  0.2404
 3578SOL    HW222371   3.787   4.668   3.796  0.2691  2.9684  0.9806
 3579SOL     OW22372   3.764   0.200  16.225  0.3408 -0.4762  0.3305
 3579SOL    HW122373   3.818   0.126  16.196  1.0623 -0.8396  2.6109
 3579SOL    HW222374   3.816   0.279  16.211  0.7095 -0.6512  0.7357
 3580SOL     OW22375   1.652   3.791   6.751 -0.2691 -0.0965  0.0143
 3580SOL    HW122376   1.722   3.729   6.730 -0.6764 -0.3111 -0.6958
 3580SOL    HW222377   1.585   3.724   6.767  0.7592 -0.7387  1.6902
 3581SOL     OW22378   3.717   3.681   7.288  0.3757  0.4910 -0.3685
 3581SOL    HW122379   3.632   3.719   7.310  0.9310  2.5260 -1.7677
 3581SOL    HW222380   3.730   3.709   7.197  0.1598  0.9256 -0.2649
 3582SOL     OW22381   1.589   1.758   3.163 -0.1706  0.0684  0.1041
 3582SOL    HW122382   1.590   1.846   3.125 -0.2844 -0.1780 -0.4604
 3582SOL    HW222383   1.663   1.762   3.223  1.5265 -1.0131 -1.9221
 3583SOL     OW22384   0.749   4.190   7.907  0.2417 -0.3772 -0.1300
 3583SOL    HW122385   0.685   4.124   7.932  0.7723 -1.1574 -0.8322
 3583SOL    HW222386   0.761   4.173   7.814 -2.4413  0.3695 -0.6152
 3584SOL     OW22387   2.504   3.257   7.763 -0.3042 -0.0903  0.1219
 3584SOL    HW122388   2.592   3.265   7.801  0.4628  0.8809 -1.8460
 3584SOL    HW222389   2.463   3.198   7.826  1.3070  0.3264  1.5790
 3585SOL     OW22390   0.295   1.218  16.683 -0.2139  0.3447 -0.2691
 3585SOL    HW122391   0.252   1.155  16.624 -0.0694 -0.0748  0.0717
 3585SOL    HW222392   0.211   1.254  16.711 -0.6122 -0.8055  0.0053
 3586SOL     OW22393   1.274   3.239   3.302  0.1338  0.4760  0.9108
 3586SOL    HW122394   1.307   3.198   3.382 -0.3479 -0.7375  0.4930
 3586SOL    HW222395   1.201   3.293   3.332 -0.3394 -0.2290  1.0328
 3587SOL     OW22396   1.524   0.083   9.357 -0.1778 -0.0067 -0.5278
 3587SOL    HW122397   1.561   0.165   9.389 -0.5990  0.1183 -0.3557
 3587SOL    HW222398   1.536   0.036   9.439 -0.2385 -1.0130 -1.0924
 3588SOL     OW22399   1.472   3.414   5.708 -0.3469  0.1448 -0.1144
 3588SOL    HW122400   1.519   3.381   5.784  0.9148 -0.2977 -1.0857
 3588SOL    HW222401   1.408   3.342   5.706 -1.3992  1.1115 -1.0027
 3589SOL     OW22402   1.095   4.239   7.040 -0.7298 -0.2193  0.2463
 3589SOL    HW122403   1.111   4.323   7.082  1.1074  0.5819 -2.0640
 3589SOL    HW222404   1.160   4.177   7.073 -2.2958 -2.3322 -0.6182
 3590SOL     OW22405   2.750   2.391   2.162  0.7373 -1.0225  0.2442
 3590SOL    HW122406   2.791   2.437   2.235 -0.1868 -1.3050  0.9512
 3590SOL    HW222407   2.690   2.460   2.134  3.4386  1.0603 -0.3144
 3591SOL     OW22408   2.029   3.490   2.975 -0.3964  0.0593 -0.1862
 3591SOL    HW122409   1.968   3.553   2.936  0.0235  0.6608  0.1203
 3591SOL    HW222410   2.090   3.474   2.903  1.1983  0.8434  0.9762
 3592SOL     OW22411   1.803   0.387  16.839  0.6602  0.0955 -0.1524
 3592SOL    HW122412   1.806   0.391  16.743 -2.5309 -1.2075 -0.2910
 3592SOL    HW222413   1.756   0.469  16.852 -0.6149 -1.0832  2.5925
 3593SOL     OW22414   2.573   2.379  14.708 -0.1643  0.4547 -0.6267
 3593SOL    HW122415   2.525   2.403  14.787 -2.0106  0.0258 -1.6388
 3593SOL    HW222416   2.651   2.434  14.721  0.7598 -0.9674 -0.2346
 3594SOL     OW22417   1.694   2.046   3.917 -0.5798  0.0470 -0.2815
 3594SOL    HW122418   1.601   2.062   3.903 -0.9812 -2.7564 -0.7951
 3594SOL    HW222419   1.696   2.061   4.012  1.1201 -2.8027  0.1254
 3595SOL     OW22420   2.720   0.565   3.518 -0.6048 -0.1105 -0.9122
 3595SOL    HW122421   2.773   0.579   3.596 -0.7286 -4.1813 -0.1246
 3595SOL    HW222422   2.727   0.650   3.474  2.0964 -0.8791 -1.9631
 3596SOL     OW22423   0.869   0.242   6.896  0.1117 -0.4699 -0.3582
 3596SOL    HW122424   0.910   0.323   6.864  3.0880 -1.1820  1.5926
 3596SOL    HW222425   0.937   0.220   6.960  0.0468  1.1948  0.2971
 3597SOL     OW22426   1.510   0.769  17.393 -0.3614  0.1191  0.1811
 3597SOL    HW122427   1.544   0.740  17.477 -0.0079 -1.6640 -0.5570
 3597SOL    HW222428   1.544   0.701  17.334 -0.6681 -0.1082  0.2633
 3598SOL     OW22429   2.061   2.516   3.588 -0.3951  0.1426 -0.0731
 3598SOL    HW122430   2.033   2.520   3.679 -2.4291  1.6036 -0.7643
 3598SOL    HW222431   2.008   2.588   3.553 -1.6257 -2.0607 -2.6598
 3599SOL     OW22432   1.689   3.890  10.092 -0.2458  0.1701 -0.5954
 3599SOL    HW122433   1.731   3.867  10.175  0.4000  0.4071 -0.8571
 3599SOL    HW222434   1.708   3.984  10.090 -1.3828  0.4199  0.0459
 3600SOL     OW22435   4.070   3.686   5.050 -0.1888  0.6121  0.2121
 3600SOL    HW122436   4.050   3.620   4.984  1.0484 -0.1921  0.6296
 3600SOL    HW222437   4.015   3.760   5.024 -0.1462  0.8762  0.8912
 3601SOL     OW22438   1.410   0.817   6.682 -0.6178 -0.6454 -0.1680
 3601SOL    HW122439   1.495   0.782   6.655 -0.1796  0.0264  0.3457
 3601SOL    HW222440   1.404   0.894   6.624  2.5101 -0.4250 -0.2001
 3602SOL     OW22441   1.912   1.816   7.725  0.2109  0.9518  0.0149
 3602SOL    HW122442   1.833   1.856   7.762 -0.0675  0.8268 -0.4370
 3602SOL    HW222443   1.912   1.746   7.791  1.6797  0.1066 -0.8829
 3603SOL     OW22444   0.062   3.371  15.966 -0.1368 -0.2502 -0.4230
 3603SOL    HW122445   4.721   3.362  16.023 -1.5576 -1.1402 -2.4642
 3603SOL    HW222446   0.128   3.379  16.035 -0.8762 -0.3238  0.2938
 3604SOL     OW22447   2.128   3.096   3.601 -0.5154  0.6105 -0.0442
 3604SOL    HW122448   2.061   3.148   3.646 -0.5884 -1.3542  2.1126
 3604SOL    HW222449   2.066   3.038   3.557 -1.6847  0.9500  1.1376
 3605SOL     OW22450   3.301   4.185  16.557 -0.0600 -0.8770 -0.2913
 3605SOL    HW122451   3.336   4.134  16.630 -0.7835  0.3528  0.9260
 3605SOL    HW222452   3.363   4.258  16.565 -0.2016 -0.9244  1.2133
 3606SOL     OW22453   2.450   1.008   4.712  0.0718 -0.2151 -0.0117
 3606SOL    HW122454   2.541   0.993   4.685  0.3113 -0.2646  0.8254
 3606SOL    HW222455   2.450   1.017   4.807  1.6129 -2.4471  0.2006
 3607SOL     OW22456   2.710   1.160   7.576 -0.1431  0.6469 -0.3431
 3607SOL    HW122457   2.648   1.230   7.555 -0.1065  0.8916  0.3462
 3607SOL    HW222458   2.641   1.107   7.617  0.7720  0.5497  1.0868
 3608SOL     OW22459   2.287   4.282   6.978  0.2319  0.1575  0.5826
 3608SOL    HW122460   2.285   4.189   7.000  0.6669  0.4066  1.6756
 3608SOL    HW222461   2.378   4.304   6.996  0.1144  0.5351  0.7202
 3609SOL     OW22462   0.105   0.454   4.390 -0.1138  0.3598 -0.5610
 3609SOL    HW122463   0.068   0.430   4.475  0.1639  1.9605  0.0044
 3609SOL    HW222464   0.028   0.494   4.348 -0.0970  0.2387 -0.7089
 3610SOL     OW22465   0.848   0.903  11.832 -0.6714 -0.1764 -0.2857
 3610SOL    HW122466   0.929   0.857  11.855 -0.6249 -0.1597 -0.4142
 3610SOL    HW222467   0.872   0.992  11.855  0.5751 -0.6859  0.4095
 3611SOL     OW22468   4.408   3.814  16.836  0.6648  0.3255 -0.7514
 3611SOL    HW122469   4.406   3.724  16.803  0.7946 -0.4021  1.2506
 3611SOL    HW222470   4.490   3.838  16.792  1.2951  0.6845  0.6318
 3612SOL     OW22471   3.962   4.026   2.817 -0.5055 -0.7099 -0.6037
 3612SOL    HW122472   3.903   3.956   2.844 -0.7865  0.1252  0.9143
 3612SOL    HW222473   3.931   4.032   2.727 -0.0555 -1.8130 -0.8398
 3613SOL     OW22474   2.412   4.482  13.132  0.4442 -0.1271 -0.4556
 3613SOL    HW122475   2.378   4.450  13.049 -2.8895  1.5513  0.2705
 3613SOL    HW222476   2.506   4.483  13.112  0.5677 -0.6929  0.1006
 3614SOL     OW22477   1.339   2.318  12.388  0.3202  0.2455 -0.0991
 3614SOL    HW122478   1.264   2.315  12.329  0.4236  0.6994 -0.2470
 3614SOL    HW222479   1.396   2.380  12.344 -2.0296  0.7802 -2.3976
 3615SOL     OW22480   0.885   2.626  10.770 -0.3637  0.7444 -0.0716
 3615SOL    HW122481   0.865   2.575  10.848  2.3773 -0.3497 -0.0724
 3615SOL    HW222482   0.961   2.583  10.731 -1.3246 -0.3911 -0.7101
 3616SOL     OW22483   2.077   3.731   6.833 -0.1237 -0.3157  0.5131
 3616SOL    HW122484   2.019   3.764   6.902  0.4734  0.2656  0.7398
 3616SOL    HW222485   2.141   3.686   6.888  0.3370  0.6702  0.7951
 3617SOL     OW22486   1.702   4.137  11.280 -0.3727  0.2140  0.1173
 3617SOL    HW122487   1.689   4.210  11.341 -3.2500  0.4273 -0.7283
 3617SOL    HW222488   1.797   4.131  11.276 -0.3317  2.0829 -1.6730
 3618SOL     OW22489   3.651   2.937  14.602 -0.3243 -0.1290  0.1102
 3618SOL    HW122490   3.697   2.966  14.523 -2.1587 -0.3550 -1.0449
 3618SOL    HW222491   3.670   2.845  14.582 -1.1175  0.0047 -1.3027
 3619SOL     OW22492   3.088   1.583  16.449  0.1646 -0.1757 -1.0620
 3619SOL    HW122493   3.183   1.597  16.447  0.1350  0.3070  0.3602
 3619SOL    HW222494   3.086   1.499  16.404  1.1773 -0.1511 -1.1532
 3620SOL     OW22495   2.278   0.519  13.126 -0.4245 -0.3432 -0.1102
 3620SOL    HW122496   2.296   0.452  13.060  0.7913  1.5332 -1.6696
 3620SOL    HW222497   2.321   0.598  13.093 -0.5201  0.7101  2.2946
 3621SOL     OW22498   1.175   1.913   9.623  0.2076 -0.9002  0.2524
 3621SOL    HW122499   1.130   1.830   9.637  1.2065 -1.4216  0.4082
 3621SOL    HW222500   1.226   1.917   9.704  1.0169  2.5941 -0.4310
 3622SOL     OW22501   3.523   1.959  13.396  0.3061  0.0307 -0.3270
 3622SOL    HW122502   3.557   1.883  13.350 -0.7427 -1.7800  1.9044
 3622SOL    HW222503   3.519   2.022  13.323 -1.4927 -0.0268 -0.2818
 3623SOL     OW22504   1.972   0.655   2.488 -0.6133 -0.3261  0.0624
 3623SOL    HW122505   1.990   0.748   2.478  0.0405 -0.6361 -1.7270
 3623SOL    HW222506   1.908   0.675   2.556  0.0025 -0.7398  0.7757
 3624SOL     OW22507   4.355   3.469   1.556 -0.1543  0.0414 -0.1398
 3624SOL    HW122508   4.368   3.382   1.593  0.9844 -0.2341 -1.2097
 3624SOL    HW222509   4.261   3.466   1.540 -0.7016  0.1631  2.8778
 3625SOL     OW22510   2.347   1.048  11.162  0.1964 -0.0824  0.3051
 3625SOL    HW122511   2.439   1.072  11.155  0.1876 -0.7374 -2.2528
 3625SOL    HW222512   2.320   1.119  11.220 -0.6293  0.4674 -0.7428
 3626SOL     OW22513   4.268   0.971   1.421  0.4953 -0.4541  0.1111
 3626SOL    HW122514   4.323   1.050   1.425  1.5545 -1.2046  0.3149
 3626SOL    HW222515   4.230   0.958   1.334  0.3704 -1.7944  0.3771
 3627SOL     OW22516   3.376   3.207  16.421 -0.7391  0.1994 -0.0004
 3627SOL    HW122517   3.330   3.150  16.483  0.4281 -1.9229 -1.1159
 3627SOL    HW222518   3.444   3.153  16.382 -0.5345  0.4082  0.0723
 3628SOL     OW22519   4.089   4.560  14.279  0.2521  0.3661 -0.6400
 3628SOL    HW122520   4.181   4.578  14.299  0.7553 -3.4014  0.3870
 3628SOL    HW222521   4.084   4.465  14.284 -1.7797  0.5841  1.3188
 3629SOL     OW22522   0.668   3.684  12.932 -0.2619  0.0304 -0.1451
 3629SOL    HW122523   0.682   3.613  12.994 -0.8739 -0.9608 -1.1470
 3629SOL    HW222524   0.743   3.742  12.940 -0.1461 -0.1170 -0.1798
 3630SOL     OW22525   3.311   1.580   0.328 -0.4363 -0.0688  0.3477
 3630SOL    HW122526   3.296   1.519   0.255 -0.9586  0.9194 -0.3677
 3630SOL    HW222527   3.317   1.523   0.405  0.3301 -2.0218 -1.1603
 3631SOL     OW22528   1.868   0.029  16.947 -0.2305  0.0232  0.1757
 3631SOL    HW122529   1.890   4.710  16.871 -0.8070  0.5140 -0.3332
 3631SOL    HW222530   1.908   4.716  17.020  3.9442  1.0588 -1.4041
 3632SOL     OW22531   4.181   1.906   7.369  0.3032  0.0729 -0.5000
 3632SOL    HW122532   4.094   1.930   7.334  1.1447 -0.1212 -2.7662
 3632SOL    HW222533   4.228   1.893   7.286  1.8652 -2.1547  0.7564
 3633SOL     OW22534   3.349   0.263  16.759 -0.0296  0.3537 -0.1865
 3633SOL    HW122535   3.276   0.302  16.710  0.6330 -0.7371 -2.0416
 3633SOL    HW222536   3.328   0.170  16.753 -2.5972  1.0037 -1.4384
 3634SOL     OW22537   0.271   1.174   5.098  0.0984 -0.4486  0.5270
 3634SOL    HW122538   0.247   1.083   5.083  0.9713 -0.2728 -1.8576
 3634SOL    HW222539   0.293   1.193   5.007  0.5255 -2.6298  0.1913
 3635SOL     OW22540   4.671   2.615   4.695  0.0943  0.8005  0.0014
 3635SOL    HW122541   4.693   2.556   4.767 -2.2255 -0.7154 -0.5433
 3635SOL    HW222542   4.723   2.584   4.621 -0.7050  1.6838 -0.9250
 3636SOL     OW22543   3.852   4.712  14.760 -0.3277 -0.7484 -0.0767
 3636SOL    HW122544   3.889   0.057  14.722 -2.6329 -0.2245 -1.2423
 3636SOL    HW222545   3.794   4.690  14.688  1.6454 -1.3351 -1.4802
 3637SOL     OW22546   0.004   0.312   4.638  0.0149 -0.5628 -0.5131
 3637SOL    HW122547   0.005   0.311   4.734  2.1405  0.2630 -0.5300
 3637SOL    HW222548   4.665   0.252   4.627  0.7491 -1.4380 -0.6639
 3638SOL     OW22549   2.618   3.023  11.501  0.0173 -0.1949  0.2279
 3638SOL    HW122550   2.690   2.968  11.532 -0.8468 -0.5930  1.5342
 3638SOL    HW222551   2.563   3.015  11.579  0.2335 -0.2924  0.3705
 3639SOL     OW22552   1.083   2.200  14.485  0.1382 -0.2407 -0.3371
 3639SOL    HW122553   1.101   2.116  14.526 -1.9250 -1.4529 -1.9157
 3639SOL    HW222554   1.144   2.260  14.529 -0.5781 -0.5522  1.0789
 3640SOL     OW22555   3.504   4.699   9.494 -0.0526  0.4626  0.2043
 3640SOL    HW122556   3.448   4.624   9.477 -1.7497  1.3806  1.6364
 3640SOL    HW222557   3.540   4.706   9.405  0.9361  0.2477  0.5908
 3641SOL     OW22558   2.838   2.497   0.322  0.3713  0.2699 -0.0943
 3641SOL    HW122559   2.802   2.409   0.326 -0.0396  0.4165 -0.5169
 3641SOL    HW222560   2.911   2.476   0.263  0.1189 -0.0664 -0.2864
 3642SOL     OW22561   0.796   0.193   1.253 -0.0210 -0.3320 -0.0235
 3642SOL    HW122562   0.733   0.184   1.325 -0.6874  0.1329 -0.5539
 3642SOL    HW222563   0.772   0.283   1.230  0.7154  0.2321  1.4288
 3643SOL     OW22564   2.544   3.555   1.961  0.5082  0.1365 -0.2755
 3643SOL    HW122565   2.549   3.509   2.045  0.7359  0.0560 -0.3322
 3643SOL    HW222566   2.500   3.637   1.982  1.4055  0.2722  1.0026
 3644SOL     OW22567   2.259   4.240  12.057 -0.1355  0.3274 -0.5077
 3644SOL    HW122568   2.259   4.148  12.031 -0.2842  0.2461 -0.2197
 3644SOL    HW222569   2.280   4.279  11.972 -0.1833  0.7566 -0.3253
 3645SOL     OW22570   2.494   4.358   8.929 -0.3420 -0.1193 -1.0011
 3645SOL    HW122571   2.423   4.317   8.879 -0.3012 -0.8846 -0.4273
 3645SOL    HW222572   2.576   4.314   8.909  0.6476  1.7037 -0.9808
 3646SOL     OW22573   0.919   3.977   5.562  0.2062  0.5590 -0.0885
 3646SOL    HW122574   0.848   4.020   5.513  0.1058  1.6262  1.0109
 3646SOL    HW222575   0.943   4.053   5.615  1.2557 -0.5294  0.9856
 3647SOL     OW22576   1.549   3.183   6.109 -0.2937 -0.2229  0.0843
 3647SOL    HW122577   1.470   3.191   6.057  1.2047  1.7503 -1.8732
 3647SOL    HW222578   1.596   3.260   6.075 -1.8333  0.9216  0.5593
 3648SOL     OW22579   1.910   4.167   7.168  0.3348 -0.0036 -0.3051
 3648SOL    HW122580   1.868   4.215   7.097 -0.6633 -0.6938 -0.1825
 3648SOL    HW222581   1.908   4.235   7.235  0.6493  0.9216 -1.2416
 3649SOL     OW22582   2.759   0.041   5.253 -0.0508  0.0826  0.2692
 3649SOL    HW122583   2.792   4.695   5.294  2.0445 -0.2998 -2.1646
 3649SOL    HW222584   2.833   0.102   5.261 -0.3593  0.8456 -2.5324
 3650SOL     OW22585   0.213   1.498   9.991  0.0819  0.0023  0.0057
 3650SOL    HW122586   0.254   1.496  10.077  2.4265  0.9488 -1.1003
 3650SOL    HW222587   0.220   1.588   9.959  0.7626  0.1081  0.4566
 3651SOL     OW22588   2.704   4.536   8.802 -0.0457 -0.4514 -0.2944
 3651SOL    HW122589   2.637   4.513   8.737 -0.1551 -1.5075  0.1901
 3651SOL    HW222590   2.769   4.471   8.774  1.6188  1.1415 -0.1225
 3652SOL     OW22591   3.876   4.729   6.487 -0.4181  1.0508 -0.0673
 3652SOL    HW122592   3.884   4.719   6.582  0.5076 -0.7780 -0.3365
 3652SOL    HW222593   3.920   0.079   6.483  0.7992  0.4488  0.2181
 3653SOL     OW22594   1.957   2.094  14.453 -0.2645 -0.2921 -0.2437
 3653SOL    HW122595   1.969   2.189  14.447  2.5503 -0.7343 -1.3860
 3653SOL    HW222596   1.883   2.083  14.394 -0.1783  2.5194 -0.9073
 3654SOL     OW22597   4.241   1.080   9.041  0.1293 -0.8555  0.1797
 3654SOL    HW122598   4.293   1.097   8.963  1.4554  0.9482  1.4629
 3654SOL    HW222599   4.307   1.100   9.107  0.0589 -2.3192  0.6917
 3655SOL     OW22600   2.300   1.404   7.697 -0.4237  0.1694  0.2026
 3655SOL    HW122601   2.274   1.495   7.709  0.0257 -0.0745  3.1268
 3655SOL    HW222602   2.217   1.369   7.665 -0.3706  2.1513 -2.0596
 3656SOL     OW22603   4.318   2.768   6.298  0.1452 -0.1381 -0.2525
 3656SOL    HW122604   4.307   2.755   6.392 -1.3223  1.1361 -0.2534
 3656SOL    HW222605   4.330   2.677   6.271  0.1370 -0.2815  0.2178
 3657SOL     OW22606   4.124   0.288   5.428 -0.4970  0.4333  0.1301
 3657SOL    HW122607   4.210   0.283   5.469 -0.2210  0.7385 -0.4167
 3657SOL    HW222608   4.127   0.377   5.391  3.4184  0.6705  0.9957
 3658SOL     OW22609   2.252   1.083  15.870 -0.4042 -0.1760  0.2084
 3658SOL    HW122610   2.302   1.152  15.914  0.0342 -1.5227  1.8239
 3658SOL    HW222611   2.232   1.120  15.784  2.7752 -1.4005 -1.0567
 3659SOL     OW22612   1.032   0.642  11.566  0.4315 -0.2393  0.0156
 3659SOL    HW122613   1.025   0.581  11.639  0.3735  1.2225  1.2357
 3659SOL    HW222614   0.944   0.636  11.530 -0.0100 -2.2505  1.4495
 3660SOL     OW22615   3.690   4.352   2.802  0.0854  0.1073 -0.1782
 3660SOL    HW122616   3.680   4.296   2.725  0.5516 -1.7837  1.1514
 3660SOL    HW222617   3.755   4.412   2.765 -0.2437  0.5690 -0.0105
 3661SOL     OW22618   1.911   2.566   9.512 -0.2423  0.3861 -0.6397
 3661SOL    HW122619   1.944   2.621   9.441  1.0102  0.6626  0.1501
 3661SOL    HW222620   1.825   2.604   9.533  0.0201 -1.1075  3.1197
 3662SOL     OW22621   0.741   0.519   4.302  0.7244  0.1285 -0.5623
 3662SOL    HW122622   0.770   0.517   4.210 -0.2026 -0.3424 -0.8407
 3662SOL    HW222623   0.687   0.598   4.309 -0.7548 -1.0052  0.7967
 3663SOL     OW22624   2.933   4.369   3.918  0.0510  0.3831 -0.4682
 3663SOL    HW122625   3.009   4.423   3.898  0.2620  0.6388  1.0203
 3663SOL    HW222626   2.969   4.282   3.904  1.4968  1.0638 -0.9398
 3664SOL     OW22627   0.224   4.082   2.019 -0.2085  0.2589 -0.2577
 3664SOL    HW122628   0.309   4.073   2.061 -1.2666 -1.3355  1.5541
 3664SOL    HW222629   0.228   4.034   1.936 -0.1057  0.2691 -0.2578
 3665SOL     OW22630   2.520   4.561   1.609  0.1696  0.0218  0.0270
 3665SOL    HW122631   2.592   4.607   1.651 -0.9225  2.5874 -0.9466
 3665SOL    HW222632   2.452   4.626   1.621 -0.0474 -0.0852 -0.6188
 3666SOL     OW22633   2.692   1.602   6.805  0.4152 -0.1392 -0.4773
 3666SOL    HW122634   2.738   1.646   6.877 -3.0778  1.4884  0.7803
 3666SOL    HW222635   2.628   1.555   6.860  0.8552 -1.7481 -1.3482
 3667SOL     OW22636   2.334   0.274   7.544  0.9624 -0.0476 -0.2290
 3667SOL    HW122637   2.341   0.283   7.639 -1.7056 -1.8501  0.1238
 3667SOL    HW222638   2.391   0.348   7.519 -0.0640  0.5179 -0.8900
 3668SOL     OW22639   2.062   3.118   4.553 -0.1797  0.0359  0.2852
 3668SOL    HW122640   2.124   3.188   4.571  0.8464 -0.3517 -1.8263
 3668SOL    HW222641   2.004   3.114   4.629 -0.1721 -2.4594  0.1626
 3669SOL     OW22642   0.629   4.430   4.992 -0.6855 -0.1788  1.0113
 3669SOL    HW122643   0.619   4.409   5.085 -2.4129  0.3837  0.9480
 3669SOL    HW222644   0.720   4.456   4.981 -0.7116  0.1420  1.5823
 3670SOL     OW22645   2.796   3.502   3.253  0.0221 -0.4645 -0.4048
 3670SOL    HW122646   2.701   3.489   3.257 -0.0707  0.7844  1.7472
 3670SOL    HW222647   2.814   3.572   3.315 -0.7376 -1.4793  0.9774
 3671SOL     OW22648   0.541   0.624  11.524 -0.2028  0.4568 -0.5516
 3671SOL    HW122649   0.447   0.627  11.544 -0.1729  1.3840 -0.5773
 3671SOL    HW222650   0.569   0.545  11.570 -0.3804  0.3907 -0.5570
 3672SOL     OW22651   3.161   0.470  10.858 -0.1607  0.2319 -0.0111
 3672SOL    HW122652   3.248   0.510  10.854  0.5127 -1.3935 -1.4843
 3672SOL    HW222653   3.139   0.466  10.951 -0.3673  1.4370 -0.0062
 3673SOL     OW22654   0.027   0.812   8.646 -0.3757  0.4744 -0.1684
 3673SOL    HW122655   4.695   0.796   8.713  1.0654  1.1010  1.4063
 3673SOL    HW222656   4.703   0.816   8.570 -1.1721 -0.4090  0.3958
 3674SOL     OW22657   3.891   2.851   3.680 -0.8384 -0.7012  0.0239
 3674SOL    HW122658   3.949   2.789   3.724  0.5350 -0.4755 -1.4549
 3674SOL    HW222659   3.897   2.808   3.594 -1.2525 -0.3138 -0.1992
 3675SOL     OW22660   2.504   1.159  16.469  0.4389 -0.0594 -0.0512
 3675SOL    HW122661   2.465   1.205  16.544  0.2177  1.2528 -0.9679
 3675SOL    HW222662   2.441   1.180  16.401 -1.2040 -1.0403  1.1809
 3676SOL     OW22663   2.137   1.038  11.798  0.3095 -0.3543 -0.4071
 3676SOL    HW122664   2.196   1.005  11.730  1.0394  1.2247 -0.5235
 3676SOL    HW222665   2.073   0.968  11.785 -0.5457  0.2758  0.3826
 3677SOL     OW22666   3.608   1.224  16.977  0.5285  0.5196 -0.2355
 3677SOL    HW122667   3.694   1.246  16.941  1.3983 -1.0139  0.8875
 3677SOL    HW222668   3.615   1.130  16.993 -0.6073  0.6976  1.3761
 3678SOL     OW22669   4.645   0.062   2.870 -0.1553 -0.3459 -0.7239
 3678SOL    HW122670   4.589   4.734   2.917  1.1168  1.3825  3.0585
 3678SOL    HW222671   4.589   0.056   2.792  1.4169  0.1653 -1.8898
 3679SOL     OW22672   1.162   4.217   4.005 -0.4141  0.3814  0.4561
 3679SOL    HW122673   1.133   4.306   3.988  3.6158  1.3106 -1.5019
 3679SOL    HW222674   1.258   4.223   3.999 -0.2014  0.8906  4.1658
 3680SOL     OW22675   0.660   3.822  16.280  0.0089  0.2878 -0.3016
 3680SOL    HW122676   0.715   3.775  16.342 -0.6373 -0.7330 -0.4814
 3680SOL    HW222677   0.593   3.761  16.248  0.9829  0.3499 -2.4396
 3681SOL     OW22678   3.951   3.010   7.246  0.7207 -0.0081 -0.7289
 3681SOL    HW122679   3.956   2.914   7.250  0.4303 -0.0634 -1.8320
 3681SOL    HW222680   4.009   3.023   7.171  2.0223  0.1278  0.2830
 3682SOL     OW22681   1.846   4.316  16.427 -0.5100 -0.1982 -0.1035
 3682SOL    HW122682   1.758   4.328  16.392 -0.2058  1.5180 -0.3129
 3682SOL    HW222683   1.825   4.298  16.519  1.2803  0.0834  0.3680
 3683SOL     OW22684   4.507   0.139   1.564  0.2988  1.1938 -0.2864
 3683SOL    HW122685   4.497   0.071   1.630  2.3961  1.3487  0.1782
 3683SOL    HW222686   4.544   0.206   1.622  1.6444 -0.2728  0.5256
 3684SOL     OW22687   2.979   2.557  13.198  0.0238  0.4528 -0.4545
 3684SOL    HW122688   3.063   2.511  13.208 -0.6775 -0.8158 -0.4169
 3684SOL    HW222689   3.010   2.646  13.180 -1.2887  0.7773 -1.0954
 3685SOL     OW22690   4.542   0.311   3.791 -0.0326  0.1464  0.0193
 3685SOL    HW122691   4.624   0.328   3.838 -0.8340  3.8368  0.0778
 3685SOL    HW222692   4.491   0.292   3.870  0.9422 -1.3209  0.2874
 3686SOL     OW22693   3.986   3.155   8.054 -0.0532  0.3895 -0.0977
 3686SOL    HW122694   3.943   3.112   7.981 -2.4101  2.2451  0.1882
 3686SOL    HW222695   4.073   3.115   8.053 -0.2468 -0.0666  1.0760
 3687SOL     OW22696   4.509   2.302   5.156  0.2222  1.0225  0.1233
 3687SOL    HW122697   4.448   2.254   5.212 -1.3154  2.2909 -0.4620
 3687SOL    HW222698   4.462   2.289   5.074  0.0384 -2.2507  0.7746
 3688SOL     OW22699   2.853   1.224  14.987  0.0676  0.3078  0.1002
 3688SOL    HW122700   2.800   1.153  15.024  0.5105  0.5074  1.1091
 3688SOL    HW222701   2.919   1.229  15.055  1.5642  2.2811 -1.4927
 3689SOL     OW22702   1.497   2.542   7.408  0.1442  0.1661  0.1161
 3689SOL    HW122703   1.511   2.520   7.316 -3.0468  0.5833 -0.4621
 3689SOL    HW222704   1.431   2.610   7.396 -0.0372 -0.0718 -0.2244
 3690SOL     OW22705   3.995   1.011   6.473  0.3272  0.1714 -0.4457
 3690SOL    HW122706   3.922   1.043   6.419  0.5392  2.6392  0.7173
 3690SOL    HW222707   4.002   1.085   6.534  0.9304  0.8558 -1.3343
 3691SOL     OW22708   2.672   1.771   5.590 -0.3828  0.7598 -0.2263
 3691SOL    HW122709   2.597   1.765   5.531 -0.1002  0.8233 -0.5896
 3691SOL    HW222710   2.678   1.866   5.593  0.2605  0.8140 -3.1902
 3692SOL     OW22711   3.602   2.987  10.679  0.5891 -0.4596 -0.1049
 3692SOL    HW122712   3.646   2.902  10.673 -0.6365 -0.9179 -2.5620
 3692SOL    HW222713   3.626   3.012  10.590 -0.5193  0.3997 -0.1594
 3693SOL     OW22714   3.538   1.346   1.994  0.0408  0.2467  0.3442
 3693SOL    HW122715   3.605   1.333   2.060  1.7194 -0.9475 -1.6090
 3693SOL    HW222716   3.478   1.411   2.032 -1.6315 -0.7718 -0.5716
 3694SOL     OW22717   4.214   0.369   9.075  0.1147 -0.0289 -0.1686
 3694SOL    HW122718   4.282   0.365   9.006  1.5257 -0.5818  1.2562
 3694SOL    HW222719   4.186   0.278   9.077 -1.4162  0.4573  0.3106
 3695SOL     OW22720   4.671   2.521   3.571 -0.9332  0.1119  0.3948
 3695SOL    HW122721   4.683   2.607   3.531  0.3278  0.7088  2.0377
 3695SOL    HW222722   4.586   2.500   3.533 -1.2225 -0.7345  1.5403
 3696SOL     OW22723   3.014   1.004   9.731  0.1204  0.6688  0.2292
 3696SOL    HW122724   3.094   1.009   9.783 -0.2422  1.2869  0.7217
 3696SOL    HW222725   3.039   0.945   9.660 -2.8503  1.1535 -1.2181
 3697SOL     OW22726   4.080   2.750   9.422 -0.2027  0.0573 -0.4018
 3697SOL    HW122727   4.101   2.803   9.345 -0.2038 -0.8954 -1.0627
 3697SOL    HW222728   4.079   2.664   9.380 -2.9281 -1.1247  2.0839
 3698SOL     OW22729   1.623   3.948   5.293 -0.0466 -0.6971  0.0811
 3698SOL    HW122730   1.533   3.922   5.312 -0.4071  0.0329 -0.6177
 3698SOL    HW222731   1.626   3.951   5.197  0.7292 -1.7187  0.0708
 3699SOL     OW22732   3.872   2.366   3.213  0.2538  0.2732  0.4028
 3699SOL    HW122733   3.853   2.300   3.146  2.1675  1.6492 -1.5108
 3699SOL    HW222734   3.831   2.334   3.293  1.0104  1.0167  1.0886
 3700SOL     OW22735   1.035   4.248  11.166  0.0745 -0.4159 -0.1758
 3700SOL    HW122736   1.056   4.285  11.251  0.4074  0.8875 -0.8348
 3700SOL    HW222737   1.064   4.158  11.184  1.0278  0.2769  1.6249
 3701SOL     OW22738   4.647   4.389   8.295  0.2048  0.3001  0.1349
 3701SOL    HW122739   4.727   4.442   8.293  0.0554  0.5170 -0.1408
 3701SOL    HW222740   4.604   4.418   8.375  2.5077  0.1163  1.4440
 3702SOL     OW22741   1.182   1.047   8.676 -0.2602 -0.4241 -0.5305
 3702SOL    HW122742   1.120   1.111   8.711 -1.8506 -2.2907  0.0477
 3702SOL    HW222743   1.259   1.098   8.651 -0.9473  0.9734  0.1456
 3703SOL     OW22744   2.989   1.301   8.427  0.3978 -0.0476  0.3884
 3703SOL    HW122745   3.053   1.320   8.495  2.1645  1.4638 -1.6587
 3703SOL    HW222746   2.924   1.371   8.431 -0.3890 -0.7763  0.3253
 3704SOL     OW22747   4.656   0.892   9.804  0.2263  0.0306 -0.0673
 3704SOL    HW122748   4.660   0.985   9.824 -0.8916 -0.1464  0.9752
 3704SOL    HW222749   4.729   0.862   9.858  2.2919  1.3932 -2.0991
 3705SOL     OW22750   2.223   3.981  13.232  0.1619  0.3753 -0.0429
 3705SOL    HW122751   2.167   4.058  13.238  1.5545  1.2355  1.9680
 3705SOL    HW222752   2.290   4.003  13.168  0.7967 -0.7657  0.2310
 3706SOL     OW22753   3.934   3.799   0.301  0.0106  0.3745  0.3588
 3706SOL    HW122754   4.000   3.804   0.370 -1.1561 -2.6189  1.6976
 3706SOL    HW222755   3.997   3.756   0.243 -2.2291 -1.9856 -0.2787
 3707SOL     OW22756   3.584   1.345   1.426 -0.1279  0.5028  0.3730
 3707SOL    HW122757   3.597   1.397   1.505 -1.6471 -2.0180  2.2649
 3707SOL    HW222758   3.664   1.295   1.441 -1.0390 -0.2949  2.5510
 3708SOL     OW22759   0.158   4.333   8.011 -0.2980 -0.3122 -0.5173
 3708SOL    HW122760   0.185   4.252   7.967 -2.2991 -1.3573  0.1852
 3708SOL    HW222761   0.240   4.366   8.048 -0.1308 -0.3545 -0.8499
 3709SOL     OW22762   1.289   3.252   8.680  0.2676 -0.4934 -0.1139
 3709SOL    HW122763   1.325   3.335   8.648 -0.0992 -0.5551 -0.6823
 3709SOL    HW222764   1.198   3.274   8.697  0.7575  1.0658  0.5251
 3710SOL     OW22765   0.777   2.681   3.277  0.1128  0.3559  0.4226
 3710SOL    HW122766   0.775   2.773   3.303 -1.2895  1.1711 -2.6892
 3710SOL    HW222767   0.722   2.688   3.200  0.1518 -1.3354  0.2334
 3711SOL     OW22768   3.030   0.585  15.014  0.0103 -0.2849  0.3540
 3711SOL    HW122769   2.936   0.568  15.017  0.0767 -0.8367 -0.7072
 3711SOL    HW222770   3.054   0.537  15.093 -1.2633  0.0420  0.9296
 3712SOL     OW22771   0.602   3.938   6.109 -0.9856 -0.3515  0.7217
 3712SOL    HW122772   0.652   3.869   6.066  1.1963  1.3870  0.4793
 3712SOL    HW222773   0.615   3.909   6.199  1.9978 -0.6640  0.1644
 3713SOL     OW22774   2.462   2.390   5.305 -0.2234 -0.5756  0.6581
 3713SOL    HW122775   2.502   2.477   5.293 -0.3146 -1.0284 -2.9483
 3713SOL    HW222776   2.448   2.394   5.399 -1.0960 -3.9155  0.6713
 3714SOL     OW22777   3.349   1.363   2.692  0.0578 -0.0182 -0.2297
 3714SOL    HW122778   3.350   1.307   2.770  0.9903 -1.8985 -1.5855
 3714SOL    HW222779   3.256   1.358   2.671 -0.2046 -1.2915  1.2417
 3715SOL     OW22780   3.032   2.683  17.202 -0.4901 -0.3024  0.2637
 3715SOL    HW122781   3.098   2.752  17.199 -0.6468 -0.2101 -1.0769
 3715SOL    HW222782   2.956   2.738  17.220  1.2483  2.8151 -1.9461
 3716SOL     OW22783   3.151   3.911   0.607 -0.2141  0.1166  0.1810
 3716SOL    HW122784   3.226   3.857   0.581  0.4282  1.2974 -0.4029
 3716SOL    HW222785   3.203   3.989   0.628  1.7852 -1.2019  0.1595
 3717SOL     OW22786   3.959   2.527   7.860  0.4895  0.0017 -0.1683
 3717SOL    HW122787   3.929   2.578   7.785 -1.2055 -0.1348  0.4100
 3717SOL    HW222788   3.939   2.589   7.929  0.8315  1.4389 -1.3696
 3718SOL     OW22789   3.134   1.303  15.804  0.2133 -0.2421  0.1179
 3718SOL    HW122790   3.072   1.297  15.876  0.9436 -2.4619  0.5598
 3718SOL    HW222791   3.157   1.211  15.791  0.1529  0.0053 -1.8374
 3719SOL     OW22792   0.141   3.533  15.146 -0.5171 -0.3752 -0.7011
 3719SOL    HW122793   0.191   3.570  15.219 -1.3578  2.5309 -1.6098
 3719SOL    HW222794   0.052   3.535  15.183  0.5086  0.7525  1.6438
 3720SOL     OW22795   0.540   4.428   8.920 -0.5245  0.2325  0.3006
 3720SOL    HW122796   0.530   4.386   9.005 -2.2184 -0.3027 -0.1606
 3720SOL    HW222797   0.520   4.518   8.945 -0.5605 -0.0813  1.3841
 3721SOL     OW22798   0.250   3.048   7.528 -0.6813 -0.1833  0.2163
 3721SOL    HW122799   0.307   2.978   7.499 -0.7756  0.1602 -0.8123
 3721SOL    HW222800   0.228   3.017   7.615  2.8998  2.6125  2.1031
 3722SOL     OW22801   0.275   0.351   4.752 -0.0574 -0.3725 -0.1775
 3722SOL    HW122802   0.257   0.344   4.845 -0.6115  1.7809 -0.1429
 3722SOL    HW222803   0.192   0.336   4.706  0.2959  0.7549 -1.1976
 3723SOL     OW22804   3.720   2.375  15.578 -0.4284  0.0687  0.3549
 3723SOL    HW122805   3.645   2.351  15.634 -0.2806  1.4206  1.1394
 3723SOL    HW222806   3.676   2.449  15.536  0.6185 -0.5706 -1.8829
 3724SOL     OW22807   2.162   3.334   2.532 -0.5282 -0.5325 -0.6520
 3724SOL    HW122808   2.151   3.366   2.442  1.6952  2.3069  0.0800
 3724SOL    HW222809   2.251   3.299   2.519 -0.2948 -0.6333  1.2843
 3725SOL     OW22810   3.997   1.092   9.926 -0.0508  0.1384  0.0699
 3725SOL    HW122811   4.073   1.055   9.882  0.4359  1.1254  0.0852
 3725SOL    HW222812   4.020   1.098  10.019 -0.3394  0.4310  0.1229
 3726SOL     OW22813   3.598   2.697   6.538 -0.1245  0.0402  0.4001
 3726SOL    HW122814   3.599   2.769   6.474  0.3577 -1.0881 -0.8640
 3726SOL    HW222815   3.688   2.667   6.531 -0.8467 -1.9077 -0.5160
 3727SOL     OW22816   3.719   0.561  16.840  0.3468  0.1209  0.1339
 3727SOL    HW122817   3.728   0.526  16.928  1.3406  3.4698  1.3636
 3727SOL    HW222818   3.624   0.565  16.831  0.3429 -1.3530 -0.4600
 3728SOL     OW22819   0.501   4.130   5.017  0.8440  0.2935 -0.7603
 3728SOL    HW122820   0.493   4.153   5.109 -1.4155 -1.9330 -0.4012
 3728SOL    HW222821   0.440   4.193   4.979  0.1441 -0.6067 -1.1526
 3729SOL     OW22822   0.130   4.319  13.585  0.6306 -0.1007  0.0067
 3729SOL    HW122823   0.078   4.369  13.522  1.0838 -0.0194 -0.3006
 3729SOL    HW222824   0.061   4.264  13.623  1.0561 -0.3520  0.4079
 3730SOL     OW22825   4.127   4.714   5.303 -0.2687 -0.2383 -0.3578
 3730SOL    HW122826   4.073   0.017   5.372  1.3189  1.0745  0.1706
 3730SOL    HW222827   4.063   4.722   5.232 -0.2459 -0.7370 -0.4357
 3731SOL     OW22828   0.090   1.075   9.459  0.2609 -0.0124 -0.2027
 3731SOL    HW122829   0.032   1.151   9.452  1.3469  0.7221 -1.2151
 3731SOL    HW222830   0.111   1.074   9.552 -1.4359 -0.0142  0.1884
 3732SOL     OW22831   4.599   4.528   9.272  0.5712 -0.0158  0.2693
 3732SOL    HW122832   4.602   4.575   9.355 -3.0832 -1.5593  1.2367
 3732SOL    HW222833   4.686   4.487   9.268  0.0283 -1.3346  2.2188
 3733SOL     OW22834   3.475   2.493   6.716  0.1571  0.5218 -0.3685
 3733SOL    HW122835   3.494   2.439   6.639 -1.3198  0.1769 -0.4849
 3733SOL    HW222836   3.506   2.580   6.691  2.1437 -0.1630 -0.2623
 3734SOL     OW22837   3.385   0.755  17.396  0.1459 -0.1450 -0.7129
 3734SOL    HW122838   3.461   0.746  17.454  0.2145 -1.7861 -1.0508
 3734SOL    HW222839   3.419   0.838  17.365  0.0046 -0.2955 -1.2644
 3735SOL     OW22840   2.760   4.477   1.820 -0.0103 -0.1603 -0.5775
 3735SOL    HW122841   2.828   4.498   1.883 -1.2381 -2.6663  1.5901
 3735SOL    HW222842   2.686   4.500   1.877  0.3940  1.1170 -0.5720
 3736SOL     OW22843   0.890   3.713   3.970 -0.0729  0.6335 -0.2377
 3736SOL    HW122844   0.975   3.751   3.949 -0.0157  0.4545 -0.3364
 3736SOL    HW222845   0.852   3.738   3.886  1.1841 -0.7793 -1.2455
 3737SOL     OW22846   3.892   4.451  14.819 -0.0308  0.1735 -0.2089
 3737SOL    HW122847   3.847   4.535  14.827 -0.7844 -0.2582  0.0053
 3737SOL    HW222848   3.938   4.468  14.736 -0.4287 -0.4084 -0.5437
 3738SOL     OW22849   3.225   1.781   3.468  0.7496 -0.0496  0.2070
 3738SOL    HW122850   3.222   1.850   3.535  2.4977  1.3289 -1.1393
 3738SOL    HW222851   3.168   1.812   3.398  3.6463 -0.2529 -2.2727
 3739SOL     OW22852   1.200   3.058  13.233  0.6628 -0.0827 -0.0893
 3739SOL    HW122853   1.177   3.015  13.316  0.1338 -2.2937 -1.3871
 3739SOL    HW222854   1.120   3.045  13.183 -0.0010 -1.9407  1.4304
 3740SOL     OW22855   3.445   4.140   4.733  0.0982  0.0808  0.3250
 3740SOL    HW122856   3.467   4.218   4.784  0.3845  0.3713 -0.2378
 3740SOL    HW222857   3.531   4.123   4.693 -0.9510 -1.2944 -1.3004
 3741SOL     OW22858   3.256   1.896  15.777  0.3981  0.1796  0.2614
 3741SOL    HW122859   3.302   1.870  15.698  0.7454  2.5326 -0.2806
 3741SOL    HW222860   3.181   1.940  15.737  0.2287 -1.2955 -1.0279
 3742SOL     OW22861   0.158   2.600   5.888 -0.1713 -0.4732 -0.2299
 3742SOL    HW122862   0.203   2.609   5.972 -2.7135  0.5762  0.9929
 3742SOL    HW222863   0.230   2.630   5.833 -0.1278 -0.0716  0.0465
 3743SOL     OW22864   2.270   3.762   7.477  0.1854  0.5778  0.2860
 3743SOL    HW122865   2.306   3.844   7.444  3.1860 -0.6072  0.6633
 3743SOL    HW222866   2.335   3.704   7.437 -1.5106 -0.3330 -1.1764
 3744SOL     OW22867   0.424   0.750  17.644  1.1900 -0.9742  0.3366
 3744SOL    HW122868   0.371   0.770  17.567  0.9389  2.3183  1.3432
 3744SOL    HW222869   0.495   0.697  17.609  1.5922 -0.7968  0.8891
 3745SOL     OW22870   0.151   2.554   4.184  0.2216  0.2863 -0.0731
 3745SOL    HW122871   0.159   2.639   4.228 -0.0251 -0.2341  0.9933
 3745SOL    HW222872   0.166   2.586   4.095 -0.7144 -2.0622 -1.0657
 3746SOL     OW22873   0.162   3.956   4.332  0.3650 -0.5975  0.0322
 3746SOL    HW122874   0.252   3.975   4.358  0.3638 -0.4766 -0.0545
 3746SOL    HW222875   0.180   3.884   4.271  0.2672  1.1372 -2.0565
 3747SOL     OW22876   1.091   0.467   2.495  0.1769  0.3384 -0.7956
 3747SOL    HW122877   1.087   0.548   2.443 -1.0677  0.5257 -0.4145
 3747SOL    HW222878   1.097   0.505   2.582 -0.4760 -0.7194 -0.2904
 3748SOL     OW22879   4.717   2.764   9.614  0.5283 -0.0253 -0.0641
 3748SOL    HW122880   4.635   2.803   9.646  0.3038 -0.8140  0.3297
 3748SOL    HW222881   0.040   2.817   9.669  0.0555  1.8377 -1.3517
 3749SOL     OW22882   0.001   4.306   4.687 -0.3837  0.0185  0.2676
 3749SOL    HW122883   0.046   4.234   4.731 -2.5941 -0.7787  1.2136
 3749SOL    HW222884   4.703   4.358   4.760 -3.7050 -0.0159 -1.1695
 3750SOL     OW22885   3.333   3.922  12.637 -0.1012  0.1809 -0.1363
 3750SOL    HW122886   3.369   3.834  12.624 -1.8031 -0.5036 -0.2523
 3750SOL    HW222887   3.400   3.970  12.589 -0.0223  1.1798  0.9812
 3751SOL     OW22888   0.924   3.583   1.759  0.1399  0.8577 -0.2880
 3751SOL    HW122889   0.941   3.665   1.714  0.1801  2.4930  2.7200
 3751SOL    HW222890   0.841   3.617   1.792  0.3741  0.1529  1.0366
 3752SOL     OW22891   1.443   1.113  11.011 -0.0608 -0.4191  0.1136
 3752SOL    HW122892   1.367   1.162  11.040  1.2832  1.5744  0.2466
 3752SOL    HW222893   1.427   1.029  11.053  1.8854 -2.2480 -2.7613
 3753SOL     OW22894   1.707   4.616  13.451 -0.1680  0.0969 -0.2956
 3753SOL    HW122895   1.724   4.696  13.501 -1.1744 -0.3857  0.8105
 3753SOL    HW222896   1.665   4.656  13.376 -2.3115  0.1728  0.9447
 3754SOL     OW22897   3.871   0.954   5.579 -0.0108  0.0583 -0.3398
 3754SOL    HW122898   3.889   1.009   5.503 -0.8904  1.9201  0.8274
 3754SOL    HW222899   3.804   1.007   5.621  0.6055 -0.1548  0.9095
 3755SOL     OW22900   0.759   4.456   2.419 -0.1881 -0.2519  0.0119
 3755SOL    HW122901   0.784   4.417   2.335 -0.3393  1.6383 -0.9025
 3755SOL    HW222902   0.692   4.513   2.383  0.0664 -2.1988 -3.5232
 3756SOL     OW22903   4.091   1.957   3.751 -0.2860  0.5012  0.3042
 3756SOL    HW122904   4.067   1.870   3.781  1.1307 -0.6200 -1.7850
 3756SOL    HW222905   4.049   1.955   3.665 -1.9306 -0.0220  1.1317
 3757SOL     OW22906   4.136   2.018   5.401  0.0138  0.2771  0.0298
 3757SOL    HW122907   4.109   2.039   5.490  2.4903 -0.6694  1.0054
 3757SOL    HW222908   4.057   1.973   5.373  0.2996 -0.7812  0.9175
 3758SOL     OW22909   2.220   4.630  10.012  0.3702  0.2543  0.1035
 3758SOL    HW122910   2.148   4.665   9.961  0.0238  0.0978  0.4863
 3758SOL    HW222911   2.236   4.707  10.066  1.2382  0.3917 -0.3387
 3759SOL     OW22912   1.901   4.162   4.156  0.3618 -0.3229 -0.0403
 3759SOL    HW122913   1.920   4.179   4.249 -2.1344  0.8148  0.2649
 3759SOL    HW222914   1.873   4.251   4.137  1.6441 -0.0129 -0.4108
 3760SOL     OW22915   1.915   4.228   8.649 -0.4018  0.2612  0.4173
 3760SOL    HW122916   1.949   4.162   8.588 -0.0356  1.6838 -0.9279
 3760SOL    HW222917   1.834   4.188   8.681  0.5091 -1.4311  0.6109
 3761SOL     OW22918   0.313   2.992   5.204 -0.1171  0.4833 -0.5211
 3761SOL    HW122919   0.376   3.030   5.142  2.6412 -1.6615  0.9856
 3761SOL    HW222920   0.345   2.903   5.216 -0.8504  0.2736 -0.0760
 3762SOL     OW22921   1.740   2.106   5.035 -0.0218 -0.0511  0.1226
 3762SOL    HW122922   1.786   2.023   5.043 -0.8337 -0.3469  1.6763
 3762SOL    HW222923   1.671   2.085   4.971 -0.5388 -1.2294  1.0589
 3763SOL     OW22924   0.405   4.271   7.855 -0.5499 -0.3638  0.5789
 3763SOL    HW122925   0.337   4.205   7.872 -1.3592  0.5525  0.9025
 3763SOL    HW222926   0.421   4.316   7.938  0.4592 -0.9394  0.6948
 3764SOL     OW22927   2.802   0.899  12.964 -0.3603 -0.5930  0.0865
 3764SOL    HW122928   2.797   0.953  12.885 -1.8071 -0.6317  0.1620
 3764SOL    HW222929   2.896   0.879  12.965 -0.4815 -1.0680  3.9624
 3765SOL     OW22930   2.393   1.993   4.947 -0.3918  0.5697 -0.0249
 3765SOL    HW122931   2.433   1.944   4.874 -2.7783 -1.9958  0.3773
 3765SOL    HW222932   2.447   2.068   4.972 -1.3473  1.7312 -1.4520
 3766SOL     OW22933   1.816   2.143   3.712  0.0482  0.4127  0.1918
 3766SOL    HW122934   1.780   2.100   3.789  2.1219  1.0271  1.4964
 3766SOL    HW222935   1.873   2.213   3.745 -1.9431  2.4136 -0.6403
 3767SOL     OW22936   2.127   3.536   8.229 -0.0558 -0.9974  0.2197
 3767SOL    HW122937   2.139   3.592   8.306  0.5622 -2.2369  1.0214
 3767SOL    HW222938   2.079   3.592   8.168 -1.2384 -1.2692  0.9128
 3768SOL     OW22939   2.948   3.159   4.535 -0.0565 -0.2089 -0.3467
 3768SOL    HW122940   2.881   3.225   4.519 -0.1211 -0.4182 -0.9505
 3768SOL    HW222941   2.981   3.203   4.614 -2.4605 -2.3508  1.8336
 3769SOL     OW22942   3.354   2.447   6.959  0.6143  0.0585 -0.4621
 3769SOL    HW122943   3.400   2.465   6.877  0.9142  1.8687  0.0893
 3769SOL    HW222944   3.264   2.471   6.940 -0.4403 -3.2909  0.3278
 3770SOL     OW22945   2.914   1.824  15.341  0.0708 -0.0635  0.1592
 3770SOL    HW122946   2.952   1.740  15.366 -0.1605  0.4579  2.2237
 3770SOL    HW222947   2.831   1.792  15.304 -1.0268  1.6885  1.1185
 3771SOL     OW22948   3.794   2.756   6.136  0.2010 -0.1738 -0.1705
 3771SOL    HW122949   3.787   2.675   6.086 -0.4625 -1.1591  1.5485
 3771SOL    HW222950   3.865   2.727   6.193 -0.0761  1.7163  1.1569
 3772SOL     OW22951   3.854   3.254   1.322  0.0955 -0.4519  0.4211
 3772SOL    HW122952   3.795   3.180   1.336  0.7691 -0.6484  2.3631
 3772SOL    HW222953   3.924   3.211   1.273  1.3554  2.0663  0.0099
 3773SOL     OW22954   2.023   0.421  10.473  0.2988 -0.2506 -0.6083
 3773SOL    HW122955   2.063   0.353  10.527  0.0543  0.2947  0.2650
 3773SOL    HW222956   2.077   0.496  10.499 -1.0493  0.8257 -0.9180
 3774SOL     OW22957   0.743   0.147   4.071  0.9030  0.4053  0.3188
 3774SOL    HW122958   0.687   0.070   4.063  2.1138 -0.5641  1.1748
 3774SOL    HW222959   0.700   0.208   4.011 -1.0594 -0.8466  0.4602
 3775SOL     OW22960   0.514   2.487   2.892 -0.8050  0.8261 -0.1791
 3775SOL    HW122961   0.462   2.407   2.896  1.7774 -0.9083 -1.3160
 3775SOL    HW222962   0.521   2.504   2.798 -3.0007  2.1967 -0.1045
 3776SOL     OW22963   3.712   3.795  14.012  0.0158  0.0975 -0.3514
 3776SOL    HW122964   3.795   3.827  13.975 -0.0929 -0.7912 -1.3496
 3776SOL    HW222965   3.660   3.856  13.960 -1.7648 -0.2201  1.0762
 3777SOL     OW22966   3.666   1.665   3.126 -0.6740 -0.3398  0.3306
 3777SOL    HW122967   3.690   1.612   3.050  1.5474  0.8012  0.2661
 3777SOL    HW222968   3.587   1.616   3.151  0.8079 -2.4889  0.7555
 3778SOL     OW22969   4.616   3.775   5.960  0.4341 -0.0766 -0.1264
 3778SOL    HW122970   4.675   3.742   6.029 -0.6720  0.5312  1.1207
 3778SOL    HW222971   4.576   3.698   5.920 -0.7809 -0.3869  1.6742
 3779SOL     OW22972   2.885   3.896   0.656 -0.3478 -0.2696  0.2991
 3779SOL    HW122973   2.977   3.901   0.629 -1.0904  1.0155 -2.0619
 3779SOL    HW222974   2.895   3.848   0.738  0.2221 -1.3029 -0.3795
 3780SOL     OW22975   0.231   4.273   4.989 -0.2354 -0.5407  0.5077
 3780SOL    HW122976   0.210   4.214   5.062 -1.0209 -1.1963 -0.2422
 3780SOL    HW222977   0.200   4.213   4.921 -0.2017 -0.7501  0.6762
 3781SOL     OW22978   0.968   4.212   8.476 -0.5569 -0.4914  0.2544
 3781SOL    HW122979   0.941   4.154   8.547  1.1938 -0.6249  0.7967
 3781SOL    HW222980   0.890   4.260   8.450  0.6880  1.0018 -0.7028
 3782SOL     OW22981   0.114   3.967   8.638 -0.8408  0.9613 -0.2192
 3782SOL    HW122982   0.085   3.904   8.704  0.8043 -0.4108 -0.7993
 3782SOL    HW222983   0.080   3.935   8.555 -2.3725  0.1729  0.7084
 3783SOL     OW22984   3.427   0.155   1.216 -0.2210 -0.6241 -0.1772
 3783SOL    HW122985   3.481   0.160   1.294 -1.3311 -4.0709  0.8073
 3783SOL    HW222986   3.488   0.166   1.142 -0.6257  1.2994 -0.2256
 3784SOL     OW22987   3.715   4.237   6.350 -0.1793 -0.0291  0.6259
 3784SOL    HW122988   3.716   4.282   6.434  0.3567 -0.7472  1.0053
 3784SOL    HW222989   3.635   4.184   6.350 -0.0483 -0.2299 -0.3091
 3785SOL     OW22990   0.935   4.608   2.092  0.1358 -0.1916  0.0575
 3785SOL    HW122991   1.002   4.625   2.025 -0.6264 -0.3776 -0.7547
 3785SOL    HW222992   0.910   4.517   2.081  1.4770 -0.8580  2.6409
 3786SOL     OW22993   2.009   0.421   4.986  0.0782 -0.1504 -0.1811
 3786SOL    HW122994   1.959   0.499   5.012  0.4999  0.1485 -0.2573
 3786SOL    HW222995   2.046   0.398   5.071 -0.3775 -2.1664 -0.5461
 3787SOL     OW22996   2.056   3.020   7.810  0.4259  0.5627 -0.6214
 3787SOL    HW122997   1.983   2.975   7.767 -0.7057  1.6687  0.1469
 3787SOL    HW222998   2.130   2.996   7.754 -1.5087 -1.3290 -2.3943
 3788SOL     OW22999   2.556   1.742   2.554 -0.6460  0.0785  0.0266
 3788SOL    HW123000   2.574   1.775   2.466  0.9236 -1.0751 -0.0928
 3788SOL    HW223001   2.530   1.822   2.599  0.9274  0.9916 -0.6874
 3789SOL     OW23002   3.166   4.366   3.678 -0.4737 -0.3472 -0.4494
 3789SOL    HW123003   3.253   4.334   3.654 -0.0402  0.9079 -0.5393
 3789SOL    HW223004   3.134   4.405   3.596  1.8867  2.2853 -0.1086
 3790SOL     OW23005   3.086   4.664   8.059  0.0771 -0.0266 -0.3761
 3790SOL    HW123006   3.153   4.707   8.006 -0.6330 -0.0806 -1.3047
 3790SOL    HW223007   3.152   4.624   8.116  0.8185  0.6154 -0.7806
 3791SOL     OW23008   1.896   0.167   0.833  0.0859 -0.1524  0.3233
 3791SOL    HW123009   1.803   0.191   0.837  0.5329  1.4206  1.3546
 3791SOL    HW223010   1.910   0.186   0.926 -4.8458  0.8964  0.8704
 3792SOL     OW23011   1.003   1.234   4.537 -0.5356  0.7450  0.1295
 3792SOL    HW123012   0.996   1.308   4.476  0.2576 -1.1097 -2.1925
 3792SOL    HW223013   0.933   1.251   4.600 -1.4466 -2.3903 -0.0507
 3793SOL     OW23014   1.010   0.434   9.676  0.5060  0.1177 -0.3786
 3793SOL    HW123015   0.929   0.406   9.720 -0.1155 -1.9641 -2.7960
 3793SOL    HW223016   1.015   0.524   9.708 -2.6430 -0.4201  1.6887
 3794SOL     OW23017   1.529   0.842   1.787 -0.1967  0.1501  0.2455
 3794SOL    HW123018   1.511   0.889   1.706 -2.8937  1.7307  1.7296
 3794SOL    HW223019   1.592   0.899   1.830 -1.7907  2.1958 -0.1167
 3795SOL     OW23020   1.214   2.798  13.137 -0.3108 -0.0152  0.2170
 3795SOL    HW123021   1.229   2.717  13.088  0.6912 -0.9515  2.0768
 3795SOL    HW223022   1.151   2.775  13.206  0.2733 -0.6623  0.5338
 3796SOL     OW23023   0.699   1.582   6.914  0.1682 -0.4697 -0.4597
 3796SOL    HW123024   0.623   1.632   6.942 -0.6740 -1.9390 -0.1280
 3796SOL    HW223025   0.675   1.490   6.920  0.6059 -0.5698 -0.2849
 3797SOL     OW23026   4.351   2.213  12.037  0.2329 -0.2581 -0.1094
 3797SOL    HW123027   4.289   2.179  12.102 -0.9766 -0.8812 -1.5807
 3797SOL    HW223028   4.424   2.246  12.089  1.2242 -1.7921 -0.5396
 3798SOL     OW23029   0.058   2.766   5.086  0.1445  0.1973  0.1694
 3798SOL    HW123030   0.043   2.704   5.157  0.3966 -0.6386 -0.5167
 3798SOL    HW223031   0.144   2.730   5.063 -2.1864 -3.0328 -3.2407
 3799SOL     OW23032   3.998   1.477   8.439  0.6623 -0.1360 -0.0849
 3799SOL    HW123033   4.060   1.529   8.490 -0.8273  1.4336  0.0967
 3799SOL    HW223034   4.009   1.387   8.472  0.0776 -0.0865  0.2279
 3800SOL     OW23035   0.965   4.511  15.526  0.2583 -0.5900  0.3186
 3800SOL    HW123036   1.001   4.466  15.602  1.9398 -0.9374 -0.6946
 3800SOL    HW223037   0.899   4.564  15.571 -1.5342 -2.7072  0.1688
 3801SOL     OW23038   1.829   1.603   2.349 -0.6747 -0.2329 -0.5231
 3801SOL    HW123039   1.826   1.686   2.301 -2.4227  0.1689  0.2778
 3801SOL    HW223040   1.747   1.615   2.397 -1.2437  1.4919 -1.9081
 3802SOL     OW23041   4.334   1.048   8.773 -0.5806 -0.2572  0.5064
 3802SOL    HW123042   4.305   1.130   8.733  1.8171 -0.3715 -1.4888
 3802SOL    HW223043   4.380   1.017   8.695 -1.4846  0.9802 -0.5049
 3803SOL     OW23044   3.762   1.153   2.731  0.2145 -0.1947  0.4270
 3803SOL    HW123045   3.820   1.176   2.804  3.5234 -1.1157 -1.9020
 3803SOL    HW223046   3.712   1.235   2.723  1.9395  0.6363 -1.8655
 3804SOL     OW23047   4.426   3.727  12.974 -0.7234  0.3066 -0.2570
 3804SOL    HW123048   4.452   3.643  12.938  2.7001  1.2800 -0.0211
 3804SOL    HW223049   4.509   3.773  12.970 -0.3019 -0.6229 -2.4702
 3805SOL     OW23050   4.536   3.807  13.437 -0.2337 -0.1785  0.4412
 3805SOL    HW123051   4.464   3.799  13.375 -0.8049  1.3778  0.9041
 3805SOL    HW223052   4.558   3.714  13.446 -2.2426 -0.6586  0.4321
 3806SOL     OW23053   1.379   3.635  10.460 -0.2049 -0.0254  0.1507
 3806SOL    HW123054   1.389   3.693  10.536 -0.9529  2.0996 -1.3736
 3806SOL    HW223055   1.455   3.663  10.410  2.1486 -2.5356  2.2948
 3807SOL     OW23056   0.205   2.089   3.346  0.1337 -0.2102  0.0307
 3807SOL    HW123057   0.286   2.112   3.301 -1.0106  1.3895 -1.2003
 3807SOL    HW223058   0.208   1.994   3.335 -0.9330 -0.4208  1.6104
 3808SOL     OW23059   2.136   4.068   3.636 -0.0076 -0.0574 -0.7511
 3808SOL    HW123060   2.158   3.987   3.590 -1.3248 -0.5426 -0.5381
 3808SOL    HW223061   2.049   4.039   3.664  0.5115 -1.3745 -0.5193
 3809SOL     OW23062   0.390   4.069   3.391  0.3315 -0.1605  0.1955
 3809SOL    HW123063   0.420   4.132   3.325 -0.1908  1.5064  1.5388
 3809SOL    HW223064   0.434   3.991   3.357  1.9968  0.5636  0.7048
 3810SOL     OW23065   0.746   3.281   4.643 -0.5379 -0.1926  0.3072
 3810SOL    HW123066   0.809   3.263   4.572 -1.5181 -0.3085 -0.5237
 3810SOL    HW223067   0.802   3.264   4.720 -0.3644 -0.0333  0.2161
 3811SOL     OW23068   3.807   0.502   4.916 -0.0941  0.5577  0.4436
 3811SOL    HW123069   3.902   0.518   4.917 -0.0649  0.6498 -2.6523
 3811SOL    HW223070   3.811   0.408   4.934  0.0991  0.1390 -1.7618
 3812SOL     OW23071   1.566   3.473  14.355  0.9739 -0.6415  0.4294
 3812SOL    HW123072   1.658   3.492  14.371  1.5963 -1.4373 -2.0919
 3812SOL    HW223073   1.551   3.395  14.408 -3.4173 -0.0924  0.0045
 3813SOL     OW23074   2.195   3.803   4.447 -0.5773  0.8232  0.0691
 3813SOL    HW123075   2.226   3.828   4.360  1.3141 -2.3558 -0.1359
 3813SOL    HW223076   2.220   3.869   4.512  1.0208 -1.8883  2.1890
 3814SOL     OW23077   1.635   2.869   4.476  0.0932  0.5502  0.5070
 3814SOL    HW123078   1.566   2.934   4.460  0.1215  0.2886 -0.6804
 3814SOL    HW223079   1.682   2.870   4.393  0.2626 -0.1481  0.5979
 3815SOL     OW23080   2.765   3.929  10.000  0.7891 -0.0509  0.2963
 3815SOL    HW123081   2.737   3.837   9.996 -0.4790  0.4177 -1.6889
 3815SOL    HW223082   2.784   3.929  10.094  1.7808 -0.9774  0.1119
 3816SOL     OW23083   2.081   3.789  17.714 -0.3648 -0.0832  0.7037
 3816SOL    HW123084   2.111   3.698  17.714 -2.7763 -0.8735 -1.3858
 3816SOL    HW223085   2.129   3.817   0.055  1.2657  0.9903 -0.6650
 3817SOL     OW23086   0.810   2.912   0.775 -0.2791  0.0625 -0.6534
 3817SOL    HW123087   0.801   2.997   0.732 -3.3325  0.4092  0.7068
 3817SOL    HW223088   0.791   2.865   0.693  0.8266 -1.0444 -0.2735
 3818SOL     OW23089   0.728   3.425   3.411 -0.0812 -0.3592  0.3244
 3818SOL    HW123090   0.786   3.500   3.425  2.2854 -1.9084 -1.2612
 3818SOL    HW223091   0.718   3.425   3.315  0.7757  1.0057  0.2411
 3819SOL     OW23092   1.773   3.404   8.934  0.3739 -0.5368  0.1639
 3819SOL    HW123093   1.842   3.431   8.994  0.5937  1.7619 -1.1236
 3819SOL    HW223094   1.742   3.483   8.889  0.8640 -1.6760 -2.1771
 3820SOL     OW23095   0.671   0.197   5.885  0.3033 -0.1699 -0.5083
 3820SOL    HW123096   0.598   0.150   5.844  0.5334 -1.5935  0.6930
 3820SOL    HW223097   0.742   0.183   5.823  0.8991 -1.0639  0.3760
 3821SOL     OW23098   2.736   3.173   0.456 -0.4350  0.7206  0.6941
 3821SOL    HW123099   2.810   3.156   0.397 -0.1819  3.1413  0.3205
 3821SOL    HW223100   2.669   3.183   0.388  0.1501 -0.6483 -0.0965
 3822SOL     OW23101   1.685   2.353  16.088 -0.5809  0.2803  0.0072
 3822SOL    HW123102   1.683   2.399  16.004  1.3796 -0.6009 -0.5101
 3822SOL    HW223103   1.663   2.263  16.068 -2.7838  0.5594  1.1829
 3823SOL     OW23104   1.700   1.826   8.295 -0.2034 -0.3301 -0.4439
 3823SOL    HW123105   1.609   1.797   8.283 -1.4523  3.1057  0.8385
 3823SOL    HW223106   1.697   1.909   8.341  5.4949 -0.3302 -0.1019
 3824SOL     OW23107   3.779   2.933   3.338 -0.2097  0.2127 -0.2593
 3824SOL    HW123108   3.799   2.999   3.406 -1.0027 -0.2039  0.3807
 3824SOL    HW223109   3.853   2.874   3.350  0.2016  0.7559 -0.1217
 3825SOL     OW23110   4.566   1.645  15.632 -0.6081  0.2515  0.4171
 3825SOL    HW123111   4.593   1.585  15.702 -0.5265 -1.4199 -1.0386
 3825SOL    HW223112   4.619   1.610  15.560  1.2196  1.6822  1.0896
 3826SOL     OW23113   4.126   1.879  15.010 -0.1965  0.3197 -0.0060
 3826SOL    HW123114   4.031   1.870  15.020 -0.2465 -0.3738 -1.1817
 3826SOL    HW223115   4.155   1.800  15.056  0.1000 -0.9401 -2.3339
 3827SOL     OW23116   1.889   1.875   6.622  0.3463  0.2575 -0.0818
 3827SOL    HW123117   1.795   1.889   6.628  0.5872  1.1940  1.5361
 3827SOL    HW223118   1.899   1.792   6.668 -1.7084  0.5501  0.8520
 3828SOL     OW23119   0.688   1.995   2.461  0.1604 -0.6845  0.1611
 3828SOL    HW123120   0.597   1.997   2.431  0.6413  0.1049 -1.2513
 3828SOL    HW223121   0.681   1.938   2.537  0.1640 -1.9335 -0.7710
 3829SOL     OW23122   0.010   3.420   2.520  0.1315 -0.2196  0.1547
 3829SOL    HW123123   0.078   3.442   2.583 -0.0620  0.8499 -0.0080
 3829SOL    HW223124   0.065   3.400   2.445  2.5540 -1.5904  2.3232
 3830SOL     OW23125   3.821   1.551   1.543 -1.0389  0.2200 -0.1523
 3830SOL    HW123126   3.739   1.558   1.592  1.8993  0.0177  4.7316
 3830SOL    HW223127   3.828   1.458   1.520  1.8716  0.8561 -1.7936
 3831SOL     OW23128   1.587   0.506   9.061  0.6128 -0.2460 -0.3232
 3831SOL    HW123129   1.538   0.553   8.994 -2.1802 -1.7384  0.6598
 3831SOL    HW223130   1.518   0.507   9.128 -0.1051 -0.0826 -1.0646
 3832SOL     OW23131   4.375   4.353   4.059 -0.2144  0.1782 -0.6843
 3832SOL    HW123132   4.453   4.320   4.014  0.7220 -1.0433  1.8492
 3832SOL    HW223133   4.306   4.293   4.030  0.6312 -0.5657 -1.1695
 3833SOL     OW23134   4.605   3.215   9.945 -0.3360  0.5733 -0.3695
 3833SOL    HW123135   4.520   3.186   9.910  0.4656 -0.9050 -1.0658
 3833SOL    HW223136   4.588   3.275  10.018 -1.9526 -0.4137  0.0635
 3834SOL     OW23137   1.991   0.991  15.916  0.1989  0.2293  0.2276
 3834SOL    HW123138   1.963   0.899  15.909 -0.7986  0.7439 -2.4916
 3834SOL    HW223139   2.086   0.978  15.922 -0.1267 -1.8853  0.7832
 3835SOL     OW23140   4.247   1.565  12.854 -0.2359  0.2452  0.2794
 3835SOL    HW123141   4.180   1.570  12.922 -1.8973  0.8531 -1.3967
 3835SOL    HW223142   4.324   1.539  12.905 -0.9402 -0.2698  1.0748
 3836SOL     OW23143   4.643   1.743   9.490  0.5009  0.2086  0.3302
 3836SOL    HW123144   4.641   1.649   9.472 -0.7000  0.3176 -0.1295
 3836SOL    HW223145   4.557   1.759   9.450 -0.7853 -3.1070  1.6860
 3837SOL     OW23146   4.004   3.198   5.342  0.4451 -0.3955  0.3242
 3837SOL    HW123147   3.934   3.251   5.305  1.8588  1.3074  0.0649
 3837SOL    HW223148   3.964   3.142   5.408  1.5794 -0.6131  0.8397
 3838SOL     OW23149   4.410   1.232   8.303 -0.5481  0.0305  0.4728
 3838SOL    HW123150   4.365   1.147   8.302 -1.5194  0.5530 -0.7051
 3838SOL    HW223151   4.463   1.216   8.381 -0.5592  0.5085  0.5791
 3839SOL     OW23152   3.585   0.701   9.017  0.1784  0.5706 -0.2011
 3839SOL    HW123153   3.658   0.642   8.999 -0.8557 -1.4330  2.2184
 3839SOL    HW223154   3.531   0.698   8.938 -0.6182 -3.0057  0.5075
 3840SOL     OW23155   3.869   2.595   7.604  0.0689 -0.4554 -0.0755
 3840SOL    HW123156   3.774   2.589   7.596 -0.1068  0.6058  1.2703
 3840SOL    HW223157   3.895   2.618   7.515 -2.5464 -2.7868 -1.4606
 3841SOL     OW23158   1.284   4.676   7.011  0.5016  0.0230 -0.4813
 3841SOL    HW123159   1.322   0.029   7.009 -0.0131  0.2189 -1.4463
 3841SOL    HW223160   1.363   4.624   7.026  1.7246  2.0673  0.2668
 3842SOL     OW23161   3.240   2.857  17.131 -0.1033 -0.0508 -0.4192
 3842SOL    HW123162   3.296   2.807  17.071 -0.0214 -0.1738 -0.2395
 3842SOL    HW223163   3.217   2.929  17.073  2.5078  0.7726 -0.4141
 3843SOL     OW23164   1.893   0.310   4.098 -0.4637 -0.0825  0.4107
 3843SOL    HW123165   1.855   0.297   4.011 -1.3035  4.7726  0.0598
 3843SOL    HW223166   1.946   0.232   4.116  1.3309  1.5775  2.3193
 3844SOL     OW23167   4.275   4.153   0.229  0.3276  0.3267 -0.6553
 3844SOL    HW123168   4.370   4.156   0.221  0.4052  0.6540  0.5509
 3844SOL    HW223169   4.267   4.167   0.323 -2.0006 -1.4538 -0.5854
 3845SOL     OW23170   0.131   0.531   7.004 -0.7456 -0.0056  0.3206
 3845SOL    HW123171   0.111   0.462   6.942 -2.0078 -0.1536  0.8890
 3845SOL    HW223172   0.043   0.539   7.042 -0.9616  0.3610 -0.2544
 3846SOL     OW23173   0.851   1.198   2.265 -0.6992 -0.8705 -0.8562
 3846SOL    HW123174   0.782   1.168   2.325 -0.8300  1.4352  0.1266
 3846SOL    HW223175   0.802   1.245   2.198 -1.7875  0.0337  0.5647
 3847SOL     OW23176   3.460   1.118   8.133 -0.0206  0.2210  0.0225
 3847SOL    HW123177   3.548   1.085   8.114 -1.1721 -1.3409 -2.7041
 3847SOL    HW223178   3.433   1.080   8.216  1.3055  1.3130  0.9383
 3848SOL     OW23179   2.462   0.017   7.432 -0.3507 -0.0365 -0.6538
 3848SOL    HW123180   2.390   0.080   7.427 -0.4997 -0.0242  1.4866
 3848SOL    HW223181   2.498   0.040   7.517 -1.1966  1.1221 -0.5949
 3849SOL     OW23182   2.266   3.007   6.458  0.6148 -0.2058 -0.0201
 3849SOL    HW123183   2.182   3.019   6.413  0.9786  1.0921 -0.3568
 3849SOL    HW223184   2.321   3.027   6.381 -1.4558 -0.2587 -1.5179
 3850SOL     OW23185   1.934   2.217   7.094 -0.5248 -0.0144  0.0108
 3850SOL    HW123186   1.857   2.244   7.145 -0.3399 -1.3562  0.9891
 3850SOL    HW223187   1.936   2.122   7.104  1.8492 -0.0143 -0.4137
 3851SOL     OW23188   0.327   1.272   0.718 -0.5162 -1.0073  0.1479
 3851SOL    HW123189   0.295   1.361   0.700  0.2914 -0.4160  1.6096
 3851SOL    HW223190   0.311   1.223   0.638 -1.7518  1.3624 -1.0664
 3852SOL     OW23191   0.279   4.456   1.654  0.0550 -0.4905  0.3194
 3852SOL    HW123192   0.264   4.539   1.608 -0.8245 -0.5237  0.5585
 3852SOL    HW223193   0.369   4.475   1.682  0.6602  0.3797 -2.2264
 3853SOL     OW23194   0.949   0.292   4.593 -0.0634  0.5909  0.4502
 3853SOL    HW123195   0.867   0.251   4.565  0.3587 -0.6708  1.0568
 3853SOL    HW223196   0.951   0.365   4.532  0.2482 -0.5421 -0.8924
 3854SOL     OW23197   0.685   0.154  14.489 -0.0956 -0.0239  0.0957
 3854SOL    HW123198   0.680   0.072  14.440 -1.3243  0.1429 -0.0641
 3854SOL    HW223199   0.771   0.141  14.529 -0.0642 -3.0931 -1.0108
 3855SOL     OW23200   3.958   2.179  10.311  0.5007 -0.1586  0.0199
 3855SOL    HW123201   3.988   2.134  10.232 -0.8244 -0.3301 -0.3809
 3855SOL    HW223202   4.040   2.210  10.349  0.5399 -0.9993  0.6233
 3856SOL     OW23203   0.981   0.461   9.195 -0.0076  0.0543 -0.2586
 3856SOL    HW123204   1.023   0.445   9.280  1.0929 -1.1680 -1.0224
 3856SOL    HW223205   1.058   0.476   9.140 -0.0111  0.0876 -0.2542
 3857SOL     OW23206   4.705   0.014   7.965  0.4284  0.0391  0.6263
 3857SOL    HW123207   4.687   4.660   7.934  1.4180 -0.3432  1.1558
 3857SOL    HW223208   4.634   0.024   8.028  1.7491  1.8520  1.8093
 3858SOL     OW23209   3.724   1.834   7.870  0.7283 -0.0919 -0.4171
 3858SOL    HW123210   3.672   1.872   7.941  2.7065  0.0119  0.9903
 3858SOL    HW223211   3.665   1.762   7.850  1.3476 -0.8648  0.5461
 3859SOL     OW23212   1.834   3.120   6.582  0.1650  0.2093 -0.1068
 3859SOL    HW123213   1.877   3.086   6.503  0.5953  2.8318 -0.9919
 3859SOL    HW223214   1.767   3.173   6.540  0.6081 -0.1641 -1.2820
 3860SOL     OW23215   2.174   1.445   8.444 -0.0662  0.0779  0.9956
 3860SOL    HW123216   2.170   1.527   8.394 -2.3318 -0.4386  0.3337
 3860SOL    HW223217   2.208   1.473   8.530 -0.2819  0.2905  1.0123
 3861SOL     OW23218   0.766   2.148   9.761  0.5767  0.1901 -0.5573
 3861SOL    HW123219   0.745   2.105   9.679 -0.3896 -0.8035  0.2131
 3861SOL    HW223220   0.802   2.226   9.719  0.1971  2.0066  2.4411
 3862SOL     OW23221   0.240   3.080   6.843  0.2349  0.1987 -0.2026
 3862SOL    HW123222   0.250   3.142   6.771  1.1955 -0.4459 -0.6297
 3862SOL    HW223223   0.150   3.060   6.818  0.1177 -0.1147  0.4828
 3863SOL     OW23224   2.203   4.199  13.554  0.0641 -0.1490 -0.5133
 3863SOL    HW123225   2.263   4.230  13.486  0.8937 -1.4237 -0.3583
 3863SOL    HW223226   2.268   4.158  13.611  0.7924  1.6083 -0.0760
 3864SOL     OW23227   1.170   4.481   2.550  0.3972 -0.0323 -0.1893
 3864SOL    HW123228   1.208   4.432   2.624  1.0289  1.4369  0.4609
 3864SOL    HW223229   1.216   4.444   2.475 -1.1298  0.3146 -1.2839
 3865SOL     OW23230   4.067   1.065  11.928 -0.0548  0.1639  0.3800
 3865SOL    HW123231   4.124   1.119  11.982  0.2485  1.9968 -1.7723
 3865SOL    HW223232   4.023   1.015  11.996 -2.8402 -0.9177 -2.2282
 3866SOL     OW23233   3.622   3.201   2.687 -0.3543 -0.1655  0.2332
 3866SOL    HW123234   3.630   3.135   2.618 -1.7948 -1.1806  1.0485
 3866SOL    HW223235   3.715   3.220   2.704 -0.7579 -0.1421  2.3661
 3867SOL     OW23236   2.238   1.500   2.559 -0.1505  0.1270 -0.2966
 3867SOL    HW123237   2.180   1.546   2.499 -0.5497 -1.1395 -0.8658
 3867SOL    HW223238   2.288   1.439   2.506  1.2005  0.1029  0.9966
 3868SOL     OW23239   2.110   2.402   7.083 -0.0944  0.0230 -0.6213
 3868SOL    HW123240   2.034   2.460   7.075 -0.3679 -0.2027  0.3794
 3868SOL    HW223241   2.057   2.322   7.079 -0.2500 -0.0141  2.0517
 3869SOL     OW23242   0.778   1.374   0.127 -0.1103 -0.4450  0.2664
 3869SOL    HW123243   0.774   1.463   0.161 -0.7785 -0.5634  0.4943
 3869SOL    HW223244   0.795   1.380   0.034  2.7163 -0.7370  0.7710
 3870SOL     OW23245   1.191   1.957   7.860 -0.0730  0.5319 -0.1143
 3870SOL    HW123246   1.112   1.951   7.806  0.5815 -0.1323 -0.9999
 3870SOL    HW223247   1.162   1.972   7.950 -1.3648 -0.5685 -0.3351
 3871SOL     OW23248   4.551   4.706   3.620  0.2955  0.2124  0.6576
 3871SOL    HW123249   4.549   0.055   3.667  2.0696 -0.2317  1.5155
 3871SOL    HW223250   4.456   4.708   3.606  0.6268  0.3840 -1.6279
 3872SOL     OW23251   3.735   4.620   3.941  0.1800 -0.2230  0.0631
 3872SOL    HW123252   3.761   4.645   4.030  1.2146  1.3341 -0.6575
 3872SOL    HW223253   3.733   4.526   3.956 -0.2494 -0.4374 -1.3415
 3873SOL     OW23254   4.334   2.309  12.676  0.4625 -0.0562 -0.1895
 3873SOL    HW123255   4.398   2.301  12.605  0.6257 -1.8495  0.1482
 3873SOL    HW223256   4.388   2.339  12.749  1.0593  1.4418 -1.2683
 3874SOL     OW23257   2.415   4.262   6.129 -0.0302  0.2922  1.1483
 3874SOL    HW123258   2.454   4.350   6.127 -1.5232  0.9627  1.5446
 3874SOL    HW223259   2.474   4.215   6.188  1.9634 -0.7696 -1.6809
 3875SOL     OW23260   4.579   0.962   3.208 -0.0631  0.0509  0.2069
 3875SOL    HW123261   4.620   1.037   3.252 -1.1647 -0.1009  1.4878
 3875SOL    HW223262   4.620   0.892   3.258  0.9445 -2.2208 -3.7608
 3876SOL     OW23263   0.327   2.172  13.611  0.5803  0.0348  0.4078
 3876SOL    HW123264   0.301   2.083  13.638 -2.0076  0.3131 -1.0969
 3876SOL    HW223265   0.407   2.170  13.662  0.6106 -2.6165  0.2993
 3877SOL     OW23266   2.226   3.107   7.561  0.2645  0.2939  0.1840
 3877SOL    HW123267   2.153   3.075   7.507 -0.6944  2.8430 -0.0301
 3877SOL    HW223268   2.182   3.183   7.598 -1.0471  0.3850 -1.5404
 3878SOL     OW23269   3.447   4.194   6.298 -0.2837 -0.1645 -0.1827
 3878SOL    HW123270   3.431   4.225   6.388 -0.4702 -1.0609  0.0887
 3878SOL    HW223271   3.496   4.115   6.317 -1.3461 -0.7621  0.0886
 3879SOL     OW23272   2.349   1.074   8.653  0.0975  0.1916  0.3150
 3879SOL    HW123273   2.371   1.119   8.734 -0.0937 -0.0330  0.4939
 3879SOL    HW223274   2.437   1.042   8.635 -0.6101 -1.6285  0.0781
 3880SOL     OW23275   3.241   4.147  17.171 -0.0359 -0.0494 -0.2905
 3880SOL    HW123276   3.213   4.133  17.080  0.8112 -0.8150 -0.4308
 3880SOL    HW223277   3.161   4.186  17.205 -1.0235 -1.7166 -0.6510
 3881SOL     OW23278   2.883   4.252   1.060  0.1389 -0.0855 -0.3397
 3881SOL    HW123279   2.843   4.285   1.140 -0.7470 -0.2783 -0.7115
 3881SOL    HW223280   2.959   4.210   1.099  0.1717  0.1905 -0.1040
 3882SOL     OW23281   1.757   0.894   7.983 -0.4056 -0.5115  0.3977
 3882SOL    HW123282   1.740   0.800   7.973 -2.0832  0.1648 -2.9596
 3882SOL    HW223283   1.742   0.905   8.077 -2.3381  2.1119 -0.2279
 3883SOL     OW23284   1.300   3.625  17.488 -0.6332 -0.6496 -0.5426
 3883SOL    HW123285   1.208   3.636  17.508 -0.1627  0.7528  0.8650
 3883SOL    HW223286   1.319   3.716  17.463  2.2330 -1.1850 -0.3577
 3884SOL     OW23287   0.183   4.722   6.380 -0.8686 -0.3674 -0.9731
 3884SOL    HW123288   0.208   0.079   6.391  1.0537 -1.1098  0.7397
 3884SOL    HW223289   0.248   4.678   6.434 -0.4326 -1.4007 -2.3544
 3885SOL     OW23290   1.464   1.613   7.961 -0.1147 -0.7837  0.2821
 3885SOL    HW123291   1.508   1.529   7.978 -1.2238 -0.9758  2.1574
 3885SOL    HW223292   1.438   1.639   8.049  1.8201  2.7559 -0.1755
 3886SOL     OW23293   0.488   1.900   4.482 -0.3436 -0.2025  0.8924
 3886SOL    HW123294   0.490   1.806   4.499  0.1842 -0.8110 -2.5707
 3886SOL    HW223295   0.577   1.916   4.514 -0.2360 -0.0617  0.5295
 3887SOL     OW23296   0.416   0.452  16.797  0.1408  0.2482 -0.1822
 3887SOL    HW123297   0.344   0.508  16.769 -0.9715  0.3243  2.8502
 3887SOL    HW223298   0.400   0.464  16.891  2.4954  0.5123  0.1748
 3888SOL     OW23299   4.165   4.530   3.364 -0.8613 -0.2931  0.3343
 3888SOL    HW123300   4.100   4.489   3.307  0.6034 -2.1594  0.0104
 3888SOL    HW223301   4.218   4.450   3.371  0.1058  0.1361 -2.1317
 3889SOL     OW23302   3.722   2.997   2.537 -0.2005 -0.0014  0.6862
 3889SOL    HW123303   3.683   2.959   2.458  0.6959  0.4031  0.0544
 3889SOL    HW223304   3.710   2.930   2.605 -0.2669 -0.1789  0.5004
 3890SOL     OW23305   4.263   3.512   4.698 -0.2240  0.2685 -0.3979
 3890SOL    HW123306   4.330   3.581   4.699  1.0896 -0.9531 -3.1944
 3890SOL    HW223307   4.308   3.438   4.738  1.8348  1.3092 -0.7740
 3891SOL     OW23308   1.779   3.072   2.407 -0.5637  0.6579 -0.4000
 3891SOL    HW123309   1.822   3.111   2.483 -0.8259  1.8902 -0.8901
 3891SOL    HW223310   1.841   3.106   2.343 -1.0774  2.0393 -0.1811
 3892SOL     OW23311   3.797   1.097   7.547  0.2504  0.5629 -0.2910
 3892SOL    HW123312   3.798   1.147   7.629  0.5483  0.3764 -0.1789
 3892SOL    HW223313   3.719   1.046   7.567 -0.1642  0.3985 -2.3808
 3893SOL     OW23314   3.856   0.223   3.635 -0.0576  0.1228  0.0610
 3893SOL    HW123315   3.829   0.132   3.648 -1.3466  0.4320 -0.4350
 3893SOL    HW223316   3.925   0.237   3.699 -1.7396  0.0539  1.8798
 3894SOL     OW23317   3.426   4.216   3.607  0.1933  1.3705 -0.3259
 3894SOL    HW123318   3.459   4.165   3.680 -2.1316  0.5552  0.1583
 3894SOL    HW223319   3.506   4.225   3.555  1.4701 -0.5498  1.3235
 3895SOL     OW23320   3.549   4.421   8.554 -0.2073  0.9840 -0.4879
 3895SOL    HW123321   3.517   4.467   8.477  0.5284  1.0886 -0.7311
 3895SOL    HW223322   3.635   4.388   8.531 -1.7779 -3.4017 -0.0712
 3896SOL     OW23323   0.009   2.413  16.517  0.0941  0.3865  1.4409
 3896SOL    HW123324   0.013   2.404  16.422  0.4522  3.0704  1.2120
 3896SOL    HW223325   0.037   2.503  16.532 -0.5003  0.5611  1.4935
 3897SOL     OW23326   4.679   0.729   5.431  0.3857 -0.1928 -0.1683
 3897SOL    HW123327   0.004   0.731   5.506  1.4006  2.1580 -1.0457
 3897SOL    HW223328   0.001   0.701   5.358 -0.3889 -2.3087  0.0150
 3898SOL     OW23329   4.714   1.453  15.779  0.1225 -0.2388  0.1526
 3898SOL    HW123330   0.064   1.487  15.751  0.2605  1.3882  2.5297
 3898SOL    HW223331   4.712   1.484  15.870 -0.3587  1.6836 -0.5150
 3899SOL     OW23332   2.627   3.578   4.738 -0.1763  0.2272  0.0041
 3899SOL    HW123333   2.625   3.670   4.765 -2.7359 -0.5271  2.3743
 3899SOL    HW223334   2.709   3.556   4.782  0.4282  1.1333 -0.6794
 3900SOL     OW23335   0.270   1.857   2.128 -0.1753  0.0374 -0.3709
 3900SOL    HW123336   0.296   1.771   2.093  0.6896 -0.3411  1.2095
 3900SOL    HW223337   0.272   1.908   2.046  0.6687 -2.9555 -2.2141
 3901SOL     OW23338   3.695   4.297   3.517  0.3531 -0.0987  0.1819
 3901SOL    HW123339   3.727   4.245   3.443 -0.4364 -1.2713  0.6758
 3901SOL    HW223340   3.684   4.382   3.473 -0.0143  0.2224  0.9057
 3902SOL     OW23341   1.942   2.335  14.204 -0.3657  0.1510  0.0964
 3902SOL    HW123342   1.875   2.272  14.230 -2.0922  1.8647 -0.2237
 3902SOL    HW223343   2.015   2.321  14.265  0.0614 -1.5959 -0.8300
 3903SOL     OW23344   3.683   4.231   2.551  0.1564 -0.6031  1.0533
 3903SOL    HW123345   3.624   4.157   2.541 -0.5055 -0.1282  1.4701
 3903SOL    HW223346   3.772   4.197   2.542  1.1994  1.9085  1.7373
 3904SOL     OW23347   1.191   3.974   7.348 -0.7488  0.2349 -0.0365
 3904SOL    HW123348   1.246   4.002   7.275 -0.2278  0.7062  0.5391
 3904SOL    HW223349   1.151   3.895   7.311 -1.5210  1.1463 -1.1910
 3905SOL     OW23350   1.267   3.370   5.058  0.1835 -0.5747 -0.1833
 3905SOL    HW123351   1.281   3.401   5.148  0.9990 -0.0912 -0.4760
 3905SOL    HW223352   1.246   3.280   5.083 -1.7634  0.3509  1.5695
 3906SOL     OW23353   4.366   1.334  12.995  0.5979 -0.3511 -0.0354
 3906SOL    HW123354   4.411   1.254  12.969  1.4408  0.1951 -0.2498
 3906SOL    HW223355   4.279   1.302  12.970  1.2350 -1.3067 -0.9876
 3907SOL     OW23356   3.093   4.561   7.652  0.5586 -0.2540  0.3860
 3907SOL    HW123357   3.115   4.497   7.584  2.8116  1.4563 -0.5089
 3907SOL    HW223358   2.998   4.547   7.654  0.1288  2.6667 -0.0094
 3908SOL     OW23359   1.585   3.687  10.273 -0.1917 -0.7655  0.4027
 3908SOL    HW123360   1.607   3.730  10.190 -1.3054  0.2673  0.6426
 3908SOL    HW223361   1.672   3.693  10.311 -0.4365  2.1084  0.4929
 3909SOL     OW23362   2.511   2.578   3.609 -0.1386  1.1109  0.0967
 3909SOL    HW123363   2.450   2.625   3.667  3.1510  2.6343  2.3181
 3909SOL    HW223364   2.447   2.525   3.561 -1.7377  2.7036  0.4703
 3910SOL     OW23365   1.990   0.945   8.380  0.1744 -0.0833 -0.2918
 3910SOL    HW123366   1.973   0.938   8.474 -1.4150 -0.0263 -0.5663
 3910SOL    HW223367   2.003   1.039   8.375  0.1095 -0.1616 -2.0476
 3911SOL     OW23368   1.761   4.403   9.701 -0.2313 -0.7045 -0.1079
 3911SOL    HW123369   1.764   4.324   9.648  2.1711 -0.4266 -0.3635
 3911SOL    HW223370   1.715   4.377   9.781 -1.1954  1.0352 -0.0930
 3912SOL     OW23371   2.137   0.034  10.808 -0.2543  0.4788  0.0920
 3912SOL    HW123372   2.208   0.010  10.868  0.2922 -0.6356 -1.0071
 3912SOL    HW223373   2.065   4.724  10.853  0.6900  0.2261  1.3635
 3913SOL     OW23374   1.375   4.390   0.589  0.3947 -0.5173 -0.4300
 3913SOL    HW123375   1.464   4.358   0.576  0.9881  0.9099  0.1506
 3913SOL    HW223376   1.354   4.365   0.679 -1.3174  2.4232 -0.0237
 3914SOL     OW23377   0.386   2.162   2.802  0.2930 -0.5985  0.3343
 3914SOL    HW123378   0.401   2.138   2.893  0.6106  1.6808  0.8989
 3914SOL    HW223379   0.476   2.159   2.770  0.2353 -1.6712  0.2900
 3915SOL     OW23380   0.953   3.726   6.279  0.3520 -0.3251  0.4858
 3915SOL    HW123381   1.042   3.720   6.313  0.5181  0.1295  0.1361
 3915SOL    HW223382   0.911   3.675   6.348 -0.2200  0.6371  0.8552
 3916SOL     OW23383   1.276   1.409   5.246 -0.4112  0.7109  0.2651
 3916SOL    HW123384   1.222   1.478   5.285  1.5593  1.4175  1.7307
 3916SOL    HW223385   1.302   1.451   5.164  0.5567 -0.4991 -0.0554
 3917SOL     OW23386   4.207   2.218  17.121  0.3377 -0.4467  0.3044
 3917SOL    HW123387   4.247   2.206  17.035  3.1715  2.5452  1.1771
 3917SOL    HW223388   4.253   2.159  17.181 -0.6707 -0.3011  1.2233
 3918SOL     OW23389   4.635   0.743  16.799 -0.3939  0.0947 -0.1445
 3918SOL    HW123390   4.542   0.735  16.777 -1.0177 -0.8560  2.8382
 3918SOL    HW223391   4.660   0.735  16.707 -0.6985  0.0720 -0.2266
 3919SOL     OW23392   4.476   4.497   1.292 -0.1348 -0.1577 -0.0590
 3919SOL    HW123393   4.564   4.503   1.329 -0.6334 -2.4556  1.4691
 3919SOL    HW223394   4.491   4.415   1.245  2.4703 -0.2511  0.9611
 3920SOL     OW23395   3.929   4.461   2.382 -0.2981 -0.3922 -0.3105
 3920SOL    HW123396   3.860   4.414   2.335 -0.4394  0.4476 -0.9321
 3920SOL    HW223397   3.901   4.552   2.375 -0.4700 -0.4461 -0.3351
 3921SOL     OW23398   0.002   2.565   6.227 -0.0471 -0.2569 -0.2102
 3921SOL    HW123399   0.080   2.559   6.282 -0.7672 -1.1217  0.6896
 3921SOL    HW223400   0.029   2.497   6.166  1.8980 -1.7545  2.3358
 3922SOL     OW23401   1.225   0.650  13.647 -0.7540  0.4343  0.5238
 3922SOL    HW123402   1.207   0.692  13.731  0.0080  0.4294  0.6848
 3922SOL    HW223403   1.249   0.731  13.601  2.1749  0.4510  2.1019
 3923SOL     OW23404   3.454   2.564   0.853 -0.2914  0.5975 -0.2631
 3923SOL    HW123405   3.380   2.527   0.804  0.7830  1.2187 -2.3400
 3923SOL    HW223406   3.438   2.657   0.834  0.6140  0.9436  0.7069
 3924SOL     OW23407   0.843   0.668   7.378  0.5709 -0.1896  0.4344
 3924SOL    HW123408   0.900   0.708   7.444 -0.3675 -1.5731  2.0676
 3924SOL    HW223409   0.913   0.629   7.326  0.7999 -0.1746  0.7309
 3925SOL     OW23410   1.391   1.255  13.469 -0.2782 -0.0405  0.1962
 3925SOL    HW123411   1.471   1.293  13.432 -0.4144  0.5883  0.5629
 3925SOL    HW223412   1.403   1.165  13.439 -2.1508 -0.8146  1.7792
 3926SOL     OW23413   4.009   1.891   4.747 -0.0438 -0.3116 -0.1467
 3926SOL    HW123414   3.951   1.958   4.783  2.5164  2.2829 -0.8893
 3926SOL    HW223415   4.013   1.830   4.820 -1.9147  1.4210  1.3936
 3927SOL     OW23416   1.034   2.105   9.195  0.7018 -0.1182 -0.5057
 3927SOL    HW123417   0.972   2.159   9.244  1.5030  0.6524 -0.3467
 3927SOL    HW223418   1.087   2.175   9.156  1.2532 -1.6655 -2.5734
 3928SOL     OW23419   1.151   1.525   8.837 -0.5037  0.5407  1.2311
 3928SOL    HW123420   1.129   1.544   8.746  2.3022  2.4309  0.9616
 3928SOL    HW223421   1.245   1.539   8.844 -0.2631  0.2870 -1.5687
 3929SOL     OW23422   2.005   1.140  12.354  0.3374  0.0373  0.0817
 3929SOL    HW123423   2.050   1.060  12.326  0.0778  0.3059 -1.1293
 3929SOL    HW223424   1.926   1.095  12.386  0.5959 -0.1498  0.4516
 3930SOL     OW23425   0.101   4.394   2.474  0.2707 -0.0661 -0.0605
 3930SOL    HW123426   0.017   4.431   2.500  0.8534 -1.3197  3.6485
 3930SOL    HW223427   0.068   4.347   2.397  0.6001 -1.1042  0.4282
 3931SOL     OW23428   0.412   0.761   4.304  0.2394 -0.6822 -0.2775
 3931SOL    HW123429   0.505   0.745   4.287  0.2230  0.7673 -1.6679
 3931SOL    HW223430   0.380   0.670   4.298 -0.2285 -0.6758  1.9237
 3932SOL     OW23431   2.308   3.028   0.275  0.0057 -0.2756  0.7871
 3932SOL    HW123432   2.242   2.986   0.329 -0.0237  0.2838  1.1773
 3932SOL    HW223433   2.350   2.957   0.225 -1.5186  0.9846 -2.2710
 3933SOL     OW23434   0.541   3.527   6.348 -0.2545  0.1471 -0.5132
 3933SOL    HW123435   0.522   3.469   6.422  0.5878  0.4337 -0.0714
 3933SOL    HW223436   0.493   3.601   6.384 -0.3485 -0.2841  0.2498
 3934SOL     OW23437   1.404   1.414  11.940 -0.0492 -0.1952 -0.0356
 3934SOL    HW123438   1.440   1.371  12.018  0.0259  2.7776  1.5732
 3934SOL    HW223439   1.413   1.505  11.969 -1.8066  0.6151 -2.0410
 3935SOL     OW23440   3.100   0.246   8.645  0.2935 -0.4531 -0.6997
 3935SOL    HW123441   3.084   0.336   8.674  1.1182 -0.2391 -0.9082
 3935SOL    HW223442   3.028   0.202   8.690  0.4729  1.4945  1.4947
 3936SOL     OW23443   2.905   3.277  10.947 -0.0530 -0.1456 -0.0250
 3936SOL    HW123444   2.821   3.264  10.902 -0.1455  1.5073 -0.3449
 3936SOL    HW223445   2.887   3.339  11.017 -2.5129  0.0932 -0.8444
 3937SOL     OW23446   3.983   2.644  11.848  0.2775 -0.2914 -0.4128
 3937SOL    HW123447   4.061   2.697  11.861  1.1845 -2.0255  1.1632
 3937SOL    HW223448   3.998   2.599  11.764  1.7401 -1.1437  0.3161
 3938SOL     OW23449   4.539   3.912  10.833  0.2513  0.2612 -0.2433
 3938SOL    HW123450   4.510   3.998  10.803 -0.4200 -0.1854 -0.8431
 3938SOL    HW223451   4.579   3.938  10.917  1.5338 -0.3636 -0.6555
 3939SOL     OW23452   4.030   2.725  14.913 -0.4605  0.1486  0.5230
 3939SOL    HW123453   3.973   2.657  14.877  0.0265  0.4661 -0.8546
 3939SOL    HW223454   3.970   2.799  14.907  0.9500  1.1050 -2.0320
 3940SOL     OW23455   1.415   3.795   8.245 -0.0053 -0.4920 -0.1740
 3940SOL    HW123456   1.488   3.855   8.258 -0.4883 -0.0561  0.5495
 3940SOL    HW223457   1.385   3.776   8.334 -1.2078  2.9702  0.1660
 3941SOL     OW23458   1.013   0.279   7.606 -0.0565 -0.0981 -0.0618
 3941SOL    HW123459   0.973   0.195   7.628  0.6395 -0.3771  0.1281
 3941SOL    HW223460   0.937   0.329   7.576 -0.6056 -1.0047 -0.1840
 3942SOL     OW23461   1.088   1.089   5.837  0.0335 -0.5759  0.3313
 3942SOL    HW123462   1.147   1.157   5.868 -2.0783  0.8495  1.2424
 3942SOL    HW223463   1.141   1.010   5.834  0.8057 -0.1650  2.9031
 3943SOL     OW23464   3.015   3.892   3.637 -1.0662  0.1823  0.0999
 3943SOL    HW123465   3.067   3.971   3.620 -2.9356  1.3111 -0.3853
 3943SOL    HW223466   3.040   3.845   3.557 -0.6208 -0.5823  0.6921
 3944SOL     OW23467   2.566   1.694   7.770  0.4631  0.7701  0.1323
 3944SOL    HW123468   2.476   1.678   7.797  0.2438 -1.0830 -1.6753
 3944SOL    HW223469   2.599   1.766   7.824 -1.0167  2.0820 -0.7024
 3945SOL     OW23470   0.441   1.948   8.251  0.0109  0.4558 -0.4884
 3945SOL    HW123471   0.505   1.952   8.180 -0.6916  0.5748 -1.1227
 3945SOL    HW223472   0.369   1.902   8.208  1.0393 -1.6774  0.0712
 3946SOL     OW23473   4.224   2.107   6.224 -0.3553  0.1294  0.1905
 3946SOL    HW123474   4.315   2.076   6.221 -0.0986  0.9125 -0.3457
 3946SOL    HW223475   4.181   2.053   6.158 -2.9293 -1.7343  3.4191
 3947SOL     OW23476   3.345   3.829  11.189  0.0945 -0.1227  0.4357
 3947SOL    HW123477   3.274   3.768  11.173 -0.6348  0.3004  2.0385
 3947SOL    HW223478   3.366   3.849  11.098  0.9438 -1.0321  0.4356
 3948SOL     OW23479   3.988   0.766   1.342 -1.1556  0.2481 -0.4932
 3948SOL    HW123480   4.060   0.807   1.294  0.0803 -1.3660 -0.0025
 3948SOL    HW223481   3.946   0.712   1.275  0.6479 -0.8984 -0.6747
 3949SOL     OW23482   0.900   3.869   5.050 -0.0931  0.1167  0.0184
 3949SOL    HW123483   0.823   3.852   5.103 -1.9555  2.6957 -1.8825
 3949SOL    HW223484   0.974   3.871   5.111 -0.9131 -1.0125  1.0398
 3950SOL     OW23485   1.009   3.888  14.315  0.1406 -0.3753 -0.4307
 3950SOL    HW123486   1.003   3.927  14.228 -0.4632 -0.6053 -0.4909
 3950SOL    HW223487   1.094   3.914  14.351 -0.3486 -0.5174  0.8197
 3951SOL     OW23488   1.755   4.379   4.063  0.6411 -0.0137 -0.3840
 3951SOL    HW123489   1.782   4.424   3.982 -0.4751  1.2237 -0.0780
 3951SOL    HW223490   1.722   4.455   4.112  1.5203  0.5813 -0.7145
 3952SOL     OW23491   3.573   1.987   9.146 -0.1659  0.7092  0.1002
 3952SOL    HW123492   3.604   2.006   9.057  2.0848 -1.8577  0.3544
 3952SOL    HW223493   3.654   1.952   9.182  1.1861 -0.4361 -4.0517
 3953SOL     OW23494   4.675   3.314   9.491  0.2196  0.2355  0.2607
 3953SOL    HW123495   0.022   3.318   9.441 -0.3394 -0.2443 -0.6706
 3953SOL    HW223496   4.718   3.328   9.575  0.1000 -0.0411  0.3678
 3954SOL     OW23497   0.558   3.828  15.800  0.0001  0.0865 -0.1134
 3954SOL    HW123498   0.599   3.875  15.873 -1.5748  1.7570 -0.3032
 3954SOL    HW223499   0.629   3.805  15.740  0.4946  0.9831  0.1305
 3955SOL     OW23500   1.916   4.007  13.910  0.0542  0.2402  0.4086
 3955SOL    HW123501   2.001   3.978  13.875 -0.4052 -0.2357 -0.3004
 3955SOL    HW223502   1.924   3.980  14.002  0.4021  2.4276  1.0289
 3956SOL     OW23503   3.878   0.026   5.209 -0.6961 -0.0639  0.2193
 3956SOL    HW123504   3.842   0.064   5.129 -0.2095  0.6167  0.3290
 3956SOL    HW223505   3.813   0.060   5.272 -0.2714  1.1295  0.0140
 3957SOL     OW23506   3.376   1.596   2.380  0.3426 -0.0139  0.1352
 3957SOL    HW123507   3.388   1.628   2.470 -0.4271 -2.2548  1.0169
 3957SOL    HW223508   3.282   1.606   2.366  0.1787  0.0127  1.2440
 3958SOL     OW23509   2.971   2.446  15.817 -0.6970 -0.0748  0.1323
 3958SOL    HW123510   3.044   2.459  15.877 -0.0868  2.0398 -1.0477
 3958SOL    HW223511   2.914   2.517  15.848 -0.7953  0.2179 -0.7161
 3959SOL     OW23512   2.980   0.410   7.104  0.2916 -0.4277 -0.0906
 3959SOL    HW123513   2.986   0.457   7.020  1.8442  1.2282  0.9557
 3959SOL    HW223514   2.928   0.474   7.151 -2.0875 -2.3100 -0.1308
 3960SOL     OW23515   0.061   1.868   1.923 -0.2674 -0.3985 -0.6657
 3960SOL    HW123516   0.028   1.885   2.011 -0.8710  1.9503 -1.3338
 3960SOL    HW223517   0.087   1.777   1.931  0.5089  0.1694  2.9658
 3961SOL     OW23518   3.584   1.524  11.781 -0.1526 -0.2151 -0.3735
 3961SOL    HW123519   3.588   1.438  11.823  0.7011  0.4281  0.8643
 3961SOL    HW223520   3.641   1.576  11.838  0.0678 -1.7359  0.7799
 3962SOL     OW23521   0.207   0.802  15.067 -0.1785  0.1358 -0.3258
 3962SOL    HW123522   0.173   0.812  15.157 -0.6903  0.9200 -0.6049
 3962SOL    HW223523   0.225   0.895  15.055  2.1663 -0.3467 -0.4143
 3963SOL     OW23524   3.296   0.009  16.814  0.1167  0.4824  0.0817
 3963SOL    HW123525   3.250   0.030  16.895  2.1811  0.6181  1.2318
 3963SOL    HW223526   3.345   4.668  16.847  1.8065  1.6808  0.3085
 3964SOL     OW23527   1.736   1.343   5.659 -0.0072 -0.1050 -0.5675
 3964SOL    HW123528   1.685   1.264   5.641  0.5860 -0.6956  0.3252
 3964SOL    HW223529   1.737   1.348   5.754  0.1529  1.5988 -0.6595
 3965SOL     OW23530   0.561   0.221  14.065 -0.6366  0.4473  0.3681
 3965SOL    HW123531   0.501   0.255  13.998 -1.5563 -1.2109  0.3431
 3965SOL    HW223532   0.628   0.177  14.012  0.3260  1.1003  1.0443
 3966SOL     OW23533   0.559   1.552  17.593  0.5489  0.3733 -0.0842
 3966SOL    HW123534   0.484   1.512  17.637 -0.8072  0.4506 -2.3583
 3966SOL    HW223535   0.622   1.480  17.591 -1.1303 -1.0754 -0.6260
 3967SOL     OW23536   2.695   0.718  11.714 -0.8872 -0.0098  0.1118
 3967SOL    HW123537   2.638   0.645  11.691  1.9076 -2.2823  0.2954
 3967SOL    HW223538   2.762   0.676  11.769 -1.5779 -1.8214 -0.4311
 3968SOL     OW23539   3.352   3.520  17.515 -0.5922  0.2211  0.4131
 3968SOL    HW123540   3.396   3.600  17.543  0.5422 -0.9527  2.0187
 3968SOL    HW223541   3.331   3.529  17.422 -1.3336 -0.6261  0.4963
 3969SOL     OW23542   0.819   4.329   2.173 -0.0473  0.2565 -0.0931
 3969SOL    HW123543   0.741   4.338   2.119 -1.1472 -0.5008  1.3686
 3969SOL    HW223544   0.847   4.240   2.152 -0.7907 -0.1853  0.7937
 3970SOL     OW23545   3.388   3.777   8.099  0.2609  0.3578 -0.1351
 3970SOL    HW123546   3.320   3.839   8.073 -0.7367  0.9584  4.0487
 3970SOL    HW223547   3.463   3.831   8.128  1.4635 -0.7587 -1.1578
 3971SOL     OW23548   1.865   3.398   9.249 -0.3727 -0.4571  0.1276
 3971SOL    HW123549   1.909   3.417   9.332  0.4962  1.7794 -0.8480
 3971SOL    HW223550   1.921   3.448   9.190 -1.6737 -0.0705 -0.7868
 3972SOL     OW23551   0.958   3.309   2.357  0.3947 -0.1994 -0.4973
 3972SOL    HW123552   0.949   3.217   2.382 -1.0593  0.4818  1.5128
 3972SOL    HW223553   1.051   3.319   2.336  0.1832 -0.5310 -1.6031
 3973SOL     OW23554   3.738   1.127  12.585  0.6211 -0.3864  0.1020
 3973SOL    HW123555   3.734   1.208  12.637  1.0222  0.5584 -1.3350
 3973SOL    HW223556   3.676   1.142  12.514  0.6207 -2.2160 -0.2670
 3974SOL     OW23557   0.598   4.133  14.722 -0.7098  0.3215  0.6319
 3974SOL    HW123558   0.643   4.090  14.795  0.2155 -0.1864 -0.2405
 3974SOL    HW223559   0.633   4.077  14.652 -1.2021  1.1639 -0.2898
 3975SOL     OW23560   0.174   2.784   4.276 -0.3778  0.5204  0.5414
 3975SOL    HW123561   0.085   2.819   4.278 -0.4888  0.1850  1.7897
 3975SOL    HW223562   0.216   2.869   4.263 -1.5716  1.1466  0.7748
 3976SOL     OW23563   1.934   0.662  15.468 -0.0695  0.1209  0.0093
 3976SOL    HW123564   1.909   0.579  15.427  1.5853 -0.3494 -0.0365
 3976SOL    HW223565   1.997   0.638  15.536 -0.6351  1.8252  1.1247
 3977SOL     OW23566   1.018   1.327   0.797  0.1571  0.4637 -0.2488
 3977SOL    HW123567   0.982   1.411   0.823  1.1515  0.5118  0.9603
 3977SOL    HW223568   0.997   1.335   0.704  0.8687  2.5552 -0.2267
 3978SOL     OW23569   0.403   0.744  13.557 -0.4728  0.0164 -0.0961
 3978SOL    HW123570   0.464   0.816  13.540  0.4657 -1.1880 -1.8676
 3978SOL    HW223571   0.324   0.775  13.601 -0.3153 -0.2241  0.3551
 3979SOL     OW23572   4.451   4.505   7.224 -0.5105 -0.3361  0.1973
 3979SOL    HW123573   4.397   4.515   7.302 -0.7112 -1.7391  0.2468
 3979SOL    HW223574   4.538   4.487   7.261 -0.1589 -1.5133 -1.2085
 3980SOL     OW23575   4.260   1.957  15.426 -0.2711 -0.1841  0.5545
 3980SOL    HW123576   4.223   2.044  15.442  1.3927  0.5498  0.4947
 3980SOL    HW223577   4.224   1.938  15.340 -1.2921 -2.0065  1.3881
 3981SOL     OW23578   2.906   1.193   7.754 -0.4369  0.1259 -0.2018
 3981SOL    HW123579   2.888   1.206   7.847 -0.1517 -0.5978 -0.0447
 3981SOL    HW223580   2.820   1.187   7.713 -0.3765  0.1561 -0.3306
 3982SOL     OW23581   3.029   4.185   6.495  0.1400 -0.2122  0.7719
 3982SOL    HW123582   3.116   4.197   6.457 -0.0373  0.0589  0.4519
 3982SOL    HW223583   3.030   4.248   6.567  2.5723  0.3002  0.2620
 3983SOL     OW23584   3.600   0.267   0.921 -0.0484  0.3671 -0.1699
 3983SOL    HW123585   3.531   0.257   0.856 -0.4397  0.5554  0.2167
 3983SOL    HW223586   3.659   0.195   0.900 -0.3526  0.2596 -0.6402
 3984SOL     OW23587   2.177   2.163   5.792  0.5625 -0.3602 -0.6035
 3984SOL    HW123588   2.160   2.078   5.751  1.6179 -0.1394 -1.4831
 3984SOL    HW223589   2.109   2.220   5.756 -0.3685 -0.8167  0.4395
 3985SOL     OW23590   2.821   0.726   5.208 -0.2179 -0.1189  0.1755
 3985SOL    HW123591   2.796   0.817   5.223  1.4453  0.6503 -1.7222
 3985SOL    HW223592   2.744   0.674   5.231 -0.3948  0.9113  1.9087
 3986SOL     OW23593   2.083   4.230  13.194  0.2691 -0.4528  0.6932
 3986SOL    HW123594   2.153   4.293  13.207 -0.3089  0.2641  0.3703
 3986SOL    HW223595   2.036   4.274  13.123 -0.8414  1.1100  2.4155
 3987SOL     OW23596   2.674   0.044   3.496 -0.1667 -0.5260  0.2849
 3987SOL    HW123597   2.632   0.128   3.512 -1.9001 -1.9599  3.4524
 3987SOL    HW223598   2.701   0.054   3.405 -0.7229 -0.3424  0.1387
 3988SOL     OW23599   2.024   1.067   7.500 -0.6583 -0.3521  0.3629
 3988SOL    HW123600   2.044   1.014   7.423 -0.1350  0.1465  0.1574
 3988SOL    HW223601   1.952   1.012   7.530 -1.3612  0.7823  0.7491
 3989SOL     OW23602   0.012   3.786   4.945 -0.4152 -0.2186 -0.1273
 3989SOL    HW123603   4.680   3.827   5.000 -0.8529 -1.0471 -0.0337
 3989SOL    HW223604   0.016   3.702   4.990 -0.2941 -1.4558 -2.4570
 3990SOL     OW23605   3.175   3.047   5.889  0.4917  0.5912  0.4716
 3990SOL    HW123606   3.186   3.065   5.795 -1.4861  0.8770  0.2899
 3990SOL    HW223607   3.249   2.988   5.900  0.4981  0.2303 -1.4649
 3991SOL     OW23608   3.145   0.518   4.365 -0.2851 -0.0025 -0.0093
 3991SOL    HW123609   3.132   0.583   4.434  2.5919  2.3045 -1.6315
 3991SOL    HW223610   3.228   0.482   4.396  0.0073  0.8551  0.1946
 3992SOL     OW23611   3.737   4.487  16.039  0.0181  0.0741  0.3129
 3992SOL    HW123612   3.775   4.559  16.088 -1.2366  0.8235  0.1839
 3992SOL    HW223613   3.798   4.482  15.966  0.6611  0.5047  0.8273
 3993SOL     OW23614   2.554   3.354  11.991  0.2214  0.2086 -0.3049
 3993SOL    HW123615   2.545   3.433  12.043  1.4627  0.8844 -1.1219
 3993SOL    HW223616   2.613   3.312  12.054 -1.2920 -0.5480  0.6175
 3994SOL     OW23617   4.097   4.661  14.556  0.8211 -0.5786 -0.1763
 3994SOL    HW123618   4.034   4.733  14.556 -0.2639 -1.5370  1.3300
 3994SOL    HW223619   4.079   4.625  14.469  2.5677  2.2156 -1.7233
 3995SOL     OW23620   3.190   3.242  10.910 -0.4419  0.7582  0.0910
 3995SOL    HW123621   3.196   3.259  10.816 -0.5352 -1.8124 -0.3690
 3995SOL    HW223622   3.095   3.233  10.912 -0.3532 -0.0198  0.8793
 3996SOL     OW23623   2.577   1.677   1.813 -0.4294 -0.0285 -0.7124
 3996SOL    HW123624   2.665   1.639   1.819 -0.7048 -0.6184 -0.3544
 3996SOL    HW223625   2.522   1.602   1.833 -0.0636  0.2984  1.5295
 3997SOL     OW23626   3.180   2.445  15.978 -0.2941  0.3109  0.0587
 3997SOL    HW123627   3.207   2.417  16.066  0.4229  1.9883  0.3738
 3997SOL    HW223628   3.232   2.525  15.979  0.7008 -0.3224 -1.8139
 3998SOL     OW23629   2.919   3.519   4.305  0.0602 -0.0007 -0.0583
 3998SOL    HW123630   2.844   3.569   4.275 -0.6458  0.8146  3.0691
 3998SOL    HW223631   2.954   3.569   4.379 -1.3031  1.2703 -0.2852
 3999SOL     OW23632   0.295   1.621   1.993 -0.1960 -0.1027  0.2103
 3999SOL    HW123633   0.385   1.611   1.961 -0.0557  3.0764 -0.3798
 3999SOL    HW223634   0.254   1.582   1.916  2.8119  1.4754 -2.2057
 4000SOL     OW23635   2.066   1.826   7.313  0.1299 -1.1465  0.4955
 4000SOL    HW123636   2.115   1.750   7.344  1.1202 -0.5968  0.2529
 4000SOL    HW223637   2.074   1.874   7.395  3.6848  2.2279 -1.8063
 4001SOL     OW23638   2.538   3.484   0.201 -0.4613  0.1180  0.2222
 4001SOL    HW123639   2.474   3.498   0.131  0.9486 -1.0229 -1.3077
 4001SOL    HW223640   2.552   3.570   0.240  1.7727 -0.2338  0.2448
 4002SOL     OW23641   0.305   0.976   6.159  0.1508 -0.2323  0.4508
 4002SOL    HW123642   0.284   0.947   6.070 -0.3731 -0.1803  0.5564
 4002SOL    HW223643   0.400   0.980   6.164  0.0075  0.5576  2.6027
 4003SOL     OW23644   1.354   1.019   8.070 -0.0423  0.1332 -0.1014
 4003SOL    HW123645   1.361   0.956   7.997 -0.7946  0.5352 -0.5321
 4003SOL    HW223646   1.428   0.990   8.123  0.3556  0.7293 -0.3328
 4004SOL     OW23647   0.579   0.063   7.535  0.0561  0.4149 -0.1547
 4004SOL    HW123648   0.505   0.100   7.583 -0.9303 -3.6939  1.4648
 4004SOL    HW223649   0.583   0.129   7.466  0.2848  1.2533  0.6681
 4005SOL     OW23650   1.986   4.178   5.248  0.6647 -0.3220 -0.7501
 4005SOL    HW123651   2.023   4.247   5.303 -2.8085  1.2792 -0.3668
 4005SOL    HW223652   1.905   4.172   5.299  1.2657  1.8102  0.4366
 4006SOL     OW23653   4.421   0.709   4.544  0.2806  0.2065 -0.6636
 4006SOL    HW123654   4.352   0.776   4.537  0.4823  0.6714  2.0107
 4006SOL    HW223655   4.369   0.633   4.569  0.7560 -0.0310 -0.4059
 4007SOL     OW23656   0.610   4.629  14.974  0.5676  0.6367  0.7303
 4007SOL    HW123657   0.696   4.640  14.933 -0.3581  3.7330 -0.4436
 4007SOL    HW223658   0.561   4.577  14.911  4.0531 -1.1642 -0.5207
 4008SOL     OW23659   3.551   0.981   2.666 -0.3358  0.7212 -0.1674
 4008SOL    HW123660   3.634   1.026   2.681  0.0104 -0.3791  1.2042
 4008SOL    HW223661   3.583   0.894   2.643 -1.9270  0.4265 -1.2897
 4009SOL     OW23662   3.367   2.983  14.526 -0.0282  0.5705  0.5806
 4009SOL    HW123663   3.336   2.907  14.477  0.4173  0.4078  0.5548
 4009SOL    HW223664   3.461   2.982  14.508 -0.1747 -0.5475 -0.1236
 4010SOL     OW23665   1.249   4.335   2.786  0.1371 -0.1092 -0.0360
 4010SOL    HW123666   1.336   4.337   2.826  0.4673 -1.2122 -0.6792
 4010SOL    HW223667   1.198   4.283   2.849 -1.4324  0.8892 -0.4963
 4011SOL     OW23668   2.795   1.128   5.503  0.5967 -0.4948  0.6193
 4011SOL    HW123669   2.793   1.204   5.445 -2.9185  0.2797  1.7618
 4011SOL    HW223670   2.843   1.167   5.576  0.3371  0.5306  0.2296
 4012SOL     OW23671   2.594   4.229  16.154 -0.5463  0.5189 -0.1305
 4012SOL    HW123672   2.541   4.228  16.074 -1.6811 -1.0478  0.6255
 4012SOL    HW223673   2.676   4.190  16.125 -0.5850  1.6248 -1.6908
 4013SOL     OW23674   0.286   1.754  10.925  0.4154 -0.4177 -0.0812
 4013SOL    HW123675   0.287   1.818  10.854 -0.7481 -0.9259 -0.5643
 4013SOL    HW223676   0.345   1.688  10.888 -0.0350 -0.9118  0.0814
 4014SOL     OW23677   2.214   0.952   5.104 -0.5098 -0.4308  0.1546
 4014SOL    HW123678   2.183   1.042   5.114  1.8077  0.4207 -0.1970
 4014SOL    HW223679   2.271   0.958   5.027 -0.7004  2.9651  0.2959
 4015SOL     OW23680   1.008   4.314   1.852  0.3543 -0.5483 -0.5161
 4015SOL    HW123681   1.043   4.400   1.827  0.6919 -0.4712  0.2267
 4015SOL    HW223682   1.068   4.291   1.923  0.0608  2.4342  0.7380
 4016SOL     OW23683   1.849   2.777   8.466 -0.0030  0.1192  0.2291
 4016SOL    HW123684   1.923   2.837   8.469  0.3944 -0.4059  0.9400
 4016SOL    HW223685   1.782   2.830   8.511  0.3035 -0.4336  1.3417
 4017SOL     OW23686   2.716   4.498   4.916 -0.1604 -0.6873 -0.0672
 4017SOL    HW123687   2.773   4.477   4.843 -2.5560 -1.7145 -1.6678
 4017SOL    HW223688   2.741   4.424   4.972  1.0251 -0.3085 -0.1039
 4018SOL     OW23689   0.775   2.334   2.174  0.4008  0.0388 -0.3793
 4018SOL    HW123690   0.827   2.340   2.093  0.9517  1.4562  0.0690
 4018SOL    HW223691   0.693   2.294   2.147  0.6027 -1.1536  0.7951
 4019SOL     OW23692   1.764   3.547   5.448  0.2420 -0.0783  0.5137
 4019SOL    HW123693   1.778   3.559   5.542 -2.0322  0.1603  0.8134
 4019SOL    HW223694   1.758   3.639   5.424 -0.9809 -0.4699 -0.6804
 4020SOL     OW23695   1.966   0.612   6.452  0.3028 -0.3962 -0.0656
 4020SOL    HW123696   2.019   0.565   6.516 -0.0551 -2.0528 -1.0049
 4020SOL    HW223697   1.881   0.596   6.492 -0.8984 -0.1939 -2.5844
 4021SOL     OW23698   3.700   1.006   4.743  0.1687 -1.0170 -0.5138
 4021SOL    HW123699   3.720   0.917   4.770  1.7694 -0.4072  0.2600
 4021SOL    HW223700   3.779   1.049   4.773 -0.0317 -1.1130  0.1526
 4022SOL     OW23701   0.663   0.044   7.209 -0.1973 -0.3882  0.1355
 4022SOL    HW123702   0.606   0.057   7.134  1.3465  1.0395 -0.7796
 4022SOL    HW223703   0.655   0.134   7.238  4.4315  0.7920 -2.2696
 4023SOL     OW23704   1.093   0.196   2.571  0.0025 -0.6308 -0.5816
 4023SOL    HW123705   0.999   0.208   2.583  0.3184  1.6069 -0.3047
 4023SOL    HW223706   1.130   0.279   2.542 -1.4543  0.8097  1.7096
 4024SOL     OW23707   1.454   3.022  10.367 -0.2562  0.2225 -0.2258
 4024SOL    HW123708   1.445   3.083  10.441 -0.1418 -0.6799  0.5367
 4024SOL    HW223709   1.373   2.971  10.377  1.5630 -2.7000 -0.6113
 4025SOL     OW23710   4.079   0.912   7.643 -0.5598 -0.2944 -0.4327
 4025SOL    HW123711   4.074   0.870   7.557 -1.6100 -1.3831  0.1682
 4025SOL    HW223712   4.045   0.845   7.701 -0.5467 -1.7161 -2.0471
 4026SOL     OW23713   2.901   1.881   6.123  0.6579 -0.2913  0.2653
 4026SOL    HW123714   2.836   1.833   6.173  1.7997 -1.9734  0.1296
 4026SOL    HW223715   2.940   1.934   6.193 -2.3334 -0.7626  2.2540
 4027SOL     OW23716   2.013   2.746   3.243 -0.0777 -0.4007 -0.3372
 4027SOL    HW123717   1.936   2.775   3.292 -0.0690 -2.0647  0.6562
 4027SOL    HW223718   2.080   2.806   3.275  0.3693 -1.9455  1.6347
 4028SOL     OW23719   3.872   4.109  14.848 -0.2960 -0.6259  0.0979
 4028SOL    HW123720   3.919   4.038  14.804 -0.8329 -0.2862 -1.0015
 4028SOL    HW223721   3.906   4.184  14.799 -1.0096  0.0023  0.5656
 4029SOL     OW23722   3.799   0.850  13.827  0.3310 -0.1619 -0.5340
 4029SOL    HW123723   3.808   0.945  13.829  0.8558 -0.2607  1.8505
 4029SOL    HW223724   3.888   0.816  13.814 -0.1613 -1.4248 -0.6483
 4030SOL     OW23725   0.411   1.960   9.361  0.1174  0.3619  0.1203
 4030SOL    HW123726   0.452   1.939   9.446  0.2221 -0.5593 -0.1498
 4030SOL    HW223727   0.348   1.888   9.364  2.4477 -1.7632 -2.0615
 4031SOL     OW23728   2.178   0.824   9.848 -0.1397 -0.4243 -0.6546
 4031SOL    HW123729   2.137   0.740   9.828 -2.4098  0.4881  0.1992
 4031SOL    HW223730   2.128   0.853   9.925 -1.5652 -1.9146 -1.0057
 4032SOL     OW23731   3.751   4.662   1.627  0.4430  0.1215 -0.3860
 4032SOL    HW123732   3.819   4.726   1.649 -0.0449  0.2562  0.7659
 4032SOL    HW223733   3.801   4.597   1.577 -1.0296 -1.2777 -0.0512
 4033SOL     OW23734   1.944   3.469   5.227  0.0186  0.1312 -0.2185
 4033SOL    HW123735   1.912   3.453   5.316  1.2183 -0.4803  0.1113
 4033SOL    HW223736   1.880   3.536   5.202  0.5638  0.3880 -0.9402
 4034SOL     OW23737   4.158   2.348   5.141 -0.1835 -0.4171 -0.7043
 4034SOL    HW123738   4.073   2.321   5.106 -0.1401 -1.6013  0.0940
 4034SOL    HW223739   4.194   2.385   5.061  1.0555  0.9441  0.4857
 4035SOL     OW23740   4.198   3.027  11.444 -0.1024  0.0760  0.1460
 4035SOL    HW123741   4.272   3.069  11.402  0.5888  0.2720  1.5625
 4035SOL    HW223742   4.129   3.054  11.383  1.8120  2.2003 -1.0600
 4036SOL     OW23743   1.496   0.190  15.550 -0.3680  0.0707  0.3701
 4036SOL    HW123744   1.415   0.210  15.502 -0.5026 -0.8501  0.2055
 4036SOL    HW223745   1.533   0.110  15.513 -0.0278  0.4842 -0.1790
 4037SOL     OW23746   2.526   2.243   7.733  0.1396  0.4856 -0.8469
 4037SOL    HW123747   2.604   2.231   7.679  0.3022 -2.8647  0.1576
 4037SOL    HW223748   2.460   2.234   7.664  1.8746  0.8075 -2.5604
 4038SOL     OW23749   0.126   2.017   9.892  0.6323  0.2035 -0.1338
 4038SOL    HW123750   0.178   2.059   9.824  0.6435 -1.6708 -1.2593
 4038SOL    HW223751   0.086   2.101   9.916  1.0622  0.2927  0.2667
 4039SOL     OW23752   3.992   4.016   4.965  0.1092  0.1357 -0.4069
 4039SOL    HW123753   3.926   4.073   4.926 -0.7718 -1.5557 -1.3700
 4039SOL    HW223754   3.942   3.938   4.989 -0.3005  0.8429  1.0545
 4040SOL     OW23755   3.714   0.909   7.834 -0.7096 -0.1859 -0.0775
 4040SOL    HW123756   3.636   0.900   7.779 -0.4942 -1.8925 -0.0838
 4040SOL    HW223757   3.684   0.887   7.922  0.1514 -2.6572 -0.4236
 4041SOL     OW23758   2.138   0.002   8.290 -0.3205  0.0591  0.2506
 4041SOL    HW123759   2.209   0.064   8.275 -1.1047  1.2925  1.6196
 4041SOL    HW223760   2.104   0.031   8.374 -0.6281  1.1785 -0.2611
 4042SOL     OW23761   2.394   3.915   8.490  0.4809 -0.9984  0.9541
 4042SOL    HW123762   2.395   3.926   8.585 -1.6740 -0.0296  0.8796
 4042SOL    HW223763   2.301   3.917   8.467 -0.1602  2.2831  3.7480
 4043SOL     OW23764   0.298   1.822  14.671  0.3288  0.4901 -0.3850
 4043SOL    HW123765   0.369   1.758  14.663  0.4623  0.8181 -1.7502
 4043SOL    HW223766   0.274   1.832  14.579 -0.0960 -0.1733 -0.3478
 4044SOL     OW23767   3.755   0.551   5.556 -0.1145  0.3275 -0.0253
 4044SOL    HW123768   3.810   0.609   5.609 -1.4615  2.1723 -0.6556
 4044SOL    HW223769   3.696   0.612   5.512  1.0586 -0.2985 -2.4553
 4045SOL     OW23770   4.490   3.036  13.695  0.0522  0.3556 -0.2867
 4045SOL    HW123771   4.544   3.000  13.766 -1.1133  0.9329  0.9007
 4045SOL    HW223772   4.401   3.050  13.728  0.7874  1.6429  1.1658
 4046SOL     OW23773   0.317   2.642   6.110  0.3540 -0.1872  0.2007
 4046SOL    HW123774   0.410   2.649   6.129  0.6817 -2.4694 -0.5616
 4046SOL    HW223775   0.279   2.641   6.198 -2.1272 -3.4629 -0.9066
 4047SOL     OW23776   1.204   3.528   7.805 -0.1504 -0.2237  0.5276
 4047SOL    HW123777   1.272   3.533   7.872 -1.4208 -2.1734  1.9780
 4047SOL    HW223778   1.256   3.467   7.753  0.6457 -0.7168  1.8938
 4048SOL     OW23779   1.627   0.843   9.455  0.0492  0.7719 -0.1220
 4048SOL    HW123780   1.646   0.899   9.530  0.1240 -1.1979  1.3022
 4048SOL    HW223781   1.593   0.767   9.501  2.1249  0.6360  1.1932
 4049SOL     OW23782   4.544   4.410   5.866 -0.5103 -0.0825 -0.0784
 4049SOL    HW123783   4.473   4.371   5.814  0.0288 -1.1101 -0.0510
 4049SOL    HW223784   4.514   4.501   5.871 -0.8022 -0.1942  0.2615
 4050SOL     OW23785   2.616   3.309   9.723 -0.4046 -0.7015 -0.0886
 4050SOL    HW123786   2.650   3.387   9.678 -0.9191 -1.4673 -1.7943
 4050SOL    HW223787   2.561   3.353   9.788 -1.0386  0.0345 -1.1170
 4051SOL     OW23788   4.337   0.182   7.636  0.1403 -0.2371  0.2991
 4051SOL    HW123789   4.344   0.277   7.626  0.9945 -0.3257  0.0612
 4051SOL    HW223790   4.428   0.167   7.665  0.8251 -1.2462 -2.3908
 4052SOL     OW23791   4.709   1.878  15.445 -0.3153 -0.4948  0.1561
 4052SOL    HW123792   4.638   1.860  15.384 -0.4228  1.3659 -0.2648
 4052SOL    HW223793   0.020   1.794  15.452 -0.5389 -0.5753  0.6397
 4053SOL     OW23794   3.001   3.181   1.517 -0.3947  0.0785  0.8804
 4053SOL    HW123795   3.094   3.156   1.519 -0.6625 -0.7241  3.0482
 4053SOL    HW223796   2.978   3.127   1.441  1.1618  0.6499 -0.0052
 4054SOL     OW23797   3.882   4.424   5.378 -0.5045 -0.5636  0.2297
 4054SOL    HW123798   3.912   4.515   5.371  2.7687 -1.7012 -0.3155
 4054SOL    HW223799   3.874   4.394   5.287 -0.2259 -0.8606  0.3069
 4055SOL     OW23800   2.927   3.045   1.223 -0.4373 -0.0471  0.1529
 4055SOL    HW123801   2.901   2.971   1.168 -1.0743  0.0146  0.3782
 4055SOL    HW223802   3.021   3.028   1.235  0.4957  4.1244 -1.0142
 4056SOL     OW23803   2.948   2.839   5.170 -0.0949  0.0328 -0.1725
 4056SOL    HW123804   2.861   2.878   5.180 -0.6466 -1.3970  0.6943
 4056SOL    HW223805   2.948   2.776   5.243  0.6033 -0.8164 -0.9164
 4057SOL     OW23806   3.670   4.561   0.630 -0.6639 -0.8665 -0.7315
 4057SOL    HW123807   3.693   4.522   0.546 -0.4847 -0.3384 -0.9300
 4057SOL    HW223808   3.584   4.601   0.615 -0.5156 -1.3067 -2.8226
 4058SOL     OW23809   1.086   4.329   6.788  0.1335 -0.5318  0.0453
 4058SOL    HW123810   1.080   4.271   6.864 -1.7738  0.5737  0.7335
 4058SOL    HW223811   1.008   4.383   6.805  1.4635  1.7750 -1.1037
 4059SOL     OW23812   1.119   4.291  12.280 -0.2029 -0.1595  0.3432
 4059SOL    HW123813   1.158   4.297  12.193 -0.3042  0.6565  0.3594
 4059SOL    HW223814   1.193   4.264  12.335 -0.4938  2.0490  1.8356
 4060SOL     OW23815   1.639   1.029   7.309 -0.2502  0.6548 -0.9375
 4060SOL    HW123816   1.669   0.945   7.273  1.9123  1.5027 -1.1491
 4060SOL    HW223817   1.611   1.084   7.237  0.6740 -0.7160 -2.3472
 4061SOL     OW23818   4.084   1.224   1.698 -0.3844  0.3773 -0.4025
 4061SOL    HW123819   4.091   1.156   1.764 -0.4516  0.3290 -0.4452
 4061SOL    HW223820   4.177   1.241   1.682  0.0183 -1.4367  0.0642
 4062SOL     OW23821   1.885   1.538  15.112 -0.2721 -0.1356 -0.7910
 4062SOL    HW123822   1.821   1.575  15.052 -2.8471 -3.1737  0.0551
 4062SOL    HW223823   1.856   1.447  15.121  0.2437 -0.0663  1.7896
 4063SOL     OW23824   3.315   2.845   8.530  0.1971  0.1034 -0.9232
 4063SOL    HW123825   3.312   2.848   8.434 -0.6291  1.6100 -0.8521
 4063SOL    HW223826   3.386   2.908   8.543 -0.2192 -0.3947  3.6773
 4064SOL     OW23827   3.449   2.840   0.720  0.2166 -0.3285  0.0286
 4064SOL    HW123828   3.529   2.887   0.745 -1.0361  0.6925  2.0867
 4064SOL    HW223829   3.410   2.914   0.673  0.5381  0.4798  1.0317
 4065SOL     OW23830   0.680   1.426   7.938  0.5790 -0.1789 -0.0505
 4065SOL    HW123831   0.707   1.457   8.024  1.1232  0.5863 -0.4905
 4065SOL    HW223832   0.665   1.510   7.894 -0.8755 -0.8815 -0.9180
 4066SOL     OW23833   3.962   0.549  16.422  0.6495  0.0157  0.2085
 4066SOL    HW123834   3.874   0.564  16.455  1.2698  0.4857  1.6543
 4066SOL    HW223835   4.004   0.569  16.506 -1.1834  2.1272  0.6235
 4067SOL     OW23836   0.432   3.451   6.104  0.3343  0.1633  0.8546
 4067SOL    HW123837   0.481   3.457   6.186  0.0771  0.2455  0.9983
 4067SOL    HW223838   0.403   3.542   6.098 -2.6783 -0.9617 -1.2601
 4068SOL     OW23839   4.485   0.393  13.035  0.1997 -0.9362 -0.0427
 4068SOL    HW123840   4.545   0.350  13.097  0.0719 -1.0519  0.0015
 4068SOL    HW223841   4.487   0.339  12.956  1.6591  0.1950 -0.7748
 4069SOL     OW23842   2.037   1.493  14.664  0.1355 -0.5253 -0.5140
 4069SOL    HW123843   1.996   1.578  14.677  0.0091 -0.5316 -0.8843
 4069SOL    HW223844   1.963   1.443  14.629 -0.9778  0.3624  0.5572
 4070SOL     OW23845   4.190   0.071   7.424 -0.1402  0.5463 -0.3061
 4070SOL    HW123846   4.261   0.107   7.478  0.0997  0.3085 -0.4652
 4070SOL    HW223847   4.202   4.714   7.447 -0.3662  0.5749 -0.0795
 4071SOL     OW23848   3.110   3.161   0.860 -1.1811 -0.4071  0.3706
 4071SOL    HW123849   3.135   3.139   0.771 -1.9268  0.1737  0.0118
 4071SOL    HW223850   3.174   3.107   0.906 -0.5480  2.0966  2.4649
 4072SOL     OW23851   4.405   3.017   8.385  0.6948 -0.5708  0.6969
 4072SOL    HW123852   4.356   2.987   8.462 -3.1487  2.2355 -0.6718
 4072SOL    HW223853   4.433   2.937   8.341 -0.9334 -0.5992 -0.2888
 4073SOL     OW23854   0.675   1.753  10.184  0.5261  0.5365  0.5290
 4073SOL    HW123855   0.641   1.700  10.112 -1.9573 -2.7687  4.1293
 4073SOL    HW223856   0.767   1.729  10.174  0.2721 -0.5391  0.7764
 4074SOL     OW23857   2.610   1.767   3.449  0.4166 -0.2569  0.3165
 4074SOL    HW123858   2.554   1.698   3.483 -0.8217  1.8908  2.6359
 4074SOL    HW223859   2.697   1.727   3.458  1.5715  1.4794 -3.2869
 4075SOL     OW23860   0.215   3.459   7.739 -0.4490 -0.1897 -0.3960
 4075SOL    HW123861   0.279   3.388   7.746 -0.4674 -0.3249 -1.7337
 4075SOL    HW223862   0.142   3.438   7.799 -2.7191  0.8660 -2.7933
 4076SOL     OW23863   3.766   2.857   1.165 -0.2273  0.0224 -0.0684
 4076SOL    HW123864   3.821   2.928   1.132  0.6602 -0.3004  0.7206
 4076SOL    HW223865   3.782   2.784   1.104 -0.1618 -1.3317  1.5734
 4077SOL     OW23866   0.679   2.493   3.493 -0.4215 -0.2216 -0.2218
 4077SOL    HW123867   0.682   2.564   3.429 -0.1597  1.1313  1.3024
 4077SOL    HW223868   0.619   2.520   3.563  0.5169  0.9475  0.1450
 4078SOL     OW23869   0.036   2.067   6.864  0.1222  0.1545 -0.0491
 4078SOL    HW123870   4.706   2.004   6.896  0.0053  0.5060  0.4200
 4078SOL    HW223871   0.079   2.011   6.799 -0.7679  0.6475 -1.0410
 4079SOL     OW23872   3.816   3.532   2.379  0.2103 -0.3779 -0.1288
 4079SOL    HW123873   3.805   3.571   2.465  0.7952 -0.6081  0.0520
 4079SOL    HW223874   3.733   3.486   2.373 -0.3021  1.0620 -4.1772
 4080SOL     OW23875   0.590   4.349   5.863 -0.1053 -0.4865 -0.2185
 4080SOL    HW123876   0.513   4.388   5.822  0.6888  1.8099  0.4911
 4080SOL    HW223877   0.640   4.428   5.882  1.6575 -1.9018  0.9666
 4081SOL     OW23878   2.477   0.831   3.851 -0.0230  0.2925 -0.4726
 4081SOL    HW123879   2.401   0.775   3.864  2.0772 -2.2798  0.8230
 4081SOL    HW223880   2.441   0.876   3.775 -0.3747 -0.3408 -0.6838
 4082SOL     OW23881   4.218   1.317   6.336 -0.3571 -0.0269  0.2636
 4082SOL    HW123882   4.272   1.317   6.257  1.0689  0.5360  1.2383
 4082SOL    HW223883   4.131   1.313   6.297 -0.9058  0.4057  1.4228
 4083SOL     OW23884   1.222   3.266  13.032 -0.1088  0.0980 -0.2134
 4083SOL    HW123885   1.165   3.241  13.105 -1.4153  1.5899 -0.7249
 4083SOL    HW223886   1.284   3.194  13.026  0.8500  1.1161 -2.5945
 4084SOL     OW23887   3.622   0.182   6.437  0.2886 -0.4756 -0.2229
 4084SOL    HW123888   3.599   0.089   6.446  0.9539 -0.4989  1.2450
 4084SOL    HW223889   3.716   0.173   6.424  0.4597  0.4902  0.3953
 4085SOL     OW23890   3.083   0.754   3.140 -0.5680 -0.2781  0.0478
 4085SOL    HW123891   3.048   0.698   3.209  0.8071  0.6736  1.5274
 4085SOL    HW223892   3.038   0.834   3.167  1.4769  0.3852  1.5204
 4086SOL     OW23893   1.914   4.572   3.433 -0.0414 -0.2178  0.1536
 4086SOL    HW123894   2.003   4.545   3.412 -0.7867 -0.8870 -2.1902
 4086SOL    HW223895   1.907   4.648   3.375 -2.2460 -0.6153 -0.1127
 4087SOL     OW23896   3.669   4.726  12.030 -0.0687 -0.1698  0.0512
 4087SOL    HW123897   3.691   0.027  11.944 -0.2453 -1.2265 -0.4344
 4087SOL    HW223898   3.703   4.637  12.036  0.5828 -0.0428 -1.6146
 4088SOL     OW23899   0.366   1.999  15.709 -0.1310 -0.2652 -0.0642
 4088SOL    HW123900   0.310   2.026  15.636  1.2385  0.2218 -0.9361
 4088SOL    HW223901   0.418   2.079  15.718  0.4831 -0.8212  1.3331
 4089SOL     OW23902   0.505   4.680   9.026 -0.0027 -0.5649  0.4192
 4089SOL    HW123903   0.528   4.696   8.935  0.2796  3.0489  1.1236
 4089SOL    HW223904   0.517   0.034   9.061  0.8823 -0.7645  0.6250
 4090SOL     OW23905   0.059   1.223  10.618 -0.0164  0.5780  0.4368
 4090SOL    HW123906   0.065   1.318  10.616 -0.1044  0.5149 -2.7576
 4090SOL    HW223907   0.145   1.212  10.660 -0.6547 -0.8791  1.3621
 4091SOL     OW23908   2.852   0.530   1.575 -0.1245  0.0460  0.9434
 4091SOL    HW123909   2.778   0.578   1.540  0.7339 -0.3983 -1.4506
 4091SOL    HW223910   2.816   0.441   1.575  2.8318 -1.1783  2.0950
 4092SOL     OW23911   4.700   3.674   8.004  0.0447 -0.6710  0.1956
 4092SOL    HW123912   4.664   3.762   8.016  0.9217 -0.2269 -0.4274
 4092SOL    HW223913   4.628   3.629   7.958 -1.5062  0.8708  1.1283
 4093SOL     OW23914   1.672   4.560   0.407  0.4947  0.2642  0.2477
 4093SOL    HW123915   1.658   4.630   0.342 -0.1435 -0.2354 -0.1569
 4093SOL    HW223916   1.705   4.602   0.486 -0.6761  1.9001 -0.1254
 4094SOL     OW23917   1.516   3.477   9.835  0.2071 -0.0728  0.7635
 4094SOL    HW123918   1.503   3.545   9.902  2.7808 -0.3530  1.5555
 4094SOL    HW223919   1.610   3.460   9.837  0.3018  0.5130  1.5754
 4095SOL     OW23920   4.212   2.258   3.765 -0.1991 -0.0116 -0.0023
 4095SOL    HW123921   4.220   2.166   3.789  0.8979  0.0453 -0.1265
 4095SOL    HW223922   4.152   2.290   3.833  1.1044 -1.5402  1.8462
 4096SOL     OW23923   3.593   0.005   2.278  0.0484  0.3683  0.0711
 4096SOL    HW123924   3.524   0.071   2.285  0.4534  0.7093  0.8303
 4096SOL    HW223925   3.554   4.678   2.217 -0.3360  0.8038 -0.1224
 4097SOL     OW23926   3.731   3.882   0.584 -0.2495 -0.0360 -0.2357
 4097SOL    HW123927   3.818   3.900   0.619 -0.2176 -0.0180 -0.3231
 4097SOL    HW223928   3.719   3.944   0.512 -0.5248 -3.3466 -3.0801
 4098SOL     OW23929   3.706   3.807   5.510 -0.2666 -0.7833  0.3789
 4098SOL    HW123930   3.619   3.777   5.535 -0.2921 -1.9443 -1.0688
 4098SOL    HW223931   3.733   3.736   5.451 -0.9607 -1.5899  1.0381
 4099SOL     OW23932   1.502   2.156   1.306  0.1381  0.7095 -0.3315
 4099SOL    HW123933   1.475   2.244   1.332  0.8659  0.7777  0.2209
 4099SOL    HW223934   1.575   2.143   1.367 -1.0065  0.4586  0.9887
 4100SOL     OW23935   3.212   0.195  13.404 -0.3508 -0.0249  0.2604
 4100SOL    HW123936   3.154   0.252  13.455 -0.8677  0.0548 -0.4105
 4100SOL    HW223937   3.150   0.187  13.331  1.9047 -1.7533 -1.4324
 4101SOL     OW23938   3.535   1.236   4.656 -0.4371 -0.1082 -0.5516
 4101SOL    HW123939   3.598   1.167   4.676  0.5758  0.8421 -0.4826
 4101SOL    HW223940   3.482   1.194   4.588  0.4013 -1.8662 -0.1302
 4102SOL     OW23941   3.593   2.868   3.171  0.2640 -0.3232  0.3305
 4102SOL    HW123942   3.651   2.910   3.234  1.1094  0.4308 -0.9524
 4102SOL    HW223943   3.623   2.779   3.193  1.0070 -0.0464  0.4365
 4103SOL     OW23944   0.388   3.444  14.742 -0.6709  0.3744 -0.5118
 4103SOL    HW123945   0.300   3.415  14.765 -1.3772  4.4367  1.9218
 4103SOL    HW223946   0.391   3.411  14.652  0.8695  0.7415 -0.5927
 4104SOL     OW23947   1.384   3.740   0.718 -0.4448  0.5123 -0.6846
 4104SOL    HW123948   1.300   3.785   0.731 -0.6313  0.5317 -1.8999
 4104SOL    HW223949   1.384   3.762   0.625  0.3361 -0.3029 -0.8709
 4105SOL     OW23950   0.198   1.172   0.474  0.4872 -0.0825 -0.4077
 4105SOL    HW123951   0.232   1.185   0.385  3.3185  2.7283  1.0617
 4105SOL    HW223952   0.120   1.121   0.456 -0.0342  0.3797  0.5581
 4106SOL     OW23953   0.926   2.652   6.256  0.2187 -0.2827 -0.2038
 4106SOL    HW123954   0.913   2.728   6.312 -0.3754 -3.0242  3.4362
 4106SOL    HW223955   0.908   2.689   6.169 -1.2913  0.8509  0.5844
 4107SOL     OW23956   2.382   2.194  17.440 -0.4320 -0.6047 -0.5409
 4107SOL    HW123957   2.358   2.123  17.500 -0.0112 -0.3482 -0.0692
 4107SOL    HW223958   2.379   2.271  17.497  1.1447 -0.7463 -0.2564
 4108SOL     OW23959   1.033   3.759   8.714 -0.3519  0.3380 -0.9936
 4108SOL    HW123960   0.955   3.815   8.712  1.2196  2.6191  0.5304
 4108SOL    HW223961   1.022   3.696   8.643  1.9283  0.8700 -1.8373
 4109SOL     OW23962   2.172   2.168   1.701 -0.8373 -0.0114 -0.2032
 4109SOL    HW123963   2.101   2.223   1.733 -0.2582  1.8598 -2.1188
 4109SOL    HW223964   2.123   2.096   1.661 -0.6338  0.1402 -0.7224
 4110SOL     OW23965   3.334   2.539   2.108 -0.6699 -0.6185 -0.0204
 4110SOL    HW123966   3.419   2.498   2.089 -0.8022 -1.2288  0.6947
 4110SOL    HW223967   3.338   2.517   2.201  0.5596 -1.0060 -0.1570
 4111SOL     OW23968   2.806   1.070  13.189  0.4575  0.0643 -0.3665
 4111SOL    HW123969   2.728   1.114  13.155  1.2336  0.4326 -1.6730
 4111SOL    HW223970   2.839   1.058  13.099 -1.8594 -0.4067 -1.1391
 4112SOL     OW23971   4.687   2.702   6.635  0.2535  0.2088 -0.3354
 4112SOL    HW123972   4.716   2.613   6.613  0.2736  0.0104  0.4895
 4112SOL    HW223973   4.671   2.733   6.546 -2.8875  2.4353  1.0344
 4113SOL     OW23974   3.043   3.475  16.904  0.2139 -0.0749 -0.2567
 4113SOL    HW123975   3.107   3.505  16.839  0.5759  0.4023  0.3139
 4113SOL    HW223976   3.039   3.383  16.881  1.1067  0.1565 -1.3293
 4114SOL     OW23977   1.252   4.401   7.940 -0.4998 -0.2935 -0.0988
 4114SOL    HW123978   1.226   4.347   8.014 -1.7192  2.8040  1.7320
 4114SOL    HW223979   1.243   4.341   7.866  3.1450 -0.3936 -0.4841
 4115SOL     OW23980   1.363   3.880  12.357 -0.3464 -0.1722 -0.1642
 4115SOL    HW123981   1.375   3.878  12.452 -0.6299 -0.3807 -0.1318
 4115SOL    HW223982   1.297   3.812  12.343 -1.4603  0.5260  1.6568
 4116SOL     OW23983   1.472   2.090   2.642  0.1267  0.3051 -0.0546
 4116SOL    HW123984   1.447   2.165   2.587 -1.3364 -0.8711 -0.9774
 4116SOL    HW223985   1.421   2.022   2.598 -1.2032  1.8037 -0.8577
 4117SOL     OW23986   3.251   1.335   4.032 -0.0866 -0.2992 -0.1121
 4117SOL    HW123987   3.266   1.240   4.029  0.9768 -0.1451  0.2696
 4117SOL    HW223988   3.265   1.346   4.126 -0.6304  0.1332 -0.0800
 4118SOL     OW23989   1.644   1.182   5.975  0.1630 -0.2329  0.1645
 4118SOL    HW123990   1.717   1.172   6.037  0.1453 -0.2509  0.1822
 4118SOL    HW223991   1.595   1.240   6.032 -1.3112 -0.3199 -1.0209
 4119SOL     OW23992   2.002   1.214  14.868  0.2419 -0.1787  0.0228
 4119SOL    HW123993   2.013   1.292  14.814  0.3430  0.4289  0.9113
 4119SOL    HW223994   2.050   1.237  14.948  1.4891 -1.1556 -0.4470
 4120SOL     OW23995   1.780   2.946   2.724 -0.0323 -0.0817  0.2963
 4120SOL    HW123996   1.845   2.911   2.664  1.4752  1.9330  0.7688
 4120SOL    HW223997   1.804   3.038   2.720  2.1653 -0.5491  2.3414
 4121SOL     OW23998   1.841   2.172   3.293  0.4264  0.1227 -0.1454
 4121SOL    HW123999   1.899   2.246   3.271  1.5488 -0.9336 -0.7626
 4121SOL    HW224000   1.903   2.105   3.264  1.2695  1.5493 -1.6772
 4122SOL     OW24001   1.858   0.877   6.706  0.5468  0.2807 -0.2562
 4122SOL    HW124002   1.831   0.946   6.766  0.4054  0.9741 -1.1037
 4122SOL    HW224003   1.835   0.913   6.620  1.0150 -1.6626 -1.2058
 4123SOL     OW24004   1.131   2.330   4.715  0.3325 -0.4820 -0.1813
 4123SOL    HW124005   1.169   2.273   4.782  0.4653 -1.0898 -0.7706
 4123SOL    HW224006   1.047   2.285   4.723  0.4716  0.0674  4.3035
 4124SOL     OW24007   2.490   1.364  13.941 -0.2607  0.2583 -0.4886
 4124SOL    HW124008   2.488   1.292  14.004 -0.4035 -0.2604 -1.0866
 4124SOL    HW224009   2.437   1.325  13.871 -1.4461  0.3631  0.3518
 4125SOL     OW24010   1.324   3.659   7.018  0.3443 -0.3105  0.2371
 4125SOL    HW124011   1.406   3.696   7.050 -1.3296  2.0716  1.7487
 4125SOL    HW224012   1.279   3.632   7.099 -0.2618 -1.0149 -0.3313
 4126SOL     OW24013   1.543   4.688   2.396 -0.6731  0.7353  0.3498
 4126SOL    HW124014   1.583   4.612   2.352  0.9214 -0.5929  4.1212
 4126SOL    HW224015   1.514   4.645   2.476  0.7297 -0.4917  0.2158
 4127SOL     OW24016   1.701   0.147   3.714  0.3259 -0.5861 -0.0603
 4127SOL    HW124017   1.681   0.135   3.807  2.0127  0.6323  0.4441
 4127SOL    HW224018   1.797   0.153   3.718  0.1736  0.8964  1.4646
 4128SOL     OW24019   2.402   4.139   6.487 -0.7754  0.3652 -0.3925
 4128SOL    HW124020   2.362   4.054   6.468  1.3223 -0.3595 -1.5422
 4128SOL    HW224021   2.350   4.170   6.561  2.3760  2.5518  0.8944
 4129SOL     OW24022   2.738   3.350   4.566  0.1182 -0.0393 -0.1482
 4129SOL    HW124023   2.682   3.409   4.515  0.3373 -1.2097 -1.7496
 4129SOL    HW224024   2.801   3.413   4.600 -0.3900  0.8819 -0.8823
 4130SOL     OW24025   0.797   1.561   4.842  0.5048  0.3720 -0.6666
 4130SOL    HW124026   0.881   1.545   4.884 -0.3666  0.7099  1.1802
 4130SOL    HW224027   0.796   1.657   4.839 -1.3773  0.3131 -2.2796
 4131SOL     OW24028   4.376   3.349  17.442  0.3916  0.3405 -0.1181
 4131SOL    HW124029   4.315   3.281  17.469  1.5296 -0.9983 -0.8698
 4131SOL    HW224030   4.461   3.311  17.465 -0.3192 -0.1561  1.6558
 4132SOL     OW24031   3.762   4.354   1.380  0.5129 -0.3715 -0.4664
 4132SOL    HW124032   3.821   4.402   1.437 -0.9181  1.4233 -0.5005
 4132SOL    HW224033   3.726   4.422   1.323 -1.8678 -1.2467 -0.0010
 4133SOL     OW24034   0.261   1.831   3.254  0.1426  0.3848  0.1736
 4133SOL    HW124035   0.251   1.842   3.159 -0.0284  0.3890  0.1919
 4133SOL    HW224036   0.278   1.738   3.272  2.4658  0.5878 -0.9660
 4134SOL     OW24037   0.019   0.508  16.954  0.2706  0.0447 -0.3396
 4134SOL    HW124038   4.700   0.580  16.921 -0.6809  0.3361  1.9041
 4134SOL    HW224039   0.029   0.452  16.876 -2.9025 -0.7568 -0.1757
 4135SOL     OW24040   1.223   2.292   6.801  0.1454  0.1709  0.3883
 4135SOL    HW124041   1.185   2.224   6.745  0.2133  0.4532  0.0039
 4135SOL    HW224042   1.213   2.249   6.886  2.5893  1.9740  1.5717
 4136SOL     OW24043   2.576   1.623  11.352  0.0082 -0.0917  0.5837
 4136SOL    HW124044   2.594   1.703  11.302 -1.6469  0.1266  0.3347
 4136SOL    HW224045   2.489   1.643  11.386 -0.5740 -0.5508 -0.6769
 4137SOL     OW24046   2.413   1.830   2.076 -0.2308 -0.1325 -0.4165
 4137SOL    HW124047   2.358   1.899   2.038  0.7621  1.0113  0.2160
 4137SOL    HW224048   2.429   1.767   2.006 -1.8790 -1.4382  0.3800
 4138SOL     OW24049   3.901   4.572   3.109 -0.3650  0.0375 -0.1488
 4138SOL    HW124050   3.807   4.588   3.107 -0.6367 -1.7289 -1.4151
 4138SOL    HW224051   3.919   4.610   3.023 -1.2052 -0.5786 -0.5993
 4139SOL     OW24052   0.123   4.313  15.105  0.5467 -1.0766  0.1068
 4139SOL    HW124053   0.176   4.393  15.105 -0.6307 -0.2962  1.5970
 4139SOL    HW224054   0.052   4.331  15.043 -1.5354 -0.9842  2.5174
 4140SOL     OW24055   2.482   1.386   6.331  0.5525 -0.2656 -0.4143
 4140SOL    HW124056   2.576   1.381   6.315  0.4959  1.3534 -1.2976
 4140SOL    HW224057   2.455   1.361   6.242  2.6343  0.0380 -1.1208
 4141SOL     OW24058   3.631   1.411   7.005  0.2909  0.0480  0.3779
 4141SOL    HW124059   3.550   1.434   7.051  0.4831  0.5392  0.4754
 4141SOL    HW224060   3.669   1.347   7.065 -0.6606 -2.0290 -1.2733
 4142SOL     OW24061   1.212   2.699  11.392  0.1110  0.2465  0.0586
 4142SOL    HW124062   1.177   2.699  11.302 -0.4747  1.6969  0.2727
 4142SOL    HW224063   1.135   2.744  11.427  0.7135  1.1893  0.1721
 4143SOL     OW24064   0.098   2.184   3.777  0.4546 -0.3420  0.2863
 4143SOL    HW124065   0.088   2.215   3.688  1.3662 -0.6611  0.0663
 4143SOL    HW224066   0.175   2.126   3.777  0.7904  0.1063 -0.6994
 4144SOL     OW24067   0.811   1.142  15.069  0.6687 -0.2739 -0.1105
 4144SOL    HW124068   0.741   1.101  15.120  0.3733 -0.6869 -0.8497
 4144SOL    HW224069   0.774   1.230  15.078 -1.2388 -0.9621 -1.2732
 4145SOL     OW24070   3.469   3.345  12.737 -0.1589 -0.2495 -0.1566
 4145SOL    HW124071   3.525   3.393  12.677  1.2297 -0.1812  1.1957
 4145SOL    HW224072   3.382   3.352  12.698 -0.1907 -3.0858 -0.6228
 4146SOL     OW24073   2.224   4.710   3.243  0.1685 -0.0759  0.0112
 4146SOL    HW124074   2.307   4.717   3.196 -1.5490 -1.1583 -3.1168
 4146SOL    HW224075   2.243   0.017   3.327 -1.4173 -1.2359  0.9503
 4147SOL     OW24076   4.613   3.183   5.735 -0.5690  0.3509  0.3762
 4147SOL    HW124077   4.568   3.098   5.736 -0.9359  0.5385  0.1045
 4147SOL    HW224078   4.693   3.168   5.785 -0.2839 -0.7734 -0.4058
 4148SOL     OW24079   3.348   0.694   5.888 -0.2956  0.0958  0.0789
 4148SOL    HW124080   3.322   0.759   5.823 -1.7343 -0.8721 -0.3053
 4148SOL    HW224081   3.346   0.738   5.973  3.0103 -0.6374  0.5663
 4149SOL     OW24082   0.391   0.809   5.683  0.0125 -0.1946 -0.1142
 4149SOL    HW124083   0.479   0.770   5.683  0.5835  1.0906 -2.1145
 4149SOL    HW224084   0.372   0.797   5.589  2.4355  2.1139 -0.8960
 4150SOL     OW24085   3.527   2.813   6.199 -0.6466  0.1665  0.0275
 4150SOL    HW124086   3.610   2.794   6.157  0.6098  1.1109  2.0723
 4150SOL    HW224087   3.503   2.728   6.236 -0.2227  0.0776  0.1007
 4151SOL     OW24088   1.544   0.163  15.878  0.0243  0.1048  0.0116
 4151SOL    HW124089   1.489   0.241  15.888 -0.7010 -0.3146 -0.7663
 4151SOL    HW224090   1.529   0.141  15.786 -2.0504  2.6618 -0.2829
 4152SOL     OW24091   2.120   0.869   3.950  0.4909  0.2829  0.0435
 4152SOL    HW124092   2.128   0.835   4.039 -1.0430  0.5826  0.2954
 4152SOL    HW224093   2.168   0.806   3.896 -1.1742  0.4910 -1.6812
 4153SOL     OW24094   4.446   1.575   3.374  0.5430  0.3032  0.2754
 4153SOL    HW124095   4.524   1.570   3.318  1.1831 -2.1441  1.3795
 4153SOL    HW224096   4.463   1.520   3.450  1.0093  0.4279  0.2621
 4154SOL     OW24097   2.109   3.233   9.727 -0.0361 -0.3285 -0.4900
 4154SOL    HW124098   2.152   3.151   9.703  0.2932 -0.0731 -0.7661
 4154SOL    HW224099   2.016   3.209   9.728  0.2074 -1.2469  0.0463
 4155SOL     OW24100   4.578   3.610  17.668  0.2043  0.0224  0.2550
 4155SOL    HW124101   4.629   3.531  17.648 -1.5051 -1.0409  0.0776
 4155SOL    HW224102   4.497   3.572  17.703 -1.1528  0.3389 -2.5172
 4156SOL     OW24103   2.769   2.992   0.675  0.2597  0.0870  0.0860
 4156SOL    HW124104   2.755   3.072   0.624  0.9111  0.7647  0.9812
 4156SOL    HW224105   2.761   3.026   0.764 -0.7981  0.5194 -0.1747
 4157SOL     OW24106   2.338   1.204   2.290 -0.1161  0.0466  0.1358
 4157SOL    HW124107   2.392   1.262   2.343  0.7759 -0.6511 -0.0088
 4157SOL    HW224108   2.314   1.134   2.351  2.2678  0.4955  1.5437
 4158SOL     OW24109   1.741   2.364   2.372  0.2277 -0.1119 -0.0578
 4158SOL    HW124110   1.837   2.361   2.367  0.3582 -1.6645  3.0371
 4158SOL    HW224111   1.722   2.322   2.456 -0.1705 -1.2658 -0.7347
 4159SOL     OW24112   4.139   0.303   2.632 -0.1952 -0.2692  0.1945
 4159SOL    HW124113   4.189   0.382   2.650 -1.7514  0.5160  1.0110
 4159SOL    HW224114   4.175   0.251   2.704  2.5934 -1.7206 -2.2263
 4160SOL     OW24115   1.065   0.686   3.418  0.0473 -0.9282 -0.0897
 4160SOL    HW124116   0.978   0.678   3.379  0.2636 -0.1181 -0.7337
 4160SOL    HW224117   1.115   0.737   3.354 -1.8391  0.3885 -0.4970
 4161SOL     OW24118   0.556   2.599   0.127  0.8306  0.0618 -0.0566
 4161SOL    HW124119   0.463   2.579   0.141  1.2142  0.1556  2.7709
 4161SOL    HW224120   0.600   2.519   0.101  1.6024 -0.0603  1.5915
 4162SOL     OW24121   0.627   1.998   5.622  0.1493 -0.0481 -0.6906
 4162SOL    HW124122   0.642   2.062   5.552 -0.3433  1.4916  0.5967
 4162SOL    HW224123   0.534   1.983   5.610 -0.2292  0.2426  1.7803
 4163SOL     OW24124   2.707   3.733  15.314  0.0136  0.0890 -0.4506
 4163SOL    HW124125   2.703   3.637  15.307 -3.3824  0.2794 -1.1966
 4163SOL    HW224126   2.712   3.732  15.410  2.9980 -0.1812 -0.6067
 4164SOL     OW24127   3.711   4.711  16.821  0.0042 -0.0243  0.4558
 4164SOL    HW124128   3.752   4.640  16.773 -1.2699 -1.9667  2.2534
 4164SOL    HW224129   3.787   0.017  16.864  0.4556 -1.7903  1.3134
 4165SOL     OW24130   3.309   0.257  10.838  0.8119  0.1079  0.1119
 4165SOL    HW124131   3.296   0.234  10.745 -1.2831 -1.2500  0.7418
 4165SOL    HW224132   3.248   0.330  10.844  0.5924 -0.0657 -0.0164
 4166SOL     OW24133   1.772   0.390   0.307 -0.1074 -0.6514 -0.6699
 4166SOL    HW124134   1.799   0.326   0.373 -0.5073 -0.5135 -0.3789
 4166SOL    HW224135   1.779   0.471   0.358  2.4054 -0.5515 -1.1705
 4167SOL     OW24136   0.564   3.894   5.822  0.2059  0.1894 -0.0872
 4167SOL    HW124137   0.630   3.955   5.790 -0.4609  0.6341 -0.6201
 4167SOL    HW224138   0.549   3.932   5.908 -3.2772 -0.5006 -0.3869
 4168SOL     OW24139   4.308   2.042   7.909  0.7492  0.0916  0.7720
 4168SOL    HW124140   4.250   2.020   7.981  2.0441 -1.5658  1.3139
 4168SOL    HW224141   4.249   2.019   7.837 -0.1256  1.8766  0.9134
 4169SOL     OW24142   0.133   3.256   7.365 -0.2286  0.4644  0.4066
 4169SOL    HW124143   0.159   3.190   7.429 -0.5833 -0.6022 -0.5442
 4169SOL    HW224144   0.112   3.327   7.425 -0.6742  1.4904 -0.9820
 4170SOL     OW24145   0.709   2.042  10.009  0.6978 -0.0710  0.2360
 4170SOL    HW124146   0.690   1.951   9.986 -0.1121  0.2769 -0.4675
 4170SOL    HW224147   0.716   2.084   9.923 -0.0219 -0.8017 -0.1742
 4171SOL     OW24148   2.450   0.319   1.720  0.2523 -0.2378 -0.5059
 4171SOL    HW124149   2.382   0.348   1.781  1.0811 -1.3788  0.9778
 4171SOL    HW224150   2.493   0.403   1.703  0.7821 -0.8896 -2.2875
 4172SOL     OW24151   1.442   2.006   5.828 -0.3703 -0.7803  0.2698
 4172SOL    HW124152   1.480   2.079   5.778 -0.0507  0.8763  2.9745
 4172SOL    HW224153   1.442   2.037   5.918  0.4721  0.5174 -0.1764
 4173SOL     OW24154   0.856   4.149   7.653  0.1310 -0.2677 -0.3286
 4173SOL    HW124155   0.937   4.200   7.651 -0.7799  1.2519  1.3997
 4173SOL    HW224156   0.842   4.147   7.559  1.9181 -2.5694 -0.5495
 4174SOL     OW24157   2.829   3.314   0.683  0.0721  0.4533  0.2808
 4174SOL    HW124158   2.811   3.264   0.763 -2.4881  0.6492 -0.1808
 4174SOL    HW224159   2.764   3.280   0.621 -0.5439  2.2448 -0.0560
 4175SOL     OW24160   2.034   0.551   2.131  0.2283  0.2156  0.2749
 4175SOL    HW124161   2.119   0.516   2.157 -0.1395 -1.9570 -1.4584
 4175SOL    HW224162   2.054   0.628   2.078  1.4971  0.5522  1.2452
 4176SOL     OW24163   1.991   0.175  15.994 -0.0903 -0.0568  0.0530
 4176SOL    HW124164   1.987   0.081  15.979  0.4593  0.3057 -2.3603
 4176SOL    HW224165   1.909   0.194  16.040  0.9747  0.0523  1.9032
 4177SOL     OW24166   2.062   1.049   6.555  0.3728  0.1202 -0.6009
 4177SOL    HW124167   1.986   0.993   6.571 -1.2469  2.3254 -0.5142
 4177SOL    HW224168   2.043   1.120   6.616  1.6079  0.1158 -0.2213
 4178SOL     OW24169   0.524   1.013   8.790 -0.1784  0.2101 -0.0294
 4178SOL    HW124170   0.454   0.961   8.750 -0.2636 -1.1960  1.9337
 4178SOL    HW224171   0.503   0.999   8.882 -2.9662 -1.9612 -0.9802
 4179SOL     OW24172   0.185   4.651   1.488  0.4981 -0.2290 -0.1105
 4179SOL    HW124173   0.179   0.012   1.481  0.0874 -0.2455 -0.0023
 4179SOL    HW224174   0.121   4.620   1.424  0.7575 -1.3053  0.1486
 4180SOL     OW24175   3.158   0.059  10.971 -0.6225  0.4439  0.4382
 4180SOL    HW124176   3.132   0.038  10.881  0.2005  1.9389 -0.1527
 4180SOL    HW224177   3.205   0.142  10.961 -0.8174  0.5127  0.1101
 4181SOL     OW24178   1.936   3.829  11.619  0.0837 -0.6614 -0.4071
 4181SOL    HW124179   1.955   3.861  11.531 -2.3503 -2.1768 -1.4811
 4181SOL    HW224180   1.920   3.740  11.588  1.5461 -1.4114  1.0074
 4182SOL     OW24181   2.079   1.864  10.539  0.7846 -0.3111  0.5940
 4182SOL    HW124182   2.002   1.849  10.483  0.7340  1.3330  0.2006
 4182SOL    HW224183   2.107   1.951  10.510  1.4107 -1.6373 -2.7711
 4183SOL     OW24184   3.265   1.999   7.761  0.4154 -0.7077  0.3742
 4183SOL    HW124185   3.273   1.991   7.856  0.1030  0.7382  0.5165
 4183SOL    HW224186   3.341   2.048   7.730 -2.0282  2.0695 -1.2464
 4184SOL     OW24187   2.087   4.294   2.698  0.5470  0.1957  0.0381
 4184SOL    HW124188   2.112   4.344   2.620  1.1169  3.4510  2.3495
 4184SOL    HW224189   2.061   4.367   2.754  0.3124  0.3236 -0.2328
 4185SOL     OW24190   0.353   0.357  13.387 -0.2752  0.2892  0.0182
 4185SOL    HW124191   0.300   0.292  13.342  0.8387 -0.6319  0.0421
 4185SOL    HW224192   0.344   0.309  13.469  0.5021  0.6949  0.3486
 4186SOL     OW24193   1.625   1.530   3.460 -0.8312  0.0292 -0.6521
 4186SOL    HW124194   1.669   1.589   3.399  0.5254  0.7855  1.0594
 4186SOL    HW224195   1.620   1.582   3.540  0.5880  2.1545 -1.9600
 4187SOL     OW24196   2.336   3.617   6.036 -0.0101  0.1961 -0.1408
 4187SOL    HW124197   2.318   3.548   6.100  0.1471  1.3581  1.1481
 4187SOL    HW224198   2.344   3.564   5.956  1.6065 -0.2164  0.2991
 4188SOL     OW24199   2.070   4.083   6.074  0.3980  0.4579 -0.1612
 4188SOL    HW124200   2.111   4.043   5.998  3.8120  2.0335  0.8307
 4188SOL    HW224201   2.086   4.026   6.149  0.4483 -0.3336 -0.7714
 4189SOL     OW24202   2.441   4.643   5.846 -0.1568 -0.7227 -1.0918
 4189SOL    HW124203   2.464   4.553   5.823  1.0009 -0.3720 -1.3311
 4189SOL    HW224204   2.476   4.677   5.763 -0.6232  0.0549 -0.9644
 4190SOL     OW24205   3.744   2.880  14.151 -0.3745 -0.5333  0.4084
 4190SOL    HW124206   3.833   2.895  14.121  0.2511 -1.1816  1.9477
 4190SOL    HW224207   3.733   2.951  14.215 -2.8670  0.0472 -0.6397
 4191SOL     OW24208   0.447   3.837   5.183  0.0498  0.7999  0.2753
 4191SOL    HW124209   0.374   3.776   5.168  0.9340 -0.4506  1.1196
 4191SOL    HW224210   0.401   3.899   5.239  1.9313  0.9139  1.6774
 4192SOL     OW24211   4.318   3.881   4.076 -0.0572  0.0224 -0.3363
 4192SOL    HW124212   4.328   3.838   4.161  0.1936 -2.2307 -1.5109
 4192SOL    HW224213   4.277   3.811   4.025 -0.4431  0.0471 -0.0618
 4193SOL     OW24214   2.847   0.589   8.819 -0.5638 -0.2849  0.1205
 4193SOL    HW124215   2.935   0.570   8.784 -0.0956 -0.0983  1.2103
 4193SOL    HW224216   2.840   0.510   8.872 -1.8560  0.6466  1.3037
 4194SOL     OW24217   3.509   3.642   4.374  0.0012  0.4981 -0.3466
 4194SOL    HW124218   3.432   3.618   4.425  1.0407 -0.6261  0.6992
 4194SOL    HW224219   3.549   3.558   4.353 -2.8226 -1.4207  2.0387
 4195SOL     OW24220   2.220   0.634   3.560  0.0136 -0.2199 -0.2979
 4195SOL    HW124221   2.191   0.717   3.521  1.1466  2.1698  3.9074
 4195SOL    HW224222   2.303   0.612   3.518  0.7293  0.7802  0.5582
 4196SOL     OW24223   3.052   1.161   8.203  0.5964  0.1213 -0.3640
 4196SOL    HW124224   3.013   1.206   8.128  3.1066 -2.1341 -3.0404
 4196SOL    HW224225   3.059   1.230   8.268  1.0598 -0.2763  0.0069
 4197SOL     OW24226   0.948   1.044   3.746 -0.6755 -0.3940  0.3398
 4197SOL    HW124227   0.951   0.981   3.818  3.0937 -2.1047 -1.2989
 4197SOL    HW224228   1.041   1.060   3.730 -1.0692  1.8941  0.3955
 4198SOL     OW24229   3.550   3.919   8.492  0.1925  0.5710  0.7131
 4198SOL    HW124230   3.547   3.865   8.571  2.2807 -2.1136 -1.0331
 4198SOL    HW224231   3.609   3.984   8.531  0.2915  0.0759  1.3747
 4199SOL     OW24232   0.381   4.257   5.306  0.1361  0.5206  0.0211
 4199SOL    HW124233   0.359   4.169   5.335  2.4633 -0.8562 -2.4098
 4199SOL    HW224234   0.295   4.292   5.331 -0.2753 -0.3791 -0.1651
 4200SOL     OW24235   0.826   3.344   8.512  0.5794 -0.8017 -0.2618
 4200SOL    HW124236   0.741   3.308   8.539  0.2388  2.3188  2.9209
 4200SOL    HW224237   0.840   3.304   8.427 -1.0831 -2.8083  0.4151
 4201SOL     OW24238   0.707   4.375   4.236  0.0397  0.5459 -0.6118
 4201SOL    HW124239   0.619   4.378   4.272 -1.0919  1.8236 -3.5160
 4201SOL    HW224240   0.723   4.281   4.230  2.0032  0.7849  0.5988
 4202SOL     OW24241   1.993   0.466  10.799  0.8394 -0.0006 -0.0311
 4202SOL    HW124242   1.929   0.536  10.784 -0.0301 -0.7370  0.2991
 4202SOL    HW224243   2.069   0.523  10.810 -0.6167  1.5412  1.9946
 4203SOL     OW24244   2.600   4.257   6.678 -0.1960  0.5074 -0.4747
 4203SOL    HW124245   2.522   4.227   6.630  0.6391 -1.5845 -0.5138
 4203SOL    HW224246   2.664   4.237   6.609  1.6368  0.4604  1.2311
 4204SOL     OW24247   1.294   1.289   8.100  1.3542 -0.5636  0.0447
 4204SOL    HW124248   1.312   1.195   8.101  0.0239 -0.7675  2.4607
 4204SOL    HW224249   1.380   1.326   8.078  1.2703 -0.0871  0.5163
 4205SOL     OW24250   2.332   3.883   6.668  0.1175 -0.6008  0.5615
 4205SOL    HW124251   2.347   3.821   6.739 -1.5666  0.1806  1.5916
 4205SOL    HW224252   2.409   3.865   6.614 -0.7083 -1.7576 -0.1998
 4206SOL     OW24253   1.225   3.698   6.089  0.6014 -0.0501 -0.2367
 4206SOL    HW124254   1.225   3.760   6.163 -2.3522 -0.2536 -0.0683
 4206SOL    HW224255   1.280   3.740   6.024 -0.8124  3.5909  0.8988
 4207SOL     OW24256   4.652   4.140   1.459 -0.0105  0.3376  0.0039
 4207SOL    HW124257   4.659   4.228   1.497  1.5183  0.1442  0.1792
 4207SOL    HW224258   4.642   4.155   1.365  2.4232 -1.0996 -0.4869
 4208SOL     OW24259   1.164   0.507   8.982  0.1489  0.2108  0.4676
 4208SOL    HW124260   1.100   0.561   8.936 -0.1449  0.4558  1.1669
 4208SOL    HW224261   1.219   0.576   9.017 -0.8471  0.4282  1.6015
 4209SOL     OW24262   0.947   2.307   4.256 -0.3823  0.3742 -0.4012
 4209SOL    HW124263   0.892   2.301   4.335  2.3295 -2.0364  1.3097
 4209SOL    HW224264   0.897   2.242   4.206  3.0300 -0.9100 -2.1046
 4210SOL     OW24265   1.096   2.523  10.600 -0.2800  0.5373  0.4292
 4210SOL    HW124266   1.053   2.547  10.518 -1.5696 -2.3612  0.2754
 4210SOL    HW224267   1.101   2.428  10.600 -0.6399  0.5178  1.2871
 4211SOL     OW24268   2.026   2.423  16.694  0.2619 -0.4485  0.2624
 4211SOL    HW124269   2.021   2.402  16.787  0.6590  1.0872  0.6316
 4211SOL    HW224270   1.936   2.453  16.683  0.5034  1.3117  2.9234
 4212SOL     OW24271   3.499   0.573   2.456  0.9499  0.0761  0.7441
 4212SOL    HW124272   3.533   0.503   2.511  1.9576 -0.8081 -1.0075
 4212SOL    HW224273   3.510   0.542   2.366 -0.4120 -0.0397  0.6133
 4213SOL     OW24274   2.095   4.056   2.857  0.2317  0.4475  0.0688
 4213SOL    HW124275   2.188   4.068   2.878  0.4421  0.9393 -1.1576
 4213SOL    HW224276   2.073   4.141   2.820 -0.5903  0.0131 -0.4392
 4214SOL     OW24277   0.640   2.183   5.405 -0.1064 -0.3575  0.8046
 4214SOL    HW124278   0.689   2.245   5.458  0.2448  2.1077 -2.4277
 4214SOL    HW224279   0.708   2.150   5.347 -0.3455 -0.3403  0.5119
 4215SOL     OW24280   3.199   4.063   4.780  0.5215 -0.2745 -0.4498
 4215SOL    HW124281   3.288   4.089   4.757  0.7858 -3.6145 -3.1116
 4215SOL    HW224282   3.151   4.140   4.812  2.0642 -0.2548  1.8331
 4216SOL     OW24283   0.159   0.942   5.006  0.4888 -0.3513  0.5699
 4216SOL    HW124284   0.093   0.968   4.941 -0.6714 -0.6122  1.6567
 4216SOL    HW224285   0.134   0.850   5.009  1.7021 -0.6982 -0.2416
 4217SOL     OW24286   1.903   3.178   8.805  0.2909  0.4686 -0.0527
 4217SOL    HW124287   1.855   3.260   8.816 -1.9577 -1.4037  4.2326
 4217SOL    HW224288   1.969   3.190   8.874 -0.9448  0.1924  1.1683
 4218SOL     OW24289   1.914   2.040   6.388  0.7065 -0.1485  0.4912
 4218SOL    HW124290   1.916   1.980   6.463 -1.9698  1.0153  1.4796
 4218SOL    HW224291   1.942   1.975   6.324  2.0135  0.6894  0.2169
 4219SOL     OW24292   3.389   3.839   3.485  0.2404  0.2564 -0.5900
 4219SOL    HW124293   3.471   3.844   3.436  0.9193  0.8907  0.6125
 4219SOL    HW224294   3.414   3.788   3.562  0.3630  0.3796 -0.5479
 4220SOL     OW24295   0.802   2.385  11.262 -0.5481  0.5388 -0.1937
 4220SOL    HW124296   0.784   2.422  11.176  0.5687  0.6428 -0.3887
 4220SOL    HW224297   0.789   2.466  11.313  3.1544  0.6892  0.5618
 4221SOL     OW24298   2.052   0.776   3.011  0.1978  0.4204 -0.3516
 4221SOL    HW124299   2.053   0.872   3.017  2.0222  0.3069  1.0943
 4221SOL    HW224300   2.087   0.754   3.097 -0.6519 -0.8789 -0.3293
 4222SOL     OW24301   2.938   0.169   8.127 -0.5160  0.6172  0.4797
 4222SOL    HW124302   3.010   0.226   8.155 -0.0337  0.5364 -0.5908
 4222SOL    HW224303   2.977   0.081   8.129 -0.6373  0.6001  1.8560
 4223SOL     OW24304   3.991   1.129   0.308  0.7724  0.2471 -0.0526
 4223SOL    HW124305   4.057   1.196   0.327  0.8299 -0.2127  1.4128
 4223SOL    HW224306   4.001   1.076   0.388 -0.2596 -0.1303 -0.1733
 4224SOL     OW24307   4.485   1.755   3.750 -0.3045 -0.2827 -0.2776
 4224SOL    HW124308   4.533   1.826   3.792 -1.2211  0.3566 -0.3049
 4224SOL    HW224309   4.545   1.733   3.679  2.0747 -0.3423  1.7708
 4225SOL     OW24310   4.317   0.028  17.614 -0.0849 -0.3078 -0.5348
 4225SOL    HW124311   4.228   0.010  17.644 -0.5958  1.2532 -1.1022
 4225SOL    HW224312   4.350   4.674  17.598 -1.4947 -0.8104 -0.6244
 4226SOL     OW24313   1.880   4.617   7.762  0.1370  0.0435 -0.3112
 4226SOL    HW124314   1.885   4.549   7.829  1.7813  2.5392  2.0644
 4226SOL    HW224315   1.945   4.588   7.698 -0.2731 -0.0958 -0.6686
 4227SOL     OW24316   0.874   3.139   5.438  0.2441  0.0364  1.1450
 4227SOL    HW124317   0.788   3.099   5.454 -0.2199  1.2507  1.6904
 4227SOL    HW224318   0.905   3.130   5.528  0.8625 -1.9939  0.7419
 4228SOL     OW24319   3.825   0.379   5.833 -0.0791  0.0025 -0.1641
 4228SOL    HW124320   3.830   0.360   5.739 -1.9329 -1.9710  0.1422
 4228SOL    HW224321   3.897   0.442   5.841 -0.7984  1.3857 -4.3056
 4229SOL     OW24322   2.308   3.490   8.045  0.3201  0.0889 -0.1943
 4229SOL    HW124323   2.307   3.570   7.993  2.0818 -1.2398 -2.2635
 4229SOL    HW224324   2.238   3.496   8.111 -0.2356  0.4646 -0.8224
 4230SOL     OW24325   3.714   2.084  12.935  0.0948  0.4332  0.1538
 4230SOL    HW124326   3.623   2.055  12.928  0.3450  0.0291 -1.4608
 4230SOL    HW224327   3.755   2.017  12.880 -1.3381 -0.7369  0.4902
 4231SOL     OW24328   3.446   3.086   4.978 -0.1186  0.0955 -0.4710
 4231SOL    HW124329   3.507   3.013   4.969  1.3263  1.4051 -1.4315
 4231SOL    HW224330   3.437   3.118   4.888 -2.8890 -1.2481 -0.6650
 4232SOL     OW24331   2.348   3.852   0.879 -0.1585  0.0457 -0.4586
 4232SOL    HW124332   2.253   3.845   0.887 -0.0367 -1.7359 -0.6110
 4232SOL    HW224333   2.374   3.881   0.966 -2.5541  1.1939 -0.1120
 4233SOL     OW24334   1.739   4.259   2.798  0.5610  0.0056 -0.1954
 4233SOL    HW124335   1.687   4.178   2.800  2.4709 -1.2043  0.7457
 4233SOL    HW224336   1.802   4.240   2.868 -0.1623 -2.3533 -0.1605
 4234SOL     OW24337   2.350   1.461   8.994 -0.0864  0.2401 -0.0377
 4234SOL    HW124338   2.262   1.492   8.973 -0.4039 -0.4697  0.2285
 4234SOL    HW224339   2.412   1.533   8.987 -1.3114  1.1575 -1.6299
 4235SOL     OW24340   0.156   3.869  12.048  0.0953 -0.2776  0.2325
 4235SOL    HW124341   0.248   3.844  12.051  0.8845  2.5454 -0.0743
 4235SOL    HW224342   0.135   3.867  11.955 -1.3578  0.3776  0.5418
 4236SOL     OW24343   0.370   2.727   7.070  0.0490 -0.5948 -0.0834
 4236SOL    HW124344   0.301   2.774   7.117  0.4734 -0.6367  0.5916
 4236SOL    HW224345   0.355   2.755   6.980  0.5160 -1.1798 -0.3360
 4237SOL     OW24346   4.726   4.629   2.277 -0.4028  0.5170 -0.3980
 4237SOL    HW124347   4.673   4.559   2.314 -1.1441  1.5512  0.4530
 4237SOL    HW224348   0.064   4.577   2.240  0.6254  0.9825  0.9545
 4238SOL     OW24349   1.164   2.464  10.175 -0.5911 -0.0658 -0.3613
 4238SOL    HW124350   1.198   2.390  10.224 -1.3166  0.1704  0.4877
 4238SOL    HW224351   1.079   2.487  10.211 -0.9862  1.7259 -2.4064
 4239SOL     OW24352   1.764   3.141   3.022  0.2915 -0.2322 -0.1482
 4239SOL    HW124353   1.721   3.079   3.080  0.4484 -0.8937 -0.7412
 4239SOL    HW224354   1.690   3.181   2.978  1.4304  3.6211  1.4598
 4240SOL     OW24355   1.232   3.756  12.801 -0.4891  0.2801  0.1263
 4240SOL    HW124356   1.207   3.670  12.767 -2.2667  0.9475 -0.2679
 4240SOL    HW224357   1.242   3.736  12.895  0.0559  6.0392  1.2961
 4241SOL     OW24358   2.780   3.635   2.264 -0.2625 -0.5405 -0.0691
 4241SOL    HW124359   2.729   3.556   2.245 -2.1814  0.0357  2.6256
 4241SOL    HW224360   2.864   3.607   2.301  0.7988  2.1180 -0.4365
 4242SOL     OW24361   1.427   0.052  11.925  0.5912  0.0301 -0.0285
 4242SOL    HW124362   1.426   0.001  12.006 -0.4731  1.9712  1.1862
 4242SOL    HW224363   1.522   0.047  11.913  0.6602 -0.0959  0.5774
 4243SOL     OW24364   1.169   0.881  10.689  0.1044  0.0818 -0.0290
 4243SOL    HW124365   1.131   0.917  10.608 -0.6051  0.4131  0.4575
 4243SOL    HW224366   1.152   0.950  10.753  2.0807  0.2356  0.3510
 4244SOL     OW24367   0.231   0.648   7.669  0.2012  0.3093  0.2472
 4244SOL    HW124368   0.309   0.616   7.623  1.0856  0.7961  1.4250
 4244SOL    HW224369   0.172   0.636   7.594 -1.1357  0.0983  1.3275
 4245SOL     OW24370   4.695   2.959   6.489  0.1673  0.2830 -0.1379
 4245SOL    HW124371   4.677   2.964   6.583  0.8530 -1.3828  0.0896
 4245SOL    HW224372   4.714   3.051   6.473  2.6606 -0.2803 -0.3668
 4246SOL     OW24373   2.045   0.398  13.191  0.4781  0.0634  0.0677
 4246SOL    HW124374   2.116   0.461  13.179  0.7610 -0.2301  0.1872
 4246SOL    HW224375   1.986   0.412  13.118  1.1441  0.1057 -0.4575
 4247SOL     OW24376   1.186   0.431  12.869 -0.3094 -0.2060 -0.0084
 4247SOL    HW124377   1.259   0.484  12.900  0.7417 -0.7591 -1.5216
 4247SOL    HW224378   1.117   0.455  12.931  1.2481 -0.2811  1.7346
 4248SOL     OW24379   0.345   0.565  17.332 -0.1363 -0.3020 -0.3701
 4248SOL    HW124380   0.294   0.642  17.356  2.4630  2.0231 -2.3130
 4248SOL    HW224381   0.419   0.576  17.391 -0.2220 -2.4633  0.1501
 4249SOL     OW24382   0.482   2.158   9.206  0.1166 -0.4531  0.0232
 4249SOL    HW124383   0.397   2.173   9.163  1.0670  3.3093 -0.5699
 4249SOL    HW224384   0.466   2.081   9.260  0.8364 -1.3023 -0.9809
 4250SOL     OW24385   4.651   4.630   5.266 -0.3565  0.4038  0.0306
 4250SOL    HW124386   4.623   4.592   5.350  1.2263  0.4152  0.5628
 4250SOL    HW224387   4.724   4.574   5.241 -0.0272  0.1543  1.5399
 4251SOL     OW24388   0.269   2.274  11.640 -0.3335  0.0979  0.4343
 4251SOL    HW124389   0.286   2.187  11.606 -0.4432  1.2728 -2.5862
 4251SOL    HW224390   0.357   2.312  11.635  0.2012 -1.2223 -0.0214
 4252SOL     OW24391   4.160   1.243   5.674  0.1263 -0.3104 -0.2554
 4252SOL    HW124392   4.252   1.264   5.694  0.1648 -2.4092  1.7388
 4252SOL    HW224393   4.178   1.150   5.687  1.0388 -0.0241  0.5223
 4253SOL     OW24394   1.285   0.198   8.011 -0.0784 -0.1197 -0.0276
 4253SOL    HW124395   1.266   0.114   8.054  0.2714 -0.2496 -0.1266
 4253SOL    HW224396   1.244   0.266   8.063 -0.0796 -1.3096  1.5146
 4254SOL     OW24397   2.723   2.380  15.756  0.5361 -0.1646 -0.6760
 4254SOL    HW124398   2.691   2.425  15.834 -1.0326 -2.8664  0.2186
 4254SOL    HW224399   2.816   2.397  15.772  0.1570  1.0359  0.2705
 4255SOL     OW24400   1.518   3.051   2.399 -0.0677  0.3798  0.0088
 4255SOL    HW124401   1.476   2.965   2.394 -1.8211  1.0390  2.8102
 4255SOL    HW224402   1.610   3.040   2.423  0.3425  0.7015 -1.4450
 4256SOL     OW24403   0.769   1.723   6.185  0.4438 -0.1467 -0.1667
 4256SOL    HW124404   0.855   1.688   6.208 -0.7219 -2.2016  1.1784
 4256SOL    HW224405   0.710   1.661   6.229  1.2221 -0.9036 -0.1926
 4257SOL     OW24406   4.554   1.978   6.600 -0.5534 -0.7267  0.5179
 4257SOL    HW124407   4.497   2.055   6.604  0.6994  0.2011  0.9671
 4257SOL    HW224408   4.536   1.928   6.521  0.2226  0.7301 -0.5687
 4258SOL     OW24409   1.374   1.756   6.216  0.1175  0.0943  0.5037
 4258SOL    HW124410   1.322   1.836   6.212 -0.8868 -0.6261 -0.8060
 4258SOL    HW224411   1.327   1.701   6.280 -1.8015 -2.1208 -2.8353
 4259SOL     OW24412   0.718   1.695   8.035 -0.6400  0.1176 -0.4075
 4259SOL    HW124413   0.707   1.790   8.031  1.9411  0.4533  0.3760
 4259SOL    HW224414   0.631   1.664   8.060 -0.7923  1.3906  0.6226
 4260SOL     OW24415   0.223   1.858  15.093 -0.1450  0.7588 -0.7194
 4260SOL    HW124416   0.228   1.874  14.998  1.5748  1.0567 -0.5716
 4260SOL    HW224417   0.278   1.927  15.131  0.1083 -0.2135  0.6638
 4261SOL     OW24418   0.722   2.957   5.739  0.1315  0.2551 -0.4219
 4261SOL    HW124419   0.654   2.942   5.804  1.8014 -0.2796  1.2168
 4261SOL    HW224420   0.671   3.016   5.683  1.1141  1.6410  0.1177
 4262SOL     OW24421   0.203   0.644   4.578  0.1618 -0.0844 -0.1709
 4262SOL    HW124422   0.151   0.718   4.610 -1.6737 -2.1774  1.7124
 4262SOL    HW224423   0.200   0.665   4.485 -1.6840 -1.9322 -0.5251
 4263SOL     OW24424   4.405   2.192   3.083 -0.3423 -0.0049  0.0832
 4263SOL    HW124425   4.489   2.236   3.074 -0.5688  0.1771 -1.1974
 4263SOL    HW224426   4.427   2.116   3.137 -0.1960  0.0973  0.1647
 4264SOL     OW24427   3.554   4.608   6.627  0.0323  0.0270  0.2876
 4264SOL    HW124428   3.460   4.621   6.620 -0.2644 -1.4459  1.4932
 4264SOL    HW224429   3.569   4.666   6.703  1.7150 -0.1257  0.0672
 4265SOL     OW24430   3.382   1.180   1.319 -0.6358 -0.0884  0.1105
 4265SOL    HW124431   3.447   1.245   1.346  0.6954 -0.5592 -1.9707
 4265SOL    HW224432   3.307   1.237   1.305 -0.1952  0.1609 -1.2367
 4266SOL     OW24433   4.513   2.941  12.546  0.3143  0.2166  0.0852
 4266SOL    HW124434   4.481   2.922  12.458  2.3227  1.0774 -0.8351
 4266SOL    HW224435   4.437   2.910  12.594 -0.1428  0.1187 -0.7065
 4267SOL     OW24436   3.440   4.205   7.891  0.6185 -0.1175 -0.0451
 4267SOL    HW124437   3.392   4.278   7.930 -0.6193 -1.5852  1.2215
 4267SOL    HW224438   3.517   4.203   7.947 -1.5205 -1.7961  2.8431
 4268SOL     OW24439   0.977   3.982   5.861  0.4399 -0.3490  0.2159
 4268SOL    HW124440   1.002   3.989   5.953  2.4452 -1.2184 -0.2487
 4268SOL    HW224441   0.893   4.026   5.867  0.3478 -0.7655  1.8968
 4269SOL     OW24442   3.794   2.371   1.120 -0.0540 -0.0603  0.1848
 4269SOL    HW124443   3.884   2.399   1.106 -0.1043 -0.2454 -0.5082
 4269SOL    HW224444   3.754   2.387   1.035  0.9714 -1.4101 -0.5450
 4270SOL     OW24445   1.115   3.180   0.683 -0.0720 -0.7099  0.3524
 4270SOL    HW124446   1.048   3.168   0.615  0.4454  0.4446 -0.3659
 4270SOL    HW224447   1.108   3.274   0.703 -0.3102 -1.1416  2.2555
 4271SOL     OW24448   4.691   0.829  16.556 -0.3450 -0.4307  0.2194
 4271SOL    HW124449   4.641   0.796  16.482  0.7294  0.7912 -1.0446
 4271SOL    HW224450   4.652   0.913  16.580  0.7482 -0.0485  0.6982
 4272SOL     OW24451   3.227   1.125   8.753  0.1318  0.4356 -0.8124
 4272SOL    HW124452   3.312   1.146   8.791 -1.1604  0.8096  1.9106
 4272SOL    HW224453   3.204   1.044   8.800  0.3147  1.3575  0.8560
 4273SOL     OW24454   2.949   0.037   2.749  0.0829 -0.4436 -0.0250
 4273SOL    HW124455   2.996   0.114   2.779  0.5759 -0.0861 -1.7109
 4273SOL    HW224456   2.919   0.083   2.670  2.0515  0.2683 -0.3425
 4274SOL     OW24457   1.724   4.371   8.315 -0.1182 -0.5136  0.2190
 4274SOL    HW124458   1.788   4.424   8.266 -2.6863  3.0787  0.7524
 4274SOL    HW224459   1.687   4.329   8.237 -0.7128  1.2494 -0.4648
 4275SOL     OW24460   0.001   0.798  10.942  0.1476 -0.3792 -0.1330
 4275SOL    HW124461   4.645   0.771  10.929  0.1348  0.0973 -1.0139
 4275SOL    HW224462   0.013   0.857  10.868 -0.6216  1.7786  1.4761
 4276SOL     OW24463   2.314   3.684   2.368 -0.1638  0.5377  0.6706
 4276SOL    HW124464   2.377   3.665   2.437 -0.4303  0.4650  0.8925
 4276SOL    HW224465   2.339   3.764   2.322  0.0100 -0.6741 -1.3483
 4277SOL     OW24466   1.179   2.979   6.077  0.1642  0.2438 -0.2355
 4277SOL    HW124467   1.246   2.911   6.066 -0.8062 -0.8743  0.7665
 4277SOL    HW224468   1.170   2.974   6.172  0.2461  3.6036 -0.0626
 4278SOL     OW24469   4.321   0.444   7.601  0.1837  0.4046 -0.1196
 4278SOL    HW124470   4.251   0.502   7.633 -1.3587 -0.8216 -1.2711
 4278SOL    HW224471   4.328   0.475   7.511  2.5747  0.0505 -0.0501
 4279SOL     OW24472   4.606   4.234   4.483 -0.9316  1.0420  0.2626
 4279SOL    HW124473   4.650   4.150   4.473 -0.8697  0.8701  1.8807
 4279SOL    HW224474   4.647   4.256   4.567  1.3804  0.7251 -0.8002
 4280SOL     OW24475   4.028   2.286   9.620 -0.9412  0.2032 -0.0143
 4280SOL    HW124476   4.106   2.316   9.573  0.2929 -2.8478  0.0425
 4280SOL    HW224477   3.969   2.361   9.614 -0.2671  0.6403 -1.4058
 4281SOL     OW24478   0.901   1.610   2.967 -0.2875  0.2300  0.2084
 4281SOL    HW124479   0.994   1.606   2.943 -0.5897  2.1294 -1.3308
 4281SOL    HW224480   0.892   1.532   3.021  1.5003  0.4842  0.8738
 4282SOL     OW24481   3.893   0.034   6.010  0.2220  0.3486 -0.0538
 4282SOL    HW124482   3.884   4.677   5.981  0.5476 -0.6496  2.9812
 4282SOL    HW224483   3.938   0.073   5.935 -0.1756  1.7852  0.4515
 4283SOL     OW24484   3.379   4.382   1.519 -0.1965  0.3680  0.0981
 4283SOL    HW124485   3.418   4.470   1.526  1.2058 -0.1255 -1.4246
 4283SOL    HW224486   3.344   4.391   1.431 -0.0538  2.5599  0.2570
 4284SOL     OW24487   4.395   4.274   2.120 -0.1557 -0.5147  0.1486
 4284SOL    HW124488   4.425   4.206   2.180 -0.8537 -1.8366 -1.0101
 4284SOL    HW224489   4.300   4.263   2.121 -0.0391 -1.6508 -1.9902
 4285SOL     OW24490   2.570   0.712  16.649 -0.0471  0.0860 -0.0580
 4285SOL    HW124491   2.610   0.797  16.633  0.6107 -0.1194  0.5013
 4285SOL    HW224492   2.534   0.696  16.562 -3.0672 -0.3320  1.2664
 4286SOL     OW24493   0.324   2.331   4.215  0.3900  0.5101  0.1234
 4286SOL    HW124494   0.396   2.393   4.207  2.2511 -1.4950  1.4711
 4286SOL    HW224495   0.249   2.389   4.199  1.6032  3.0594  3.7795
 4287SOL     OW24496   4.064   1.925   8.766  0.1804 -0.6894 -0.4060
 4287SOL    HW124497   3.978   1.949   8.733 -0.1325 -1.6048 -0.2413
 4287SOL    HW224498   4.117   1.950   8.690 -2.1323  2.2094 -1.0603
 4288SOL     OW24499   3.572   1.628  12.625  1.1944  0.5886  0.2296
 4288SOL    HW124500   3.554   1.703  12.682 -2.3741 -2.2739  2.8731
 4288SOL    HW224501   3.651   1.669  12.588  0.6819  1.4725  0.1214
 4289SOL     OW24502   0.453   2.557   6.465 -0.1926  0.2850 -0.2008
 4289SOL    HW124503   0.523   2.599   6.514  0.6550 -1.5735  0.1742
 4289SOL    HW224504   0.507   2.533   6.389 -0.0989  0.2370 -0.1189
 4290SOL     OW24505   0.600   3.224  13.800 -0.0794  0.6537 -0.1343
 4290SOL    HW124506   0.568   3.240  13.711 -0.5248 -1.6964 -0.3974
 4290SOL    HW224507   0.545   3.148  13.820 -0.3456  1.4683  2.1607
 4291SOL     OW24508   1.609   2.517   3.910 -0.1517  0.4530 -0.0281
 4291SOL    HW124509   1.548   2.501   3.982  0.7924 -0.2760  0.6036
 4291SOL    HW224510   1.536   2.518   3.848  0.7672 -2.9282 -1.1523
 4292SOL     OW24511   1.162   2.922   9.714  0.5127  0.5157  0.4800
 4292SOL    HW124512   1.166   2.997   9.773 -1.8539 -0.9351  2.4829
 4292SOL    HW224513   1.080   2.934   9.665  1.3878 -0.2335 -1.1654
 4293SOL     OW24514   2.950   4.247   1.791 -0.0678  0.1926 -0.2431
 4293SOL    HW124515   2.890   4.321   1.795 -1.6296 -1.0680  0.0831
 4293SOL    HW224516   3.014   4.284   1.731  0.0210 -0.3275 -0.4651
 4294SOL     OW24517   2.495   3.950   6.115  0.3671  0.5483 -0.0218
 4294SOL    HW124518   2.539   4.030   6.142 -1.9224  2.4645 -2.0555
 4294SOL    HW224519   2.550   3.925   6.040 -2.6415 -3.7571 -0.8207
 4295SOL     OW24520   0.588   2.686  10.118  0.2921  0.2402 -0.0904
 4295SOL    HW124521   0.620   2.765  10.162 -0.0024  0.5374 -0.4093
 4295SOL    HW224522   0.622   2.704  10.030  1.9932 -1.7094  0.1519
 4296SOL     OW24523   1.730   0.969   9.680 -0.1744  0.4731  0.1635
 4296SOL    HW124524   1.758   0.878   9.686 -2.8827 -0.2872  0.7926
 4296SOL    HW224525   1.690   0.972   9.766 -0.3953 -0.2452  0.0808
 4297SOL     OW24526   0.196   1.752   9.526  0.6431 -0.4397  0.7493
 4297SOL    HW124527   0.238   1.682   9.576  1.9852 -0.1989 -0.0475
 4297SOL    HW224528   0.103   1.729   9.534  0.1742  1.8170  1.5602
 4298SOL     OW24529   0.933   3.393   7.493  0.0336 -0.1444  0.1424
 4298SOL    HW124530   0.903   3.480   7.466  0.9814  1.5584  4.5618
 4298SOL    HW224531   0.900   3.397   7.582 -0.4742  2.3322 -0.1485
 4299SOL     OW24532   2.009   3.956   5.066  0.4634  0.1564  0.3321
 4299SOL    HW124533   1.960   4.017   5.122 -0.1807 -0.0646  0.0103
 4299SOL    HW224534   2.076   3.933   5.131  2.4678  0.9672 -1.4578
 4300SOL     OW24535   4.275   1.248   7.109 -0.1836 -0.3080 -0.1289
 4300SOL    HW124536   4.329   1.248   7.188 -0.1683 -0.5076 -0.1396
 4300SOL    HW224537   4.293   1.158   7.084  2.0697 -0.3295  1.5811
 4301SOL     OW24538   0.665   2.097   4.780 -0.7363  0.0466 -0.1993
 4301SOL    HW124539   0.592   2.130   4.833 -1.8414 -1.5572 -0.7090
 4301SOL    HW224540   0.626   2.111   4.693 -1.7303  1.5380  0.4826
 4302SOL     OW24541   2.754   4.187   4.999 -0.6491 -0.0586 -0.6164
 4302SOL    HW124542   2.744   4.184   4.904  0.9195 -0.1997 -0.7862
 4302SOL    HW224543   2.841   4.154   5.023 -0.0687  3.5019  2.0531
 4303SOL     OW24544   1.964   2.734   4.511  0.5379  0.3571 -0.2435
 4303SOL    HW124545   1.974   2.669   4.441  0.5542 -0.6469  0.7015
 4303SOL    HW224546   2.024   2.805   4.488  0.2310  0.7633  0.2168
 4304SOL     OW24547   3.254   0.599   2.824  0.5605  0.0049  0.1374
 4304SOL    HW124548   3.249   0.551   2.907  1.9441  0.1758  0.3321
 4304SOL    HW224549   3.247   0.688   2.859  0.0842  0.8113 -2.0252
 4305SOL     OW24550   1.154   2.684   6.697 -0.0080  0.1585  0.1797
 4305SOL    HW124551   1.197   2.714   6.778  0.7983 -1.2610  0.2861
 4305SOL    HW224552   1.077   2.741   6.697 -0.1527 -0.0525 -1.8273
 4306SOL     OW24553   0.771   1.389   5.464  0.4447  0.2290 -0.0864
 4306SOL    HW124554   0.722   1.403   5.545 -0.9317 -0.5485 -0.7878
 4306SOL    HW224555   0.817   1.311   5.496  0.0249 -0.4135 -1.0381
 4307SOL     OW24556   1.950   3.787  14.428  0.5105 -0.3347 -0.7538
 4307SOL    HW124557   1.910   3.855  14.482 -0.3410 -0.8866 -0.6882
 4307SOL    HW224558   2.041   3.788  14.457  0.6538  2.0383 -1.3072
 4308SOL     OW24559   3.943   2.966   7.545 -0.1574  0.3599  0.3450
 4308SOL    HW124560   3.950   3.022   7.468  2.3023  0.4768  0.6675
 4308SOL    HW224561   3.990   2.892   7.508 -0.4333  1.0442 -1.3903
 4309SOL     OW24562   0.392   4.015  16.554  0.0714  0.0282 -0.1351
 4309SOL    HW124563   0.307   4.057  16.539 -0.2373 -0.2056  1.0097
 4309SOL    HW224564   0.442   4.076  16.609 -0.9155  0.1397  0.6231
 4310SOL     OW24565   2.577   1.542   4.442 -0.5687  0.0676 -0.6687
 4310SOL    HW124566   2.615   1.550   4.529  3.0154 -2.6510 -1.9643
 4310SOL    HW224567   2.483   1.532   4.453 -0.6849  0.4444 -1.3071
 4311SOL     OW24568   0.072   3.592   4.356  0.4708  0.2388 -0.3782
 4311SOL    HW124569   0.142   3.645   4.395  0.9629 -1.2700  0.7786
 4311SOL    HW224570   0.058   3.649   4.281 -1.6295  0.1096 -0.0799
 4312SOL     OW24571   2.608   3.862   7.568  0.0425  0.4799 -0.5078
 4312SOL    HW124572   2.617   3.868   7.663 -1.7212  0.0689 -0.3177
 4312SOL    HW224573   2.608   3.767   7.563 -2.5501  0.4153  0.9647
 4313SOL     OW24574   1.967   3.640  14.089  0.1912 -0.8439 -0.5319
 4313SOL    HW124575   1.940   3.645  13.997 -1.1417  1.4913 -0.0067
 4313SOL    HW224576   1.937   3.719  14.133 -1.9169 -1.6585 -0.5289
 4314SOL     OW24577   3.031   1.016   5.004 -0.0111  0.0237 -0.0721
 4314SOL    HW124578   3.125   1.030   5.006  0.0012 -0.2331  0.9990
 4314SOL    HW224579   3.018   0.925   4.975 -0.1210  0.2191 -0.6400
 4315SOL     OW24580   2.454   1.959   6.717 -0.6415  0.4244 -0.4082
 4315SOL    HW124581   2.362   1.976   6.697 -0.7120 -0.9773 -1.3339
 4315SOL    HW224582   2.485   2.045   6.743 -0.5382  0.4056 -0.4682
 4316SOL     OW24583   2.790   2.419   4.581 -0.2181  0.1268  0.3623
 4316SOL    HW124584   2.763   2.344   4.634 -1.5533  0.7308  0.5433
 4316SOL    HW224585   2.811   2.368   4.503  1.5350  0.0627  0.8965
 4317SOL     OW24586   4.320   4.247  17.680  0.1165 -0.2116  0.2144
 4317SOL    HW124587   4.385   4.195  17.632 -1.1970 -0.9826 -0.7345
 4317SOL    HW224588   4.287   4.194   0.015 -0.2815 -2.3275 -1.5375
 4318SOL     OW24589   0.255   2.411   8.428  0.6328  0.1071  0.6358
 4318SOL    HW124590   0.279   2.478   8.364  0.9033 -0.8566 -0.2684
 4318SOL    HW224591   0.283   2.465   8.503  2.3916  0.3858 -0.2237
 4319SOL     OW24592   0.677   1.280   6.544  0.3044  0.4116  0.1750
 4319SOL    HW124593   0.593   1.315   6.573  0.7002  0.9495  0.6557
 4319SOL    HW224594   0.650   1.189   6.531  1.0317  0.6189 -2.7368
 4320SOL     OW24595   0.521   3.806   4.624  0.2433  0.0629  0.4567
 4320SOL    HW124596   0.592   3.770   4.571 -0.4753  0.2374 -0.6335
 4320SOL    HW224597   0.560   3.893   4.636  0.9264  0.0538 -1.7012
 4321SOL     OW24598   1.330   3.080   8.928  0.2896  0.2138  0.7957
 4321SOL    HW124599   1.333   3.142   8.855  1.9894 -0.3179  0.4231
 4321SOL    HW224600   1.417   3.041   8.926  1.2651  2.4080  0.2929
 4322SOL     OW24601   1.418   2.993   1.705  0.2714 -0.5431  0.0260
 4322SOL    HW124602   1.440   2.971   1.615 -2.8477 -1.4687 -0.4937
 4322SOL    HW224603   1.503   2.983   1.749 -1.0866 -1.6442  2.4335
 4323SOL     OW24604   2.687   0.480  16.716  0.3210  0.1717 -0.2750
 4323SOL    HW124605   2.664   0.484  16.809 -1.8782 -2.2475 -0.7133
 4323SOL    HW224606   2.656   0.563  16.680  1.4996  0.6201 -0.2438
 4324SOL     OW24607   4.630   2.924  17.417 -0.0200  0.2722  0.2149
 4324SOL    HW124608   4.613   2.830  17.420 -1.3199  0.4120 -2.6535
 4324SOL    HW224609   4.725   2.924  17.404 -0.4077  0.5676 -2.5782
 4325SOL     OW24610   2.848   2.024  12.088 -0.0477  0.1668  0.5393
 4325SOL    HW124611   2.942   2.038  12.101 -0.2779  0.6495  1.7075
 4325SOL    HW224612   2.843   2.006  11.994  2.3129 -0.8033  0.6107
 4326SOL     OW24613   3.361   0.272   4.310  0.0298  0.0189 -1.2192
 4326SOL    HW124614   3.441   0.219   4.306 -0.9523 -1.5245 -0.1664
 4326SOL    HW224615   3.314   0.251   4.229 -0.0865  3.0884 -1.9451
 4327SOL     OW24616   0.770   1.804   4.506 -0.1547  0.0267  0.2927
 4327SOL    HW124617   0.745   1.717   4.539  0.0899  0.1691  0.8412
 4327SOL    HW224618   0.823   1.775   4.431  1.6104  0.5217  1.3604
 4328SOL     OW24619   1.135   3.479   0.681  0.1086  0.6149  0.3069
 4328SOL    HW124620   1.230   3.475   0.674  0.0352 -0.9157  0.1923
 4328SOL    HW224621   1.118   3.528   0.762  0.1856 -0.7900  1.1822
 4329SOL     OW24622   2.930   2.430   8.486  0.6494 -0.0867  0.0283
 4329SOL    HW124623   2.866   2.358   8.482  0.4325  0.1549 -0.7980
 4329SOL    HW224624   2.997   2.405   8.422 -0.0347 -0.4529 -0.5479
 4330SOL     OW24625   1.290   4.443  15.578 -0.0275 -0.2623  0.2714
 4330SOL    HW124626   1.348   4.507  15.619  0.0257 -0.3934  0.3985
 4330SOL    HW224627   1.240   4.407  15.652  0.4209 -1.0020  0.2206
 4331SOL     OW24628   0.373   1.171  10.357  0.4296 -0.2945 -0.0324
 4331SOL    HW124629   0.389   1.136  10.444 -1.1199  2.0072  1.1627
 4331SOL    HW224630   0.419   1.254  10.365 -2.2639  0.9767  2.2391
 4332SOL     OW24631   1.539   0.487  12.697 -0.5319 -0.8743  0.8429
 4332SOL    HW124632   1.572   0.568  12.659  1.4598 -1.9493  0.3095
 4332SOL    HW224633   1.540   0.500  12.792 -2.6247 -0.2377  0.7935
 4333SOL     OW24634   1.312   0.798   1.952 -0.4799  0.3713  0.1995
 4333SOL    HW124635   1.318   0.854   2.030 -0.6185  2.7864 -1.5193
 4333SOL    HW224636   1.387   0.824   1.899 -0.0233 -0.7500  0.2935
 4334SOL     OW24637   0.098   0.642  12.272  0.3629 -0.5141  0.1362
 4334SOL    HW124638   0.145   0.620  12.353  0.8086  0.0907  0.0434
 4334SOL    HW224639   0.062   0.729  12.287 -1.0289 -1.3534  1.7139
 4335SOL     OW24640   1.100   0.998   7.524 -0.1319 -0.3214 -0.0513
 4335SOL    HW124641   1.057   1.003   7.438  0.0696  2.4147  0.0107
 4335SOL    HW224642   1.053   1.063   7.577 -1.4088 -0.7656 -0.6278
 4336SOL     OW24643   2.641   0.269   4.253  0.3830  0.2022  0.8455
 4336SOL    HW124644   2.649   0.307   4.166  0.3961  0.1402  0.8196
 4336SOL    HW224645   2.662   0.337   4.317  1.6558 -2.3848  3.1907
 4337SOL     OW24646   2.671   0.888   8.913 -0.0061 -0.3097 -0.3044
 4337SOL    HW124647   2.645   0.804   8.950 -1.4811 -0.6830 -2.2017
 4337SOL    HW224648   2.665   0.945   8.990 -2.1072 -2.0912  0.8252
 4338SOL     OW24649   0.401   0.473   2.459 -0.2088  0.3793  0.5515
 4338SOL    HW124650   0.330   0.469   2.396 -0.4597 -0.8158  0.9168
 4338SOL    HW224651   0.360   0.429   2.534 -0.7968 -0.4074 -0.2263
 4339SOL     OW24652   1.135   1.027   9.113  0.1349  0.3662  0.3861
 4339SOL    HW124653   1.165   1.103   9.062  2.9750 -0.6817  0.4994
 4339SOL    HW224654   1.052   1.059   9.149  0.8048 -1.1167  3.2306
 4340SOL     OW24655   3.932   4.670   8.140 -0.3417 -0.6004 -0.2046
 4340SOL    HW124656   3.931   4.575   8.148 -0.6737 -0.5669  0.1543
 4340SOL    HW224657   3.862   4.705   8.195  1.0489 -1.3071  2.0154
 4341SOL     OW24658   0.487   2.736   4.496  0.6748 -0.1068 -0.6369
 4341SOL    HW124659   0.470   2.824   4.462  2.9563  0.6707  0.2309
 4341SOL    HW224660   0.419   2.727   4.562  1.2665 -0.0509 -0.0247
 4342SOL     OW24661   4.601   4.080  12.378  0.0626 -0.1419  0.0324
 4342SOL    HW124662   4.575   4.171  12.362  2.5356  0.9174  1.9261
 4342SOL    HW224663   4.636   4.087  12.467  0.3313 -0.1118 -0.0775
 4343SOL     OW24664   2.885   0.967   4.579 -0.5953  0.5318 -0.1470
 4343SOL    HW124665   2.830   0.962   4.656 -0.5233 -3.3743 -0.3222
 4343SOL    HW224666   2.971   0.995   4.612  0.0121 -1.7398  0.2448
 4344SOL     OW24667   0.781   4.336  11.428  0.4258  0.1288  0.0482
 4344SOL    HW124668   0.762   4.399  11.498  0.8406  1.9030 -1.4266
 4344SOL    HW224669   0.871   4.357  11.401  0.4676 -1.8371 -1.3396
 4345SOL     OW24670   0.723   1.107   8.050  0.8605 -0.5900 -0.1194
 4345SOL    HW124671   0.782   1.054   7.997  0.6567 -1.0249  0.0891
 4345SOL    HW224672   0.654   1.128   7.987 -0.9783  0.9529  2.3859
 4346SOL     OW24673   3.677   4.181  10.190  0.0278  0.0583  0.1723
 4346SOL    HW124674   3.622   4.142  10.259  1.7490  1.0176  2.0709
 4346SOL    HW224675   3.642   4.270  10.185 -2.0809 -0.8474 -1.1219
 4347SOL     OW24676   4.564   4.367  12.334  0.0670  0.2393 -0.1357
 4347SOL    HW124677   4.572   4.456  12.300 -0.3376 -0.0681 -1.0457
 4347SOL    HW224678   4.469   4.351  12.327  0.2538 -0.3860 -1.2733
 4348SOL     OW24679   4.477   3.577   5.752  0.6831  0.6280  0.0935
 4348SOL    HW124680   4.529   3.519   5.697 -2.0112 -1.2055 -0.4583
 4348SOL    HW224681   4.424   3.504   5.783  1.1498  0.2498 -0.0095
 4349SOL     OW24682   1.481   2.235  16.456  0.1219  0.4610 -0.0366
 4349SOL    HW124683   1.535   2.273  16.525 -0.1429 -1.5784  1.3062
 4349SOL    HW224684   1.452   2.150  16.490  1.9921 -0.8039 -1.5968
 4350SOL     OW24685   1.560   1.018   3.878 -0.1831 -0.7682 -0.6737
 4350SOL    HW124686   1.510   1.087   3.834  0.7719  0.6780  0.4738
 4350SOL    HW224687   1.505   0.940   3.882 -0.0383 -0.8229  0.2280
 4351SOL     OW24688   1.248   0.159   3.053 -0.2447 -0.1005  0.3138
 4351SOL    HW124689   1.226   0.067   3.072 -1.3944  0.4323  1.5505
 4351SOL    HW224690   1.269   0.191   3.140 -1.8277 -2.2404  1.4831
 4352SOL     OW24691   2.456   4.692  13.330  0.2214  0.2262 -0.7418
 4352SOL    HW124692   2.506   4.704  13.410  0.1019  0.1166 -0.6503
 4352SOL    HW224693   2.366   4.680  13.361  1.6566 -1.3232  2.8271
 4353SOL     OW24694   1.627   4.524   1.958 -0.6901 -0.1575 -0.2795
 4353SOL    HW124695   1.582   4.581   1.895  1.6433  2.2246  0.2382
 4353SOL    HW224696   1.713   4.509   1.918 -0.0347 -0.3575  1.2323
 4354SOL     OW24697   3.849   1.404  10.744 -0.5061  0.0647 -0.1316
 4354SOL    HW124698   3.878   1.451  10.665 -0.7422 -0.0302 -0.2760
 4354SOL    HW224699   3.804   1.330  10.703 -0.7792  0.2713 -0.2057
 4355SOL     OW24700   0.475   3.013  16.933  0.3345  0.1026  0.1898
 4355SOL    HW124701   0.457   3.092  16.883  0.2827  0.3196  0.5537
 4355SOL    HW224702   0.413   2.950  16.897 -0.4820  1.5903 -1.0200
 4356SOL     OW24703   3.432   0.955   1.430 -0.2160  0.1948 -0.1469
 4356SOL    HW124704   3.406   1.031   1.378  2.9302  0.0470 -1.9544
 4356SOL    HW224705   3.364   0.956   1.496  0.2753  0.6904  0.3483
 4357SOL     OW24706   2.542   2.224   6.824  0.3703  0.1847  0.2639
 4357SOL    HW124707   2.551   2.156   6.890 -4.7164  0.9916  1.8591
 4357SOL    HW224708   2.473   2.277   6.864  1.3675  1.6320  0.0714
 4358SOL     OW24709   2.474   0.383   6.576  0.0768  0.4603  0.0168
 4358SOL    HW124710   2.401   0.443   6.569  0.7918  1.4022  0.6427
 4358SOL    HW224711   2.504   0.394   6.485 -0.8264 -0.1448 -0.3595
 4359SOL     OW24712   4.340   3.357   2.093  0.1419  0.3706  0.6654
 4359SOL    HW124713   4.300   3.443   2.078  0.6556  0.6764  1.0328
 4359SOL    HW224714   4.322   3.347   2.186 -2.0608 -1.4583  0.0464
 4360SOL     OW24715   0.849   3.245   3.577  0.1172 -0.1133  0.0432
 4360SOL    HW124716   0.828   3.324   3.528  1.3262 -0.0674 -0.3983
 4360SOL    HW224717   0.894   3.279   3.654  1.0946 -0.1825 -0.4993
 4361SOL     OW24718   3.142   3.783   8.341 -0.3044 -0.2860 -0.0036
 4361SOL    HW124719   3.190   3.861   8.314  0.1687 -0.2740  0.8705
 4361SOL    HW224720   3.210   3.721   8.368  1.0883  1.3412  0.2233
 4362SOL     OW24721   1.774   0.139   2.973 -0.7217  0.2790  0.0283
 4362SOL    HW124722   1.862   0.175   2.985 -0.2228 -1.4177  1.4975
 4362SOL    HW224723   1.730   0.199   2.913  1.3057  3.3519  1.5838
 4363SOL     OW24724   4.241   3.456   2.777  0.5757  0.5772  0.1764
 4363SOL    HW124725   4.323   3.505   2.784 -0.6941  2.8683 -0.8640
 4363SOL    HW224726   4.258   3.391   2.708  0.1478 -0.7121  1.2786
 4364SOL     OW24727   2.685   4.729   2.885 -0.0330 -0.2724 -0.3730
 4364SOL    HW124728   2.624   4.700   2.818  0.3376 -2.9680  0.4452
 4364SOL    HW224729   2.764   4.691   2.847  0.0140  0.0357 -0.5801
 4365SOL     OW24730   0.235   3.730   3.183  0.5712  0.2014  0.2209
 4365SOL    HW124731   0.265   3.744   3.273 -0.7396 -0.4304  0.7608
 4365SOL    HW224732   0.190   3.814   3.171  0.0795 -0.2924 -1.3552
 4366SOL     OW24733   0.183   3.714  12.318 -0.8136 -0.3727 -0.6288
 4366SOL    HW124734   0.202   3.729  12.410 -0.8257 -1.7133 -0.4166
 4366SOL    HW224735   0.186   3.619  12.315  1.0267 -0.3649  0.9883
 4367SOL     OW24736   2.815   0.467   4.946 -0.0498  0.0848  0.4897
 4367SOL    HW124737   2.792   0.383   4.984  1.6079 -0.6633 -0.1369
 4367SOL    HW224738   2.901   0.448   4.907 -0.5165  2.7410 -1.7905
 4368SOL     OW24739   3.152   1.990   6.607  1.2750  0.0669  0.0303
 4368SOL    HW124740   3.106   2.013   6.689  2.0004 -0.2497  0.5274
 4368SOL    HW224741   3.242   2.007   6.636  1.0347 -0.7158  1.2444
 4369SOL     OW24742   2.756   0.198   5.033 -0.3181  0.2528 -0.3060
 4369SOL    HW124743   2.722   0.129   5.091 -1.7396  0.5053 -0.8310
 4369SOL    HW224744   2.684   0.212   4.971 -0.9173 -2.2554 -0.2012
 4370SOL     OW24745   1.892   2.111  17.570  0.2585  0.0360  0.5140
 4370SOL    HW124746   1.865   2.086  17.482  0.9686  2.2366 -0.3521
 4370SOL    HW224747   1.895   2.021  17.601  0.4263 -0.6711 -1.5866
 4371SOL     OW24748   4.164   3.433   4.435 -0.5838 -0.6144 -0.3900
 4371SOL    HW124749   4.176   3.481   4.517 -0.3997  0.6558 -1.1676
 4371SOL    HW224750   4.242   3.379   4.424  0.6328  1.0125  0.2936
 4372SOL     OW24751   4.084   2.277   1.667 -0.3165  0.2545 -0.1284
 4372SOL    HW124752   4.015   2.211   1.655 -0.2383  0.1229  0.1639
 4372SOL    HW224753   4.072   2.329   1.587 -2.0768  1.3255  0.8026
 4373SOL     OW24754   2.935   1.226   7.190  0.2573  0.8616  0.7185
 4373SOL    HW124755   3.015   1.230   7.242  0.9784 -1.5935 -0.2519
 4373SOL    HW224756   2.956   1.295   7.127  1.6874 -0.0704  0.1914
 4374SOL     OW24757   1.075   0.099   3.540  0.5416  0.3855  0.5029
 4374SOL    HW124758   1.063   0.131   3.450  0.8204 -1.1659 -0.0852
 4374SOL    HW224759   1.117   0.013   3.528 -0.9561 -0.2096 -0.4384
 4375SOL     OW24760   2.236   0.211   3.822  0.3787  0.4548 -0.4719
 4375SOL    HW124761   2.330   0.194   3.822  0.6203  1.8344 -0.1098
 4375SOL    HW224762   2.233   0.299   3.857 -1.0322 -0.7514  2.4459
 4376SOL     OW24763   3.368   2.253   5.320 -0.0443 -0.4807  0.4032
 4376SOL    HW124764   3.354   2.323   5.384 -2.8084 -0.9898  0.3206
 4376SOL    HW224765   3.310   2.185   5.354  0.6938 -1.5145 -0.4314
 4377SOL     OW24766   1.600   0.604   7.257 -0.6764 -0.4169  0.0560
 4377SOL    HW124767   1.535   0.591   7.326 -1.4881 -0.0660 -0.6371
 4377SOL    HW224768   1.569   0.545   7.188  1.1527 -0.9795 -0.2754
 4378SOL     OW24769   1.214   0.268   3.939  0.0383 -0.0894 -0.4634
 4378SOL    HW124770   1.146   0.202   3.922 -0.8611  0.7946 -0.3148
 4378SOL    HW224771   1.205   0.295   4.030 -1.6274 -2.1360 -0.0078
 4379SOL     OW24772   3.009   0.229   0.972  0.2988 -0.3007 -0.0049
 4379SOL    HW124773   3.070   0.205   1.042  1.6073 -0.2148 -1.1159
 4379SOL    HW224774   3.055   0.302   0.931  0.7225 -0.8258 -0.4684
 4380SOL     OW24775   0.730   3.007   5.197  0.2358  0.1995 -0.4159
 4380SOL    HW124776   0.674   3.024   5.273 -0.0699 -0.0571 -0.5842
 4380SOL    HW224777   0.818   3.005   5.235 -1.3423  0.6286  3.2559
 4381SOL     OW24778   2.209   2.599  16.763 -0.3449  0.0894  0.4160
 4381SOL    HW124779   2.138   2.546  16.726 -0.7854  1.3426 -0.5450
 4381SOL    HW224780   2.276   2.594  16.695  0.3212  0.5590  1.0397
 4382SOL     OW24781   3.728   1.884  12.396 -0.4198 -0.3576  0.5098
 4382SOL    HW124782   3.668   1.945  12.353  1.4629  0.7899 -0.4889
 4382SOL    HW224783   3.772   1.832  12.329 -1.9058  1.0162 -1.5304
 4383SOL     OW24784   1.890   4.371   2.359  0.0716 -0.1463  0.0259
 4383SOL    HW124785   1.860   4.361   2.268  2.3329  0.8631 -0.8449
 4383SOL    HW224786   1.822   4.420   2.404 -1.0330  1.1845 -3.0755
 4384SOL     OW24787   2.966   1.682   8.148  0.4490 -0.4102 -0.5012
 4384SOL    HW124788   3.049   1.674   8.195  0.0284  2.3137  0.6897
 4384SOL    HW224789   2.938   1.773   8.154 -0.2676 -0.6518 -0.1442
 4385SOL     OW24790   1.916   3.150   7.245  0.2819 -0.1601  0.6756
 4385SOL    HW124791   1.920   3.232   7.293  1.0901  0.0636  0.2033
 4385SOL    HW224792   1.858   3.170   7.172 -0.3788  1.0826  1.5330
 4386SOL     OW24793   0.334   2.911   5.549 -0.0465  0.0607 -0.0335
 4386SOL    HW124794   0.409   2.857   5.572 -1.1741 -0.1959  3.0224
 4386SOL    HW224795   0.299   2.865   5.472  2.1257  0.9518 -1.5537
 4387SOL     OW24796   2.103   4.655   5.768  0.2185 -0.2554  0.1114
 4387SOL    HW124797   2.105   4.698   5.683 -0.5810 -0.0411  0.2007
 4387SOL    HW224798   2.058   4.573   5.746  0.3554 -0.3693  0.2544
 4388SOL     OW24799   2.503   1.472   6.963 -0.3844 -0.8328  0.1611
 4388SOL    HW124800   2.551   1.398   6.999  0.2354 -1.4130 -1.8244
 4388SOL    HW224801   2.454   1.493   7.042  0.7413 -0.9774  0.8963
 4389SOL     OW24802   0.700   3.319   9.218  0.3490 -0.0579 -0.6120
 4389SOL    HW124803   0.733   3.327   9.129 -0.7022  0.4280 -0.9498
 4389SOL    HW224804   0.775   3.287   9.269 -0.0568  0.9102  0.5810
 4390SOL     OW24805   3.706   1.119  15.788  0.6766  0.7213  0.6146
 4390SOL    HW124806   3.745   1.108  15.875  0.7487 -0.8503  0.3831
 4390SOL    HW224807   3.716   1.214  15.777  0.4240  0.7010  0.2151
 4391SOL     OW24808   4.574   2.911   9.338  0.0525  0.1268 -0.0991
 4391SOL    HW124809   4.632   2.911   9.414 -0.4803 -0.7824  0.3044
 4391SOL    HW224810   4.640   2.951   9.281 -0.0359 -0.9160 -0.9283
 4392SOL     OW24811   2.450   3.473   9.887  0.0970 -0.5190 -0.0392
 4392SOL    HW124812   2.398   3.395   9.907  1.0956 -1.0782  0.3607
 4392SOL    HW224813   2.385   3.524   9.936  2.2742  0.1085  2.1539
 4393SOL     OW24814   1.331   2.738   9.379  0.2071 -0.0268  0.4115
 4393SOL    HW124815   1.331   2.829   9.410  0.4330  0.4715 -1.0159
 4393SOL    HW224816   1.261   2.749   9.315  1.0514 -1.2791 -0.7518
 4394SOL     OW24817   0.111   3.125   3.225  0.0213 -0.8363  0.5519
 4394SOL    HW124818   0.039   3.159   3.172  2.0324  0.8699 -1.0799
 4394SOL    HW224819   0.176   3.100   3.159  0.0378  0.9179 -0.0988
 4395SOL     OW24820   1.352   1.921   8.718  0.8521  0.1706  0.3948
 4395SOL    HW124821   1.326   1.876   8.799 -1.9042 -0.4277 -0.8337
 4395SOL    HW224822   1.402   1.996   8.750  2.1261 -0.1514 -0.8290
 4396SOL     OW24823   1.072   0.535   2.158 -0.3449 -0.2956 -0.2005
 4396SOL    HW124824   1.015   0.479   2.211  2.1930 -0.8426  1.9814
 4396SOL    HW224825   1.080   0.609   2.219  0.4416 -1.0481  0.6258
 4397SOL     OW24826   4.291   4.056   3.658  0.3028 -0.0413 -0.2027
 4397SOL    HW124827   4.245   4.068   3.575  0.0540  0.2422 -0.0218
 4397SOL    HW224828   4.350   3.983   3.639  0.6288  0.5497 -1.4711
 4398SOL     OW24829   0.800   1.489   4.592  0.9149 -0.1035 -0.2523
 4398SOL    HW124830   0.713   1.449   4.590  0.3793  1.1076 -0.9064
 4398SOL    HW224831   0.814   1.503   4.686 -0.2450  0.3472 -0.1496
 4399SOL     OW24832   0.615   0.444  11.742 -0.0332  0.1347 -0.5601
 4399SOL    HW124833   0.644   0.395  11.819 -1.1195 -0.6496 -0.6633
 4399SOL    HW224834   0.522   0.446  11.763 -0.2123  1.4047 -1.4815
 4400SOL     OW24835   1.573   3.403  11.285 -0.1583 -0.4790 -0.0782
 4400SOL    HW124836   1.513   3.416  11.211  0.6257  0.5475 -0.5314
 4400SOL    HW224837   1.566   3.307  11.291 -0.2528 -0.5400 -1.0876
 4401SOL     OW24838   4.356   3.078   9.276 -0.2963 -0.0873  0.4584
 4401SOL    HW124839   4.425   3.015   9.296 -0.1953 -0.3075 -0.5867
 4401SOL    HW224840   4.333   3.124   9.356  0.3316 -0.0541  0.6216
 4402SOL     OW24841   2.170   0.071   5.522  0.6209 -0.1647 -0.3351
 4402SOL    HW124842   2.218   0.130   5.580  0.9507 -0.2036 -0.5660
 4402SOL    HW224843   2.158   0.126   5.444 -3.4212 -0.3444  0.1664
 4403SOL     OW24844   3.517   1.843   8.291  0.4392  0.0161 -1.0568
 4403SOL    HW124845   3.459   1.886   8.228 -0.7202  0.6114  0.4424
 4403SOL    HW224846   3.494   1.750   8.285 -2.3145  0.7700 -2.2883
 4404SOL     OW24847   0.706   1.354   4.335 -0.0189  0.0514 -0.0138
 4404SOL    HW124848   0.734   1.443   4.313  0.6041 -0.0837  0.2306
 4404SOL    HW224849   0.776   1.329   4.395 -0.3657 -2.5732 -0.6844
 4405SOL     OW24850   0.815   3.665   3.495 -0.1832  0.0555  0.1750
 4405SOL    HW124851   0.734   3.701   3.533 -0.2081 -0.1136  0.2816
 4405SOL    HW224852   0.855   3.749   3.470  0.4228  0.3207  2.0307
 4406SOL     OW24853   3.220   4.110   7.420 -0.2606  0.3967 -0.5896
 4406SOL    HW124854   3.293   4.085   7.477  0.4649  0.6240 -1.4235
 4406SOL    HW224855   3.147   4.061   7.458  0.1794  1.9639  2.2568
 4407SOL     OW24856   2.361   2.731   6.381  0.0137  0.1693 -0.0610
 4407SOL    HW124857   2.411   2.717   6.462 -0.5727 -0.0805  0.2568
 4407SOL    HW224858   2.400   2.803   6.332  0.8166  0.2495  0.7064
 4408SOL     OW24859   3.246   2.046   1.393  0.2997  0.3458 -0.6535
 4408SOL    HW124860   3.312   2.092   1.340 -0.1418  1.5890 -0.1370
 4408SOL    HW224861   3.229   1.972   1.335 -1.9569 -0.1850  0.6702
 4409SOL     OW24862   0.307   3.690   6.193 -0.2197 -0.1344  0.6583
 4409SOL    HW124863   0.247   3.763   6.180  1.3312  1.3145  1.5970
 4409SOL    HW224864   0.338   3.714   6.280  1.0329 -1.1611  0.4955
 4410SOL     OW24865   3.410   1.390   8.071 -0.5785  0.7253  0.0647
 4410SOL    HW124866   3.400   1.296   8.090 -0.6354  0.5051 -1.0373
 4410SOL    HW224867   3.401   1.382   7.976 -1.2439  2.4841 -0.0249
 4411SOL     OW24868   2.316   3.992   7.800 -0.0366  0.3688  0.7771
 4411SOL    HW124869   2.244   4.005   7.739 -1.0329  1.5721  2.1911
 4411SOL    HW224870   2.284   4.045   7.873  0.2221 -1.0410  1.9130
 4412SOL     OW24871   1.609   1.543   5.563 -0.1579 -0.0674  0.3765
 4412SOL    HW124872   1.674   1.474   5.581  0.8814  0.7681 -0.1859
 4412SOL    HW224873   1.539   1.484   5.534 -0.2657  0.4190 -0.3318
 4413SOL     OW24874   2.293   3.699  11.826 -0.0356 -0.1248  0.2713
 4413SOL    HW124875   2.281   3.734  11.738  0.0266  3.6046  1.7413
 4413SOL    HW224876   2.257   3.613  11.807 -0.5038 -0.1974  1.4911
 4414SOL     OW24877   1.086   2.520   3.668 -0.8442 -0.2685 -0.0694
 4414SOL    HW124878   0.998   2.544   3.698 -2.0026 -2.6230 -1.5969
 4414SOL    HW224879   1.078   2.550   3.578 -2.1626 -0.0469  0.1137
 4415SOL     OW24880   0.380   4.331  12.602  0.3628  0.2252  0.6269
 4415SOL    HW124881   0.299   4.303  12.561 -0.8487  3.7052  0.6285
 4415SOL    HW224882   0.451   4.327  12.538 -0.4635  0.4784 -0.3039
 4416SOL     OW24883   4.007   3.866   5.393  0.3742  0.0615  0.0445
 4416SOL    HW124884   3.976   3.948   5.354 -1.5000 -0.7153 -0.1194
 4416SOL    HW224885   3.939   3.844   5.458  1.0009  0.3593  0.8030
 4417SOL     OW24886   2.234   3.247   3.261  0.4559 -0.7046  0.1141
 4417SOL    HW124887   2.154   3.211   3.223  1.0277 -0.5904 -1.2015
 4417SOL    HW224888   2.250   3.178   3.325 -0.1037 -1.8520 -0.9671
 4418SOL     OW24889   4.514   1.024   5.791  0.3061 -0.3908  0.4752
 4418SOL    HW124890   4.430   0.985   5.766  1.3125 -1.1926 -1.7052
 4418SOL    HW224891   4.522   1.106   5.743 -1.6524 -1.1335 -1.1288
 4419SOL     OW24892   0.810   0.169   2.409  0.1210 -0.4929 -0.4104
 4419SOL    HW124893   0.882   0.106   2.416  1.1265  0.5334 -1.8446
 4419SOL    HW224894   0.780   0.144   2.322  2.7724 -0.0497 -1.4384
 4420SOL     OW24895   3.943   4.090  17.144 -0.0938 -0.0626  0.1885
 4420SOL    HW124896   3.915   4.170  17.188 -0.6007 -0.6848  0.9805
 4420SOL    HW224897   3.986   4.040  17.214 -0.5342  1.6816  1.6894
 4421SOL     OW24898   0.825   2.561   4.035 -0.1890 -0.3694  0.5725
 4421SOL    HW124899   0.825   2.563   3.939  1.2833 -1.8099  0.5353
 4421SOL    HW224900   0.917   2.542   4.055  0.2133  1.7907  0.7496
 4422SOL     OW24901   2.048   4.236   3.433 -0.0109 -0.3035  0.1644
 4422SOL    HW124902   2.087   4.322   3.445 -0.0207 -0.3358  0.4228
 4422SOL    HW224903   2.078   4.177   3.502  0.1891  1.1082  1.2732
 4423SOL     OW24904   4.235   4.389   3.719 -0.4798  0.2711  0.5269
 4423SOL    HW124905   4.215   4.295   3.718  1.1986 -0.0670 -0.6964
 4423SOL    HW224906   4.307   4.398   3.782  0.0413 -0.4877  0.0387
 4424SOL     OW24907   4.127   0.007   3.943  0.3529 -0.5618 -0.1438
 4424SOL    HW124908   4.205   4.686   3.948  0.1532 -0.7112  1.3349
 4424SOL    HW224909   4.101   0.008   4.035  2.3260 -3.5302  0.4767
 4425SOL     OW24910   2.541   1.085  13.103 -0.4687 -0.8155  0.1585
 4425SOL    HW124911   2.549   1.007  13.049  2.2393  0.6529 -1.6078
 4425SOL    HW224912   2.452   1.119  13.098  0.3759  1.3395 -0.4380
 4426SOL     OW24913   0.159   0.091  10.727  0.0216  0.0933  0.1727
 4426SOL    HW124914   0.188   0.081  10.817  0.6040 -0.9629 -0.1294
 4426SOL    HW224915   0.110   0.009  10.725  0.4731 -0.2732  3.8221
 4427SOL     OW24916   3.622   1.404   2.695 -0.1928  0.4879 -0.2087
 4427SOL    HW124917   3.526   1.405   2.694 -0.2210  0.1755  1.2012
 4427SOL    HW224918   3.641   1.421   2.603 -1.7852 -0.2785 -0.6778
 4428SOL     OW24919   3.557   1.653   5.243 -0.5485  0.4085 -0.2661
 4428SOL    HW124920   3.484   1.603   5.206  0.1906 -0.2423 -0.8498
 4428SOL    HW224921   3.543   1.736   5.198  2.3377  0.9012 -0.2626
 4429SOL     OW24922   0.532   2.071   6.693 -0.6261  0.4544 -0.3504
 4429SOL    HW124923   0.584   2.010   6.640  1.2908  1.8740 -0.1477
 4429SOL    HW224924   0.451   2.068   6.643  0.4475  0.2740 -2.0736
 4430SOL     OW24925   0.268   4.433   3.749  0.4122 -0.7873  0.1183
 4430SOL    HW124926   0.176   4.458   3.752  0.8261  0.7991 -0.5289
 4430SOL    HW224927   0.298   4.505   3.805  1.1062 -0.2851 -0.9097
 4431SOL     OW24928   4.476   0.821   1.960 -0.1597  0.6472 -0.0692
 4431SOL    HW124929   4.487   0.758   2.030 -2.5674 -0.9349 -1.1345
 4431SOL    HW224930   4.440   0.773   1.885 -0.0350  0.9605 -0.3334
 4432SOL     OW24931   1.764   2.361   1.967  0.1636 -0.1798  0.8237
 4432SOL    HW124932   1.719   2.277   1.962  2.0653 -1.2594  1.7793
 4432SOL    HW224933   1.693   2.423   1.953 -1.1766 -1.9840 -0.2034
 4433SOL     OW24934   0.154   2.916  16.228 -0.1974  0.4796 -0.5307
 4433SOL    HW124935   0.101   2.981  16.182  0.8786  0.9108 -1.1673
 4433SOL    HW224936   0.211   2.899  16.152  0.6129 -0.6048  0.3144
 4434SOL     OW24937   0.403   0.252   2.252  0.5871  0.0335  0.7454
 4434SOL    HW124938   0.454   0.326   2.284 -1.1747  1.8622 -0.6421
 4434SOL    HW224939   0.318   0.295   2.242 -0.2283 -1.5651  0.8310
 4435SOL     OW24940   1.235   4.601   2.969  0.2128  0.4252 -0.6553
 4435SOL    HW124941   1.289   4.536   3.014 -1.2134  1.0277  1.9399
 4435SOL    HW224942   1.271   4.591   2.881  1.5729  2.3598 -0.3106
 4436SOL     OW24943   4.720   3.334   9.111 -0.1352  0.2556 -0.4774
 4436SOL    HW124944   0.056   3.364   9.169  0.7854  2.4552 -2.6923
 4436SOL    HW224945   0.002   3.396   9.039 -0.0522 -2.2506 -2.5981
 4437SOL     OW24946   0.849   3.616   7.372 -0.2532  0.3267 -0.0552
 4437SOL    HW124947   0.781   3.556   7.344 -0.3521  1.0306 -1.3171
 4437SOL    HW224948   0.798   3.697   7.373 -0.0211  0.4815 -0.8442
 4438SOL     OW24949   3.895   4.514   5.953 -0.4565  0.0914  0.3447
 4438SOL    HW124950   3.971   4.461   5.927 -1.1329 -0.4839 -0.4896
 4438SOL    HW224951   3.859   4.475   6.032 -0.5869  0.0085  0.2459
 4439SOL     OW24952   1.898   3.731   7.509  0.0616  0.7297 -0.1945
 4439SOL    HW124953   1.974   3.773   7.549  0.3996  1.4885 -1.6339
 4439SOL    HW224954   1.881   3.794   7.439  0.6826  1.5661  0.4030
 4440SOL     OW24955   0.110   2.793   8.450 -0.7256  0.0914  0.2852
 4440SOL    HW124956   0.100   2.738   8.372  2.7704  1.3128 -1.0306
 4440SOL    HW224957   0.066   2.734   8.511 -1.8033 -0.6540 -1.2424
 4441SOL     OW24958   1.815   3.864  10.335 -0.1258  0.2754 -0.1528
 4441SOL    HW124959   1.896   3.875  10.384 -0.1870  0.3729 -0.0718
 4441SOL    HW224960   1.765   3.937  10.372  0.2706  0.8948 -0.8637
 4442SOL     OW24961   3.075   0.665   4.592 -0.2297 -0.0279 -0.0329
 4442SOL    HW124962   3.020   0.604   4.642  0.4798 -1.2162 -0.6912
 4442SOL    HW224963   3.142   0.698   4.653 -1.7856  0.1048  1.6070
 4443SOL     OW24964   0.081   0.520   8.706  0.0809 -0.6271  0.3386
 4443SOL    HW124965   4.720   0.531   8.708  0.1993  0.3434  0.6133
 4443SOL    HW224966   0.103   0.611   8.725  1.1808 -1.0033  0.8684
 4444SOL     OW24967   2.917   0.563   2.443 -0.4129 -0.2228 -0.3517
 4444SOL    HW124968   2.842   0.508   2.420 -0.3339  0.1038 -1.3580
 4444SOL    HW224969   2.877   0.650   2.440  1.2740  0.5889  0.7911
 4445SOL     OW24970   0.506   0.398   5.613 -0.4378  0.2106  0.5251
 4445SOL    HW124971   0.449   0.448   5.554  0.3160 -1.8090 -1.8813
 4445SOL    HW224972   0.567   0.365   5.548  0.4661 -1.1650  2.0720
 4446SOL     OW24973   0.668   1.057   4.901 -0.3108 -0.0497  0.1529
 4446SOL    HW124974   0.620   1.135   4.928  0.0186 -0.3351  1.5593
 4446SOL    HW224975   0.609   0.983   4.913 -0.3243  0.3457  2.4758
 4447SOL     OW24976   3.650   0.821  16.197 -0.3829 -0.6037 -0.8998
 4447SOL    HW124977   3.617   0.733  16.210 -0.2938 -0.5350 -0.2023
 4447SOL    HW224978   3.577   0.870  16.233  0.5328  0.8478 -0.9994
 4448SOL     OW24979   1.683   2.933  13.561 -0.1386  0.0407  0.3354
 4448SOL    HW124980   1.757   2.954  13.503 -0.9698  1.6997 -0.1217
 4448SOL    HW224981   1.691   2.838  13.565 -1.7766 -0.1783 -1.6632
 4449SOL     OW24982   4.590   4.471   2.646  0.4561 -0.4893  0.7390
 4449SOL    HW124983   4.515   4.423   2.681 -0.5988  0.6147 -0.0184
 4449SOL    HW224984   4.551   4.558   2.645 -1.0995 -1.2214 -1.7543
 4450SOL     OW24985   4.689   0.839   7.123 -0.1453  0.2924 -0.2831
 4450SOL    HW124986   0.035   0.811   7.166 -0.3943 -0.3893 -0.2542
 4450SOL    HW224987   4.647   0.756   7.098 -1.0902  0.4605  0.7633
 4451SOL     OW24988   4.635   4.461  17.038  0.6261 -0.3347  0.8014
 4451SOL    HW124989   4.693   4.407  17.091  0.3994 -1.0735  0.2967
 4451SOL    HW224990   4.695   4.529  17.008 -1.1792 -0.5751 -3.3225
 4452SOL     OW24991   1.368   0.816  16.083 -0.0065  0.1036  0.2677
 4452SOL    HW124992   1.357   0.911  16.088 -0.5979 -0.0288  1.3819
 4452SOL    HW224993   1.368   0.801  16.177 -2.2118 -1.9550 -0.0489
 4453SOL     OW24994   2.057   0.762   8.746  0.4411 -0.6099 -0.3474
 4453SOL    HW124995   2.064   0.703   8.670  2.3217  0.4594 -1.0153
 4453SOL    HW224996   2.024   0.705   8.815  0.1747 -1.0849 -0.8617
 4454SOL     OW24997   1.302   2.142  12.155  0.4845  0.4771  0.6147
 4454SOL    HW124998   1.391   2.138  12.189  0.7125  0.2647 -0.0185
 4454SOL    HW224999   1.330   2.173  12.069  1.2690  0.3737  0.8380
 4455SOL     OW25000   4.716   4.666   4.769  0.2342 -0.0520 -0.0059
 4455SOL    HW125001   4.716   4.578   4.806  1.1100 -0.7728 -1.6816
 4455SOL    HW225002   4.623   4.687   4.773 -0.0661 -1.4621  0.2040
 4456SOL     OW25003   3.682   3.717  14.993  0.0054 -0.0129 -0.4806
 4456SOL    HW125004   3.694   3.682  14.905  1.2842 -2.8264  0.8097
 4456SOL    HW225005   3.606   3.774  14.981 -0.0779 -0.1082 -0.4104
 4457SOL     OW25006   2.247   0.305   9.806  0.6593  0.4304  0.3870
 4457SOL    HW125007   2.170   0.336   9.760  0.5959  0.4725  0.5213
 4457SOL    HW225008   2.312   0.320   9.738  2.0116 -3.0843  0.9308
 4458SOL     OW25009   1.205   1.242   1.989  0.6241 -0.1308 -0.4425
 4458SOL    HW125010   1.114   1.216   1.971  0.6540 -0.3693 -0.2390
 4458SOL    HW225011   1.184   1.312   2.051 -2.4146 -0.3706 -1.1982
 4459SOL     OW25012   4.395   3.028   3.822 -0.0791  0.2921 -0.7647
 4459SOL    HW125013   4.459   3.075   3.875 -1.8252  0.6844  1.0166
 4459SOL    HW225014   4.417   2.936   3.832 -0.9499  0.2215  0.4428
 4460SOL     OW25015   2.416   2.985   3.533 -0.3771 -0.2198  0.0237
 4460SOL    HW125016   2.509   2.994   3.511 -0.4993 -3.1580 -1.8225
 4460SOL    HW225017   2.412   2.952   3.623  1.4108  0.7951  0.4773
 4461SOL     OW25018   2.998   3.101   6.591 -0.6151 -0.3942 -0.2047
 4461SOL    HW125019   2.924   3.158   6.611  0.6064  1.6661 -1.5681
 4461SOL    HW225020   3.017   3.119   6.499  0.2275  0.0696  0.0524
 4462SOL     OW25021   3.321   3.316   4.319  0.3175 -0.1980  0.6987
 4462SOL    HW125022   3.410   3.316   4.354  0.3336  0.9706  0.6466
 4462SOL    HW225023   3.276   3.329   4.402  0.2664  2.8404  0.1793
 4463SOL     OW25024   3.807   0.370   1.593 -0.2386 -0.3812  0.4834
 4463SOL    HW125025   3.835   0.279   1.605  0.0546 -0.5098 -1.1897
 4463SOL    HW225026   3.883   0.418   1.562 -0.2471 -0.2329  0.6956
 4464SOL     OW25027   0.234   0.467   1.336  0.1697 -0.4732  0.0648
 4464SOL    HW125028   0.294   0.471   1.410 -2.1643 -1.6170  2.0415
 4464SOL    HW225029   0.151   0.434   1.372  0.9373 -1.7150  0.6876
 4465SOL     OW25030   1.393   2.463   3.753 -0.4848  0.2135  0.2419
 4465SOL    HW125031   1.378   2.480   3.660 -0.7887  1.8769  0.5909
 4465SOL    HW225032   1.303   2.437   3.774 -0.0734 -0.3627  1.2960
 4466SOL     OW25033   4.688   4.058   3.623 -0.3503 -0.0709 -0.5398
 4466SOL    HW125034   0.004   4.074   3.703 -0.9738 -0.5418 -0.0408
 4466SOL    HW225035   4.634   4.136   3.612 -0.0859  0.2463  0.3868
 4467SOL     OW25036   0.234   1.752  15.662 -0.2535 -0.5995 -0.2233
 4467SOL    HW125037   0.281   1.834  15.677 -0.4987 -0.7074  1.1477
 4467SOL    HW225038   0.268   1.721  15.578  1.0408 -2.0351  0.8337
 4468SOL     OW25039   2.289   0.796   0.600  0.3948  0.9734  0.1500
 4468SOL    HW125040   2.366   0.777   0.546 -0.1280  0.9612 -0.5880
 4468SOL    HW225041   2.332   0.790   0.686  0.0880 -0.5033  0.2030
 4469SOL     OW25042   2.257   3.803  13.463 -0.0518  0.0915 -0.3733
 4469SOL    HW125043   2.249   3.857  13.384 -1.5808  0.6260  0.1513
 4469SOL    HW225044   2.214   3.720  13.444  0.5613 -0.3045 -0.0128
 4470SOL     OW25045   2.585   1.089   9.094  0.2156  0.2319  0.5570
 4470SOL    HW125046   2.557   1.148   9.023 -1.7475  2.0784  2.8602
 4470SOL    HW225047   2.518   1.022   9.080  1.1783 -0.4931 -0.5377
 4471SOL     OW25048   1.278   0.041   2.357 -0.1233  0.4612  0.4613
 4471SOL    HW125049   1.256   0.132   2.337 -2.7414 -0.8224 -2.6114
 4471SOL    HW225050   1.364   0.050   2.398  0.7799 -1.4366 -1.0181
 4472SOL     OW25051   2.104   0.917   0.054  0.2896 -0.6395 -0.4561
 4472SOL    HW125052   2.169   0.893   0.120  0.7977 -1.1023 -1.1335
 4472SOL    HW225053   2.092   1.004   0.092 -0.7218 -1.1128  0.3299
 4473SOL     OW25054   3.893   0.262   2.763  0.3045 -0.2754  0.0522
 4473SOL    HW125055   3.922   0.320   2.834  0.4598  0.6450 -0.7663
 4473SOL    HW225056   3.960   0.270   2.695 -0.4980  1.2995 -0.5474
 4474SOL     OW25057   3.072   4.492   4.211  0.1265  0.4198  0.4307
 4474SOL    HW125058   3.156   4.474   4.253 -0.4927 -1.6100  0.8058
 4474SOL    HW225059   3.099   4.473   4.121 -0.5325  0.6821  0.1753
 4475SOL     OW25060   3.054   3.191   6.345  0.2107 -0.2751  0.2486
 4475SOL    HW125061   3.062   3.112   6.292  1.2243 -0.8454  1.2471
 4475SOL    HW225062   3.001   3.241   6.282  1.3684  1.1749  0.4205
 4476SOL     OW25063   1.116   4.577   1.821  0.3698 -0.3722 -0.4471
 4476SOL    HW125064   1.192   4.620   1.860  0.7742 -2.3573  0.9295
 4476SOL    HW225065   1.097   4.632   1.745  2.3502 -0.4449 -0.9830
 4477SOL     OW25066   1.183   4.089   4.631 -0.1607  0.7785  0.2633
 4477SOL    HW125067   1.219   4.019   4.576 -0.4224  1.7715 -1.1748
 4477SOL    HW225068   1.121   4.041   4.686  0.9766  0.2988  1.1292
 4478SOL     OW25069   0.150   4.651   6.114 -0.2738 -0.0788 -0.1013
 4478SOL    HW125070   0.164   4.681   6.204  0.9508  0.5228 -0.4856
 4478SOL    HW225071   0.202   4.571   6.115 -0.9392 -0.5294 -2.0389
 4479SOL     OW25072   3.387   3.698   7.738  1.0717  0.3271 -0.1419
 4479SOL    HW125073   3.347   3.617   7.708 -1.0926  1.4321 -0.2795
 4479SOL    HW225074   3.316   3.728   7.796  0.6945  1.0870 -0.9879
 4480SOL     OW25075   0.533   0.618   3.991  0.1197  0.5569  0.0516
 4480SOL    HW125076   0.511   0.526   4.006  1.6640  0.3524  1.0889
 4480SOL    HW225077   0.510   0.617   3.898  1.6529  1.4538 -0.3456
 4481SOL     OW25078   1.972   1.623  12.421  0.1509 -0.3005 -0.4411
 4481SOL    HW125079   1.969   1.564  12.497 -0.0292  3.0706  2.1968
 4481SOL    HW225080   1.927   1.560  12.365 -1.5107 -1.3484  2.0424
 4482SOL     OW25081   2.190   2.224   7.891 -0.0533 -0.3804 -0.4683
 4482SOL    HW125082   2.259   2.256   7.949  0.5132 -1.2185 -0.6755
 4482SOL    HW225083   2.209   2.131   7.887 -2.4421 -0.8951  0.4640
 4483SOL     OW25084   0.735   4.024   4.712  0.4969  0.2517  0.1188
 4483SOL    HW125085   0.820   4.010   4.752 -0.0830 -0.3716  1.1383
 4483SOL    HW225086   0.714   4.117   4.720  1.1001  0.2947  1.2445
 4484SOL     OW25087   2.091   2.121   8.551 -0.2039 -0.0569  0.2560
 4484SOL    HW125088   2.150   2.159   8.616 -0.9221  0.1773  0.7557
 4484SOL    HW225089   2.125   2.151   8.466  0.7022  2.5249  1.5355
 4485SOL     OW25090   2.677   2.913   5.165 -0.0125 -0.3172  0.5604
 4485SOL    HW125091   2.681   2.962   5.247 -0.3726 -0.6928  0.8033
 4485SOL    HW225092   2.659   2.975   5.095 -1.1972 -2.1764 -0.7851
 4486SOL     OW25093   0.293   1.362   9.724  0.2188  0.3946 -0.1007
 4486SOL    HW125094   0.241   1.343   9.802  0.7846  0.1657  0.2138
 4486SOL    HW225095   0.253   1.290   9.675 -1.6510  0.6329  1.0724
 4487SOL     OW25096   1.633   1.416  15.350 -0.6323 -0.1407 -0.4059
 4487SOL    HW125097   1.633   1.345  15.413 -0.5450 -0.6104 -0.9357
 4487SOL    HW225098   1.690   1.376  15.284  1.4527  0.3765  1.0689
 4488SOL     OW25099   4.493   0.559   8.312  0.3200  0.2797  0.2206
 4488SOL    HW125100   4.489   0.465   8.331 -3.0780  0.0600 -1.6034
 4488SOL    HW225101   4.535   0.555   8.226 -0.9416 -0.1356 -0.3709
 4489SOL     OW25102   3.662   1.638   0.324  0.5855 -0.3827 -0.2960
 4489SOL    HW125103   3.632   1.648   0.415  0.7451  0.1646 -0.3008
 4489SOL    HW225104   3.583   1.663   0.276  1.3193  1.0305 -0.7840
 4490SOL     OW25105   3.368   2.308  11.212  0.2055  0.0201 -0.2287
 4490SOL    HW125106   3.355   2.304  11.306  0.3818 -0.5512 -0.2271
 4490SOL    HW225107   3.347   2.221  11.177 -1.6931  0.8251 -1.1174
 4491SOL     OW25108   0.681   3.091   0.592  0.2675  0.1401  0.3148
 4491SOL    HW125109   0.721   3.093   0.505  0.7203 -1.3090  0.4899
 4491SOL    HW225110   0.639   3.177   0.589  1.5998  0.7622 -0.6729
 4492SOL     OW25111   3.550   1.651   6.537 -0.3713  0.2315 -1.1314
 4492SOL    HW125112   3.546   1.634   6.631 -0.7771 -1.6723 -1.4929
 4492SOL    HW225113   3.459   1.656   6.511 -0.4208  2.9484 -0.4226
 4493SOL     OW25114   0.035   1.088   4.173  0.5045 -0.6456 -0.1452
 4493SOL    HW125115   0.008   1.180   4.182 -0.4802 -0.8699 -0.8351
 4493SOL    HW225116   0.130   1.098   4.164  0.3440  2.5435  1.5435
 4494SOL     OW25117   2.278   3.578   6.984  0.6053  0.6136 -0.0195
 4494SOL    HW125118   2.254   3.548   7.072  2.1240  1.7128  0.7796
 4494SOL    HW225119   2.269   3.497   6.934 -1.6909  0.9150 -0.1058
 4495SOL     OW25120   0.253   1.436   8.822 -0.3296  0.6563  0.5200
 4495SOL    HW125121   0.329   1.482   8.786 -0.8150  0.9321 -0.1428
 4495SOL    HW225122   0.297   1.355   8.850 -1.2727 -1.2796 -3.6879
 4496SOL     OW25123   2.100   3.820  13.688 -0.1255  0.5970 -0.5566
 4496SOL    HW125124   2.175   3.803  13.632  1.7398 -3.4257  3.2482
 4496SOL    HW225125   2.038   3.865  13.630 -0.9517  0.1667 -0.0163
 4497SOL     OW25126   4.455   3.762   8.315 -0.2355  0.0441 -0.0911
 4497SOL    HW125127   4.477   3.800   8.230 -0.8571  0.5133 -0.0385
 4497SOL    HW225128   4.374   3.803   8.345 -0.3520  0.1796 -0.5909
 4498SOL     OW25129   2.434   1.375   5.793 -0.2049  0.2581  0.1723
 4498SOL    HW125130   2.351   1.377   5.841  1.0124  1.5693  2.2300
 4498SOL    HW225131   2.450   1.289   5.754  2.1205  2.3066 -3.4201
 4499SOL     OW25132   4.578   1.255   6.481  0.2491 -0.4540  0.2191
 4499SOL    HW125133   4.668   1.285   6.492 -0.5970  0.9703  3.2640
 4499SOL    HW225134   4.536   1.331   6.522  2.1989  2.1614 -2.6676
 4500SOL     OW25135   4.138   1.692   9.268 -0.0580  0.0678 -0.2597
 4500SOL    HW125136   4.129   1.706   9.362  0.3620  0.9021 -0.3469
 4500SOL    HW225137   4.047   1.693   9.239  0.1856 -2.1795 -1.1100
 4501SOL     OW25138   2.555   0.467   7.071 -0.3059  0.1043 -0.9033
 4501SOL    HW125139   2.578   0.474   6.978  0.4717  0.3017 -0.7002
 4501SOL    HW225140   2.509   0.385   7.088  1.0740 -0.1764  1.4536
 4502SOL     OW25141   3.327   0.244  10.580 -0.3568 -0.3167 -0.2354
 4502SOL    HW125142   3.306   0.313  10.518  1.6625  1.7480  1.4012
 4502SOL    HW225143   3.404   0.197  10.547  0.5496 -0.9696  2.8347
 4503SOL     OW25144   0.588   2.846   6.142 -0.1142  0.5507  0.2856
 4503SOL    HW125145   0.553   2.784   6.078 -0.0829  0.5663  0.2536
 4503SOL    HW225146   0.677   2.846   6.108 -0.7200 -0.7679 -1.3133
 4504SOL     OW25147   1.563   0.487   1.023 -0.0199 -0.3474  0.1205
 4504SOL    HW125148   1.554   0.430   0.947  2.4278  0.1538 -0.5521
 4504SOL    HW225149   1.565   0.574   0.984  0.5729  0.3165  1.6397
 4505SOL     OW25150   0.239   0.352   2.654 -0.0086  0.2247 -0.3366
 4505SOL    HW125151   0.257   0.269   2.699  1.9423  1.2120  0.6640
 4505SOL    HW225152   0.146   0.357   2.674  0.1272 -0.6731  0.5568
 4506SOL     OW25153   1.691   3.467  16.973 -0.0251  0.1869 -0.0691
 4506SOL    HW125154   1.670   3.490  17.064 -0.1398 -0.6224  0.1035
 4506SOL    HW225155   1.666   3.551  16.933  0.1743  0.3619  0.1763
 4507SOL     OW25156   0.846   3.900  13.231 -0.5295  0.5062 -0.1283
 4507SOL    HW125157   0.839   3.844  13.153 -1.9808  0.2203  0.2041
 4507SOL    HW225158   0.819   3.983  13.191 -0.7544  1.4093  1.8934
 4508SOL     OW25159   0.862   3.977   4.426  0.6985  0.8545 -0.0345
 4508SOL    HW125160   0.894   3.888   4.439  0.9661  1.0748  0.8422
 4508SOL    HW225161   0.799   3.981   4.497 -0.1767 -0.6542 -0.7451
 4509SOL     OW25162   2.892   2.477   5.859  0.3508 -0.1182  0.0183
 4509SOL    HW125163   2.919   2.434   5.941  0.5159  0.6112  0.3388
 4509SOL    HW225164   2.958   2.447   5.797 -0.6431  0.6673 -1.3856
 4510SOL     OW25165   2.889   3.832  11.950 -0.0333  0.4490 -0.1622
 4510SOL    HW125166   2.827   3.769  11.914 -0.2966  1.0589 -0.7728
 4510SOL    HW225167   2.830   3.876  12.011 -0.3926 -0.6828  0.3077
 4511SOL     OW25168   2.597   0.140  14.754 -0.4251  0.1330 -0.0632
 4511SOL    HW125169   2.638   0.080  14.817  1.0118  1.7327  0.5285
 4511SOL    HW225170   2.656   0.215  14.759 -2.7404  1.9123  0.2334
 4512SOL     OW25171   1.132   3.570  13.013  0.5372  0.5697 -0.9442
 4512SOL    HW125172   1.228   3.573  13.018  0.6435 -0.8441 -2.2759
 4512SOL    HW225173   1.111   3.498  13.071  2.2719  1.1396  0.3919
 4513SOL     OW25174   4.363   4.068   8.741 -0.5770 -0.1065 -0.5717
 4513SOL    HW125175   4.307   4.001   8.702  1.4857 -0.3151 -3.1697
 4513SOL    HW225176   4.439   4.070   8.683 -0.3482 -1.8927 -0.3433
 4514SOL     OW25177   3.898   0.963  16.684 -1.0540 -0.1121  0.4522
 4514SOL    HW125178   3.958   0.942  16.613 -3.4012  0.7175 -1.8153
 4514SOL    HW225179   3.825   0.963  16.621  1.0021 -0.7380 -1.9026
 4515SOL     OW25180   3.580   1.886   2.483 -0.1743 -0.0676 -0.4931
 4515SOL    HW125181   3.521   1.900   2.409 -0.3053 -1.3183 -0.6268
 4515SOL    HW225182   3.530   1.829   2.542  1.8374 -0.4754  0.8497
 4516SOL     OW25183   1.998   3.278  11.182  0.1960 -0.4882  0.0151
 4516SOL    HW125184   2.021   3.228  11.260 -2.6327 -0.2181  1.0214
 4516SOL    HW225185   2.018   3.365  11.217 -0.3867 -0.3198 -0.0764
 4517SOL     OW25186   3.796   2.871  14.843 -0.1790 -0.1444  0.1087
 4517SOL    HW125187   3.743   2.791  14.846  0.9211 -0.9125 -0.6614
 4517SOL    HW225188   3.749   2.911  14.770  0.6249  1.1834  0.3242
 4518SOL     OW25189   1.381   1.145   2.604 -0.0328 -0.2674 -0.0613
 4518SOL    HW125190   1.285   1.143   2.600  0.1264  0.2522 -3.8929
 4518SOL    HW225191   1.390   1.202   2.680 -0.3892 -1.6789  1.0280
 4519SOL     OW25192   3.284   2.009   6.162 -0.9456  0.1058  0.0826
 4519SOL    HW125193   3.216   2.027   6.227 -0.2106 -0.0246  0.8913
 4519SOL    HW225194   3.343   1.947   6.204 -0.8491  0.9740  1.2323
 4520SOL     OW25195   0.599   3.616  14.814  0.6966 -0.2121  0.2303
 4520SOL    HW125196   0.648   3.601  14.733 -0.5506 -0.6049 -0.4396
 4520SOL    HW225197   0.526   3.554  14.818  0.2985  0.2664  0.3302
 4521SOL     OW25198   0.205   0.562  14.175 -0.0839 -0.0794  0.1673
 4521SOL    HW125199   0.211   0.577  14.080 -1.5156 -0.4786  0.0081
 4521SOL    HW225200   0.111   0.552  14.190 -0.4728  3.2091 -0.2193
 4522SOL     OW25201   1.743   2.419  16.589  0.0183 -0.5631 -0.3129
 4522SOL    HW125202   1.770   2.328  16.584 -1.5449 -1.2286  3.3600
 4522SOL    HW225203   1.736   2.442  16.496  0.7251 -1.4581 -0.5870
 4523SOL     OW25204   2.621   2.874  13.454 -0.0225 -0.0890 -0.0619
 4523SOL    HW125205   2.673   2.938  13.504 -2.1695  2.3837 -1.0097
 4523SOL    HW225206   2.570   2.843  13.529  1.4009 -0.1068  0.8933
 4524SOL     OW25207   1.001   2.145   7.614 -0.2853  0.4160 -0.3434
 4524SOL    HW125208   0.911   2.173   7.600 -0.7705 -0.1428  1.5652
 4524SOL    HW225209   1.019   2.140   7.708  0.7840  0.6517 -0.5336
 4525SOL     OW25210   4.188   3.378   5.147  0.7065  0.3633  0.1151
 4525SOL    HW125211   4.252   3.443   5.119  1.0345  0.1993  0.4900
 4525SOL    HW225212   4.196   3.323   5.069 -2.0659  0.3701 -0.1815
 4526SOL     OW25213   3.048   2.817   6.433  0.0256  1.2411 -0.2036
 4526SOL    HW125214   3.079   2.887   6.491  0.0004 -0.7563  2.2164
 4526SOL    HW225215   3.051   2.748   6.499 -1.3785 -0.9133 -2.4178
 4527SOL     OW25216   1.120   3.441   9.763 -0.2502 -0.5938  0.2883
 4527SOL    HW125217   1.212   3.432   9.736  0.0948 -1.1286  1.6543
 4527SOL    HW225218   1.128   3.500   9.837  0.3880 -0.8799  0.4542
 4528SOL     OW25219   0.426   3.547   2.609  0.3629  0.1459 -0.0054
 4528SOL    HW125220   0.497   3.576   2.666 -0.9633 -0.4334  1.9466
 4528SOL    HW225221   0.396   3.632   2.577 -2.1955 -1.0132 -0.6780
 4529SOL     OW25222   3.062   1.444   1.706 -0.3492 -0.4105 -0.2676
 4529SOL    HW125223   3.097   1.371   1.655 -1.1425 -0.4617 -0.7302
 4529SOL    HW225224   3.096   1.520   1.659  0.2315 -0.6783 -0.2810
 4530SOL     OW25225   3.271   3.686   5.064  0.0810  0.1281  0.4414
 4530SOL    HW125226   3.306   3.770   5.090  1.3775  0.1411 -1.3324
 4530SOL    HW225227   3.282   3.649   5.151 -2.2120  0.5010  0.8896
 4531SOL     OW25228   3.937   2.633  17.468 -0.5263 -0.2502  0.2202
 4531SOL    HW125229   3.911   2.575  17.396  0.9906  0.1846 -0.6858
 4531SOL    HW225230   3.853   2.624  17.512 -1.6392  1.2894 -1.5968
 4532SOL     OW25231   0.011   4.397   8.679 -0.8379  0.2435  0.1213
 4532SOL    HW125232   0.069   4.329   8.714 -0.8501  0.5824  0.7994
 4532SOL    HW225233   0.067   4.462   8.636 -1.2196 -0.4738 -1.4656
 4533SOL     OW25234   3.523   3.383  16.109 -0.5745 -0.2581 -0.6766
 4533SOL    HW125235   3.506   3.474  16.133  0.9837  0.0064 -0.5689
 4533SOL    HW225236   3.598   3.365  16.166 -1.3208  0.3240  0.4850
 4534SOL     OW25237   0.410   2.864   7.415 -0.2857 -0.9207 -0.4315
 4534SOL    HW125238   0.460   2.795   7.459 -0.5257 -0.6649  0.2509
 4534SOL    HW225239   0.486   2.903   7.372 -1.4287  0.9457 -0.7408
 4535SOL     OW25240   2.842   3.752   5.242 -0.5507 -0.6832  0.0697
 4535SOL    HW125241   2.882   3.837   5.256  0.9689 -1.1691 -1.3627
 4535SOL    HW225242   2.760   3.764   5.291 -0.3047  1.3722 -0.0268
 4536SOL     OW25243   4.456   2.212   4.899  0.2743  0.3857 -0.6716
 4536SOL    HW125244   4.496   2.162   4.828  1.1084  1.0855 -0.6969
 4536SOL    HW225245   4.368   2.176   4.888  0.6414 -0.3724 -1.1612
 4537SOL     OW25246   2.380   1.745  11.510 -0.5411 -0.0390 -0.3553
 4537SOL    HW125247   2.310   1.729  11.574 -0.1187 -0.3325  0.0341
 4537SOL    HW225248   2.318   1.729  11.439  0.3910 -1.1544 -0.9177
 4538SOL     OW25249   0.560   2.628   5.991  0.3563 -0.1236  0.0192
 4538SOL    HW125250   0.649   2.605   5.964  0.2759  1.3695 -1.5041
 4538SOL    HW225251   0.525   2.597   5.908  4.0087 -2.5790 -0.6220
 4539SOL     OW25252   3.636   0.368   2.590  0.6436 -0.1334 -0.3871
 4539SOL    HW125253   3.555   0.318   2.597  0.1959  0.5029 -1.1218
 4539SOL    HW225254   3.695   0.309   2.638  1.2545  0.6101 -0.2174
 4540SOL     OW25255   0.380   4.363   9.165 -0.6584  0.0053  0.5079
 4540SOL    HW125256   0.308   4.391   9.222 -1.6232 -0.8957 -0.2756
 4540SOL    HW225257   0.324   4.340   9.091 -0.2619 -0.7788  0.4514
 4541SOL     OW25258   0.594   4.357   1.982 -0.2564  0.5330 -0.0979
 4541SOL    HW125259   0.645   4.344   1.902  2.2459  1.4239  1.3483
 4541SOL    HW225260   0.514   4.399   1.950 -0.9366  0.1472  1.1036
 4542SOL     OW25261   1.668   1.586  15.845 -0.1166 -0.4934 -0.5871
 4542SOL    HW125262   1.652   1.504  15.891  1.2788  0.5810  1.8180
 4542SOL    HW225263   1.630   1.557  15.762  1.4457 -1.1591 -1.0588
 4543SOL     OW25264   0.926   3.603   8.512 -0.1737 -0.4990  0.6129
 4543SOL    HW125265   0.964   3.564   8.434 -0.1120  0.5460  0.1147
 4543SOL    HW225266   0.862   3.537   8.539 -2.0960  0.5679 -1.2619
 4544SOL     OW25267   4.112   1.358   3.963 -0.9880  0.2142 -0.4179
 4544SOL    HW125268   4.061   1.438   3.976  1.2191  1.5651 -0.1274
 4544SOL    HW225269   4.072   1.315   3.886 -1.6968  0.3172 -0.1092
 4545SOL     OW25270   3.128   1.972   7.260 -0.5591 -0.3549 -0.0264
 4545SOL    HW125271   3.156   2.064   7.256  0.7209 -0.5603  4.5890
 4545SOL    HW225272   3.081   1.965   7.343  1.0642  0.5342  0.9848
 4546SOL     OW25273   0.204   4.726   6.814  0.2149 -0.2344 -0.3075
 4546SOL    HW125274   0.251   4.711   6.731  0.3468  0.6680 -0.4001
 4546SOL    HW225275   0.155   4.646   6.834  0.7708 -0.3436  0.5943
 4547SOL     OW25276   0.879   3.665  14.368  0.0073  0.2871  0.4873
 4547SOL    HW125277   0.879   3.633  14.278  0.4059  0.7671  0.3187
 4547SOL    HW225278   0.925   3.747  14.351 -1.5896  0.6411 -2.0692
 4548SOL     OW25279   0.552   0.493   0.945  0.0438  0.1412  0.5752
 4548SOL    HW125280   0.574   0.423   1.006  1.0525  0.9275  1.1165
 4548SOL    HW225281   0.552   0.569   1.004 -1.4222  0.8560 -0.3542
 4549SOL     OW25282   1.870   0.844   1.529 -0.4292  0.6314 -0.0331
 4549SOL    HW125283   1.944   0.901   1.549  0.2793 -1.0264  2.0894
 4549SOL    HW225284   1.871   0.783   1.603  0.4630  1.3866  0.5804
 4550SOL     OW25285   2.583   3.499   8.741  0.0595  0.0617  0.8028
 4550SOL    HW125286   2.662   3.451   8.767 -1.0455 -1.5466  1.2090
 4550SOL    HW225287   2.610   3.589   8.726 -0.5333 -0.0170 -0.7561
 4551SOL     OW25288   3.833   3.216   6.474  0.3610  0.3652  0.1469
 4551SOL    HW125289   3.738   3.227   6.465  0.3674  2.1820  2.5287
 4551SOL    HW225290   3.859   3.253   6.390  2.4072  1.0124  1.0905
 4552SOL     OW25291   1.194   2.303  17.138 -0.3966 -0.2086  0.0951
 4552SOL    HW125292   1.117   2.357  17.152  0.1879  0.4876  0.6880
 4552SOL    HW225293   1.265   2.350  17.182 -0.8535  0.7654 -0.2204
 4553SOL     OW25294   1.168   2.302   9.068  1.2251 -0.4895 -0.2495
 4553SOL    HW125295   1.196   2.393   9.080  2.3872 -0.8405 -0.3710
 4553SOL    HW225296   1.151   2.293   8.974 -1.0510 -0.5651  0.1682
 4554SOL     OW25297   0.307   1.907   4.047  0.2872 -0.2285 -0.1135
 4554SOL    HW125298   0.335   1.816   4.061  0.7133 -0.2398 -1.0841
 4554SOL    HW225299   0.378   1.954   4.091 -0.7417  1.2354 -0.0113
 4555SOL     OW25300   2.224   3.971  14.166 -0.2725 -0.1343  0.4943
 4555SOL    HW125301   2.135   3.941  14.186  0.3122 -0.7476  2.1296
 4555SOL    HW225302   2.277   3.940  14.239 -1.0933 -1.8956  0.3415
 4556SOL     OW25303   4.541   4.070  13.120 -0.0184 -0.6486  0.0506
 4556SOL    HW125304   4.551   4.112  13.034 -2.1100 -2.3750 -1.0548
 4556SOL    HW225305   4.594   3.994  13.097 -1.4689 -1.8620  0.6788
 4557SOL     OW25306   1.433   0.532   8.297  0.3033  0.2797  0.4332
 4557SOL    HW125307   1.472   0.543   8.383 -1.3170  0.7297  1.1088
 4557SOL    HW225308   1.486   0.592   8.244 -0.5330  1.4017  0.8528
 4558SOL     OW25309   4.089   0.758   5.166 -0.2106 -0.1525  0.0000
 4558SOL    HW125310   4.039   0.838   5.150  0.5538  0.7703  2.1146
 4558SOL    HW225311   4.178   0.790   5.183 -0.7690  2.4291 -1.8503
 4559SOL     OW25312   2.791   2.558   7.026  0.3063  0.1657 -0.4652
 4559SOL    HW125313   2.758   2.585   7.112 -0.1557  0.0459 -0.6059
 4559SOL    HW225314   2.776   2.465   7.041  0.3850 -0.1350 -2.3642
 4560SOL     OW25315   4.036   3.025   6.489  0.0878  0.7778  0.4832
 4560SOL    HW125316   3.981   2.948   6.504  0.7831  0.3219  0.7226
 4560SOL    HW225317   3.976   3.099   6.484 -1.9524 -0.8837  0.5878
 4561SOL     OW25318   3.094   2.532   7.247  0.4212 -0.4234  0.1666
 4561SOL    HW125319   3.028   2.561   7.310  1.3416  1.1754  0.3990
 4561SOL    HW225320   3.108   2.615   7.202  0.6877 -0.1800  0.6982
 4562SOL     OW25321   2.966   1.454   9.336  0.3697 -0.0478  0.3311
 4562SOL    HW125322   2.967   1.479   9.243 -0.1685 -1.1545  0.0352
 4562SOL    HW225323   3.028   1.504   9.389 -1.5809  3.0752 -0.3499
 4563SOL     OW25324   3.331   3.303   3.578  0.4509  0.0829  0.3329
 4563SOL    HW125325   3.256   3.361   3.564 -0.9020 -1.8966 -0.6180
 4563SOL    HW225326   3.290   3.220   3.603 -3.2438  2.0824  1.0662
 4564SOL     OW25327   3.871   1.906   5.075  0.6801 -0.1041 -0.2391
 4564SOL    HW125328   3.930   1.977   5.050  2.2989 -1.7855 -1.1617
 4564SOL    HW225329   3.881   1.908   5.170  0.2834  2.5683 -0.2432
 4565SOL     OW25330   4.510   2.957  17.691 -0.3063  0.1136 -0.2245
 4565SOL    HW125331   4.425   2.914  17.701  1.5016 -3.2362  0.7764
 4565SOL    HW225332   4.558   2.915  17.619 -1.3776 -2.7691  0.7465
 4566SOL     OW25333   2.228   3.746  14.507  0.4102 -0.0522  0.2909
 4566SOL    HW125334   2.308   3.711  14.546  0.6373  0.7457  0.5510
 4566SOL    HW225335   2.263   3.780  14.425  1.2356 -1.0451  0.2378
 4567SOL     OW25336   2.345   2.240   3.226  0.3425 -0.0979 -0.3356
 4567SOL    HW125337   2.400   2.175   3.270  1.8847 -0.8933 -3.4375
 4567SOL    HW225338   2.312   2.182   3.157 -1.4760  1.3312 -0.7003
 4568SOL     OW25339   4.373   3.212   8.200  0.4995  0.2475 -0.6305
 4568SOL    HW125340   4.391   3.155   8.274 -2.5234  1.7828  1.2909
 4568SOL    HW225341   4.333   3.147   8.142  0.1364  0.1985 -0.3232
 4569SOL     OW25342   3.689   2.424   0.880  0.1019 -0.6036 -0.6871
 4569SOL    HW125343   3.610   2.479   0.878  1.7756  1.8005 -0.2486
 4569SOL    HW225344   3.701   2.385   0.794  0.2290 -1.2523 -0.3725
 4570SOL     OW25345   0.380   1.251  12.469 -0.3285 -0.3740 -0.2153
 4570SOL    HW125346   0.292   1.285  12.453 -0.0573  0.3996 -0.0750
 4570SOL    HW225347   0.381   1.172  12.415  0.2385  0.3282 -1.2251
 4571SOL     OW25348   3.043   0.347  10.304 -0.0694 -0.3603 -0.1683
 4571SOL    HW125349   3.083   0.261  10.299 -0.2333 -0.3940 -1.0557
 4571SOL    HW225350   2.963   0.330  10.354  0.1251 -0.2097  0.1949
 4572SOL     OW25351   3.937   3.362   2.011  0.1531 -0.1406  0.3540
 4572SOL    HW125352   3.972   3.451   2.010  1.1291 -0.5316 -0.6111
 4572SOL    HW225353   3.998   3.323   1.949 -0.9397  2.6338 -2.4445
 4573SOL     OW25354   3.805   2.386  11.852 -0.1963 -0.4804  0.5555
 4573SOL    HW125355   3.793   2.411  11.761  0.6471  1.1987  0.9065
 4573SOL    HW225356   3.898   2.365  11.859  0.3078  2.3194  2.5454
 4574SOL     OW25357   0.928   2.608   9.931  0.6941 -0.8887  0.2893
 4574SOL    HW125358   0.989   2.680   9.942 -1.0877  0.8683 -1.4164
 4574SOL    HW225359   0.861   2.656   9.882 -0.9393 -2.0861  1.3308
 4575SOL     OW25360   0.505   3.613   6.910 -0.1030  0.3010  0.0226
 4575SOL    HW125361   0.413   3.613   6.936  0.1268  4.3860  0.7515
 4575SOL    HW225362   0.533   3.688   6.963  3.4476  0.1471 -1.6150
 4576SOL     OW25363   2.112   4.046   2.569 -0.1758 -0.1861  0.4061
 4576SOL    HW125364   2.038   4.063   2.510  0.4331  3.1642  0.6012
 4576SOL    HW225365   2.117   4.124   2.625 -2.2881  1.4127 -1.6332
 4577SOL     OW25366   1.700   2.618   1.895 -1.0143 -0.2384  0.0532
 4577SOL    HW125367   1.688   2.635   1.801 -0.8859  0.3526  0.1393
 4577SOL    HW225368   1.781   2.664   1.918 -0.3850 -1.2845 -0.0632
 4578SOL     OW25369   4.533   3.373  15.127 -0.0666 -0.3937 -0.3419
 4578SOL    HW125370   4.446   3.332  15.128 -0.5483  0.6490 -0.4053
 4578SOL    HW225371   4.497   3.458  15.102 -0.0005  0.2332  1.6516
 4579SOL     OW25372   2.427   3.198   4.137  0.4612 -0.4675  0.4595
 4579SOL    HW125373   2.360   3.130   4.141 -2.1335  2.1794  1.6089
 4579SOL    HW225374   2.423   3.244   4.221  1.5488  0.5552 -0.0461
 4580SOL     OW25375   1.156   0.810   5.084 -0.5019 -0.3664 -0.5487
 4580SOL    HW125376   1.122   0.855   5.162 -2.1530 -2.1537 -0.2428
 4580SOL    HW225377   1.104   0.730   5.084 -1.0309 -0.0261 -0.9262
 4581SOL     OW25378   2.614   1.269   2.654  0.5101 -0.8326  0.5001
 4581SOL    HW125379   2.708   1.284   2.641  0.6320 -0.9496  1.2101
 4581SOL    HW225380   2.578   1.336   2.596  0.5799 -1.1781  0.0568
 4582SOL     OW25381   2.393   0.549   3.163 -0.3144  0.1985  0.2976
 4582SOL    HW125382   2.430   0.523   3.079  0.8570 -0.3992  1.0157
 4582SOL    HW225383   2.367   0.463   3.196  0.0579  0.1997  0.5920
 4583SOL     OW25384   1.325   1.873   4.793 -0.0842 -0.1814 -0.4882
 4583SOL    HW125385   1.288   1.873   4.881  1.7160 -2.7777  0.2742
 4583SOL    HW225386   1.277   1.797   4.761 -1.2956  0.1453  0.5593
 4584SOL     OW25387   0.130   3.483  14.883 -0.2768  0.2589  0.5958
 4584SOL    HW125388   0.142   3.490  14.978  0.4676 -0.3886  0.5438
 4584SOL    HW225389   0.073   3.407  14.879  0.2379 -0.0405 -0.8660
 4585SOL     OW25390   4.210   4.572   4.135  0.1597  0.0620 -0.2673
 4585SOL    HW125391   4.256   4.629   4.196  1.4556  1.4534 -2.5240
 4585SOL    HW225392   4.281   4.509   4.116 -1.0922 -1.0551 -1.2569
 4586SOL     OW25393   2.985   4.196  16.093 -0.6066  0.4896 -0.0889
 4586SOL    HW125394   3.028   4.219  16.011  2.8095  1.7333  2.0756
 4586SOL    HW225395   2.954   4.107  16.075  2.1255 -0.2944 -0.9210
 4587SOL     OW25396   3.415   2.716  13.094 -0.5094  0.3559  0.0226
 4587SOL    HW125397   3.500   2.677  13.111 -0.7248  0.9439  2.4914
 4587SOL    HW225398   3.436   2.809  13.084 -0.2478  0.1834 -1.0155
 4588SOL     OW25399   3.072   0.098   5.951  0.2311  0.6748  0.0286
 4588SOL    HW125400   3.162   0.109   5.982  0.2457 -0.1581  0.2994
 4588SOL    HW225401   3.034   0.178   5.985  1.2476  0.7272  1.0406
 4589SOL     OW25402   1.154   1.034   8.235  0.5019 -0.0320  0.1874
 4589SOL    HW125403   1.176   1.014   8.144  2.2255  0.8315  0.4298
 4589SOL    HW225404   1.241   1.038   8.274  0.2831 -2.1218  0.9126
 4590SOL     OW25405   0.541   4.554   2.318  0.4228 -0.1644  0.5725
 4590SOL    HW125406   0.470   4.617   2.322  0.1040 -0.4066 -1.3791
 4590SOL    HW225407   0.531   4.519   2.230  0.1172 -0.6540  0.7980
 4591SOL     OW25408   4.675   1.075   6.965  0.3648 -0.6496 -0.6514
 4591SOL    HW125409   4.703   1.002   7.020 -0.6712 -0.6158 -0.0879
 4591SOL    HW225410   4.717   1.056   6.880  0.5807 -2.5703 -0.1319
 4592SOL     OW25411   4.685   3.037   7.762  0.2203  0.2229 -0.2611
 4592SOL    HW125412   0.026   2.980   7.773  0.9075  1.7686  3.0203
 4592SOL    HW225413   4.624   2.994   7.702 -0.1606 -0.3048  0.5108
 4593SOL     OW25414   3.877   4.074   5.301 -0.0923  0.5721 -0.2067
 4593SOL    HW125415   3.802   4.070   5.360 -0.6168  0.5169 -0.8778
 4593SOL    HW225416   3.839   4.125   5.229 -0.8511  0.6675  0.2614
 4594SOL     OW25417   4.294   2.642   8.849 -0.1848 -0.2515 -0.1801
 4594SOL    HW125418   4.359   2.688   8.903 -0.1789 -0.4717 -0.0001
 4594SOL    HW225419   4.335   2.556   8.845  0.2225 -0.2346  3.2328
 4595SOL     OW25420   0.216   1.773   6.229  0.2544  0.0536 -0.5778
 4595SOL    HW125421   0.224   1.824   6.148  2.1226  0.4125 -0.1734
 4595SOL    HW225422   0.157   1.825   6.283 -0.9330 -2.6564  0.7277
 4596SOL     OW25423   3.055   4.491   6.951  0.0967 -0.3119  0.6654
 4596SOL    HW125424   3.111   4.566   6.968  2.0738 -1.6443 -0.0311
 4596SOL    HW225425   3.084   4.428   7.016  0.4419  0.2291  1.0295
 4597SOL     OW25426   1.498   3.805   1.127 -0.1145 -0.1546  0.8128
 4597SOL    HW125427   1.414   3.795   1.082  0.4484 -0.6148 -0.1155
 4597SOL    HW225428   1.539   3.851   1.054  1.6846  0.7007  2.3739
 4598SOL     OW25429   4.315   4.407   1.702 -0.1164 -0.7640 -0.0916
 4598SOL    HW125430   4.361   4.351   1.764  1.1106  0.2833 -0.0538
 4598SOL    HW225431   4.223   4.397   1.727  0.4999  0.1997  2.5188
 4599SOL     OW25432   0.195   2.472   8.885  0.6510  0.4063 -0.3856
 4599SOL    HW125433   0.218   2.401   8.825  1.1492 -0.3644  0.7191
 4599SOL    HW225434   0.199   2.546   8.824 -0.0881  0.1229 -0.7900
 4600SOL     OW25435   2.278   0.346   9.175 -0.4812 -0.4532 -0.3575
 4600SOL    HW125436   2.292   0.254   9.153  0.3179 -0.1563 -1.0670
 4600SOL    HW225437   2.259   0.386   9.090 -0.2314  1.0613  0.3010
 4601SOL     OW25438   1.480   0.982   1.561 -0.2071 -0.3007 -0.1585
 4601SOL    HW125439   1.432   0.982   1.479  1.6308  2.0198 -1.2426
 4601SOL    HW225440   1.416   1.030   1.614 -0.4244  0.4399 -1.1054
 4602SOL     OW25441   1.763   4.684   2.634  0.2317  0.5428 -0.4327
 4602SOL    HW125442   1.699   4.676   2.704 -0.5022 -0.3243 -1.1994
 4602SOL    HW225443   1.746   0.040   2.608 -0.4590  0.4867 -0.1579
 4603SOL     OW25444   1.795   2.925   4.255 -0.1041 -0.1193  0.1443
 4603SOL    HW125445   1.825   3.014   4.268 -0.8087  0.3369 -1.3099
 4603SOL    HW225446   1.807   2.916   4.160 -0.9513 -0.0940  0.0296
 4604SOL     OW25447   4.575   1.479   9.585  0.4193 -0.0873 -0.4438
 4604SOL    HW125448   4.628   1.421   9.530 -0.5817 -1.6979  0.3047
 4604SOL    HW225449   4.597   1.454   9.675 -3.4490 -1.8357 -0.0259
 4605SOL     OW25450   2.648   0.083   5.962 -0.2700  0.2626 -0.7019
 4605SOL    HW125451   2.574   0.027   5.938 -0.9243  1.2907 -1.0885
 4605SOL    HW225452   2.616   0.111   6.048 -0.1475  0.8070 -0.8371
 4606SOL     OW25453   3.719   1.351   3.211 -0.0573 -0.5245 -0.1103
 4606SOL    HW125454   3.725   1.421   3.147  1.1868 -1.0592 -0.5980
 4606SOL    HW225455   3.702   1.267   3.167  0.1419 -1.2536  1.2078
 4607SOL     OW25456   0.655   2.910   2.533 -0.3246 -0.1342  0.5375
 4607SOL    HW125457   0.732   2.901   2.477 -1.8642 -0.4470 -1.5240
 4607SOL    HW225458   0.587   2.870   2.480  0.1257  0.8923 -0.8140
 4608SOL     OW25459   0.660   3.539   2.744  0.4611 -0.0979 -0.1059
 4608SOL    HW125460   0.608   3.459   2.755  0.1188 -0.0147 -1.0820
 4608SOL    HW225461   0.748   3.528   2.779  1.2552 -1.4826 -2.5167
 4609SOL     OW25462   0.908   4.500   4.331 -0.2543  0.1978 -0.3129
 4609SOL    HW125463   0.837   4.444   4.301 -1.6289  2.4690 -1.2407
 4609SOL    HW225464   0.975   4.431   4.326  1.4701  1.9506 -1.3378
 4610SOL     OW25465   1.113   2.824   7.289  0.0897  0.3127 -0.3752
 4610SOL    HW125466   1.058   2.879   7.234  0.0066  0.5157 -0.0892
 4610SOL    HW225467   1.093   2.733   7.268  1.7265 -0.2442  0.4711
 4611SOL     OW25468   0.366   1.394  17.684  0.3085 -0.3239 -0.2962
 4611SOL    HW125469   0.319   1.418  17.605 -2.1713 -1.6761  0.7591
 4611SOL    HW225470   0.302   1.336  17.725 -0.6461  0.7606 -0.2527
 4612SOL     OW25471   0.232   3.101   2.979 -0.1980  0.3395 -0.1212
 4612SOL    HW125472   0.269   3.039   2.916 -0.4434 -0.8291  0.8942
 4612SOL    HW225473   0.262   3.184   2.942  0.1988  0.6614  0.9190
 4613SOL     OW25474   4.188   2.633   7.225 -0.5157  0.4858  0.0667
 4613SOL    HW125475   4.215   2.665   7.139  1.8144 -0.3322  0.4895
 4613SOL    HW225476   4.093   2.621   7.226 -0.3584 -1.0097 -2.1008
 4614SOL     OW25477   3.362   3.548   6.305  0.2235 -0.0898 -0.6690
 4614SOL    HW125478   3.308   3.602   6.247 -0.9002 -0.6343 -0.1192
 4614SOL    HW225479   3.300   3.541   6.377  0.2720  2.4097 -0.3952
 4615SOL     OW25480   2.546   0.299  15.956 -0.1071 -0.3436  0.2810
 4615SOL    HW125481   2.584   0.363  16.017  0.6193  0.8306 -1.4126
 4615SOL    HW225482   2.491   0.358  15.905  0.3262  1.1730  1.5371
 4616SOL     OW25483   4.634   3.157   8.495  0.5184  0.2631  0.3043
 4616SOL    HW125484   4.591   3.243   8.491  1.0387  0.6153  2.1998
 4616SOL    HW225485   4.560   3.117   8.450  0.0578  2.1709 -0.6803
 4617SOL     OW25486   0.191   2.356  13.438  0.4140 -0.0040 -0.0375
 4617SOL    HW125487   0.187   2.311  13.353 -2.2654 -0.1438  0.1609
 4617SOL    HW225488   0.254   2.300  13.484 -0.7641 -1.1198  0.2191
 4618SOL     OW25489   2.347   0.338  11.214 -0.4425 -0.3761 -0.0034
 4618SOL    HW125490   2.412   0.269  11.230  1.8947  1.7978 -0.0733
 4618SOL    HW225491   2.297   0.299  11.143  0.6230  0.9619 -1.4652
 4619SOL     OW25492   1.695   2.810  10.436 -0.0732  0.7088  0.3584
 4619SOL    HW125493   1.714   2.717  10.443  1.0575  1.0089  1.2554
 4619SOL    HW225494   1.601   2.808  10.450  0.0435  2.0535  1.3616
 4620SOL     OW25495   1.117   3.529  10.443  0.1860 -0.5814  0.1770
 4620SOL    HW125496   1.123   3.451  10.388 -0.1307 -1.1808  1.0081
 4620SOL    HW225497   1.201   3.570  10.464 -1.4449  2.2187  1.2450
 4621SOL     OW25498   3.082   3.801   4.157  0.2634  0.3309 -0.2217
 4621SOL    HW125499   3.111   3.712   4.135  1.6581  1.1072 -1.5100
 4621SOL    HW225500   3.049   3.827   4.071 -0.3850  1.8607  0.4988
 4622SOL     OW25501   0.682   0.264  10.315  0.2106 -0.0932 -0.0073
 4622SOL    HW125502   0.675   0.178  10.355  2.3430  0.4510  1.5453
 4622SOL    HW225503   0.714   0.225  10.233  1.4087 -0.0428  0.4308
 4623SOL     OW25504   4.511   2.021   3.301  0.2057 -0.1064  0.3975
 4623SOL    HW125505   4.540   1.997   3.389  0.0760 -1.9688 -0.0662
 4623SOL    HW225506   4.535   2.113   3.296  1.0180 -0.3329  0.1801
 4624SOL     OW25507   3.376   3.037   3.165  0.2826  0.0915 -0.2447
 4624SOL    HW125508   3.391   3.116   3.218  1.1212  0.3549 -0.8770
 4624SOL    HW225509   3.451   2.980   3.178 -1.0795 -1.3824  1.1715
 4625SOL     OW25510   2.021   1.550   9.525  0.3434 -0.2391  0.1877
 4625SOL    HW125511   2.035   1.491   9.598  1.2362  0.6782  0.7662
 4625SOL    HW225512   2.082   1.513   9.461 -0.0860  0.5544 -0.6809
 4626SOL     OW25513   0.915   2.368  16.070  0.3712  0.4074 -0.3558
 4626SOL    HW125514   1.010   2.363  16.066  0.4304  0.3182  1.1889
 4626SOL    HW225515   0.905   2.459  16.042  1.1528  0.7336  0.4530
 4627SOL     OW25516   4.471   0.660   9.203  0.1416  0.6770  0.1062
 4627SOL    HW125517   4.488   0.754   9.212 -1.6893  1.0597 -0.5639
 4627SOL    HW225518   4.543   0.638   9.144 -1.1266 -0.5395 -0.9826
 4628SOL     OW25519   1.990   2.292   9.426 -0.0052  0.5896 -0.4115
 4628SOL    HW125520   1.899   2.268   9.410  0.2110 -0.3619 -0.1658
 4628SOL    HW225521   1.974   2.372   9.476  0.8629  2.6218 -3.3764
 4629SOL     OW25522   4.210   2.786   8.184  0.0419  0.1713 -0.5988
 4629SOL    HW125523   4.251   2.741   8.258 -0.1254 -0.6795 -1.0330
 4629SOL    HW225524   4.128   2.808   8.229  2.5959  3.2007  2.6376
 4630SOL     OW25525   1.446   1.216   3.729  0.2513 -0.6074 -0.6937
 4630SOL    HW125526   1.470   1.223   3.636 -1.2950  1.2061 -0.9584
 4630SOL    HW225527   1.476   1.302   3.760  1.1013 -1.7407  1.6274
 4631SOL     OW25528   4.015   3.846   3.121  0.5056 -0.4900 -0.6742
 4631SOL    HW125529   3.942   3.851   3.060 -0.0645  1.2175  0.1437
 4631SOL    HW225530   4.043   3.755   3.111 -0.2120 -0.6455 -1.2537
 4632SOL     OW25531   0.637   3.221   8.789 -0.3936  0.3423 -0.0692
 4632SOL    HW125532   0.630   3.126   8.797  1.6116  0.0873 -1.6604
 4632SOL    HW225533   0.600   3.232   8.701  0.2126 -0.8264 -0.4718
 4633SOL     OW25534   2.666   1.561   8.639 -0.0461 -0.5359 -0.0329
 4633SOL    HW125535   2.640   1.484   8.588  1.5041 -0.3281 -1.1312
 4633SOL    HW225536   2.752   1.528   8.664  0.2759  0.5128  0.2545
 4634SOL     OW25537   0.919   3.190   4.465 -0.6250  0.4224  0.1286
 4634SOL    HW125538   0.897   3.152   4.380  1.2589 -0.3743 -0.0024
 4634SOL    HW225539   0.928   3.107   4.513  0.2458  0.1496 -0.5040
 4635SOL     OW25540   0.032   4.571   1.297  0.1725  0.6324 -0.0700
 4635SOL    HW125541   4.722   4.590   1.214 -0.2416  0.4525  0.1137
 4635SOL    HW225542   0.065   4.483   1.277 -1.2473 -0.3393  1.9167
 4636SOL     OW25543   1.231   2.849   6.914 -0.4358  0.0521 -0.9755
 4636SOL    HW125544   1.212   2.942   6.911 -1.2314 -0.1414 -2.1385
 4636SOL    HW225545   1.326   2.849   6.922 -0.2429  1.1969 -3.2914
 4637SOL     OW25546   4.346   0.602   5.911 -0.3360 -0.2127 -0.4497
 4637SOL    HW125547   4.293   0.680   5.899  0.6578  0.2966 -1.5056
 4637SOL    HW225548   4.285   0.531   5.890  0.3866 -1.0675  0.3167
 4638SOL     OW25549   4.406   1.795  17.696  0.1223 -0.5431  0.6874
 4638SOL    HW125550   4.378   1.737   0.029  0.8059  3.1561  4.0222
 4638SOL    HW225551   4.390   1.749  17.613 -0.2770  1.8648 -0.5798
 4639SOL     OW25552   2.460   0.558   3.492  0.8204  0.5989 -0.2647
 4639SOL    HW125553   2.451   0.474   3.539 -2.6818  1.5505  0.7639
 4639SOL    HW225554   2.554   0.548   3.508  0.7636  0.3338 -0.0875
 4640SOL     OW25555   3.884   2.258   6.727 -0.2927  0.2959  0.6127
 4640SOL    HW125556   3.957   2.321   6.724 -0.4055  0.3365 -1.8370
 4640SOL    HW225557   3.915   2.190   6.667  1.3567  3.1730 -1.8074
 4641SOL     OW25558   2.229   4.174   5.068  0.0069  0.2914 -0.0659
 4641SOL    HW125559   2.233   4.270   5.061  1.0215  0.1811 -0.8976
 4641SOL    HW225560   2.168   4.162   5.141  1.6245  1.0537  1.4116
 4642SOL     OW25561   0.541   4.342   8.368 -0.0549  0.3107  0.4945
 4642SOL    HW125562   0.546   4.354   8.462  0.6140 -0.5630  0.5637
 4642SOL    HW225563   0.631   4.358   8.341  0.0385  1.7361  1.7211
 4643SOL     OW25564   1.889   4.401  12.744 -0.4407  0.2040  0.0355
 4643SOL    HW125565   1.891   4.431  12.653  3.1262  1.0007  0.3567
 4643SOL    HW225566   1.884   4.306  12.737  0.8823  0.1839 -0.6096
 4644SOL     OW25567   1.452   3.531   4.381  0.7997  0.1053  0.1578
 4644SOL    HW125568   1.526   3.553   4.324 -0.0369  0.3460 -0.8356
 4644SOL    HW225569   1.481   3.445   4.412 -0.9752  0.6609  3.2705
 4645SOL     OW25570   3.361   1.745  15.999 -0.1469  0.4919  0.0627
 4645SOL    HW125571   3.337   1.660  15.964  0.0418  0.6184 -0.3718
 4645SOL    HW225572   3.309   1.795  15.936  3.4972  2.1178 -1.6916
 4646SOL     OW25573   3.312   0.363  11.837 -0.4118  0.6860 -0.3210
 4646SOL    HW125574   3.253   0.344  11.910 -0.7164  2.8191 -0.0081
 4646SOL    HW225575   3.386   0.313  11.872 -1.1565  0.4269  0.8873
 4647SOL     OW25576   3.158   2.911   3.984  0.1859  0.2307 -0.1879
 4647SOL    HW125577   3.083   2.947   4.032  0.3157 -2.3171  1.9376
 4647SOL    HW225578   3.200   2.993   3.961  2.8668 -0.9003  0.6698
 4648SOL     OW25579   3.591   3.625   7.954 -0.4010  0.4983 -0.3239
 4648SOL    HW125580   3.532   3.632   7.879 -1.7041 -0.1597  0.6350
 4648SOL    HW225581   3.532   3.654   8.024 -0.7979  1.8837 -1.2560
 4649SOL     OW25582   2.401   3.865  14.331  0.1152 -0.3237 -0.2736
 4649SOL    HW125583   2.430   3.787  14.284 -1.6573 -0.0947 -1.7676
 4649SOL    HW225584   2.481   3.914  14.348  0.9121 -2.3008  1.6872
 4650SOL     OW25585   4.043   3.118   1.183 -0.1162 -0.3756  0.3776
 4650SOL    HW125586   3.998   3.095   1.101  1.9630 -3.0423 -0.0051
 4650SOL    HW225587   4.069   3.033   1.219 -0.4616 -1.0949 -1.0749
 4651SOL     OW25588   3.911   4.473  15.841 -0.2760 -0.6694  0.2491
 4651SOL    HW125589   3.973   4.437  15.778 -2.1148 -1.3063 -1.1914
 4651SOL    HW225590   3.858   4.523  15.779 -1.0950 -2.3706 -0.4109
 4652SOL     OW25591   2.202   4.648  13.454 -0.1133 -0.0444  0.3326
 4652SOL    HW125592   2.245   4.566  13.476  0.6931 -0.1778 -1.7424
 4652SOL    HW225593   2.119   4.637  13.502 -1.1062  0.1445 -1.3373
 4653SOL     OW25594   4.315   2.434   8.112  0.1678  0.2819  0.3496
 4653SOL    HW125595   4.264   2.496   8.164 -0.9180  0.0151 -0.3940
 4653SOL    HW225596   4.242   2.398   8.060  1.4089 -0.2038 -1.0650
 4654SOL     OW25597   1.030   3.702  12.239 -0.5681 -0.0042 -0.5771
 4654SOL    HW125598   1.032   3.796  12.224  0.3482 -0.3473 -2.6153
 4654SOL    HW225599   1.063   3.690  12.328  0.8069 -0.0340 -1.0909
 4655SOL     OW25600   0.253   0.790   9.715 -0.1792 -0.2708 -0.4737
 4655SOL    HW125601   0.348   0.786   9.727 -0.1178 -0.9024 -1.1423
 4655SOL    HW225602   0.223   0.700   9.700 -1.3527 -0.0337  0.4293
 4656SOL     OW25603   2.120   1.809   6.005 -0.3310 -0.3789  0.3474
 4656SOL    HW125604   2.130   1.791   5.911 -1.5267  0.6039  0.0338
 4656SOL    HW225605   2.212   1.794   6.026 -0.6459  0.5897  2.4266
 4657SOL     OW25606   1.292   2.032  16.600 -0.2831 -0.4191 -0.1938
 4657SOL    HW125607   1.322   2.061  16.686 -1.4140 -1.3366  0.5142
 4657SOL    HW225608   1.214   1.978  16.612 -1.9068  1.3442 -2.9001
 4658SOL     OW25609   4.014   1.126  16.280 -0.1264 -0.6442  0.1575
 4658SOL    HW125610   3.923   1.153  16.281  0.4305  1.2987 -1.4140
 4658SOL    HW225611   4.044   1.179  16.206  1.0425  2.6385  2.9740
 4659SOL     OW25612   2.942   1.050   6.724  0.3725 -0.7315 -0.2091
 4659SOL    HW125613   2.950   1.060   6.819 -0.3013 -1.1145 -0.1147
 4659SOL    HW225614   2.848   1.038   6.717  0.6502 -2.5352 -0.7876
 4660SOL     OW25615   0.783   2.289   4.477 -0.7521  0.1037  0.1369
 4660SOL    HW125616   0.700   2.244   4.463 -0.4176 -0.7799  1.0169
 4660SOL    HW225617   0.840   2.219   4.510  0.5136  2.0041  1.9852
 4661SOL     OW25618   0.574   0.561   7.269 -0.3979  0.2166  0.4208
 4661SOL    HW125619   0.503   0.581   7.209  1.4294  1.8703 -1.1692
 4661SOL    HW225620   0.649   0.535   7.216 -0.2767 -2.8133  2.0253
 4662SOL     OW25621   1.519   2.113   7.678 -0.3053 -0.2588  0.3361
 4662SOL    HW125622   1.567   2.035   7.649 -1.6417 -1.2750  0.8617
 4662SOL    HW225623   1.592   2.175   7.670 -0.5534  0.1213  1.0609
 4663SOL     OW25624   4.336   2.833   0.360  0.1043 -0.0789 -0.4980
 4663SOL    HW125625   4.271   2.776   0.320 -0.6458  0.2521  0.2426
 4663SOL    HW225626   4.385   2.767   0.408 -1.4713 -0.0116  1.2104
 4664SOL     OW25627   3.381   1.856   0.310 -0.2197  0.0363 -0.2264
 4664SOL    HW125628   3.375   1.858   0.214 -0.8266 -0.1067 -0.1871
 4664SOL    HW225629   3.322   1.785   0.334  0.6188 -0.3742  0.6297
 4665SOL     OW25630   4.728   1.738   2.683 -0.2776 -0.5865  0.4209
 4665SOL    HW125631   4.648   1.718   2.634 -0.0537  2.9507 -1.3506
 4665SOL    HW225632   4.698   1.769   2.769  1.0398  3.5298 -0.6143
 4666SOL     OW25633   0.159   2.059   2.298 -0.0528 -0.3412 -0.1150
 4666SOL    HW125634   0.099   2.024   2.364 -1.3974 -1.3370 -1.8657
 4666SOL    HW225635   0.176   1.991   2.232  0.6885 -0.1104 -0.1641
 4667SOL     OW25636   4.512   3.223   3.296  0.3148  0.0889 -0.1375
 4667SOL    HW125637   4.534   3.203   3.387 -2.0928  2.6518  1.0043
 4667SOL    HW225638   4.474   3.142   3.261  2.3918 -0.8952 -0.1194
 4668SOL     OW25639   2.743   0.186   8.650 -0.3835 -0.0743  0.2023
 4668SOL    HW125640   2.712   0.269   8.612  2.0079  0.3003 -0.8859
 4668SOL    HW225641   2.768   0.224   8.734  1.0617 -1.1290  0.2407
 4669SOL     OW25642   0.918   2.829   6.020  0.4856  0.7000  0.2726
 4669SOL    HW125643   0.916   2.920   6.048  1.4435  0.2882  1.6888
 4669SOL    HW225644   0.947   2.834   5.928 -1.1884 -2.7477 -0.4380
 4670SOL     OW25645   0.081   2.647   7.583 -0.2855  0.2874 -0.1575
 4670SOL    HW125646   0.147   2.578   7.593 -0.9077 -0.4597 -1.2034
 4670SOL    HW225647   0.127   2.721   7.542 -3.0441  0.5372 -2.7128
 4671SOL     OW25648   2.871   3.573  17.085  0.6787 -0.2751  0.3678
 4671SOL    HW125649   2.937   3.535  17.027  1.6728  0.3686  1.0777
 4671SOL    HW225650   2.855   3.493  17.136  0.1373 -1.6592 -1.9371
 4672SOL     OW25651   4.429   0.246   4.017 -0.5703  0.3180  0.3577
 4672SOL    HW125652   4.510   0.273   4.060 -0.4936  2.8735 -1.4401
 4672SOL    HW225653   4.372   0.323   4.022 -0.4334  0.4357  0.0779
 4673SOL     OW25654   0.832   2.574   3.758  0.5069  0.1056 -0.3646
 4673SOL    HW125655   0.746   2.577   3.717 -0.0702 -1.7889  0.6856
 4673SOL    HW225656   0.850   2.664   3.786 -2.7548  0.4423  0.6496
 4674SOL     OW25657   1.577   1.408   2.480 -0.5186 -0.0506  0.1943
 4674SOL    HW125658   1.524   1.344   2.433 -3.1529  2.9088 -0.9209
 4674SOL    HW225659   1.642   1.348   2.515  1.7135  2.5963  0.5899
 4675SOL     OW25660   2.339   1.777   7.016  0.0901  0.0570 -0.0199
 4675SOL    HW125661   2.296   1.838   7.077 -0.4177 -0.3628  0.0392
 4675SOL    HW225662   2.304   1.801   6.930 -0.8163  2.1820  0.9373
 4676SOL     OW25663   1.086   4.290  10.155 -0.3140  0.0550 -0.2321
 4676SOL    HW125664   1.097   4.337  10.072  0.3212  0.0667 -0.1407
 4676SOL    HW225665   0.993   4.310  10.166  0.3496  2.7150  0.5522
 4677SOL     OW25666   1.840   2.584   5.131 -0.5931 -1.2943 -0.7259
 4677SOL    HW125667   1.779   2.619   5.067  0.5773  1.7764 -0.1388
 4677SOL    HW225668   1.792   2.502   5.142 -0.1218 -1.4933 -0.1565
 4678SOL     OW25669   0.876   3.308   6.730  0.6765  0.1277 -0.2336
 4678SOL    HW125670   0.911   3.310   6.641 -0.2735  0.5498 -0.6009
 4678SOL    HW225671   0.783   3.286   6.720  0.8758 -0.5012 -0.6526
 4679SOL     OW25672   4.560   1.901  16.245  0.0681  0.0548  0.1980
 4679SOL    HW125673   4.486   1.899  16.184 -0.4850  3.3553  0.7802
 4679SOL    HW225674   4.585   1.993  16.256  1.2410 -0.3683  0.9974
 4680SOL     OW25675   0.859   0.418   2.270  0.0377 -0.0167 -0.5996
 4680SOL    HW125676   0.838   0.332   2.305 -1.8125  0.3002 -0.9396
 4680SOL    HW225677   0.872   0.467   2.351 -1.6133  1.0441 -0.9808
 4681SOL     OW25678   4.271   2.799  14.834  0.2929 -0.2991  0.1255
 4681SOL    HW125679   4.327   2.721  14.838 -1.9122 -1.7638  2.1058
 4681SOL    HW225680   4.189   2.761  14.866 -0.3115  0.5362 -0.4264
 4682SOL     OW25681   4.482   2.653   5.597  0.3248  0.3608 -0.1009
 4682SOL    HW125682   4.421   2.615   5.660  2.4713 -0.6853  1.3369
 4682SOL    HW225683   4.491   2.589   5.527  0.5396  0.6558 -0.3402
 4683SOL     OW25684   4.559   2.974   2.286  0.6777  0.4933  0.4053
 4683SOL    HW125685   4.485   2.927   2.323  3.1532 -3.2109  0.5884
 4683SOL    HW225686   4.618   2.951   2.358  1.1592 -0.0873 -0.1748
 4684SOL     OW25687   4.171   2.513  12.076 -0.5458 -0.0357  0.0463
 4684SOL    HW125688   4.081   2.536  12.097 -1.1234 -1.9553 -0.3457
 4684SOL    HW225689   4.199   2.466  12.155  0.6054 -0.7364 -0.7649
 4685SOL     OW25690   2.574   1.787   9.377 -0.8957  0.0839 -0.0500
 4685SOL    HW125691   2.657   1.742   9.362 -0.4876  1.2028 -1.1709
 4685SOL    HW225692   2.591   1.846   9.451 -1.6684 -1.1324  1.1028
 4686SOL     OW25693   2.207   3.444  11.793 -0.4904 -0.2631 -0.0909
 4686SOL    HW125694   2.201   3.393  11.713  1.4969 -0.0130 -0.4034
 4686SOL    HW225695   2.252   3.381  11.849 -0.3464  0.5729  0.7367
 4687SOL     OW25696   1.477   3.656  15.969  0.1811 -0.0132 -0.2113
 4687SOL    HW125697   1.445   3.679  16.055  0.3080  0.4071 -0.2801
 4687SOL    HW225698   1.493   3.561  15.965 -1.9040 -0.4117  1.7478
 4688SOL     OW25699   1.771   1.426  16.584  0.0096 -0.1612 -0.0589
 4688SOL    HW125700   1.860   1.432  16.618  0.9792 -0.3390 -2.6150
 4688SOL    HW225701   1.731   1.388  16.663 -1.4592 -0.3357 -0.8986
 4689SOL     OW25702   2.130   3.550  13.737  0.7549 -0.3330 -0.4564
 4689SOL    HW125703   2.094   3.638  13.725 -0.7003 -0.7708  0.7226
 4689SOL    HW225704   2.051   3.497  13.722  1.8109 -2.1349  0.5052
 4690SOL     OW25705   2.084   4.406   8.814  0.2714 -0.3357 -0.4228
 4690SOL    HW125706   2.106   4.477   8.753  0.7316 -0.6280 -0.6038
 4690SOL    HW225707   1.998   4.375   8.786  0.1703 -2.9831  2.7912
 4691SOL     OW25708   4.563   1.330   4.175  0.1551 -0.0794  0.1561
 4691SOL    HW125709   4.530   1.347   4.087  0.7120 -3.6405 -0.7600
 4691SOL    HW225710   4.497   1.265   4.201 -1.8510  1.4362 -1.1956
 4692SOL     OW25711   4.068   2.222   6.395 -0.4300  0.6310  0.8767
 4692SOL    HW125712   4.117   2.204   6.314 -1.7083  0.9268  0.0287
 4692SOL    HW225713   4.079   2.133   6.429 -0.5939  0.2748  0.0089
 4693SOL     OW25714   1.573   4.072  13.798 -0.3125 -0.3502  0.5405
 4693SOL    HW125715   1.625   4.152  13.798  1.5155 -1.5271 -3.9786
 4693SOL    HW225716   1.597   4.041  13.710 -0.9559 -1.0307  0.5998
 4694SOL     OW25717   4.532   1.944   9.216  0.4490  0.2292 -0.2964
 4694SOL    HW125718   4.487   1.917   9.296  0.4207  0.6384 -0.1757
 4694SOL    HW225719   4.530   1.864   9.163 -0.3911  0.2690 -0.3255
 4695SOL     OW25720   2.742   0.417   8.512 -0.4835 -0.7523  1.0994
 4695SOL    HW125721   2.809   0.410   8.445 -1.1603 -0.0166  0.3312
 4695SOL    HW225722   2.756   0.505   8.547 -0.9338 -0.6430  1.0099
 4696SOL     OW25723   1.121   2.604   4.689  0.1394 -0.1494 -0.2462
 4696SOL    HW125724   1.031   2.626   4.712  0.9624  2.6671  0.3821
 4696SOL    HW225725   1.115   2.510   4.703  0.3745 -0.2745 -0.9815
 4697SOL     OW25726   1.939   2.312   5.727  0.0727 -0.3337  0.0493
 4697SOL    HW125727   1.945   2.370   5.652 -0.1898  0.6117  0.7575
 4697SOL    HW225728   1.951   2.366   5.805  2.6069 -0.1267 -0.4851
 4698SOL     OW25729   0.072   1.318  15.182  0.2862 -0.7951  0.0458
 4698SOL    HW125730   0.036   1.243  15.136 -0.4690  1.6215 -3.3158
 4698SOL    HW225731   0.149   1.279  15.223 -0.0243 -0.2107  1.1864
 4699SOL     OW25732   0.280   3.337   8.794 -0.2466 -0.3080  0.1756
 4699SOL    HW125733   0.357   3.328   8.737  0.7455 -1.3519  1.6518
 4699SOL    HW225734   0.316   3.403   8.854  1.5822 -0.3675 -0.8460
 4700SOL     OW25735   1.866   0.668   3.939 -0.8803  0.0980 -0.1821
 4700SOL    HW125736   1.826   0.725   4.005 -0.5605 -1.1954  1.1400
 4700SOL    HW225737   1.905   0.738   3.888  0.0107 -0.7518 -0.6709
 4701SOL     OW25738   0.706   1.192   8.729 -0.4942  0.1766 -0.6443
 4701SOL    HW125739   0.703   1.247   8.807  1.3346 -0.5340 -0.0939
 4701SOL    HW225740   0.636   1.127   8.740 -1.0704  0.7985 -0.6703
 4702SOL     OW25741   3.487   4.031  10.053 -0.4901 -0.3875  0.5834
 4702SOL    HW125742   3.463   4.120  10.029  0.2025 -0.6225 -0.9996
 4702SOL    HW225743   3.461   4.022  10.144  2.5883 -0.7666  1.4530
 4703SOL     OW25744   3.872   1.902   2.919 -0.0741 -0.7682  0.2458
 4703SOL    HW125745   3.866   1.942   2.832 -0.1838  2.2312  1.6308
 4703SOL    HW225746   3.933   1.963   2.960  1.1991 -0.7584 -1.6407
 4704SOL     OW25747   1.574   1.106   2.139  0.1417  0.0516  0.6814
 4704SOL    HW125748   1.521   1.166   2.087  0.0180  0.7369  1.5904
 4704SOL    HW225749   1.506   1.044   2.168  0.3142 -0.6933 -0.5058
 4705SOL     OW25750   1.253   4.003   8.156 -0.1886  0.1249 -0.3932
 4705SOL    HW125751   1.247   3.998   8.252 -0.0668 -2.9695 -0.5603
 4705SOL    HW225752   1.237   4.097   8.146  2.1004  0.7187  1.5295
 4706SOL     OW25753   2.125   3.430   4.213  0.0865  0.0189  0.3967
 4706SOL    HW125754   2.075   3.501   4.174  3.2866  1.3378 -1.2848
 4706SOL    HW225755   2.215   3.447   4.185  0.1106 -2.6007 -1.1085
 4707SOL     OW25756   2.947   2.702   8.484  0.4152  0.1988  0.3244
 4707SOL    HW125757   3.016   2.706   8.550 -0.6560 -2.6215  1.6240
 4707SOL    HW225758   2.944   2.608   8.465  1.0452 -0.4412  3.5222
 4708SOL     OW25759   2.668   3.415  10.110 -0.2735  0.0053  0.2898
 4708SOL    HW125760   2.658   3.320  10.118  1.0450  0.0426  2.3858
 4708SOL    HW225761   2.580   3.436  10.140 -0.8091  0.0769 -1.3186
 4709SOL     OW25762   3.912   2.558  11.604  0.0865  0.5853 -0.3439
 4709SOL    HW125763   3.946   2.641  11.568  1.3010 -0.1153 -0.8393
 4709SOL    HW225764   3.838   2.535  11.547 -0.7385 -1.6008  1.6230
 4710SOL     OW25765   3.770   2.385  15.243 -0.7927 -0.6272 -0.2378
 4710SOL    HW125766   3.790   2.423  15.328 -0.7178  0.8488 -0.9258
 4710SOL    HW225767   3.843   2.322  15.243 -1.4118 -1.3512  0.0254
 4711SOL     OW25768   3.856   2.179  14.262  0.7687  0.3172 -0.0459
 4711SOL    HW125769   3.837   2.266  14.226 -1.5139  0.3694  1.2893
 4711SOL    HW225770   3.821   2.120  14.195 -0.5071  0.6218  0.3426
 4712SOL     OW25771   0.481   3.329   4.642  0.0257 -0.0676 -0.0975
 4712SOL    HW125772   0.576   3.321   4.641  0.1161  1.0667 -0.1648
 4712SOL    HW225773   0.456   3.285   4.560  0.3210  0.9646 -0.7450
 4713SOL     OW25774   1.480   0.609   3.382 -0.5515 -0.4064 -0.2022
 4713SOL    HW125775   1.425   0.619   3.460  0.7016 -0.3629  0.6676
 4713SOL    HW225776   1.548   0.549   3.413  0.2175  1.3211  1.3962
 4714SOL     OW25777   2.271   0.108   3.466 -0.5108  0.1299 -0.8521
 4714SOL    HW125778   2.349   0.069   3.506 -0.8586  0.0125 -0.2891
 4714SOL    HW225779   2.243   0.176   3.527  1.2452 -0.2487  0.3890
 4715SOL     OW25780   2.580   0.274   4.784  0.2267 -0.7076 -0.0345
 4715SOL    HW125781   2.496   0.272   4.739 -0.2911 -2.2949  0.9900
 4715SOL    HW225782   2.622   0.190   4.765 -1.8468 -1.6439 -0.4637
 4716SOL     OW25783   3.407   0.176   8.853  0.2722 -0.0937  0.5676
 4716SOL    HW125784   3.355   0.112   8.901  0.5960 -0.9351 -0.1871
 4716SOL    HW225785   3.414   0.245   8.918  3.8520 -0.8410  0.9703
 4717SOL     OW25786   1.696   1.058   1.423  0.1062  0.5781 -0.6814
 4717SOL    HW125787   1.625   1.017   1.472 -1.3684  1.6697 -1.8810
 4717SOL    HW225788   1.774   1.009   1.449 -0.3773 -0.1183 -0.5258
 4718SOL     OW25789   3.494   1.424   3.594 -0.0176  0.4794 -0.2628
 4718SOL    HW125790   3.585   1.405   3.571  0.1546 -0.1553  0.9543
 4718SOL    HW225791   3.456   1.338   3.613 -0.3050  0.6962  0.1292
 4719SOL     OW25792   0.888   3.985  14.683  0.4498 -0.2536  0.0275
 4719SOL    HW125793   0.852   4.010  14.768 -0.0011  1.1418 -0.5693
 4719SOL    HW225794   0.928   3.902  14.709 -0.4055 -0.6159  0.1781
 4720SOL     OW25795   2.152   2.019   8.129  0.3276  0.1581  0.3009
 4720SOL    HW125796   2.154   2.083   8.200  0.5689 -0.7880  1.1477
 4720SOL    HW225797   2.245   2.011   8.110  0.3920  1.3626  0.1481
 4721SOL     OW25798   4.547   4.483   3.280 -0.9841 -0.1366  0.9224
 4721SOL    HW125799   4.543   4.442   3.193 -0.2826  1.1687  0.2698
 4721SOL    HW225800   4.456   4.481   3.311 -1.1654  0.9791  0.4565
 4722SOL     OW25801   3.886   2.753   4.077  0.1677  0.1902  0.1136
 4722SOL    HW125802   3.943   2.798   4.015  1.6329 -1.6195  0.1594
 4722SOL    HW225803   3.832   2.831   4.090  0.2329  0.2355  0.1112
 4723SOL     OW25804   3.203   1.647   8.275 -0.9909 -0.2562  0.0557
 4723SOL    HW125805   3.290   1.629   8.238 -0.9271 -0.2161  0.1847
 4723SOL    HW225806   3.193   1.598   8.356  0.3089  1.6467  1.3760
 4724SOL     OW25807   1.601   4.006   3.477  0.5519 -0.3380 -0.0255
 4724SOL    HW125808   1.552   3.927   3.455  0.6230 -0.3095 -0.2861
 4724SOL    HW225809   1.686   3.984   3.439 -0.1873 -3.2196  0.0096
 4725SOL     OW25810   3.995   3.735   6.790  0.0068 -0.2727 -0.1696
 4725SOL    HW125811   3.956   3.811   6.748  0.1824  0.0518  0.2574
 4725SOL    HW225812   3.995   3.665   6.725 -1.2588 -0.4974  0.0728
 4726SOL     OW25813   2.127   4.688   3.844 -0.1863 -0.0291  0.3346
 4726SOL    HW125814   2.189   4.616   3.830  0.0494  0.1231  0.5895
 4726SOL    HW225815   2.178   0.027   3.810  1.1970 -0.4618  1.4642
 4727SOL     OW25816   3.967   4.280   2.947 -0.4385 -0.1496  0.1470
 4727SOL    HW125817   3.976   4.215   3.016  2.9246  0.2803  0.0963
 4727SOL    HW225818   3.942   4.224   2.873  0.8025  0.0417 -0.4227
 4728SOL     OW25819   3.221   0.284  12.594 -0.3964 -0.5206 -0.2415
 4728SOL    HW125820   3.221   0.298  12.500 -2.7365  1.0173 -0.0097
 4728SOL    HW225821   3.294   0.337  12.625 -0.4717 -1.2869  1.2422
 4729SOL     OW25822   4.687   1.296  15.469  0.0911  0.3593  0.6438
 4729SOL    HW125823   4.715   1.388  15.463 -3.0396  1.1419 -1.6588
 4729SOL    HW225824   0.028   1.247  15.437 -0.3608 -0.3566  0.6903
 4730SOL     OW25825   0.065   0.746   6.834  0.4834 -0.5090  0.7914
 4730SOL    HW125826   0.001   0.748   6.762  0.7740  0.8795  0.5745
 4730SOL    HW225827   0.035   0.684   6.901 -0.4121 -2.5981 -1.5389
 4731SOL     OW25828   4.054   4.110   6.832  0.4985 -0.4535 -0.0893
 4731SOL    HW125829   3.967   4.092   6.796  0.8468 -0.4569 -0.9093
 4731SOL    HW225830   4.063   4.037   6.893 -1.7897 -1.3527 -0.8538
 4732SOL     OW25831   1.157   0.472   6.304 -0.2523  0.5761 -0.6036
 4732SOL    HW125832   1.104   0.444   6.230  0.0626 -1.8380  0.1046
 4732SOL    HW225833   1.212   0.538   6.262 -1.7100  1.8639 -0.4736
 4733SOL     OW25834   2.846   0.827   2.578  0.6689  0.6735 -0.2942
 4733SOL    HW125835   2.898   0.864   2.650 -0.2975  4.1978 -1.4233
 4733SOL    HW225836   2.879   0.874   2.502  1.7679 -2.6876 -1.9314
 4734SOL     OW25837   0.538   3.826  13.348 -0.2087  0.3436 -1.0229
 4734SOL    HW125838   0.614   3.844  13.404  0.0296  0.7740 -1.4859
 4734SOL    HW225839   0.496   3.912  13.341 -1.9534 -0.3711  0.5882
 4735SOL     OW25840   0.039   3.420   6.853 -0.2649  0.1932  0.6859
 4735SOL    HW125841   0.089   3.400   6.932 -1.8227  0.3081  1.6990
 4735SOL    HW225842   0.001   3.504   6.878  0.7032 -0.3868  4.0272
 4736SOL     OW25843   2.780   3.570  16.146 -0.1195 -0.0847  0.0262
 4736SOL    HW125844   2.846   3.611  16.202  0.9171  1.7999 -2.6361
 4736SOL    HW225845   2.820   3.494  16.105 -0.1150 -0.8446  1.4212
 4737SOL     OW25846   0.216   1.187  15.388  0.1849  0.1853 -0.1919
 4737SOL    HW125847   0.199   1.093  15.395 -0.5356  0.1729 -1.9761
 4737SOL    HW225848   0.300   1.203  15.430  0.3237 -0.6560 -0.1649
 4738SOL     OW25849   2.821   1.737   9.122  0.4162  0.4730 -0.2228
 4738SOL    HW125850   2.781   1.650   9.114  0.5950  0.1448  2.3512
 4738SOL    HW225851   2.914   1.716   9.126  0.0966 -0.4617  2.2405
 4739SOL     OW25852   2.771   1.295  10.741 -0.7023  0.3857  0.0073
 4739SOL    HW125853   2.777   1.349  10.662 -1.7719  0.3284 -0.1130
 4739SOL    HW225854   2.734   1.213  10.708  0.0795 -0.8237  2.1255
 4740SOL     OW25855   3.776   0.619   8.028 -0.0139 -0.5813 -0.1886
 4740SOL    HW125856   3.836   0.552   7.996 -2.9214 -2.0177 -2.6351
 4740SOL    HW225857   3.826   0.688   7.985  0.6502 -0.7232  0.3547
 4741SOL     OW25858   3.138   3.371  16.397  0.0757  0.1031 -0.3678
 4741SOL    HW125859   3.151   3.466  16.395  0.6102  0.0720  1.4975
 4741SOL    HW225860   3.225   3.333  16.381 -0.5239 -2.5370  2.5755
 4742SOL     OW25861   0.088   4.579   8.324 -0.4198 -0.1348  0.3428
 4742SOL    HW125862   0.098   4.594   8.418  1.5050  3.3079 -0.3882
 4742SOL    HW225863   0.178   4.566   8.293  0.5797  0.5476  2.9578
 4743SOL     OW25864   3.248   4.035   7.728 -0.1306  0.0521 -0.5425
 4743SOL    HW125865   3.343   4.047   7.732 -0.1728 -0.8967  3.3676
 4743SOL    HW225866   3.211   4.094   7.794 -0.2206 -1.1764  0.5229
 4744SOL     OW25867   4.384   4.429   6.744  0.3981  0.1888  0.7025
 4744SOL    HW125868   4.350   4.440   6.655 -1.1293 -3.2155  0.8691
 4744SOL    HW225869   4.362   4.336   6.747  1.8905 -0.1676  0.8045
 4745SOL     OW25870   1.105   2.315   5.246  0.5132  0.3268 -0.0169
 4745SOL    HW125871   1.191   2.343   5.214  0.2138  0.5453 -0.6352
 4745SOL    HW225872   1.140   2.246   5.303  3.2289  1.9184  0.2768
 4746SOL     OW25873   3.078   0.936   2.877 -0.2700 -0.4602  0.2625
 4746SOL    HW125874   3.172   0.934   2.862 -0.3237 -3.7890  0.3585
 4746SOL    HW225875   3.064   0.855   2.927  1.9816  0.7376  2.8400
 4747SOL     OW25876   1.940   0.316   6.038 -0.2039 -0.4090 -0.3256
 4747SOL    HW125877   2.008   0.291   5.976  0.4259 -1.8039  0.9462
 4747SOL    HW225878   1.879   0.242   6.034  0.5024 -1.0763  1.4516
 4748SOL     OW25879   4.322   4.026   9.011 -0.8546 -0.1939 -0.5712
 4748SOL    HW125880   4.310   4.024   8.916 -0.3521  1.1191 -0.6622
 4748SOL    HW225881   4.404   4.074   9.017 -2.3322  2.0030  2.0349
 4749SOL     OW25882   0.105   2.111  16.795 -0.4919 -0.5726  0.0528
 4749SOL    HW125883   0.098   2.123  16.890 -0.8538 -2.7845  0.3032
 4749SOL    HW225884   0.151   2.028  16.786  3.1400  1.5894 -1.2129
 4750SOL     OW25885   4.561   1.538   6.853 -0.2055 -0.1898 -0.1255
 4750SOL    HW125886   4.584   1.599   6.923  0.1501 -0.7521  0.2447
 4750SOL    HW225887   4.627   1.469   6.857 -2.0213 -1.9291 -0.3025
 4751SOL     OW25888   3.654   4.432   8.061 -0.2173  0.7042  0.0207
 4751SOL    HW125889   3.667   4.472   7.975  1.5554  1.2550  0.5514
 4751SOL    HW225890   3.589   4.489   8.103 -0.7624 -0.5975  0.9594
 4752SOL     OW25891   3.255   3.863   4.361 -0.2463  0.2365 -0.0549
 4752SOL    HW125892   3.247   3.787   4.418  0.5493  0.3647  0.2280
 4752SOL    HW225893   3.198   3.833   4.290  0.9281 -1.1774 -0.4008
 4753SOL     OW25894   0.216   1.797   4.607  0.1957  0.1310  0.2866
 4753SOL    HW125895   0.190   1.773   4.518 -2.6792  3.4108  0.2263
 4753SOL    HW225896   0.284   1.861   4.588 -0.2682  0.5812  0.1309
 4754SOL     OW25897   2.812   1.040   9.429  0.1116  0.2138  0.4328
 4754SOL    HW125898   2.871   1.061   9.501  3.1363  2.7505 -2.7560
 4754SOL    HW225899   2.775   1.125   9.405 -0.4183 -0.1779 -0.1336
 4755SOL     OW25900   4.101   2.867   1.275  0.0711  0.2305  0.3540
 4755SOL    HW125901   4.168   2.819   1.324 -1.4346 -2.7763 -0.5150
 4755SOL    HW225902   4.070   2.800   1.214 -1.1389  1.0638  0.0515
 4756SOL     OW25903   1.185   4.658   8.711 -0.4683 -0.3380 -0.0626
 4756SOL    HW125904   1.105   4.686   8.666  0.1008  2.0023  0.4005
 4756SOL    HW225905   1.173   4.569   8.745 -0.9503  0.2720  1.3778
 4757SOL     OW25906   3.963   1.226   6.640  0.2372  0.0494 -0.5533
 4757SOL    HW125907   3.946   1.252   6.730 -1.3197  0.0439 -0.8309
 4757SOL    HW225908   3.917   1.298   6.597 -1.0528 -0.1098  0.5466
 4758SOL     OW25909   4.596   1.604   8.358  0.3054 -0.0370 -0.2479
 4758SOL    HW125910   4.622   1.516   8.387  2.3088  1.0840  1.3304
 4758SOL    HW225911   4.671   1.661   8.375 -0.3223  0.1484  2.0262
 4759SOL     OW25912   0.468   1.148   4.577 -0.6446 -0.1508  0.0972
 4759SOL    HW125913   0.424   1.079   4.527 -1.6614  0.3457  0.3160
 4759SOL    HW225914   0.412   1.153   4.654 -0.4535 -2.7169  0.4065
 4760SOL     OW25915   1.807   3.755   5.150 -0.1539 -0.0876  1.0508
 4760SOL    HW125916   1.854   3.836   5.130 -1.7257  1.3958  3.4015
 4760SOL    HW225917   1.776   3.738   5.061 -0.7745  0.2742  1.1993
 4761SOL     OW25918   2.166   1.570   4.823  0.0143  0.0460 -0.2145
 4761SOL    HW125919   2.080   1.528   4.830 -0.1522  0.1347 -1.6379
 4761SOL    HW225920   2.189   1.585   4.914 -1.0714  0.8242 -0.0659
 4762SOL     OW25921   1.954   0.105  12.488 -0.0795  0.0370 -0.6603
 4762SOL    HW125922   1.884   0.057  12.443 -2.0647  2.5990 -0.2698
 4762SOL    HW225923   1.957   0.061  12.573 -0.0829 -1.1711 -1.2733
 4763SOL     OW25924   2.917   0.701  14.111  0.4202  0.0836  0.2235
 4763SOL    HW125925   2.918   0.788  14.071  0.2155 -0.0564 -0.0926
 4763SOL    HW225926   2.836   0.720  14.158  0.6049  1.3750  0.0235
 4764SOL     OW25927   3.104   4.023   6.803 -0.0606  0.4987 -0.0270
 4764SOL    HW125928   3.084   3.931   6.821 -1.1103  0.7416  0.0693
 4764SOL    HW225929   3.191   4.012   6.767 -0.4648  0.0912 -0.8732
 4765SOL     OW25930   4.484   2.942   2.014  0.5185 -0.2899 -0.1615
 4765SOL    HW125931   4.512   3.028   1.980 -0.0918 -0.1742 -0.3765
 4765SOL    HW225932   4.520   2.954   2.102  0.0860 -0.3894  0.0302
 4766SOL     OW25933   2.916   2.762   1.575 -0.2099 -0.2915  0.2506
 4766SOL    HW125934   2.920   2.670   1.551 -0.8412 -0.3134  0.2493
 4766SOL    HW225935   2.823   2.765   1.595  0.1260 -1.4329  1.9956
 4767SOL     OW25936   2.999   1.048   6.184 -0.2319 -0.2958 -0.0602
 4767SOL    HW125937   2.922   1.024   6.236  0.7096 -3.3965 -0.0880
 4767SOL    HW225938   3.014   0.962   6.145  0.4617 -0.1564 -0.0970
 4768SOL     OW25939   0.143   0.362   7.281  0.4992 -0.2190 -0.1912
 4768SOL    HW125940   0.097   0.325   7.206  0.9010 -1.5828  0.2353
 4768SOL    HW225941   0.179   0.294   7.338 -0.1317 -0.9075 -0.6167
 4769SOL     OW25942   3.937   0.115   1.685  0.0013 -1.1200  0.2737
 4769SOL    HW125943   4.005   0.074   1.631  0.8711 -0.9729  1.2634
 4769SOL    HW225944   3.997   0.171   1.734 -2.6978  1.0905  0.9922
 4770SOL     OW25945   1.962   4.114   7.967  0.1914  0.4232 -0.0488
 4770SOL    HW125946   2.022   4.081   8.034 -0.7775  0.2825  0.7536
 4770SOL    HW225947   1.919   4.038   7.926 -0.0797  0.5865 -0.0698
 4771SOL     OW25948   1.069   3.519   8.299  0.0689 -0.1330 -0.3710
 4771SOL    HW125949   1.020   3.475   8.230 -1.7446  3.3443 -1.2616
 4771SOL    HW225950   1.127   3.445   8.318  1.4272  0.6400 -1.4349
 4772SOL     OW25951   0.186   0.159   7.861 -0.1646  0.0136  0.1459
 4772SOL    HW125952   0.194   0.221   7.933 -4.4408 -0.4302  1.0067
 4772SOL    HW225953   0.106   0.110   7.880  0.0315 -0.5783 -0.5521
 4773SOL     OW25954   0.098   0.265   3.922 -0.2548  0.6922  0.1988
 4773SOL    HW125955   0.138   0.348   3.947  0.2285  0.6906 -0.5563
 4773SOL    HW225956   0.175   0.209   3.913 -0.1804  0.7965  0.1800
 4774SOL     OW25957   1.659   0.970   2.585 -0.0981 -0.0052 -0.3427
 4774SOL    HW125958   1.595   1.007   2.524 -0.3362  1.1978  0.6367
 4774SOL    HW225959   1.703   1.053   2.604 -0.6903 -0.2718  2.1957
 4775SOL     OW25960   2.179   1.707   8.339 -0.0717 -0.4749 -0.5071
 4775SOL    HW125961   2.154   1.745   8.254 -1.4016 -1.1402 -0.4131
 4775SOL    HW225962   2.150   1.769   8.406 -1.8410  0.7068 -2.3295
 4776SOL     OW25963   3.797   1.129   6.288  0.0912  0.1228  0.6153
 4776SOL    HW125964   3.862   1.159   6.224 -1.2705  1.6311 -0.0605
 4776SOL    HW225965   3.725   1.184   6.256  0.6182 -0.0450 -0.8277
 4777SOL     OW25966   1.506   2.422   9.256  0.4103 -0.1034 -0.1529
 4777SOL    HW125967   1.431   2.376   9.293 -0.2050  1.8330  1.0103
 4777SOL    HW225968   1.472   2.511   9.263 -2.1977 -1.2569  1.4764
 4778SOL     OW25969   1.155   3.822   2.302  0.3095  0.7102 -0.0916
 4778SOL    HW125970   1.222   3.889   2.308 -1.7350  2.7312  0.0256
 4778SOL    HW225971   1.182   3.767   2.375 -2.2291 -0.4142  0.0052
 4779SOL     OW25972   4.036   3.588   6.403 -0.1688 -0.1475  0.0523
 4779SOL    HW125973   4.014   3.552   6.490 -2.1398  0.3693 -0.2254
 4779SOL    HW225974   3.980   3.540   6.342  0.1774 -0.4181 -0.0502
 4780SOL     OW25975   3.825   1.739  11.522 -0.3186  0.1666 -0.1631
 4780SOL    HW125976   3.823   1.808  11.588  1.3825 -0.6259  0.7350
 4780SOL    HW225977   3.732   1.718  11.519 -0.4909  0.7196  1.4262
 4781SOL     OW25978   2.567   1.315   2.364  0.2198  0.6464  0.2278
 4781SOL    HW125979   2.631   1.376   2.401  1.6296  0.7801 -2.4665
 4781SOL    HW225980   2.554   1.350   2.276 -1.2321  0.6956  0.4615
 4782SOL     OW25981   2.733   2.787  12.448  0.0285  0.1859 -0.8921
 4782SOL    HW125982   2.684   2.712  12.481  0.9522 -0.0855 -0.1299
 4782SOL    HW225983   2.810   2.794  12.505 -0.6112 -1.0834  0.1120
 4783SOL     OW25984   4.342   3.017   3.186  0.0875 -0.1434 -0.3529
 4783SOL    HW125985   4.247   3.021   3.190 -0.0023 -2.5408  0.1655
 4783SOL    HW225986   4.355   2.982   3.098  0.3138  0.4003 -0.5373
 4784SOL     OW25987   0.402   1.400   7.933 -0.2933 -0.1688  0.6381
 4784SOL    HW125988   0.496   1.380   7.936 -0.2027  0.4259  1.6801
 4784SOL    HW225989   0.371   1.335   7.870 -0.1839 -0.1321  0.5461
 4785SOL     OW25990   3.662   2.575  12.899 -0.2887  0.3812 -0.0772
 4785SOL    HW125991   3.648   2.576  12.994 -2.6982  3.5506 -0.4796
 4785SOL    HW225992   3.627   2.489  12.874  1.2742  0.0320 -1.0489
 4786SOL     OW25993   0.482   0.230   6.556 -0.1404 -0.0732  0.1026
 4786SOL    HW125994   0.567   0.275   6.558  0.7270 -1.6801 -0.8453
 4786SOL    HW225995   0.424   0.287   6.506  0.2182  0.7978  0.6764
 4787SOL     OW25996   1.695   3.300   3.838  0.4000  1.1818 -0.4202
 4787SOL    HW125997   1.635   3.356   3.789 -1.7457  0.3756  1.2650
 4787SOL    HW225998   1.651   3.297   3.923  0.6569  0.7629 -0.3052
 4788SOL     OW25999   3.762   3.624   3.235 -0.1009 -0.0392  0.2820
 4788SOL    HW126000   3.696   3.556   3.219  0.2627 -0.2025 -0.5458
 4788SOL    HW226001   3.795   3.587   3.317  0.1964  1.3016  0.7692
 4789SOL     OW26002   3.495   3.763  13.245  0.1191 -0.5069  0.2004
 4789SOL    HW126003   3.505   3.816  13.165  2.6174 -1.1184  0.1092
 4789SOL    HW226004   3.576   3.714  13.257  0.8632  0.3901 -1.0372
 4790SOL     OW26005   0.343   0.137   6.105  0.3070  0.6076 -0.2893
 4790SOL    HW126006   0.418   0.080   6.088  0.2060  0.0357  1.1185
 4790SOL    HW226007   0.274   0.073   6.088  1.0721 -0.8383  2.0511
 4791SOL     OW26008   2.901   2.525  16.615  0.5713  0.6087  0.0095
 4791SOL    HW126009   2.812   2.516  16.649  0.4450  0.8363 -0.2612
 4791SOL    HW226010   2.890   2.474  16.535 -2.2327  0.8049  0.2845
 4792SOL     OW26011   3.653   1.420  17.239 -0.0453  0.4707 -0.0571
 4792SOL    HW126012   3.677   1.499  17.288  1.2092 -0.2193  0.4604
 4792SOL    HW226013   3.736   1.384  17.206 -0.9406 -0.0150 -1.7493
 4793SOL     OW26014   0.886   4.601   3.785  0.9041  0.0226 -0.4312
 4793SOL    HW126015   0.935   4.533   3.832  1.7333 -0.8077 -2.4772
 4793SOL    HW226016   0.891   4.575   3.693 -0.0028  1.3755 -0.8515
 4794SOL     OW26017   1.577   1.703  13.682  0.6179 -0.1299  0.8525
 4794SOL    HW126018   1.565   1.717  13.589 -0.1867 -1.3412  0.7689
 4794SOL    HW226019   1.486   1.710  13.712 -0.4466  0.3586 -2.5938
 4795SOL     OW26020   0.246   2.334   0.122  0.5267 -0.2356  0.3103
 4795SOL    HW126021   0.184   2.405   0.103  2.2837  1.7085  1.7960
 4795SOL    HW226022   0.301   2.331   0.043  2.4904 -0.7110  1.7063
 4796SOL     OW26023   2.481   3.160   7.464  0.0520 -0.0808 -0.2310
 4796SOL    HW126024   2.387   3.157   7.481 -0.1388  1.5306 -0.9645
 4796SOL    HW226025   2.511   3.114   7.543 -0.9708  2.2434  1.5123
 4797SOL     OW26026   1.392   2.942  17.349  0.2943  0.1306  0.1945
 4797SOL    HW126027   1.375   2.987  17.432 -0.5103  0.0199  0.0910
 4797SOL    HW226028   1.335   2.985  17.285 -0.9798  0.1226  1.3274
 4798SOL     OW26029   3.450   4.524  14.589  0.3447 -0.3878  0.2574
 4798SOL    HW126030   3.486   4.467  14.657  1.0456 -1.6017 -1.1271
 4798SOL    HW226031   3.523   4.534  14.529  0.3189 -0.8101  0.1576
 4799SOL     OW26032   2.904   1.431   4.145 -0.1999  0.1111  0.6125
 4799SOL    HW126033   2.862   1.424   4.231 -1.0149 -1.4123  0.0979
 4799SOL    HW226034   2.844   1.371   4.100  1.6023 -0.6178 -0.8010
 4800SOL     OW26035   2.908   4.208   3.632  0.2061 -0.2211  0.5488
 4800SOL    HW126036   3.001   4.232   3.630 -0.5371  2.4625 -1.1023
 4800SOL    HW226037   2.872   4.272   3.693 -0.0215  1.1506 -1.0193
 4801SOL     OW26038   3.001   3.888   4.682  0.8100  0.2105  0.2940
 4801SOL    HW126039   3.054   3.965   4.704 -0.4657  1.7112 -1.8435
 4801SOL    HW226040   2.984   3.858   4.771 -0.9194  0.1830 -0.0590
 4802SOL     OW26041   2.119   1.743   8.686 -0.3593  0.2443 -0.3983
 4802SOL    HW126042   2.149   1.831   8.710 -1.0635  0.9813 -2.1919
 4802SOL    HW226043   2.041   1.762   8.634  0.5814  0.7314 -1.6299
 4803SOL     OW26044   2.880   2.959   8.492  0.3640  0.5573  0.5059
 4803SOL    HW126045   2.797   2.946   8.538  1.5170 -2.5188  1.7403
 4803SOL    HW226046   2.913   2.870   8.480 -1.7116 -0.2994  1.1690
 4804SOL     OW26047   1.905   0.208  10.875 -0.2687  0.2764  0.4505
 4804SOL    HW126048   1.864   0.149  10.811  1.3592 -1.1353  0.7262
 4804SOL    HW226049   1.951   0.274  10.824 -0.9829  1.8545  1.8650
 4805SOL     OW26050   1.551   2.117   8.781 -0.1559  0.3559  0.2247
 4805SOL    HW126051   1.512   2.169   8.851 -1.6442  2.7164 -2.3970
 4805SOL    HW226052   1.637   2.110   8.823 -1.0859 -0.7648  1.9519
 4806SOL     OW26053   0.235   2.879   3.493  0.3418  0.1672  0.1941
 4806SOL    HW126054   0.212   2.960   3.446 -0.8130  0.2893  0.9697
 4806SOL    HW226055   0.247   2.914   3.581 -0.7023 -0.7505  0.6963
 4807SOL     OW26056   1.252   3.643   2.521 -0.0393  0.5524 -0.2242
 4807SOL    HW126057   1.234   3.571   2.581 -0.3645 -0.0782 -1.0809
 4807SOL    HW226058   1.324   3.604   2.471 -0.5154 -1.0042  0.3213
 4808SOL     OW26059   4.138   2.891  11.903  0.3169  0.1327 -0.4204
 4808SOL    HW126060   4.078   2.939  11.847 -1.1580 -2.4002 -1.0174
 4808SOL    HW226061   4.124   2.932  11.988  0.8725 -0.5984  0.0353
 4809SOL     OW26062   2.558   1.663   4.899 -0.7774 -0.2186 -0.0100
 4809SOL    HW126063   2.494   1.639   4.967 -0.8477 -0.2447 -0.0861
 4809SOL    HW226064   2.542   1.595   4.833 -0.8553 -0.4044  0.1986
 4810SOL     OW26065   3.179   4.153  10.276 -0.8220  0.1936 -0.7732
 4810SOL    HW126066   3.104   4.197  10.317 -0.4548  1.4938 -1.4958
 4810SOL    HW226067   3.140   4.089  10.217  0.8418 -2.1037  0.6460
 4811SOL     OW26068   3.841   3.796  15.574 -0.2190 -0.5877 -0.0199
 4811SOL    HW126069   3.867   3.888  15.587  3.3599 -1.8051  1.5687
 4811SOL    HW226070   3.851   3.752  15.659  1.5469 -1.8438 -0.8836
 4812SOL     OW26071   4.047   0.791   4.733  0.0032 -0.0347  0.5500
 4812SOL    HW126072   3.964   0.769   4.690 -1.5110  1.8517  2.4531
 4812SOL    HW226073   4.058   0.720   4.796  0.4980 -2.0804 -1.8743
 4813SOL     OW26074   0.309   2.421  14.663 -0.0108  0.1518  0.1517
 4813SOL    HW126075   0.391   2.469  14.651  1.1818 -1.5753  1.4419
 4813SOL    HW226076   0.311   2.355  14.594 -0.7639 -0.0448  0.3145
 4814SOL     OW26077   1.630   4.233   8.120 -0.3289  0.3762 -0.3074
 4814SOL    HW126078   1.539   4.204   8.124 -0.1309 -0.0881  0.8030
 4814SOL    HW226079   1.641   4.273   8.034 -0.1195  1.5552  0.2658
 4815SOL     OW26080   3.087   1.563   3.781  0.0667 -0.2990 -0.0881
 4815SOL    HW126081   3.015   1.569   3.843  1.4523 -0.2974  1.5249
 4815SOL    HW226082   3.164   1.572   3.837 -0.7711  2.3546  0.5920
 4816SOL     OW26083   0.988   4.632  13.738 -0.1370 -0.3222  0.7915
 4816SOL    HW126084   1.017   4.633  13.646 -0.6735  0.4241  0.6303
 4816SOL    HW226085   1.003   4.723  13.763 -0.2570  0.0395 -0.4160
 4817SOL     OW26086   0.920   0.284   3.639  0.5206 -0.3907 -0.4835
 4817SOL    HW126087   0.848   0.289   3.576 -0.2040 -0.0119  0.3843
 4817SOL    HW226088   0.983   0.225   3.597  0.3889  0.6649 -2.1475
 4818SOL     OW26089   0.123   3.133   8.894 -0.6690  0.1324  0.8375
 4818SOL    HW126090   0.182   3.205   8.872  0.5517 -0.5819  1.7787
 4818SOL    HW226091   0.032   3.161   8.886 -0.1244  1.4199 -0.8654
 4819SOL     OW26092   0.189   4.005  12.614 -0.4395 -0.0666 -0.0451
 4819SOL    HW126093   0.200   4.009  12.519 -0.4746 -0.2857 -0.0583
 4819SOL    HW226094   0.180   3.911  12.631  0.8849 -0.1805  0.0197
 4820SOL     OW26095   4.604   1.829   7.200  0.7189  0.2234 -0.2859
 4820SOL    HW126096   4.584   1.853   7.109  1.9430 -0.8549 -0.8365
 4820SOL    HW226097   4.699   1.821   7.191  0.6555 -1.0005  0.1630
 4821SOL     OW26098   0.924   4.353   6.436 -0.7624 -0.1910 -0.0947
 4821SOL    HW126099   0.876   4.427   6.472 -0.8902  0.5254 -1.7385
 4821SOL    HW226100   0.891   4.369   6.347  2.6989 -1.3304 -1.5641
 4822SOL     OW26101   2.563   2.647  15.132  0.0428 -0.2365  0.7725
 4822SOL    HW126102   2.524   2.595  15.202  0.6914  1.0948  2.1212
 4822SOL    HW226103   2.589   2.571  15.080 -2.1420 -0.4190 -0.0790
 4823SOL     OW26104   2.502   0.967   4.354 -0.1581  0.5697  0.4203
 4823SOL    HW126105   2.481   0.873   4.353 -1.2374  0.8111 -0.3530
 4823SOL    HW226106   2.423   0.994   4.307  0.2758 -1.1191 -1.3389
 4824SOL     OW26107   1.917   3.918  13.513  0.6802  0.0515 -0.2990
 4824SOL    HW126108   1.933   4.004  13.475  1.3408  0.3236  0.6062
 4824SOL    HW226109   1.923   3.853  13.443  0.2334 -1.7533  1.3435
 4825SOL     OW26110   4.238   1.622  13.290  0.5899 -0.5572 -0.3078
 4825SOL    HW126111   4.315   1.577  13.255  1.7161  0.6249  0.6281
 4825SOL    HW226112   4.263   1.668  13.370  1.7749  0.6736 -1.3716
 4826SOL     OW26113   4.036   2.109  16.680 -0.3243 -0.2330 -0.1512
 4826SOL    HW126114   4.129   2.096  16.662  0.5459  2.7441  2.1574
 4826SOL    HW226115   4.030   2.168  16.755  2.5579  0.8556 -0.7772
 4827SOL     OW26116   4.638   3.699   7.266  0.1984 -0.4913 -0.0422
 4827SOL    HW126117   4.581   3.636   7.311 -1.2804 -0.1152 -1.4055
 4827SOL    HW226118   4.586   3.707   7.187 -0.9336  1.9886  0.9488
 4828SOL     OW26119   2.052   2.362   3.331  0.6391  0.0216 -0.3436
 4828SOL    HW126120   2.132   2.320   3.301 -0.8175 -1.6871 -1.8717
 4828SOL    HW226121   2.077   2.406   3.412 -0.6049 -0.9958  0.5966
 4829SOL     OW26122   1.371   1.715   8.210  0.4755 -0.6640 -0.3776
 4829SOL    HW126123   1.286   1.673   8.223  0.2116  0.1217  0.4439
 4829SOL    HW226124   1.393   1.734   8.301 -1.0944  1.3682 -0.4229
 4830SOL     OW26125   1.379   0.939   1.310  0.4060  0.1269  0.4696
 4830SOL    HW126126   1.389   1.032   1.287  0.1411  0.1035  0.2532
 4830SOL    HW226127   1.286   0.927   1.289  0.7744  0.2464 -1.2407
 4831SOL     OW26128   0.416   1.618  16.825 -0.4631 -0.2890 -0.3402
 4831SOL    HW126129   0.360   1.581  16.893 -0.4976 -0.2831 -0.3654
 4831SOL    HW226130   0.499   1.571  16.841  0.1333  0.9082  0.0563
 4832SOL     OW26131   0.917   1.902   7.853  0.9248  0.5668 -0.1066
 4832SOL    HW126132   0.829   1.867   7.868 -0.0045  3.3082  0.6837
 4832SOL    HW226133   0.899   1.995   7.863 -0.5451  0.2612  0.1386
 4833SOL     OW26134   3.497   3.832   7.345 -0.3309  0.0394 -0.6968
 4833SOL    HW126135   3.492   3.926   7.328  2.0336  0.4509  0.9899
 4833SOL    HW226136   3.518   3.836   7.438  1.0560 -0.9823 -0.9795
 4834SOL     OW26137   2.209   3.221   7.973 -0.1868  0.1813 -0.1395
 4834SOL    HW126138   2.142   3.178   7.920 -1.0691 -0.2422  1.3044
 4834SOL    HW226139   2.179   3.312   7.972 -0.9297 -0.0605  0.5449
 4835SOL     OW26140   0.807   0.399   5.092 -0.1381 -0.0094 -0.6420
 4835SOL    HW126141   0.777   0.354   5.171 -0.7270  2.0037  0.2940
 4835SOL    HW226142   0.876   0.341   5.061 -0.0645 -1.6282  2.4865
 4836SOL     OW26143   2.588   3.442   2.234  0.1692 -0.3601 -0.5870
 4836SOL    HW126144   2.601   3.352   2.203 -2.7206 -0.4234 -1.5604
 4836SOL    HW226145   2.545   3.431   2.319  1.0121 -0.9288 -0.2309
 4837SOL     OW26146   4.500   2.782   3.886 -0.4017  0.1345 -0.3201
 4837SOL    HW126147   4.458   2.700   3.858 -1.5871  0.1076  1.4932
 4837SOL    HW226148   4.592   2.767   3.864  0.1390  0.4025  1.8053
 4838SOL     OW26149   1.407   3.825   3.406  0.6030 -0.5973 -0.0753
 4838SOL    HW126150   1.346   3.879   3.356  0.3343  1.4392  2.4680
 4838SOL    HW226151   1.351   3.749   3.419 -3.3386  2.6760  1.9213
 4839SOL     OW26152   2.299   3.941  11.955 -0.7202 -0.2936  0.1285
 4839SOL    HW126153   2.287   3.847  11.965 -1.2628 -0.1459  0.8666
 4839SOL    HW226154   2.394   3.933  11.939 -0.8085 -1.8049  0.4026
 4840SOL     OW26155   0.792   3.617   4.707  0.3220  0.4463  0.5137
 4840SOL    HW126156   0.885   3.638   4.694  0.9020 -0.9868  2.2273
 4840SOL    HW226157   0.788   3.525   4.679 -0.7708  0.6847 -0.0912
 4841SOL     OW26158   3.301   3.306   3.214 -0.1565  0.1344  0.4725
 4841SOL    HW126159   3.326   3.391   3.252 -1.8416  0.3611  1.0754
 4841SOL    HW226160   3.231   3.280   3.274  0.5259  2.4831  2.2970
 4842SOL     OW26161   1.255   4.308   3.406  0.3468  0.1977 -0.0131
 4842SOL    HW126162   1.339   4.339   3.440 -0.6537  0.1766  2.4836
 4842SOL    HW226163   1.264   4.226   3.454 -0.8035  0.2840  0.3425
 4843SOL     OW26164   0.085   1.398  16.423 -0.9438  0.4013 -0.6360
 4843SOL    HW126165   0.124   1.451  16.493 -2.3066  0.1166  0.3228
 4843SOL    HW226166   0.154   1.409  16.357 -0.9677  4.4822 -0.0046
 4844SOL     OW26167   3.853   3.263  11.969  0.5682  0.1957 -0.5888
 4844SOL    HW126168   3.781   3.327  11.968  1.7714  1.6360  2.9316
 4844SOL    HW226169   3.917   3.319  12.014  2.0699 -2.0596  0.0364
 4845SOL     OW26170   1.547   0.070   4.561 -0.0493  0.1137 -0.2130
 4845SOL    HW126171   1.546   0.049   4.654  1.3292  0.6891 -0.0677
 4845SOL    HW226172   1.480   0.006   4.536  0.2396 -0.1386 -0.3444
 4846SOL     OW26173   1.993   2.962   5.998  0.7862  0.1952 -0.0864
 4846SOL    HW126174   1.956   2.962   5.910 -0.0642  0.4275  0.2696
 4846SOL    HW226175   2.084   2.947   5.974  0.7466 -1.4167  0.8202
 4847SOL     OW26176   4.158   4.592  10.769  0.0902 -0.5291 -1.1379
 4847SOL    HW126177   4.229   4.640  10.726  0.9767  2.0166  3.2211
 4847SOL    HW226178   4.197   4.573  10.854 -0.9711 -1.7267 -0.9093
 4848SOL     OW26179   1.001   3.296  10.624  0.4353  0.0833  0.9204
 4848SOL    HW126180   1.061   3.368  10.602  0.4741 -0.4753 -0.8289
 4848SOL    HW226181   1.040   3.273  10.708  2.6305  2.2308  0.4888
 4849SOL     OW26182   0.899   2.476   1.734 -0.2040 -0.7506 -0.4687
 4849SOL    HW126183   0.877   2.390   1.699 -0.6169 -1.5691  1.7912
 4849SOL    HW226184   0.912   2.524   1.652 -0.0975 -2.3771 -1.4082
 4850SOL     OW26185   4.656   2.000   3.520 -0.6370 -0.7164 -0.3011
 4850SOL    HW126186   4.680   1.909   3.537  1.3971 -0.1494 -0.0721
 4850SOL    HW226187   4.733   2.044   3.556 -1.5946 -1.4796  2.6792
 4851SOL     OW26188   0.786   2.566  11.048 -0.1869 -0.5096 -0.1966
 4851SOL    HW126189   0.712   2.614  11.013  0.7193  0.9191 -0.1649
 4851SOL    HW226190   0.801   2.619  11.126  0.0272 -1.0419  0.1243
 4852SOL     OW26191   2.086   4.160   9.144  0.0781 -0.2729  0.1715
 4852SOL    HW126192   2.019   4.210   9.099  1.9853  0.9671 -1.2972
 4852SOL    HW226193   2.109   4.227   9.208  0.2323  1.1079 -1.3393
 4853SOL     OW26194   2.822   1.495   8.394  0.7593 -0.1757 -0.4270
 4853SOL    HW126195   2.758   1.523   8.329  2.3635 -1.4149 -2.5262
 4853SOL    HW226196   2.863   1.580   8.407 -0.8018  0.4211  0.6277
 4854SOL     OW26197   0.588   0.874  11.364 -0.1796  0.1072 -0.0950
 4854SOL    HW126198   0.510   0.820  11.378 -0.4952  0.1236 -1.7288
 4854SOL    HW226199   0.627   0.876  11.452 -3.1078 -0.5076  1.2038
 4855SOL     OW26200   2.337   2.730   3.756 -0.1859 -0.3642 -0.8445
 4855SOL    HW126201   2.291   2.705   3.837 -1.7205  3.5190 -0.5563
 4855SOL    HW226202   2.277   2.796   3.722  0.2094  1.6315  2.3509
 4856SOL     OW26203   3.849   3.105   7.821  0.0138  0.2159 -0.1698
 4856SOL    HW126204   3.860   3.191   7.779  1.9519 -0.5181 -1.1689
 4856SOL    HW226205   3.787   3.057   7.766 -0.5263  3.8916 -2.8021
 4857SOL     OW26206   4.512   2.807   8.291  0.3166 -0.1511 -0.1736
 4857SOL    HW126207   4.606   2.821   8.282  0.5985 -0.5036  2.3925
 4857SOL    HW226208   4.500   2.756   8.211 -0.8846  0.2830 -0.2695
 4858SOL     OW26209   0.233   3.385   4.240 -0.4020  0.7085  0.0075
 4858SOL    HW126210   0.184   3.423   4.313 -0.0285 -1.5123  1.4254
 4858SOL    HW226211   0.289   3.458   4.215  0.4500 -0.5627 -1.8609
 4859SOL     OW26212   3.956   3.486   2.790  0.1346 -0.2347 -0.1708
 4859SOL    HW126213   3.944   3.391   2.800  0.1909 -0.4390 -1.8857
 4859SOL    HW226214   4.050   3.485   2.773 -0.1500  0.7822 -1.8464
 4860SOL     OW26215   1.994   0.305   7.750  0.1997 -0.7869 -0.4675
 4860SOL    HW126216   1.909   0.294   7.793  0.0583 -0.3604 -0.6292
 4860SOL    HW226217   2.040   0.230   7.787  1.8151 -0.0265 -0.9259
 4861SOL     OW26218   2.811   3.138   0.907  0.4824  0.3576 -0.0145
 4861SOL    HW126219   2.795   3.228   0.937  2.0451  0.3051  0.9298
 4861SOL    HW226220   2.906   3.134   0.910  0.4381 -2.1193 -2.1625
 4862SOL     OW26221   2.644   1.454   0.471  0.2088 -0.3427 -0.3893
 4862SOL    HW126222   2.638   1.375   0.525  1.2428  1.1509  1.9159
 4862SOL    HW226223   2.687   1.420   0.393 -1.1572 -0.8936 -0.9046
 4863SOL     OW26224   0.229   2.710  17.085  0.1957  0.1019 -0.1626
 4863SOL    HW126225   0.254   2.740  16.998 -0.0545 -0.2377 -0.3528
 4863SOL    HW226226   0.149   2.762  17.088  0.9558  1.2167  0.6684
 4864SOL     OW26227   0.938   1.148   7.720 -0.6974  0.1055  0.4050
 4864SOL    HW126228   0.874   1.077   7.727  0.0835 -0.4522  1.7781
 4864SOL    HW226229   0.960   1.161   7.812  3.0883 -1.3477 -0.2922
 4865SOL     OW26230   4.576   2.107   2.613 -0.0564  0.5656 -0.4119
 4865SOL    HW126231   4.633   2.109   2.690  1.0156 -0.5513 -1.1718
 4865SOL    HW226232   4.616   2.036   2.562  1.0103 -0.3333  1.6947
 4866SOL     OW26233   3.275   2.652   5.695  0.0836  0.2815  0.2144
 4866SOL    HW126234   3.211   2.586   5.670 -0.2456 -0.1497  2.1468
 4866SOL    HW226235   3.279   2.716   5.624 -1.7938 -0.8978 -0.9646
 4867SOL     OW26236   2.514   4.593  12.849 -0.1352  0.8079  0.2496
 4867SOL    HW126237   2.480   4.562  12.765 -1.4374 -1.1503  1.4980
 4867SOL    HW226238   2.590   4.535  12.856  0.3507  1.1549 -1.9678
 4868SOL     OW26239   2.165   3.861   5.262 -0.3607  0.0848 -0.0284
 4868SOL    HW126240   2.236   3.803   5.290  0.5347  1.7724  1.2220
 4868SOL    HW226241   2.113   3.863   5.343 -2.2859 -2.9252 -1.1952
 4869SOL     OW26242   2.717   3.570   1.528 -0.2564 -0.4317  0.1404
 4869SOL    HW126243   2.679   3.634   1.468 -1.3363 -0.3172  0.9558
 4869SOL    HW226244   2.717   3.630   1.602  1.8159 -1.5552  1.0606
 4870SOL     OW26245   0.203   3.564   8.072  0.0364 -0.3273  0.5285
 4870SOL    HW126246   0.111   3.587   8.057  0.6277  1.3807 -0.5175
 4870SOL    HW226247   0.194   3.470   8.058 -1.0312 -0.0259 -0.7849
 4871SOL     OW26248   3.684   3.387   3.665 -0.5991 -0.2679 -0.1046
 4871SOL    HW126249   3.638   3.338   3.734 -1.5232  1.5962  0.6044
 4871SOL    HW226250   3.764   3.422   3.704  0.0361 -1.9103  0.0715
 4872SOL     OW26251   3.681   4.704  10.805 -0.7485 -0.6053  0.6178
 4872SOL    HW126252   3.662   4.652  10.882  0.5342 -0.7379  0.8455
 4872SOL    HW226253   3.766   0.003  10.835  0.4928 -1.6852 -1.6173
 4873SOL     OW26254   2.105   4.495  13.219 -0.7143 -0.2009  0.6981
 4873SOL    HW126255   2.057   4.482  13.301  0.6606  0.9543  1.6669
 4873SOL    HW226256   2.194   4.482  13.250 -0.4527 -0.9912 -0.3543
 4874SOL     OW26257   4.283   3.932  17.113  0.0354 -0.0031 -0.4447
 4874SOL    HW126258   4.226   3.937  17.189  1.0561 -0.1684  0.3373
 4874SOL    HW226259   4.273   3.837  17.102  0.4076 -0.1440  0.4098
 4875SOL     OW26260   0.101   0.982  13.028  0.6903 -0.2880 -0.0809
 4875SOL    HW126261   0.180   1.026  12.996 -0.1929  1.3966  0.0510
 4875SOL    HW226262   0.138   0.900  13.061 -0.8413 -1.4788 -1.3433
 4876SOL     OW26263   2.779   4.254  11.250 -0.5059 -0.5854  0.0433
 4876SOL    HW126264   2.790   4.349  11.241 -2.4653 -0.2318  1.4164
 4876SOL    HW226265   2.871   4.229  11.252 -0.1819  0.6012  0.1228
 4877SOL     OW26266   1.021   2.572   3.407 -0.0523 -0.0024 -0.2089
 4877SOL    HW126267   1.096   2.614   3.365 -0.3019  1.5139  0.8477
 4877SOL    HW226268   0.951   2.601   3.348  3.3168  0.0584 -4.1845
 4878SOL     OW26269   3.371   1.271   6.824  0.9998  0.2603 -0.4403
 4878SOL    HW126270   3.435   1.211   6.861 -0.5764 -0.6748  0.7500
 4878SOL    HW226271   3.317   1.216   6.767 -1.0005  0.8890  0.8369
 4879SOL     OW26272   0.299   0.844   3.720 -0.3647 -0.3888  0.6570
 4879SOL    HW126273   0.351   0.764   3.714  0.5345  0.2217  0.1991
 4879SOL    HW226274   0.329   0.868   3.632  0.9689 -2.2723  0.6123
 4880SOL     OW26275   4.314   4.368   2.792 -0.0255 -0.2979  0.5276
 4880SOL    HW126276   4.245   4.428   2.820 -1.1204 -0.0471 -2.6434
 4880SOL    HW226277   4.264   4.295   2.754  1.4269  0.9761 -3.7813
 4881SOL     OW26278   1.464   2.931  10.117 -0.0623 -0.1223  0.2993
 4881SOL    HW126279   1.428   2.848  10.148 -0.3935 -0.9354 -2.2529
 4881SOL    HW226280   1.496   2.971  10.197  1.3622 -2.8010  1.0928
 4882SOL     OW26281   2.030   2.235   3.934 -0.1877 -0.7236 -0.2887
 4882SOL    HW126282   1.995   2.205   4.017 -1.4354  1.1247 -0.1520
 4882SOL    HW226283   2.087   2.161   3.912 -1.4445 -2.0372  0.8637
 4883SOL     OW26284   3.576   0.725   1.391  0.3777 -0.2646  0.2693
 4883SOL    HW126285   3.534   0.810   1.407  0.0607 -0.7205  1.8582
 4883SOL    HW226286   3.597   0.739   1.299  2.3183 -0.4376  0.6890
 4884SOL     OW26287   2.445   0.258   1.436 -0.2249 -0.2782  0.1407
 4884SOL    HW126288   2.432   0.281   1.528 -0.3249 -0.1987  0.1076
 4884SOL    HW226289   2.358   0.223   1.415 -0.8769  1.1671  0.4495
 4885SOL     OW26290   2.594   2.633   5.260  0.1987  0.5659  0.8928
 4885SOL    HW126291   2.625   2.707   5.207  0.3925 -0.0006  0.2232
 4885SOL    HW226292   2.647   2.567   5.217 -1.3882  0.2700 -0.6077
 4886SOL     OW26293   0.030   3.319   7.858 -0.3973 -0.0395  0.4003
 4886SOL    HW126294   4.680   3.356   7.831 -0.5200 -1.2195 -0.8299
 4886SOL    HW226295   0.010   3.226   7.850  2.2607 -0.5518 -0.2588
 4887SOL     OW26296   2.782   4.254  12.882  0.3366  0.1257  0.0920
 4887SOL    HW126297   2.760   4.273  12.791 -1.5078 -0.5326  0.4044
 4887SOL    HW226298   2.751   4.337  12.919  0.6418  0.2793  0.0122
 4888SOL     OW26299   2.802   3.566   6.388 -0.1910 -0.6977 -0.7791
 4888SOL    HW126300   2.895   3.546   6.397 -0.2425  0.9179  3.4304
 4888SOL    HW226301   2.788   3.646   6.438 -3.8363 -1.7647 -0.0680
 4889SOL     OW26302   0.900   4.077   2.132 -0.2152  0.6032 -0.6817
 4889SOL    HW126303   0.961   4.005   2.147  0.0076  1.0912  0.7228
 4889SOL    HW226304   0.825   4.024   2.103  0.4532 -0.5713 -0.2804
 4890SOL     OW26305   0.937   1.076   6.748 -0.1593  0.1825 -0.9830
 4890SOL    HW126306   0.994   1.141   6.705  1.2812 -0.9835 -0.8306
 4890SOL    HW226307   0.880   1.140   6.790 -0.4831  0.2990 -1.6069
 4891SOL     OW26308   3.373   2.447   2.875  0.0661  0.3709 -0.1686
 4891SOL    HW126309   3.453   2.495   2.855 -0.2856  1.3827  0.8937
 4891SOL    HW226310   3.334   2.506   2.939 -2.2262 -2.2492  0.8781
 4892SOL     OW26311   4.423   2.356   7.294  0.1872 -0.0093 -0.3593
 4892SOL    HW126312   4.380   2.320   7.372  2.0207  1.7326  1.4565
 4892SOL    HW226313   4.437   2.274   7.248  0.8304  0.4856 -1.0435
 4893SOL     OW26314   4.536   4.321  13.294  0.3389  0.2176  0.6519
 4893SOL    HW126315   4.458   4.330  13.348  1.2897 -0.8338  2.2068
 4893SOL    HW226316   4.547   4.227  13.287  0.1693  0.2797 -0.3341
 4894SOL     OW26317   2.153   4.377   9.949  0.2419  0.4824  0.1785
 4894SOL    HW126318   2.174   4.465   9.980  0.3713 -0.0310  1.5414
 4894SOL    HW226319   2.108   4.420   9.876 -0.4468  0.6411  0.6961
 4895SOL     OW26320   4.291   0.071  15.836 -0.0777 -0.3490  0.2473
 4895SOL    HW126321   4.311   0.164  15.849 -0.4502 -0.1790 -0.3654
 4895SOL    HW226322   4.305   0.068  15.741  4.9929  0.2261  0.9745
 4896SOL     OW26323   3.649   4.084   8.029  0.7345 -0.3287 -0.0566
 4896SOL    HW126324   3.685   4.134   8.103  1.2105 -0.0519 -0.4674
 4896SOL    HW226325   3.612   4.012   8.080  2.1540  0.0127  1.4569
 4897SOL     OW26326   2.170   1.214  17.546  0.0316 -0.1605 -0.0104
 4897SOL    HW126327   2.242   1.197  17.608  0.9206 -0.1972 -1.0486
 4897SOL    HW226328   2.089   1.175  17.578 -0.3604  0.2412 -0.5218
 4898SOL     OW26329   1.254   3.180   2.523 -0.0448  0.3373 -0.3467
 4898SOL    HW126330   1.309   3.172   2.444 -1.7141 -1.1774 -1.3481
 4898SOL    HW226331   1.183   3.123   2.493  0.0577 -0.6821  1.3847
 4899SOL     OW26332   2.255   3.022   5.945 -0.3225  0.0131  0.2208
 4899SOL    HW126333   2.278   2.952   5.885 -1.8928 -0.5504  0.2872
 4899SOL    HW226334   2.287   3.095   5.892 -2.7858 -1.1745 -2.8897
 4900SOL     OW26335   2.409   3.063   7.945  0.0295  0.0078 -0.2995
 4900SOL    HW126336   2.328   3.114   7.953  0.0208 -0.2095  1.0086
 4900SOL    HW226337   2.397   3.008   8.023 -0.0206  1.0098  0.3989
 4901SOL     OW26338   3.043   0.122  12.414 -0.4052 -0.2588 -0.3642
 4901SOL    HW126339   3.004   0.210  12.417 -2.0645 -1.0028  0.2144
 4901SOL    HW226340   3.136   0.139  12.400  0.6531 -3.0885  3.0436
 4902SOL     OW26341   0.244   2.793   0.718  0.3228 -0.0353  0.1198
 4902SOL    HW126342   0.216   2.883   0.703  1.1523  0.1872 -0.1137
 4902SOL    HW226343   0.187   2.754   0.651  1.0648  0.1883 -0.6389
 4903SOL     OW26344   2.290   2.364   3.640 -0.8319 -0.2114 -0.0319
 4903SOL    HW126345   2.231   2.433   3.609  3.0046  4.0013  1.8477
 4903SOL    HW226346   2.327   2.411   3.715 -0.7374 -1.7917  0.8995
 4904SOL     OW26347   2.277   3.305   0.077  0.5745 -0.2232 -0.3988
 4904SOL    HW126348   2.276   3.246   0.003  1.4342  1.6200 -1.8905
 4904SOL    HW226349   2.343   3.251   0.120  1.9014  1.3958 -0.3662
 4905SOL     OW26350   4.144   3.571   6.095  0.0497 -0.3925  0.4403
 4905SOL    HW126351   4.140   3.585   6.001 -0.2901 -0.7423  0.4051
 4905SOL    HW226352   4.143   3.476   6.106  1.2169 -0.7496 -2.4948
 4906SOL     OW26353   0.184   3.273   1.027  0.1819 -0.3168 -0.0740
 4906SOL    HW126354   0.249   3.202   1.028  0.3906 -0.1125  1.9465
 4906SOL    HW226355   0.218   3.304   0.944 -0.0648  1.1913  0.4009
 4907SOL     OW26356   0.080   0.649   5.643 -0.1776  0.4251 -0.0400
 4907SOL    HW126357   0.173   0.654   5.666 -0.2775  1.7706  0.0640
 4907SOL    HW226358   0.046   0.593   5.713 -1.5968  0.5807 -0.6150
 4908SOL     OW26359   3.994   1.057   5.084 -0.0247 -0.4696  0.0492
 4908SOL    HW126360   3.996   1.136   5.030 -0.1089 -0.5691 -0.1000
 4908SOL    HW226361   3.927   1.010   5.035 -0.1350 -1.1575  0.8678
 4909SOL     OW26362   2.264   1.608   3.243 -0.0388  0.2812 -0.3053
 4909SOL    HW126363   2.334   1.609   3.177  0.6393  0.1456  0.4022
 4909SOL    HW226364   2.320   1.595   3.320  0.0754 -1.2261 -0.6326
 4910SOL     OW26365   2.742   4.177  17.249 -0.3499  0.3346  0.4366
 4910SOL    HW126366   2.692   4.221  17.181  3.0034  0.3344 -2.0607
 4910SOL    HW226367   2.667   4.154  17.303 -1.1356 -0.2280 -0.9080
 4911SOL     OW26368   2.398   0.637   4.989 -0.2675  0.3212 -0.1359
 4911SOL    HW126369   2.424   0.545   4.999  1.0810  0.7561  0.3168
 4911SOL    HW226370   2.370   0.639   4.897 -0.0822 -3.1984 -0.2893
 4912SOL     OW26371   0.344   0.247   9.089  0.4015 -0.3495  0.0340
 4912SOL    HW126372   0.437   0.269   9.089  0.0066  1.2932 -1.5726
 4912SOL    HW226373   0.322   0.329   9.044  0.1041  0.1679  1.1294
 4913SOL     OW26374   4.202   2.080   0.374 -0.4908  0.6439  0.4439
 4913SOL    HW126375   4.215   1.988   0.353 -0.3239  0.7908 -0.1165
 4913SOL    HW226376   4.174   2.067   0.464  1.8614  1.2309  1.2648
 4914SOL     OW26377   2.464   3.483   2.788  0.3154  0.1476  0.1185
 4914SOL    HW126378   2.398   3.414   2.784 -1.9632  2.3170  0.2451
 4914SOL    HW226379   2.419   3.541   2.849 -0.5920 -2.2935  1.7578
 4915SOL     OW26380   0.724   3.392   6.035  0.3264  0.0344 -0.1064
 4915SOL    HW126381   0.783   3.467   6.036  1.8819 -1.1672 -1.6682
 4915SOL    HW226382   0.670   3.431   6.103  0.9136  0.4505  0.1148
 4916SOL     OW26383   0.647   3.740   8.072  1.2333 -0.1717 -0.0683
 4916SOL    HW126384   0.573   3.707   8.123  1.3494 -0.9976 -0.4355
 4916SOL    HW226385   0.701   3.771   8.145  0.8740  2.5552 -0.9661
 4917SOL     OW26386   4.077   0.950   2.596 -0.0791  0.0144  0.0453
 4917SOL    HW126387   4.066   1.026   2.539 -0.7602 -0.6614 -0.7335
 4917SOL    HW226388   4.009   0.962   2.662 -0.1019 -0.0613  0.0358
 4918SOL     OW26389   0.490   2.170   8.029  0.1636  0.1897 -0.0477
 4918SOL    HW126390   0.416   2.207   8.078 -1.1441 -1.2610 -0.9075
 4918SOL    HW226391   0.449   2.160   7.943  0.7461  1.7075 -0.5081
 4919SOL     OW26392   2.630   1.462  12.898  0.0812  0.4469 -0.6122
 4919SOL    HW126393   2.619   1.504  12.813  0.4068  2.0864  0.1636
 4919SOL    HW226394   2.629   1.539  12.955  0.4891 -0.3271  0.4469
 4920SOL     OW26395   4.322   0.727   9.861 -0.4890  0.1725 -0.2445
 4920SOL    HW126396   4.375   0.805   9.875  1.0193 -0.8804  0.0024
 4920SOL    HW226397   4.263   0.734   9.936 -1.7388  1.0076 -1.2954
 4921SOL     OW26398   4.411   3.514   8.902  0.6576 -0.8719 -0.3504
 4921SOL    HW126399   4.485   3.516   8.963 -1.2489  1.3062  1.9021
 4921SOL    HW226400   4.414   3.424   8.871  0.8892 -0.2399 -2.1639
 4922SOL     OW26401   0.867   4.289   5.344 -0.1231 -0.3281 -0.4989
 4922SOL    HW126402   0.919   4.317   5.268  1.7000  0.4972  1.0461
 4922SOL    HW226403   0.778   4.323   5.332  0.1276  0.7539  0.6976
 4923SOL     OW26404   2.451   0.075  14.282 -0.2765 -0.5555 -0.2499
 4923SOL    HW126405   2.491   0.116  14.206 -0.0653 -0.6984 -0.2174
 4923SOL    HW226406   2.372   0.128  14.291 -0.2491 -0.2051 -2.0675
 4924SOL     OW26407   3.084   4.568   4.937 -0.1457 -0.0980 -0.3410
 4924SOL    HW126408   3.014   4.520   4.892  0.8992  0.7246 -2.8698
 4924SOL    HW226409   3.074   4.523   5.021 -0.1518  2.2927  0.9389
 4925SOL     OW26410   3.077   3.656   1.280 -0.4813  0.8078 -0.2246
 4925SOL    HW126411   3.099   3.570   1.244 -1.8678  0.6655 -0.7258
 4925SOL    HW226412   3.041   3.641   1.367  1.8376 -3.8986 -0.0804
 4926SOL     OW26413   1.867   2.923   7.641  0.4944  0.1783 -0.3615
 4926SOL    HW126414   1.937   2.923   7.576 -0.0183  3.4769 -0.8970
 4926SOL    HW226415   1.799   2.876   7.591 -1.4288  0.1238  2.3034
 4927SOL     OW26416   2.599   3.321  10.617 -0.4406 -0.8203 -0.5178
 4927SOL    HW126417   2.661   3.389  10.591 -1.5825  1.5666  2.8629
 4927SOL    HW226418   2.644   3.269  10.683  0.3413 -0.7327 -0.9865
 4928SOL     OW26419   3.585   1.736   2.020 -0.1455  0.5397  0.1481
 4928SOL    HW126420   3.550   1.747   2.108 -0.6874  1.9201 -0.2504
 4928SOL    HW226421   3.666   1.689   2.041 -0.1732  0.0891 -0.7648
 4929SOL     OW26422   3.336   1.236  12.508 -0.1445  0.3177  0.2617
 4929SOL    HW126423   3.339   1.297  12.582  0.5297  1.5691 -0.8099
 4929SOL    HW226424   3.337   1.293  12.431 -0.3531  1.6009  1.2188
 4930SOL     OW26425   1.129   1.085  10.847  0.0461  0.3844  0.4142
 4930SOL    HW126426   1.154   1.130  10.928  0.9064 -0.8362  0.8192
 4930SOL    HW226427   1.036   1.077  10.870 -0.3220  0.1673 -1.1592
 4931SOL     OW26428   3.835   4.511   8.864 -0.1898 -0.4125 -0.4954
 4931SOL    HW126429   3.816   4.417   8.872  1.1232 -0.5789  0.5811
 4931SOL    HW226430   3.925   4.512   8.897 -0.8012  0.6104  1.1134
 4932SOL     OW26431   4.638   3.980   5.132 -0.0290 -0.2208  0.2524
 4932SOL    HW126432   4.566   3.987   5.069 -0.5495  1.6033  1.0549
 4932SOL    HW226433   4.587   3.955   5.208 -0.8025 -0.6456 -0.4065
 4933SOL     OW26434   4.493   3.514   7.405 -0.7153 -0.0911  0.6147
 4933SOL    HW126435   4.427   3.446   7.421 -0.5282 -0.1395  1.1664
 4933SOL    HW226436   4.525   3.534   7.492 -0.3513 -2.6088  1.0486
 4934SOL     OW26437   3.952   2.118   7.236 -0.2970 -0.2471 -0.3650
 4934SOL    HW126438   3.976   2.144   7.147  0.7375 -0.8312 -0.2481
 4934SOL    HW226439   3.919   2.028   7.226  0.5842 -0.5257 -0.7461
 4935SOL     OW26440   0.982   0.883   7.077  0.3022 -0.1311 -0.2495
 4935SOL    HW126441   1.074   0.877   7.105  0.3267 -0.7997 -0.4873
 4935SOL    HW226442   0.943   0.931   7.150  1.0618  0.5682 -0.2970
 4936SOL     OW26443   0.450   1.653   3.093  0.0480  0.3237  0.1389
 4936SOL    HW126444   0.397   1.713   3.040  0.3855  0.7106  0.2328
 4936SOL    HW226445   0.507   1.725   3.121  0.6721  0.1421 -0.6598
 4937SOL     OW26446   4.409   0.071   3.274 -0.4112 -0.0144  0.2312
 4937SOL    HW126447   4.403   0.145   3.334  3.1998 -0.4306  1.1602
 4937SOL    HW226448   4.474   0.023   3.326 -0.8745 -0.5712  0.2981
 4938SOL     OW26449   4.195   0.721   2.585  0.7560  0.3752 -0.1737
 4938SOL    HW126450   4.209   0.709   2.679 -1.8766 -2.2569 -0.1413
 4938SOL    HW226451   4.154   0.807   2.573 -0.5448 -0.2258 -0.0061
 4939SOL     OW26452   2.964   0.568   8.079  0.1129  0.0240 -0.1976
 4939SOL    HW126453   2.996   0.478   8.084  1.3678  0.4624 -0.2664
 4939SOL    HW226454   3.018   0.604   8.010  0.8721  0.7429  0.7744
 4940SOL     OW26455   4.606   3.275  16.660 -0.0144  0.2430 -0.0959
 4940SOL    HW126456   4.644   3.255  16.745 -2.1391  0.6920  0.9647
 4940SOL    HW226457   4.531   3.216  16.654 -1.5601  2.1670  0.3309
 4941SOL     OW26458   3.292   0.781  15.578 -0.3333  0.2857 -0.6853
 4941SOL    HW126459   3.287   0.741  15.664 -1.2712  0.0740 -0.8327
 4941SOL    HW226460   3.384   0.800  15.565  0.4913 -1.7004  2.2671
 4942SOL     OW26461   3.678   1.181   8.579 -0.3910  0.0288  0.1629
 4942SOL    HW126462   3.673   1.161   8.672 -1.4294  1.5383  0.4395
 4942SOL    HW226463   3.701   1.099   8.537  1.9868  0.8586 -0.1190
 4943SOL     OW26464   0.758   3.859  12.466  0.6993 -0.7084 -0.0160
 4943SOL    HW126465   0.838   3.853  12.519  0.4193 -0.6734  0.4131
 4943SOL    HW226466   0.733   3.766  12.463  2.2505 -1.1501  0.8729
 4944SOL     OW26467   2.495   3.513   4.535 -0.2531  0.0566 -0.1580
 4944SOL    HW126468   2.541   3.528   4.618 -1.5971 -1.7358  0.9125
 4944SOL    HW226469   2.506   3.594   4.486 -1.2697 -0.7207 -1.6751
 4945SOL     OW26470   0.798   4.145   4.984 -0.3482  0.6951  0.3273
 4945SOL    HW126471   0.703   4.149   4.976 -0.4276  1.6835  1.7416
 4945SOL    HW226472   0.814   4.052   4.972  1.8776  1.3678 -2.0100
 4946SOL     OW26473   2.562   1.266   9.994 -0.0493  0.3635  0.4268
 4946SOL    HW126474   2.486   1.237   9.945  0.7515 -2.4513  0.8430
 4946SOL    HW226475   2.591   1.189  10.043 -1.7977 -0.6555 -0.1670
 4947SOL     OW26476   4.320   3.526   3.336 -0.0611 -0.2512 -0.1570
 4947SOL    HW126477   4.277   3.443   3.316 -0.9181  0.5492 -1.6612
 4947SOL    HW226478   4.287   3.573   3.259 -0.5591  0.0980  0.2715
 4948SOL     OW26479   2.258   3.010   9.612 -0.2522 -0.2815 -0.2842
 4948SOL    HW126480   2.263   2.929   9.562  0.5974  0.0638 -0.7554
 4948SOL    HW226481   2.306   3.072   9.557  2.0344 -1.0488  0.8637
 4949SOL     OW26482   1.402   3.995   6.766  0.1070  0.3856 -0.6735
 4949SOL    HW126483   1.480   4.048   6.751  0.9503 -0.3524  1.2134
 4949SOL    HW226484   1.455   3.920   6.794 -1.3906 -0.4217 -0.0222
 4950SOL     OW26485   1.270   3.073   2.194  0.2760  0.1155 -0.0987
 4950SOL    HW126486   1.357   3.058   2.158  0.9538 -0.2130  1.6923
 4950SOL    HW226487   1.272   3.007   2.263  0.6100 -0.8829 -1.0721
 4951SOL     OW26488   0.613   0.927   2.659 -1.3785  0.2417  0.4089
 4951SOL    HW126489   0.668   0.993   2.701 -1.8648 -0.4125  2.0973
 4951SOL    HW226490   0.618   0.953   2.567  0.9174 -0.3355  0.3773
 4952SOL     OW26491   3.439   0.147  14.119  0.1745  0.0826  0.5469
 4952SOL    HW126492   3.471   0.122  14.033  0.9674  0.0165  0.8548
 4952SOL    HW226493   3.378   0.076  14.139 -0.6797  0.2681 -1.4687
 4953SOL     OW26494   3.397   2.083   6.699  0.1176  0.2647  0.7140
 4953SOL    HW126495   3.472   2.132   6.665  0.4785  0.2709  1.5040
 4953SOL    HW226496   3.383   2.125   6.784  0.0642 -0.6358  1.1476
 4954SOL     OW26497   2.976   0.088   4.167  0.1659  0.1019 -0.3106
 4954SOL    HW126498   3.052   0.030   4.165 -0.8749 -1.3419  1.5492
 4954SOL    HW226499   2.993   0.146   4.241 -2.4179  0.9568 -0.3634
 4955SOL     OW26500   4.230   3.441  13.096 -0.3590  0.0883 -0.1407
 4955SOL    HW126501   4.253   3.423  13.187  0.2600 -0.0183 -0.3179
 4955SOL    HW226502   4.317   3.436  13.057 -0.1605  1.7700  0.0924
 4956SOL     OW26503   4.006   1.637  11.235  0.4014 -0.3632  0.2342
 4956SOL    HW126504   4.094   1.658  11.204  0.1381  0.2166 -0.1066
 4956SOL    HW226505   3.949   1.709  11.210  0.4165 -1.3049 -2.5011
 4957SOL     OW26506   2.975   0.796   6.038 -0.3155  0.3727 -0.2636
 4957SOL    HW126507   2.901   0.746   6.004 -0.7086  1.2639 -0.7168
 4957SOL    HW226508   3.010   0.832   5.956  0.6912  0.2084  0.0844
 4958SOL     OW26509   1.183   4.386   8.454  0.1685 -0.1800 -0.2930
 4958SOL    HW126510   1.226   4.395   8.539 -1.3150  0.6893  0.3732
 4958SOL    HW226511   1.119   4.320   8.479  1.2066 -1.8431 -2.0270
 4959SOL     OW26512   2.472   1.123   4.057  0.1122  0.2545  0.1128
 4959SOL    HW126513   2.415   1.110   4.133  0.5209 -2.0458  0.0179
 4959SOL    HW226514   2.410   1.135   3.985 -0.5755  1.3316  0.8747
 4960SOL     OW26515   3.457   0.531  15.986  0.0746  0.3916  0.3574
 4960SOL    HW126516   3.466   0.479  15.906 -0.1770 -0.3551  0.8170
 4960SOL    HW226517   3.549   0.535  16.012  0.2315 -0.5855 -0.0615
 4961SOL     OW26518   1.795   1.146   6.191 -0.3584  0.5857  0.0893
 4961SOL    HW126519   1.885   1.139   6.222  0.2234 -1.0736 -2.0504
 4961SOL    HW226520   1.736   1.108   6.256  1.4213 -2.8033 -0.3387
 4962SOL     OW26521   4.537   3.158  10.956 -0.1394  0.3946  0.5214
 4962SOL    HW126522   4.451   3.117  10.954  0.3599 -0.7502  1.7294
 4962SOL    HW226523   4.556   3.148  10.863 -0.4022 -3.1403  0.8602
 4963SOL     OW26524   3.778   0.270  11.581  0.0832 -0.9577 -0.4961
 4963SOL    HW126525   3.759   0.352  11.535  0.7336 -1.4318 -1.5965
 4963SOL    HW226526   3.801   0.214  11.507 -1.5340  0.8991 -2.4072
 4964SOL     OW26527   0.562   0.231   1.792  0.6104 -0.0120  0.3418
 4964SOL    HW126528   0.537   0.322   1.803  1.4649  0.3598 -0.7249
 4964SOL    HW226529   0.560   0.204   1.884 -1.6735 -3.3160 -0.6719
 4965SOL     OW26530   2.236   1.660  11.739  0.0176  0.0603  0.0600
 4965SOL    HW126531   2.165   1.604  11.706 -1.6406  0.2764  3.3582
 4965SOL    HW226532   2.285   1.601  11.796  0.2563  0.8607  0.6780
 4966SOL     OW26533   2.363   1.837   4.020  0.0786  1.0045 -0.0577
 4966SOL    HW126534   2.369   1.802   4.109  2.3470  1.8614  0.1418
 4966SOL    HW226535   2.429   1.783   3.977  1.1028  2.5482 -0.4382
 4967SOL     OW26536   1.071   3.550   5.001  0.9703 -0.0500 -0.0149
 4967SOL    HW126537   1.134   3.478   5.008  0.9098 -0.1143 -0.1274
 4967SOL    HW226538   1.003   3.510   5.055  0.8072 -2.0967 -1.7138
 4968SOL     OW26539   4.417   2.044   0.113  0.7966 -0.3135 -0.0603
 4968SOL    HW126540   4.409   1.963   0.063  0.2195  1.1747 -2.4373
 4968SOL    HW226541   4.473   2.095   0.055 -2.2727  3.8744  0.6480
 4969SOL     OW26542   0.145   2.964  11.800  0.4796  0.0670 -0.1603
 4969SOL    HW126543   0.124   3.053  11.772 -1.0914  0.1079  1.2112
 4969SOL    HW226544   0.061   2.943  11.841 -0.3728  1.1153 -1.3553
 4970SOL     OW26545   2.003   2.980   5.059  0.0707 -0.3878  0.3821
 4970SOL    HW126546   2.036   2.906   5.109  0.9882 -0.9387 -1.0183
 4970SOL    HW226547   1.926   3.001   5.112  0.4627 -0.9063  1.1447
 4971SOL     OW26548   2.049   2.853   0.398  0.5387 -0.1462  0.7241
 4971SOL    HW126549   1.962   2.856   0.438 -0.0373  0.9481 -0.6046
 4971SOL    HW226550   2.035   2.814   0.311 -1.9758 -1.3020  1.6507
 4972SOL     OW26551   3.611   3.761  12.332  0.7096  0.4314 -0.6423
 4972SOL    HW126552   3.548   3.713  12.278 -0.6281 -0.7154  1.9428
 4972SOL    HW226553   3.662   3.809  12.266  0.1100  0.4284 -1.1074
 4973SOL     OW26554   2.097   0.518  10.210  0.6125  0.0680 -0.3441
 4973SOL    HW126555   2.168   0.466  10.174  1.4470  0.7015  0.3988
 4973SOL    HW226556   2.069   0.473  10.289 -2.6829  1.0400 -0.9487
 4974SOL     OW26557   1.164   1.124   5.291  1.0396 -0.3611 -0.1479
 4974SOL    HW126558   1.185   1.207   5.335 -0.2421  0.1938 -0.5733
 4974SOL    HW226559   1.111   1.164   5.223 -0.0374 -0.2070  0.7801
 4975SOL     OW26560   2.869   1.003   3.732  0.2169  0.3992  0.6223
 4975SOL    HW126561   2.872   0.960   3.818  0.6906 -1.1469 -0.1811
 4975SOL    HW226562   2.820   0.937   3.684  0.2028 -1.8992  3.7614
 4976SOL     OW26563   3.570   3.939  13.791 -0.2389 -0.2754 -0.1196
 4976SOL    HW126564   3.507   3.967  13.725 -0.0720  1.0234  0.2754
 4976SOL    HW226565   3.596   3.861  13.743  1.0165 -0.9553  1.6662
 4977SOL     OW26566   1.686   2.858  11.135  0.2889 -0.3369  0.1526
 4977SOL    HW126567   1.742   2.797  11.183  3.0050  1.6562 -0.4692
 4977SOL    HW226568   1.738   2.937  11.148 -0.2709  0.2565 -1.1483
 4978SOL     OW26569   4.041   0.900   2.867 -0.5938 -0.0254  0.1232
 4978SOL    HW126570   3.975   0.882   2.934 -0.6955  1.1150  0.3288
 4978SOL    HW226571   4.079   0.983   2.895 -2.5056  1.6065 -2.1314
 4979SOL     OW26572   0.570   2.955   7.068 -0.8210 -0.3180  0.0708
 4979SOL    HW126573   0.536   3.017   7.003  1.8781  2.3348  1.1817
 4979SOL    HW226574   0.515   2.877   7.066 -1.5055  0.1492  0.4522
 4980SOL     OW26575   2.376   4.699   2.147 -0.4241 -0.0970 -0.5301
 4980SOL    HW126576   2.315   4.673   2.217  1.0131  0.0022  0.7462
 4980SOL    HW226577   2.322   0.026   2.098  0.8879  1.6533  0.2336
 4981SOL     OW26578   1.863   0.794  14.456  0.2759  0.2074  0.5907
 4981SOL    HW126579   1.827   0.717  14.501  2.3165 -1.3843 -0.4789
 4981SOL    HW226580   1.948   0.798  14.501  0.0618  1.0596  0.9132
 4982SOL     OW26581   0.868   1.645   6.545  0.3003  0.2681 -0.1849
 4982SOL    HW126582   0.886   1.567   6.597  3.4979  0.6408 -0.7825
 4982SOL    HW226583   0.846   1.718   6.603 -1.7676 -1.3215  1.0238
 4983SOL     OW26584   4.173   1.099   6.735  0.0973 -0.0341  0.3143
 4983SOL    HW126585   4.087   1.123   6.702  0.2791 -0.4052 -0.4168
 4983SOL    HW226586   4.224   1.180   6.743  0.3648 -0.1206 -0.5672
 4984SOL     OW26587   1.076   0.822   6.533  0.1831 -0.3371  0.4182
 4984SOL    HW126588   1.073   0.811   6.628  0.1947 -0.9634  0.3479
 4984SOL    HW226589   1.011   0.757   6.504 -0.8509  1.4801 -1.3102
 4985SOL     OW26590   2.043   2.702  16.438 -0.1341 -0.1128 -0.2626
 4985SOL    HW126591   2.136   2.712  16.459 -0.1929 -2.1293  0.9687
 4985SOL    HW226592   2.006   2.761  16.503  2.4541 -1.0235  2.0395
 4986SOL     OW26593   2.505   4.312  15.896  0.1085  0.5241 -0.3947
 4986SOL    HW126594   2.552   4.393  15.919  2.0316 -0.8096  0.4161
 4986SOL    HW226595   2.561   4.279  15.826 -0.9209 -0.3459 -0.8050
 4987SOL     OW26596   3.091   3.090   5.310 -0.3670 -0.3670  0.2449
 4987SOL    HW126597   3.088   3.093   5.215  2.0115 -2.9265  0.0789
 4987SOL    HW226598   3.183   3.064   5.321 -0.2981 -0.6792 -1.1091
 4988SOL     OW26599   3.105   3.697  17.682 -0.2338 -0.5047  0.2295
 4988SOL    HW126600   3.115   3.723  17.590 -0.7279  0.7237  0.5259
 4988SOL    HW226601   3.177   3.746  17.720  0.3885 -0.8551 -0.5011
 4989SOL     OW26602   2.574   2.776   4.404  0.2338 -0.6394 -0.2646
 4989SOL    HW126603   2.595   2.869   4.415 -0.9649 -0.6170  1.7542
 4989SOL    HW226604   2.482   2.778   4.378 -0.3317  0.5408  1.8180
 4990SOL     OW26605   1.182   2.831   8.996  0.1730 -0.4667 -0.1167
 4990SOL    HW126606   1.184   2.844   9.090  0.9089  1.9325 -0.4694
 4990SOL    HW226607   1.238   2.902   8.964 -2.4279  1.5283 -0.1431
 4991SOL     OW26608   1.990   0.279   2.403 -0.0699  0.5477  0.2949
 4991SOL    HW126609   1.949   0.205   2.358 -0.4125  2.1747 -2.0507
 4991SOL    HW226610   1.925   0.348   2.395 -0.9197 -0.4444 -1.6412
 4992SOL     OW26611   2.427   2.490   2.921 -0.0091 -0.3951  0.6519
 4992SOL    HW126612   2.500   2.539   2.884  0.8678 -1.8369  0.4782
 4992SOL    HW226613   2.442   2.496   3.016 -1.7534 -1.5497  1.0156
 4993SOL     OW26614   3.318   1.939   1.654  0.1885  0.3730 -0.5917
 4993SOL    HW126615   3.327   1.970   1.564 -0.0755 -0.3291 -0.8619
 4993SOL    HW226616   3.366   1.999   1.711 -3.9054  2.1674  1.0224
 4994SOL     OW26617   4.345   0.047   4.250 -0.1272 -0.7381  0.1702
 4994SOL    HW126618   4.380   0.132   4.225  1.6340 -1.4376  0.2303
 4994SOL    HW226619   4.400   0.030   4.327 -1.2103 -0.6487  0.9567
 4995SOL     OW26620   3.817   2.023   6.903  0.5109 -0.4193 -0.2603
 4995SOL    HW126621   3.828   1.968   6.981 -0.3348 -0.6044 -0.2616
 4995SOL    HW226622   3.900   2.069   6.893  0.7731 -1.3594 -2.5288
 4996SOL     OW26623   3.258   1.288  16.236  0.7276  0.1009  0.2537
 4996SOL    HW126624   3.278   1.381  16.244  2.3949 -0.1268 -1.4117
 4996SOL    HW226625   3.165   1.284  16.260  0.6760 -0.4211 -0.0367
 4997SOL     OW26626   2.215   3.422   5.166 -0.1785 -0.0902 -0.6687
 4997SOL    HW126627   2.135   3.468   5.192  1.0313  1.1005  0.9704
 4997SOL    HW226628   2.203   3.439   5.072  0.0494  1.0927 -0.4832
 4998SOL     OW26629   1.550   1.915   2.065  0.5865 -0.2278 -0.0094
 4998SOL    HW126630   1.490   1.970   2.116 -0.1009 -1.8554  0.9129
 4998SOL    HW226631   1.628   1.964   2.092 -0.1749  0.0213  1.6865
 4999SOL     OW26632   0.060   0.640   3.242  0.0907  0.2393  0.3073
 4999SOL    HW126633   0.036   0.717   3.294  1.5498  0.7847  0.1805
 4999SOL    HW226634   0.154   0.650   3.257 -0.0724 -0.3983  1.6885
 5000SOL     OW26635   3.941   1.689   2.644  0.4689 -0.0387 -0.4974
 5000SOL    HW126636   3.873   1.697   2.577  1.8613  2.5044 -1.5912
 5000SOL    HW226637   3.976   1.777   2.660 -0.0141  0.4250 -1.9926
 5001SOL     OW26638   2.495   0.732  12.485 -0.3734  0.4124 -0.4215
 5001SOL    HW126639   2.447   0.778  12.416 -3.2120  0.0279  1.2936
 5001SOL    HW226640   2.581   0.760  12.455  0.4818 -0.2668  1.4131
 5002SOL     OW26641   2.847   2.984   5.408  0.0561 -0.1371 -0.0273
 5002SOL    HW126642   2.874   2.974   5.500 -0.9752  1.4492  0.4397
 5002SOL    HW226643   2.924   3.028   5.372 -0.4020  0.7535  0.0939
 5003SOL     OW26644   0.476   4.398   8.075 -0.1539  0.3388  0.1324
 5003SOL    HW126645   0.516   4.483   8.056 -0.1059  0.2464 -0.1897
 5003SOL    HW226646   0.547   4.347   8.113 -1.7425 -1.0947  1.1455
 5004SOL     OW26647   4.665   1.373   1.732 -0.3535  1.0385  0.4232
 5004SOL    HW126648   4.591   1.345   1.785 -1.6058  2.3714 -0.6410
 5004SOL    HW226649   4.710   1.295   1.699 -0.3973  1.6973 -1.1928
 5005SOL     OW26650   4.259   4.082   5.643  0.1604  0.0787 -0.2307
 5005SOL    HW126651   4.223   3.994   5.634  1.7211 -0.3482 -2.2483
 5005SOL    HW226652   4.197   4.119   5.580 -0.5789 -2.1172 -0.7889
 5006SOL     OW26653   4.431   2.260  14.178  0.4044 -0.0815  0.2748
 5006SOL    HW126654   4.339   2.277  14.159 -0.0177 -1.9939  0.6495
 5006SOL    HW226655   4.422   2.211  14.260 -2.8402  1.7534  1.0163
 5007SOL     OW26656   3.706   3.896   2.077 -0.0046 -0.1693  0.3175
 5007SOL    HW126657   3.769   3.849   2.131 -0.9987 -1.4575  0.3696
 5007SOL    HW226658   3.673   3.960   2.140  0.5599 -0.4595  0.8965
 5008SOL     OW26659   0.899   0.923   3.023  0.4244 -0.2833 -0.8165
 5008SOL    HW126660   0.825   0.903   3.081  0.7032  1.7028  0.2442
 5008SOL    HW226661   0.940   0.838   3.040  1.8446  0.7082  0.7862
 5009SOL     OW26662   3.968   0.215   7.502 -0.0086  0.3185  0.2817
 5009SOL    HW126663   4.017   0.132   7.499 -2.9661 -1.4575  2.0233
 5009SOL    HW226664   4.010   0.262   7.575 -0.6260  0.3897  0.5891
 5010SOL     OW26665   2.552   0.246   5.632  0.5593  0.2225 -0.1559
 5010SOL    HW126666   2.457   0.233   5.623  0.2150  0.7970  2.6361
 5010SOL    HW226667   2.575   0.319   5.574 -1.1996 -0.7202 -2.0799
 5011SOL     OW26668   4.009   2.764   2.283  0.6553 -0.4159 -0.0512
 5011SOL    HW126669   3.953   2.797   2.213 -0.0554 -0.0486  0.6814
 5011SOL    HW226670   4.087   2.730   2.240  1.5613 -1.0550  2.0885
 5012SOL     OW26671   0.564   0.897   5.220  0.1182  0.5613  0.0533
 5012SOL    HW126672   0.506   0.882   5.146  0.2627  0.9349 -0.1316
 5012SOL    HW226673   0.654   0.895   5.186  0.2690  0.6272  0.4409
 5013SOL     OW26674   1.351   0.866   9.104  0.3364  0.1707 -0.1250
 5013SOL    HW126675   1.408   0.912   9.167 -1.5782  1.8482  0.3586
 5013SOL    HW226676   1.273   0.921   9.107  1.3210  1.5647 -0.4221
 5014SOL     OW26677   1.193   1.479   6.874 -0.6222  0.2977 -0.0228
 5014SOL    HW126678   1.168   1.569   6.896  3.4673  1.8091 -1.6146
 5014SOL    HW226679   1.243   1.458   6.953 -1.4571 -0.0799  0.4136
 5015SOL     OW26680   4.507   4.059  13.521  0.1033  0.7768 -0.2491
 5015SOL    HW126681   4.450   4.067  13.445 -0.1580  0.6234 -0.0663
 5015SOL    HW226682   4.551   3.977  13.501 -0.3858  0.7263 -1.0927
 5016SOL     OW26683   1.949   0.624  12.945 -0.2736  0.0891 -0.2211
 5016SOL    HW126684   1.899   0.543  12.959  1.6328 -1.2406 -1.0349
 5016SOL    HW226685   1.917   0.681  13.015 -0.7290 -0.5510  0.0933
 5017SOL     OW26686   1.149   4.497   7.182 -0.3227 -0.2907 -0.6177
 5017SOL    HW126687   1.060   4.532   7.179  0.6974  2.1895 -2.0645
 5017SOL    HW226688   1.207   4.569   7.157 -1.8536  0.9495 -0.6279
 5018SOL     OW26689   2.419   2.137   3.592  0.3387  0.1513  0.2394
 5018SOL    HW126690   2.377   2.223   3.594 -1.7255 -0.8833  1.8550
 5018SOL    HW226691   2.491   2.144   3.655  0.6609  2.3788 -0.3531
 5019SOL     OW26692   3.014   3.325   3.303 -0.4690 -0.0928 -0.2256
 5019SOL    HW126693   2.941   3.386   3.290 -1.0644 -1.2370 -2.2108
 5019SOL    HW226694   2.975   3.250   3.259  0.7729  0.1468 -1.7300
 5020SOL     OW26695   0.339   0.247   0.685 -0.5309 -0.1629 -0.1322
 5020SOL    HW126696   0.429   0.222   0.667 -0.5815 -0.9926  0.7263
 5020SOL    HW226697   0.329   0.296   0.604 -0.8596  1.1699  0.7247
 5021SOL     OW26698   3.928   1.235   2.921 -0.0375 -0.0869 -0.0735
 5021SOL    HW126699   4.005   1.206   2.971 -0.6905  1.2548  1.6999
 5021SOL    HW226700   3.934   1.330   2.932 -1.4140  0.0334 -0.4212
 5022SOL     OW26701   0.173   1.904   7.112 -0.6795  0.0900  0.7453
 5022SOL    HW126702   0.175   1.893   7.207  0.5021  1.0418  0.8337
 5022SOL    HW226703   0.203   1.993   7.094 -0.8653  0.0411  0.1919
 5023SOL     OW26704   3.613   2.491   3.021 -0.7762  0.2207  0.5210
 5023SOL    HW126705   3.560   2.423   3.063 -0.4037 -0.8710 -0.7862
 5023SOL    HW226706   3.647   2.543   3.095 -2.0829  1.0772  0.5079
 5024SOL     OW26707   3.102   2.822   2.834 -0.2272 -0.1136 -0.0990
 5024SOL    HW126708   3.034   2.760   2.860  1.3252 -0.4634  3.1067
 5024SOL    HW226709   3.043   2.884   2.791  0.3809 -0.0214 -0.7914
 5025SOL     OW26710   1.594   0.026   4.832 -0.0629  0.1263  0.1499
 5025SOL    HW126711   1.534   0.097   4.854 -1.0622 -1.7997  3.6718
 5025SOL    HW226712   1.644   0.007   4.911  3.8824 -0.0293 -2.3636
 5026SOL     OW26713   0.368   2.283  12.937 -0.3402 -0.2047  0.0885
 5026SOL    HW126714   0.358   2.215  12.871 -0.6358 -1.0514  0.9903
 5026SOL    HW226715   0.442   2.328  12.896 -0.2617 -2.1486 -1.8871
 5027SOL     OW26716   1.771   4.607  12.342  0.3504  0.0916  0.1039
 5027SOL    HW126717   1.706   4.580  12.277  0.0336 -0.1350  0.5087
 5027SOL    HW226718   1.726   4.676  12.390 -0.3624  0.6203 -1.3215
 5028SOL     OW26719   1.773   2.484   9.015  0.1320  0.3239 -0.4456
 5028SOL    HW126720   1.689   2.453   9.048 -0.1003  1.1651 -0.2370
 5028SOL    HW226721   1.829   2.434   9.075 -1.2262 -1.8886 -1.0483
 5029SOL     OW26722   1.139   4.694   3.217  0.0272  0.0188  0.3969
 5029SOL    HW126723   1.193   4.629   3.171  3.0574  0.8852  2.6978
 5029SOL    HW226724   1.166   4.683   3.308 -2.1067 -2.6154  0.7153
 5030SOL     OW26725   1.318   3.089  17.569  0.8441 -0.0888  0.4474
 5030SOL    HW126726   1.314   3.184  17.564  2.8733 -0.1133 -1.7635
 5030SOL    HW226727   1.289   3.064  17.656  0.8715  1.3737  0.8736
 5031SOL     OW26728   2.343   1.828   1.291  0.5061 -0.6403 -0.1484
 5031SOL    HW126729   2.320   1.883   1.216 -1.5685 -3.0522 -1.3262
 5031SOL    HW226730   2.352   1.739   1.255  2.0480  0.3151 -2.1267
 5032SOL     OW26731   2.642   1.829  11.582  0.2679  0.2847 -0.2140
 5032SOL    HW126732   2.549   1.810  11.572  0.7468 -2.4098  0.3072
 5032SOL    HW226733   2.666   1.812  11.491 -0.4122  0.8490 -0.4913
 5033SOL     OW26734   2.622   0.234   9.284  0.2277 -0.4219 -0.3805
 5033SOL    HW126735   2.569   0.313   9.291 -0.8058 -1.2249  0.8699
 5033SOL    HW226736   2.550   0.180   9.251  1.3015 -2.6759  0.9905
 5034SOL     OW26737   4.662   0.970   3.923 -0.2850 -0.1107 -0.1187
 5034SOL    HW126738   4.596   1.039   3.914  1.0365  1.3144  1.0762
 5034SOL    HW226739   4.704   1.005   4.002 -1.9626  0.6685  0.4455
 5035SOL     OW26740   0.030   1.135  12.519  0.0617  0.0764 -0.0726
 5035SOL    HW126741   0.017   1.223  12.482 -0.6447  1.2111  2.8460
 5035SOL    HW226742   0.045   1.083  12.440  1.6526  3.4319 -1.9992
 5036SOL     OW26743   3.104   0.645   1.546  0.0381 -0.6540 -0.2278
 5036SOL    HW126744   3.106   0.673   1.455  2.1450 -0.9221 -0.2601
 5036SOL    HW226745   3.026   0.590   1.552 -1.2121  1.2833  1.4826
 5037SOL     OW26746   3.709   1.676  16.902  0.0487  0.8971 -0.1316
 5037SOL    HW126747   3.799   1.690  16.932 -0.3446  2.9634  0.1117
 5037SOL    HW226748   3.658   1.615  16.956  1.2085  0.6959  0.7421
 5038SOL     OW26749   1.421   3.767  10.705 -0.0192  0.2187  0.4409
 5038SOL    HW126750   1.404   3.692  10.762  0.0845 -1.2632 -1.4884
 5038SOL    HW226751   1.456   3.834  10.764  0.4649  1.0765 -0.8382
 5039SOL     OW26752   1.632   0.323   2.053  0.5793  0.6188  0.2821
 5039SOL    HW126753   1.628   0.302   2.147  2.4106 -2.0166 -0.2391
 5039SOL    HW226754   1.541   0.304   2.032  0.8040 -0.1659  0.0210
 5040SOL     OW26755   0.714   2.596   6.594 -0.3373  0.1236 -0.2038
 5040SOL    HW126756   0.654   2.536   6.640 -0.0159 -1.1644 -1.4512
 5040SOL    HW226757   0.796   2.548   6.579 -1.0787 -0.8861 -1.0659
 5041SOL     OW26758   4.593   1.965   7.910  0.2512  0.5480 -0.2002
 5041SOL    HW126759   4.522   2.000   7.855  0.7309  3.3958  0.9820
 5041SOL    HW226760   4.582   1.872   7.890  0.6614  0.6016 -0.6790
 5042SOL     OW26761   2.920   3.575  13.689  0.9995  0.7446  0.0226
 5042SOL    HW126762   2.867   3.509  13.735  1.9730  0.6829  1.0753
 5042SOL    HW226763   2.845   3.634  13.685 -0.3133 -0.9357  0.0300
 5043SOL     OW26764   3.725   2.976   0.693 -0.7569 -0.3888  0.4264
 5043SOL    HW126765   3.693   3.038   0.627  2.5814  2.4542  1.5272
 5043SOL    HW226766   3.741   3.030   0.770  0.5073  1.1762 -0.9233
 5044SOL     OW26767   3.106   1.940   5.640 -0.3596  0.0107  0.6963
 5044SOL    HW126768   3.095   1.901   5.727  2.5328 -0.6393  0.7738
 5044SOL    HW226769   3.067   1.880   5.576 -1.2532 -1.6755  2.8273
 5045SOL     OW26770   1.957   1.571   7.888  0.8293 -0.0884  0.2045
 5045SOL    HW126771   1.888   1.505   7.883  0.5652  0.2808 -1.0520
 5045SOL    HW226772   2.022   1.515   7.931  1.8273  0.4347 -0.5938
 5046SOL     OW26773   1.917   3.921   3.065 -0.1003 -0.8512  0.1466
 5046SOL    HW126774   1.955   3.982   3.002  0.0106  0.8636  1.8378
 5046SOL    HW226775   1.842   3.894   3.012 -0.7555  2.3724 -0.5440
 5047SOL     OW26776   1.478   3.216   9.966 -0.3246 -0.3684  0.5022
 5047SOL    HW126777   1.396   3.231  10.013 -0.1337 -1.1802  1.0910
 5047SOL    HW226778   1.469   3.291   9.906 -1.6503  0.3509  1.5833
 5048SOL     OW26779   2.433   2.168   2.252 -0.3779 -0.1098  0.1745
 5048SOL    HW126780   2.418   2.129   2.338 -0.6645  0.2340  0.2847
 5048SOL    HW226781   2.528   2.163   2.248 -0.4910 -1.7183 -0.2705
 5049SOL     OW26782   2.956   3.374   9.595 -0.3945 -0.2249  0.6218
 5049SOL    HW126783   3.026   3.368   9.530 -1.4812 -1.8926 -0.3813
 5049SOL    HW226784   2.963   3.467   9.618 -0.0061  0.0665 -0.7017
 5050SOL     OW26785   2.191   0.836   2.151  0.7313 -0.3302  0.4284
 5050SOL    HW126786   2.276   0.853   2.191  2.0420 -0.8393 -2.1374
 5050SOL    HW226787   2.133   0.849   2.226  0.5545  1.5669 -0.0378
 5051SOL     OW26788   2.321   0.399  15.538 -0.0963 -0.2410 -0.0425
 5051SOL    HW126789   2.243   0.453  15.528  0.6283  1.1255  1.6431
 5051SOL    HW226790   2.297   0.334  15.472  0.6584  0.8867 -1.4295
 5052SOL     OW26791   0.006   1.685   0.317 -0.3718  0.0508  0.1980
 5052SOL    HW126792   0.069   1.638   0.262  0.6636  0.8826  0.6812
 5052SOL    HW226793   0.003   1.775   0.284 -2.7760 -0.1475 -0.1463
 5053SOL     OW26794   0.948   1.590   5.464 -0.5046 -0.4344  0.5607
 5053SOL    HW126795   0.862   1.548   5.466 -0.6105 -0.2439  0.0618
 5053SOL    HW226796   1.000   1.516   5.496  0.8850 -0.2050 -1.1162
 5054SOL     OW26797   2.809   4.139   7.702 -0.5673  0.5259 -0.1198
 5054SOL    HW126798   2.840   4.057   7.739 -1.9683 -0.6487 -1.5188
 5054SOL    HW226799   2.723   4.140   7.745 -0.4490  2.0000  0.0966
 5055SOL     OW26800   0.115   0.302   6.843  0.0007  0.4637  0.4460
 5055SOL    HW126801   0.085   0.221   6.885 -0.8132  0.2336 -0.5641
 5055SOL    HW226802   0.082   0.275   6.757  0.2110  1.2965  0.1080
 5056SOL     OW26803   2.620   3.072   8.196  0.4118  0.3368  0.2506
 5056SOL    HW126804   2.568   2.992   8.202  1.2541 -0.0476  2.4833
 5056SOL    HW226805   2.545   3.130   8.183  0.1080  0.2455  1.5705
 5057SOL     OW26806   0.189   1.847   7.371 -0.5023  0.9466 -0.1294
 5057SOL    HW126807   0.180   1.757   7.338 -2.4896  1.6679 -1.5664
 5057SOL    HW226808   0.139   1.838   7.452  1.6858 -2.1394  0.8776
 5058SOL     OW26809   1.197   3.931   2.874 -0.0851  0.0705 -0.4981
 5058SOL    HW126810   1.154   3.947   2.789  2.6624 -2.7609 -2.3910
 5058SOL    HW226811   1.229   3.842   2.865 -0.0023 -0.1538  1.9613
 5059SOL     OW26812   3.374   0.328   7.935  0.2135  0.0596 -0.2118
 5059SOL    HW126813   3.425   0.381   7.997  1.2427 -1.2239  0.0327
 5059SOL    HW226814   3.421   0.345   7.854 -1.1329 -0.1983 -1.0483
 5060SOL     OW26815   4.179   3.512  17.706  0.3902  0.1608 -0.8082
 5060SOL    HW126816   4.218   3.538  17.622  0.1696  0.8091 -0.7120
 5060SOL    HW226817   4.260   3.479   0.008 -0.6313 -2.6485 -1.1157
 5061SOL     OW26818   3.741   0.811   8.267  0.5350  0.3172  0.0853
 5061SOL    HW126819   3.742   0.894   8.218  0.0212  0.9594  1.1520
 5061SOL    HW226820   3.731   0.743   8.201 -0.5172 -0.3094  0.9016
 5062SOL     OW26821   1.977   0.789   9.458 -0.2988  0.1380 -0.0233
 5062SOL    HW126822   1.901   0.752   9.413 -0.6864 -1.3358  1.8440
 5062SOL    HW226823   1.951   0.879   9.474  0.7009  0.1039  1.7221
 5063SOL     OW26824   0.122   3.341   5.523 -0.2733  0.5046 -0.3180
 5063SOL    HW126825   0.158   3.299   5.601  0.0728 -0.6185 -1.0733
 5063SOL    HW226826   0.182   3.314   5.454 -0.3923 -2.2726  0.6400
 5064SOL     OW26827   1.555   2.298   7.971  0.2526 -0.7463 -0.0202
 5064SOL    HW126828   1.628   2.302   7.910  0.6083  3.1039  0.6460
 5064SOL    HW226829   1.523   2.208   7.971  0.5482 -0.8527  0.2086
 5065SOL     OW26830   1.793   0.848   4.155 -0.3564  0.1990  0.0517
 5065SOL    HW126831   1.782   0.938   4.125 -1.0502 -0.0654 -0.4817
 5065SOL    HW226832   1.883   0.849   4.189 -0.5136  2.1905  0.4134
 5066SOL     OW26833   1.462   2.417   4.188 -0.1239  0.4891  0.0767
 5066SOL    HW126834   1.461   2.510   4.163 -0.5956  0.3619 -0.3675
 5066SOL    HW226835   1.374   2.408   4.225 -0.8223  4.0898 -0.6800
 5067SOL     OW26836   4.627   1.148  14.968  0.2333  0.1702  0.1287
 5067SOL    HW126837   4.711   1.116  14.935  0.7711  0.1167  1.5527
 5067SOL    HW226838   4.622   1.237  14.935  0.1653  0.0577 -0.1614
 5068SOL     OW26839   4.171   0.806   5.906  0.4122  0.3011  0.0707
 5068SOL    HW126840   4.173   0.790   6.000 -1.5185 -0.5557 -0.0450
 5068SOL    HW226841   4.081   0.829   5.885  0.6919 -1.9747 -3.6876
 5069SOL     OW26842   1.885   3.466   2.203 -0.0613  0.1743  0.4924
 5069SOL    HW126843   1.945   3.491   2.132  0.2535 -1.3258  0.2301
 5069SOL    HW226844   1.937   3.481   2.282  0.4901  1.7036 -0.1679
 5070SOL     OW26845   3.960   0.423  10.231  0.1192 -0.1913  0.2552
 5070SOL    HW126846   3.994   0.434  10.143  0.5201  0.3866  0.4844
 5070SOL    HW226847   3.988   0.506  10.270 -0.2066 -0.9988  2.2522
 5071SOL     OW26848   2.191   1.030   7.119  0.7871  0.4112 -0.2793
 5071SOL    HW126849   2.240   1.038   7.201 -0.5704  0.4793  0.5284
 5071SOL    HW226850   2.195   0.937   7.095 -0.3937  0.3519 -0.2551
 5072SOL     OW26851   2.939   4.129  10.395 -0.6078  0.3635 -0.1241
 5072SOL    HW126852   2.965   4.048  10.438  0.3869  0.4585 -0.5476
 5072SOL    HW226853   2.869   4.153  10.455 -1.4264  1.1792 -1.4062
 5073SOL     OW26854   1.544   1.067  12.880 -0.1673 -0.3599 -0.2356
 5073SOL    HW126855   1.575   1.049  12.970  1.7275 -1.1497 -1.0316
 5073SOL    HW226856   1.604   1.133  12.847 -1.1288  0.8606  0.4503
 5074SOL     OW26857   0.452   3.207   8.093  0.4605  0.0409  0.6686
 5074SOL    HW126858   0.357   3.198   8.099  0.7105 -2.6683  0.2826
 5074SOL    HW226859   0.478   3.166   8.011  0.5786 -0.8542  1.1508
 5075SOL     OW26860   2.604   1.445   7.304 -0.1902  0.1015  0.0101
 5075SOL    HW126861   2.540   1.414   7.368 -1.4247  3.4728  0.3729
 5075SOL    HW226862   2.594   1.379   7.235  0.9008  0.9756 -0.9747
 5076SOL     OW26863   3.762   4.626  14.491  0.5246 -0.0773 -0.6591
 5076SOL    HW126864   3.758   4.656  14.400  1.8633  1.1113 -0.3134
 5076SOL    HW226865   3.789   4.534  14.487  2.1609  0.3940 -0.2025
 5077SOL     OW26866   1.814   4.439   8.808  0.8571  0.0629 -1.2758
 5077SOL    HW126867   1.792   4.521   8.852 -0.1014 -0.4570 -0.7856
 5077SOL    HW226868   1.763   4.441   8.727  0.0938  0.4448 -0.7852
 5078SOL     OW26869   1.991   4.385   8.406  0.2762  0.1391  0.3521
 5078SOL    HW126870   1.930   4.350   8.471  0.0117  2.8337  1.5526
 5078SOL    HW226871   1.987   4.479   8.427 -0.2058  0.0934  0.4720
 5079SOL     OW26872   2.161   0.749  15.997  0.7460  0.2135  0.1101
 5079SOL    HW126873   2.138   0.668  16.043 -0.0140  0.4425  0.1420
 5079SOL    HW226874   2.149   0.815  16.066 -1.1633  1.0876 -1.0516
 5080SOL     OW26875   0.379   0.362   6.899 -0.1006  0.1913  0.0791
 5080SOL    HW126876   0.368   0.327   6.811 -0.7476 -0.1152  0.2806
 5080SOL    HW226877   0.298   0.327   6.938  0.8467 -2.9966 -0.8651
 5081SOL     OW26878   3.537   0.339   6.221 -0.1684 -0.3607 -0.0544
 5081SOL    HW126879   3.554   0.283   6.297 -1.5763 -0.9610 -0.1785
 5081SOL    HW226880   3.601   0.308   6.158  0.6665  0.1358  0.5400
 5082SOL     OW26881   4.521   0.123   4.655 -0.5869  0.4228  0.0456
 5082SOL    HW126882   4.455   0.067   4.695  0.6594 -0.9816  0.1490
 5082SOL    HW226883   4.472   0.203   4.638 -2.6486  0.1147  4.5367
 5083SOL     OW26884   4.271   4.696   5.601  0.3531 -0.0276  0.8308
 5083SOL    HW126885   4.186   4.666   5.568  0.8443 -0.4697 -0.0393
 5083SOL    HW226886   4.267   4.654   5.687  2.0880 -1.8958 -0.0015
 5084SOL     OW26887   1.406   2.997   3.833 -0.2327 -0.0790 -0.2330
 5084SOL    HW126888   1.380   3.081   3.795 -1.4568 -1.6829 -2.8729
 5084SOL    HW226889   1.326   2.946   3.846 -1.2524  1.8982  1.1960
 5085SOL     OW26890   3.870   1.781   3.851  0.2306  0.4103 -0.0258
 5085SOL    HW126891   3.820   1.856   3.883  1.1803  0.3799  1.5281
 5085SOL    HW226892   3.828   1.757   3.769  0.3809  0.7161 -0.1929
 5086SOL     OW26893   3.452   3.777  14.776 -0.3815  0.0020 -0.0517
 5086SOL    HW126894   3.422   3.829  14.850 -2.2849 -2.6778  1.0617
 5086SOL    HW226895   3.380   3.790  14.715  0.1811 -1.5485 -1.0581
 5087SOL     OW26896   4.354   1.434   6.079 -0.4581 -0.1958 -0.6742
 5087SOL    HW126897   4.429   1.479   6.118  0.3684  0.6145 -3.1337
 5087SOL    HW226898   4.400   1.377   6.017 -0.1593 -2.1973  1.4257
 5088SOL     OW26899   1.985   2.402   2.132  0.0508 -0.2123 -0.1145
 5088SOL    HW126900   2.023   2.317   2.110 -0.9041 -0.1330 -2.0438
 5088SOL    HW226901   1.899   2.395   2.091 -0.7912  0.6181  1.5430
 5089SOL     OW26902   1.096   1.844   2.826 -0.0830  0.2880  0.3220
 5089SOL    HW126903   1.157   1.855   2.753  0.0958  1.3210  0.6208
 5089SOL    HW226904   1.149   1.876   2.900 -2.1687  0.7471  1.6160
 5090SOL     OW26905   2.210   4.032   7.274  0.1243 -0.1374  0.0828
 5090SOL    HW126906   2.302   4.018   7.294 -0.1479 -0.6146  1.0003
 5090SOL    HW226907   2.210   4.010   7.181  0.4542 -0.2573  0.1114
 5091SOL     OW26908   2.424   2.467   5.553  0.6243 -0.6972 -0.1028
 5091SOL    HW126909   2.507   2.494   5.591 -0.2439  4.8807 -2.1979
 5091SOL    HW226910   2.411   2.391   5.610 -1.6911 -1.3157 -1.4666
 5092SOL     OW26911   3.585   3.301  15.327  0.0990  0.4059 -0.2662
 5092SOL    HW126912   3.572   3.372  15.263  0.5256  0.5069 -0.2378
 5092SOL    HW226913   3.671   3.316  15.365 -0.2701 -1.9452  1.4568
 5093SOL     OW26914   0.709   2.513  17.188 -0.5804 -0.5747 -0.2552
 5093SOL    HW126915   0.663   2.564  17.121 -0.4708 -1.4680 -1.0166
 5093SOL    HW226916   0.632   2.514  17.245  0.1953 -1.5087  0.7960
 5094SOL     OW26917   0.172   1.164   5.854  0.1546  0.1024 -0.3807
 5094SOL    HW126918   0.182   1.069   5.861 -1.1315 -0.1229 -1.7376
 5094SOL    HW226919   0.263   1.187   5.832  0.2896  0.3308  0.4095
 5095SOL     OW26920   2.542   3.739   0.300  0.2574  0.3164  0.3768
 5095SOL    HW126921   2.478   3.795   0.344  0.9645  0.4037  1.2899
 5095SOL    HW226922   2.628   3.758   0.338  1.2837  1.1600 -2.3964
 5096SOL     OW26923   4.325   0.621  15.878  0.0029 -0.1735  0.1064
 5096SOL    HW126924   4.411   0.655  15.904 -0.4819  1.8266 -0.9818
 5096SOL    HW226925   4.293   0.685  15.814 -0.7462 -2.4542 -1.8035
 5097SOL     OW26926   2.351   1.374   6.580  0.4304 -0.1844  0.3080
 5097SOL    HW126927   2.347   1.282   6.605  0.0390 -0.9429 -2.5685
 5097SOL    HW226928   2.408   1.364   6.504  1.8090 -1.6412  1.5172
 5098SOL     OW26929   2.838   1.562   0.622  0.1248  0.0013 -0.3033
 5098SOL    HW126930   2.765   1.517   0.579 -1.1848  1.4661  0.4152
 5098SOL    HW226931   2.905   1.537   0.557  1.5654 -0.9710  1.5547
 5099SOL     OW26932   2.824   2.254   7.936 -0.2479  0.1974  0.9272
 5099SOL    HW126933   2.910   2.267   7.976 -0.2423 -1.1416  1.3459
 5099SOL    HW226934   2.795   2.342   7.916  1.2822  0.5277  0.1320
 5100SOL     OW26935   0.357   1.479   3.525 -0.6967 -0.2975 -0.3591
 5100SOL    HW126936   0.368   1.464   3.431 -1.3904 -0.5506 -0.4014
 5100SOL    HW226937   0.440   1.436   3.547 -0.5137 -0.9249 -2.3239
 5101SOL     OW26938   0.163   4.302   0.474 -0.1291  0.4012 -0.3638
 5101SOL    HW126939   0.130   4.335   0.390 -5.0193 -0.3803  1.2630
 5101SOL    HW226940   0.121   4.362   0.535  0.6159 -0.8471  1.3708
 5102SOL     OW26941   0.394   1.046   3.898 -0.4451  0.1579  0.4341
 5102SOL    HW126942   0.346   0.980   3.847 -0.2926  1.1697 -1.0141
 5102SOL    HW226943   0.474   1.055   3.846  0.0920 -0.0732  1.2306
 5103SOL     OW26944   0.755   0.081   2.158  0.0021  0.4149 -0.4267
 5103SOL    HW126945   0.821   0.140   2.122  0.7095  1.3751  2.4231
 5103SOL    HW226946   0.795   0.004   2.116  0.4378 -0.0767  0.8695
 5104SOL     OW26947   2.599   1.824   4.374  0.2113  0.4663 -0.2377
 5104SOL    HW126948   2.510   1.818   4.338  0.3595 -0.8706 -0.3643
 5104SOL    HW226949   2.609   1.739   4.416 -1.3799  0.0801 -0.6466
 5105SOL     OW26950   3.182   4.733   3.640 -0.1200 -0.1795 -0.3570
 5105SOL    HW126951   3.128   0.027   3.566 -1.6306  0.3665  0.9640
 5105SOL    HW226952   3.256   4.689   3.598  0.2522  2.4164 -2.4814
 5106SOL     OW26953   1.663   4.123  12.264 -0.1634  0.6239  0.5683
 5106SOL    HW126954   1.608   4.198  12.242 -0.4024  0.3998  0.4038
 5106SOL    HW226955   1.749   4.145  12.228 -0.5100  3.2603  1.3883
 5107SOL     OW26956   3.721   1.828   4.246  0.3544  0.1007  0.0155
 5107SOL    HW126957   3.790   1.761   4.248  1.5419  1.3159 -0.6672
 5107SOL    HW226958   3.678   1.800   4.165  0.9919  1.2331 -0.7104
 5108SOL     OW26959   1.505   2.437   7.159  0.5848  0.2615 -0.1764
 5108SOL    HW126960   1.440   2.480   7.104 -0.0956  0.0101  0.4427
 5108SOL    HW226961   1.528   2.354   7.117 -1.1944 -0.3855  0.1384
 5109SOL     OW26962   3.406   1.309  14.487  0.0276  0.5883 -0.0195
 5109SOL    HW126963   3.406   1.392  14.439 -0.7271  1.2528  1.1055
 5109SOL    HW226964   3.332   1.261  14.450 -0.9421  1.4588  0.7418
 5110SOL     OW26965   1.903   3.539  12.960 -0.3424  0.6736 -0.3458
 5110SOL    HW126966   1.913   3.598  12.886  2.4730 -1.1134 -1.4114
 5110SOL    HW226967   1.971   3.472  12.951  0.4396  1.2833  1.0694
 5111SOL     OW26968   2.939   1.470   8.846  0.1535 -0.5707  0.1021
 5111SOL    HW126969   2.861   1.525   8.850  2.6251  2.9551  0.1634
 5111SOL    HW226970   2.990   1.504   8.920  0.9592 -0.6543 -0.4089
 5112SOL     OW26971   4.436   1.800  14.870  0.0627  0.4895 -0.0651
 5112SOL    HW126972   4.513   1.828  14.920 -0.4889  0.6685  0.6880
 5112SOL    HW226973   4.371   1.849  14.922 -0.7370  1.0366 -1.5715
 5113SOL     OW26974   3.111   4.101   3.929 -0.0664  0.3785 -0.3297
 5113SOL    HW126975   3.175   4.061   3.988  1.5720  1.9371 -1.0270
 5113SOL    HW226976   3.070   4.021   3.897  2.1169 -0.7341 -0.3629
 5114SOL     OW26977   0.727   0.347  14.235  0.5229  0.7421  0.4382
 5114SOL    HW126978   0.708   0.313  14.322 -1.1321 -0.7322 -0.4805
 5114SOL    HW226979   0.659   0.313  14.176  0.1040  0.1920  1.2364
 5115SOL     OW26980   3.135   1.710   6.750  0.1904 -0.2544  0.1038
 5115SOL    HW126981   3.104   1.619   6.748 -0.2260 -0.1264  0.6576
 5115SOL    HW226982   3.142   1.727   6.844 -3.0347 -0.6256  0.4333
 5116SOL     OW26983   1.041   2.870   7.580  0.5287  0.1900 -0.8711
 5116SOL    HW126984   1.061   2.963   7.583  1.8720 -0.1335  0.0584
 5116SOL    HW226985   1.074   2.839   7.495  0.0762 -0.1218 -0.9307
 5117SOL     OW26986   1.143   3.693   3.405 -0.2434  0.6102 -0.3633
 5117SOL    HW126987   1.157   3.718   3.497  0.4577 -1.3675  0.0809
 5117SOL    HW226988   1.071   3.753   3.385 -1.8870 -0.8153  1.1655
 5118SOL     OW26989   0.587   4.532   6.847  0.0142  0.5489 -0.6628
 5118SOL    HW126990   0.495   4.548   6.868 -0.0761  1.6529 -1.8692
 5118SOL    HW226991   0.586   4.491   6.760  0.6502  0.0189 -0.4192
 5119SOL     OW26992   0.101   3.172   5.872 -0.3086 -0.1486 -0.3404
 5119SOL    HW126993   0.136   3.084   5.885  0.2980 -0.0066 -1.0111
 5119SOL    HW226994   0.181   3.224   5.861 -2.1361  2.7630 -0.1338
 5120SOL     OW26995   3.677   3.174   3.031  0.3379 -0.0268  0.2353
 5120SOL    HW126996   3.758   3.173   2.980  0.3731  0.6102  0.2724
 5120SOL    HW226997   3.628   3.106   2.985 -1.8006 -0.1025  2.6111
 5121SOL     OW26998   2.824   1.785   5.871 -0.3103 -0.2460  0.3685
 5121SOL    HW126999   2.854   1.810   5.959  0.8373 -0.1989 -0.0292
 5121SOL    HW227000   2.757   1.853   5.864 -0.4277 -0.4801 -0.6933
 5122SOL     OW27001   4.018   0.653  15.919  0.0663 -0.1940  0.5125
 5122SOL    HW127002   4.005   0.737  15.963 -0.8744 -0.6942  1.1940
 5122SOL    HW227003   4.067   0.601  15.984  0.1682 -0.1939  0.4359
 5123SOL     OW27004   1.343   1.648   9.728 -0.5462  0.1051  0.0596
 5123SOL    HW127005   1.405   1.658   9.801 -1.7227 -1.0735  1.2097
 5123SOL    HW227006   1.397   1.692   9.662 -1.2004  0.0822 -0.4867
 5124SOL     OW27007   1.788   0.418  13.069  0.5133 -0.1427  0.2972
 5124SOL    HW127008   1.697   0.392  13.084 -0.1348  0.3980 -2.5679
 5124SOL    HW227009   1.798   0.354  12.999 -1.2387  0.1621 -0.2373
 5125SOL     OW27010   1.838   2.012   8.048  0.2620 -0.9387  0.4172
 5125SOL    HW127011   1.795   2.013   8.134  0.6642 -1.0579  0.6191
 5125SOL    HW227012   1.882   2.096   8.055 -1.2160 -0.1514  0.2612
 5126SOL     OW27013   0.093   1.894  14.838 -0.1519  0.1546 -0.3234
 5126SOL    HW127014   0.168   1.859  14.790  0.5822 -2.0028  2.4087
 5126SOL    HW227015   0.098   1.979  14.796  0.8999  1.0515  1.6182
 5127SOL     OW27016   0.531   3.090  12.957  0.0709  0.1485  0.0058
 5127SOL    HW127017   0.610   3.080  12.904 -0.9743  0.8032 -1.6854
 5127SOL    HW227018   0.541   3.018  13.020  0.4455  1.1644  1.1073
 5128SOL     OW27019   1.661   4.006  13.552 -0.1076 -0.0764  0.1455
 5128SOL    HW127020   1.737   3.949  13.562 -0.9698 -1.1813  0.3070
 5128SOL    HW227021   1.646   3.992  13.458  0.0490  2.3039 -0.2375
 5129SOL     OW27022   1.914   0.070   9.543  0.2344  0.8582  0.6195
 5129SOL    HW127023   1.971   0.079   9.620 -1.4140  1.1502  1.7963
 5129SOL    HW227024   1.978   0.027   9.485 -1.4429 -0.2388 -0.3971
 5130SOL     OW27025   3.179   1.457  15.603  0.2606  0.4707 -0.0172
 5130SOL    HW127026   3.264   1.427  15.570 -0.2386  0.2832 -1.1192
 5130SOL    HW227027   3.157   1.386  15.664 -0.3370  0.0814 -0.6880
 5131SOL     OW27028   1.093   2.568  15.781  0.1837  0.0084 -0.1751
 5131SOL    HW127029   1.082   2.663  15.788  1.4682  0.3143 -2.2872
 5131SOL    HW227030   1.181   2.559  15.817  0.4969 -0.5144 -1.0652
 5132SOL     OW27031   1.204   3.968   1.883  0.8763 -0.0038  0.0424
 5132SOL    HW127032   1.163   3.896   1.932  1.6505 -0.9079 -0.6445
 5132SOL    HW227033   1.134   4.003   1.828  2.2501  1.0103 -1.0268
 5133SOL     OW27034   4.037   1.194  11.209  0.1124 -0.1897  0.8815
 5133SOL    HW127035   4.027   1.123  11.145 -1.6546 -0.2928  1.2734
 5133SOL    HW227036   4.048   1.269  11.151 -0.7813 -0.8301 -0.1416
 5134SOL     OW27037   0.862   4.571   7.171 -0.2649  0.4138 -0.2194
 5134SOL    HW127038   0.772   4.598   7.152  0.3755  4.0934  2.0538
 5134SOL    HW227039   0.901   4.640   7.225  2.5861 -0.1957 -1.4813
 5135SOL     OW27040   3.315   0.509  12.425  0.3161  1.1251 -0.0190
 5135SOL    HW127041   3.257   0.567  12.375  1.1447  1.1561 -0.9487
 5135SOL    HW227042   3.400   0.554  12.424  0.0487  1.5817 -1.9186
 5136SOL     OW27043   2.312   1.961   0.920  0.1453  0.4265 -0.3458
 5136SOL    HW127044   2.401   1.959   0.957 -0.5258  0.7928  1.3045
 5136SOL    HW227045   2.264   1.978   1.001  2.2270  1.3295  0.7073
 5137SOL     OW27046   0.480   1.597   6.164  0.5259 -0.1019  0.1887
 5137SOL    HW127047   0.522   1.541   6.229 -1.8601  0.6188  2.3416
 5137SOL    HW227048   0.406   1.539   6.150 -0.1647  0.9557 -0.5364
 5138SOL     OW27049   1.577   3.284  14.551 -0.1904 -0.4342 -0.1292
 5138SOL    HW127050   1.580   3.349  14.622 -0.7252  0.4184 -0.8867
 5138SOL    HW227051   1.579   3.203  14.602  2.7883 -0.2770  0.0213
 5139SOL     OW27052   3.234   3.380   4.589  0.3078 -0.1866 -0.1840
 5139SOL    HW127053   3.155   3.413   4.632  0.3868 -0.2671  0.0206
 5139SOL    HW227054   3.270   3.325   4.659 -0.1504 -0.5024 -0.1940
 5140SOL     OW27055   0.046   2.289  15.510 -0.1333 -0.0772  0.2859
 5140SOL    HW127056   0.028   2.373  15.552  3.6127  1.6210 -1.5561
 5140SOL    HW227057   4.708   2.235  15.543 -0.4349  0.1751  0.0388
 5141SOL     OW27058   0.211   2.672   8.733  0.5657  0.6201  0.0790
 5141SOL    HW127059   0.242   2.746   8.786 -2.5817  2.0586 -0.0944
 5141SOL    HW227060   0.119   2.693   8.712  0.0184 -1.6561  0.2783
 5142SOL     OW27061   0.360   4.683  13.075 -0.0211 -0.4833  0.1398
 5142SOL    HW127062   0.267   4.667  13.090  0.5371 -2.2571  1.6458
 5142SOL    HW227063   0.363   4.669  12.980  1.5133 -1.3171  0.3034
 5143SOL     OW27064   1.885   1.866   1.876  0.3563  0.4999  0.0543
 5143SOL    HW127065   1.898   1.834   1.966  0.2408  2.8460  0.9120
 5143SOL    HW227066   1.809   1.811   1.859  0.4127  0.9537 -1.6552
 5144SOL     OW27067   4.625   0.030   6.345  0.4421  0.8324  0.2086
 5144SOL    HW127068   4.717   0.032   6.373  1.3334  0.3099 -2.6830
 5144SOL    HW227069   4.603   4.675   6.370  0.2486  0.1165 -2.5054
 5145SOL     OW27070   3.430   0.413   4.524  0.3073 -0.1349  0.1042
 5145SOL    HW127071   3.402   0.363   4.447  1.6237  0.4558 -0.7550
 5145SOL    HW227072   3.399   0.354   4.593 -1.9579  1.0347  0.0730
 5146SOL     OW27073   1.576   3.178   4.230  0.3613  0.0617 -0.3508
 5146SOL    HW127074   1.601   3.090   4.201 -1.0623 -0.0369 -1.2741
 5146SOL    HW227075   1.539   3.226   4.155 -1.5098 -2.1163 -0.8350
 5147SOL     OW27076   1.599   1.533   6.724  0.1984 -0.0957 -0.3690
 5147SOL    HW127077   1.593   1.456   6.667 -1.1524  0.5287 -1.0480
 5147SOL    HW227078   1.637   1.594   6.662 -0.0993  0.4557 -0.0039
 5148SOL     OW27079   3.533   0.357   0.328  0.4858  0.4130 -0.0862
 5148SOL    HW127080   3.517   0.400   0.244 -0.9318  1.3476  0.6645
 5148SOL    HW227081   3.546   0.436   0.381  0.0803  1.1544 -1.0819
 5149SOL     OW27082   3.386   0.883   3.230  0.4706  0.4997 -0.5319
 5149SOL    HW127083   3.367   0.841   3.146 -1.3603 -0.9440  0.6039
 5149SOL    HW227084   3.425   0.818   3.288 -2.6939 -0.5822  0.3822
 5150SOL     OW27085   3.403   1.434  15.389  0.6715 -0.2547 -0.4502
 5150SOL    HW127086   3.379   1.348  15.425 -0.4601  0.7871  1.3163
 5150SOL    HW227087   3.493   1.431  15.422  0.9942  0.6129 -1.2651
 5151SOL     OW27088   0.345   1.321   8.206  0.1738 -0.0062  0.0112
 5151SOL    HW127089   0.345   1.234   8.244 -2.9241  0.1499  0.3901
 5151SOL    HW227090   0.357   1.302   8.113 -0.2818 -0.5607  0.0692
 5152SOL     OW27091   3.802   0.503   9.431  0.0776 -0.3706 -1.0176
 5152SOL    HW127092   3.720   0.478   9.474 -0.6168  0.3296 -1.9399
 5152SOL    HW227093   3.860   0.430   9.455 -1.0989 -0.7506  0.7542
 5153SOL     OW27094   2.748   3.959   3.727 -0.3567  0.4007  1.1164
 5153SOL    HW127095   2.776   3.922   3.811 -0.8122  1.6772  1.8171
 5153SOL    HW227096   2.826   3.974   3.674  0.3957  1.8346  2.6408
 5154SOL     OW27097   3.686   3.534  12.651  0.2553  0.1122  0.0869
 5154SOL    HW127098   3.747   3.522  12.724 -0.4048 -0.1177  0.5962
 5154SOL    HW227099   3.737   3.594  12.597  0.7745 -0.7091 -0.3451
 5155SOL     OW27100   1.987   4.634  10.310  0.5759 -0.0604  0.5749
 5155SOL    HW127101   2.020   4.544  10.313  0.2046 -0.2865 -2.4260
 5155SOL    HW227102   2.057   4.670  10.257  1.4408 -2.5942 -0.0332
 5156SOL     OW27103   2.067   0.937   1.860  0.2664  0.1491  0.2341
 5156SOL    HW127104   2.081   0.946   1.954  0.7643 -0.2728  0.2042
 5156SOL    HW227105   2.077   0.842   1.850 -0.8937 -0.1029  1.4456
 5157SOL     OW27106   2.855   1.950   8.192  0.1047  0.1448 -0.1587
 5157SOL    HW127107   2.820   1.899   8.265 -1.5000  1.4339 -0.0250
 5157SOL    HW227108   2.866   2.034   8.235  0.8340 -0.1400  0.2007
 5158SOL     OW27109   3.366   2.247   3.242 -0.3890  0.3951 -0.2894
 5158SOL    HW127110   3.308   2.223   3.315  0.2145 -1.2371 -0.3300
 5158SOL    HW227111   3.440   2.189   3.257 -0.9667  0.2061  1.9164
 5159SOL     OW27112   2.784   3.288   6.636  0.2285  0.1820  0.4584
 5159SOL    HW127113   2.828   3.370   6.658 -2.9852  1.2753  2.6802
 5159SOL    HW227114   2.789   3.244   6.721  0.1852 -0.1823  0.2702
 5160SOL     OW27115   4.606   4.675   5.998 -0.0416  0.7949  0.6319
 5160SOL    HW127116   4.563   0.014   5.954  0.7162  1.7757  1.5341
 5160SOL    HW227117   4.615   4.701   6.090  0.5022  0.5323  0.6529
 5161SOL     OW27118   1.780   0.776   0.710  0.3447 -0.0869  0.2434
 5161SOL    HW127119   1.858   0.823   0.682 -0.6293  1.2154 -0.3019
 5161SOL    HW227120   1.709   0.841   0.711  1.4121  1.0625  1.0611
 5162SOL     OW27121   3.779   0.470  14.837  0.8301  0.3055 -0.0764
 5162SOL    HW127122   3.817   0.482  14.924  0.7459  0.8519 -0.1153
 5162SOL    HW227123   3.736   0.385  14.844  0.6279  0.6018  2.3168
 5163SOL     OW27124   3.195   1.061   3.264 -0.0310  0.2373  0.0469
 5163SOL    HW127125   3.246   0.985   3.238 -0.6917 -0.4035  0.6026
 5163SOL    HW227126   3.270   1.094   3.314 -0.7372  0.5213  0.9249
 5164SOL     OW27127   4.691   4.621  15.586  0.5926 -0.2119  0.7399
 5164SOL    HW127128   4.672   4.713  15.568  1.0143 -0.0760  0.9963
 5164SOL    HW227129   4.639   4.575  15.519 -0.6452  2.8351 -0.3782
 5165SOL     OW27130   2.921   0.291   3.744 -0.4165  0.2421  0.0628
 5165SOL    HW127131   2.956   0.360   3.800 -0.2501  0.4060 -0.2481
 5165SOL    HW227132   2.879   0.240   3.814  2.0102 -1.2992  0.4259
 5166SOL     OW27133   2.581   4.150   6.296 -0.0450 -0.0022  0.3827
 5166SOL    HW127134   2.524   4.146   6.373 -0.4324  1.2788  0.1719
 5166SOL    HW227135   2.648   4.204   6.336 -0.6450  1.5796 -0.7327
 5167SOL     OW27136   3.377   1.905   3.857 -0.1894 -0.6015  0.2062
 5167SOL    HW127137   3.361   1.838   3.791  0.7177  0.2396 -0.8711
 5167SOL    HW227138   3.442   1.955   3.808 -0.9330  0.3915  0.2361
 5168SOL     OW27139   2.610   0.405   7.811 -0.5554  0.0914  0.2745
 5168SOL    HW127140   2.673   0.455   7.759 -1.0227  0.6490  0.2474
 5168SOL    HW227141   2.650   0.318   7.808  0.0661  0.3576  0.9280
 5169SOL     OW27142   1.900   3.688   2.810 -0.7602 -0.0818  0.6715
 5169SOL    HW127143   1.907   3.622   2.742 -1.0447  0.4058  0.1670
 5169SOL    HW227144   1.983   3.733   2.796 -0.9304  0.3178  0.9442
 5170SOL     OW27145   4.687   1.803   4.697 -0.3350 -0.3944  0.3138
 5170SOL    HW127146   0.044   1.830   4.701  0.0780 -1.7916  0.0334
 5170SOL    HW227147   4.648   1.889   4.679 -0.7249 -0.7194 -0.4028
 5171SOL     OW27148   2.143   4.379   5.620  0.1096 -0.0619 -0.4360
 5171SOL    HW127149   2.187   4.306   5.663 -1.4326 -1.1267 -0.6457
 5171SOL    HW227150   2.059   4.376   5.666  1.1563  0.4429  1.5129
 5172SOL     OW27151   4.214   1.316   2.166  0.1968  0.0612 -0.5500
 5172SOL    HW127152   4.240   1.257   2.237 -1.1398  3.1807  2.5292
 5172SOL    HW227153   4.255   1.272   2.092 -1.2235 -0.5198 -0.9984
 5173SOL     OW27154   1.857   3.947   3.379 -0.5843 -0.2261  0.1860
 5173SOL    HW127155   1.879   3.872   3.434 -3.4334 -0.6601  0.7615
 5173SOL    HW227156   1.905   3.928   3.299  1.3560 -1.8885  1.7711
 5174SOL     OW27157   3.761   2.245   5.912 -0.3369  0.0501 -0.3703
 5174SOL    HW127158   3.687   2.193   5.942  0.0742 -1.3904 -1.9319
 5174SOL    HW227159   3.837   2.203   5.952 -0.2577 -0.0178 -0.5928
 5175SOL     OW27160   4.341   4.397   4.624 -0.0415 -0.3565  0.8343
 5175SOL    HW127161   4.387   4.414   4.541 -0.6727 -0.5071  0.4553
 5175SOL    HW227162   4.252   4.406   4.592  0.5030 -0.7369 -0.7859
 5176SOL     OW27163   0.072   1.513   2.974 -0.4385 -0.1675  0.4601
 5176SOL    HW127164   4.734   1.574   2.965 -0.0083  0.5387  1.9282
 5176SOL    HW227165   0.101   1.487   2.886  1.0560 -0.2580  0.9718
 5177SOL     OW27166   2.696   1.298   4.022  0.1626  0.2021 -0.0276
 5177SOL    HW127167   2.633   1.246   4.072 -0.2770 -1.2491 -2.0848
 5177SOL    HW227168   2.679   1.261   3.935  1.1028  1.0276 -0.5644
 5178SOL     OW27169   4.460   3.796   3.687  0.2062 -0.1366 -0.1682
 5178SOL    HW127170   4.529   3.789   3.622  1.2639  0.0228  0.9386
 5178SOL    HW227171   4.521   3.808   3.760 -2.8313  0.3587  2.3202
 5179SOL     OW27172   4.474   3.268   8.774  0.3854 -0.2020 -0.1542
 5179SOL    HW127173   4.402   3.264   8.712  1.7645  1.7857 -1.8596
 5179SOL    HW227174   4.446   3.192   8.825  2.3586  0.4599  1.9536
 5180SOL     OW27175   4.092   2.055   4.527 -0.1227  0.5427 -0.5391
 5180SOL    HW127176   4.066   1.980   4.474  1.5009 -0.0174 -0.5427
 5180SOL    HW227177   4.080   2.023   4.617 -0.4898 -0.2416 -0.8662
 5181SOL     OW27178   1.154   1.938   2.537  0.0752 -0.0533 -0.0506
 5181SOL    HW127179   1.091   1.968   2.471  0.2798 -2.5086 -1.3653
 5181SOL    HW227180   1.140   2.003   2.606 -1.8170  2.1975 -2.5323
 5182SOL     OW27181   1.504   4.418   3.465 -0.0476 -0.1123  0.1353
 5182SOL    HW127182   1.539   4.390   3.381 -0.4196 -0.2802  0.0387
 5182SOL    HW227183   1.578   4.414   3.526  1.7471  1.2417 -1.9777
 5183SOL     OW27184   3.502   3.045   5.470 -0.3116 -0.1139  0.2032
 5183SOL    HW127185   3.447   3.002   5.405 -0.7652 -1.8301  1.7576
 5183SOL    HW227186   3.507   3.134   5.433  2.0211  0.3910  1.6828
 5184SOL     OW27187   2.492   1.175   2.081 -0.0071 -0.1984  0.3367
 5184SOL    HW127188   2.472   1.103   2.021  0.4043  0.3690 -0.4757
 5184SOL    HW227189   2.432   1.155   2.153  1.0306 -3.4431  0.2864
 5185SOL     OW27190   3.317   1.549   3.381  0.6595  0.1205  0.1814
 5185SOL    HW127191   3.364   1.518   3.458  0.4531 -1.3888 -0.3051
 5185SOL    HW227192   3.284   1.633   3.415 -2.5743 -1.5047  1.0158
 5186SOL     OW27193   0.164   1.895   7.802 -0.1261 -1.4881 -0.5260
 5186SOL    HW127194   0.094   1.881   7.866 -0.8334  0.4063 -0.8966
 5186SOL    HW227195   0.240   1.867   7.854 -0.8296  0.7592  1.7587
 5187SOL     OW27196   2.482   0.845   3.476  0.0404  0.0040  0.1473
 5187SOL    HW127197   2.496   0.760   3.518  1.2549  0.1719  0.0799
 5187SOL    HW227198   2.479   0.820   3.383 -0.8443 -0.2185  0.2350
 5188SOL     OW27199   2.688   4.255   3.391 -0.0378  0.2005  0.5484
 5188SOL    HW127200   2.760   4.254   3.328 -0.0653  2.8089  0.4697
 5188SOL    HW227201   2.651   4.168   3.376  1.2543 -0.2766  0.0790
 5189SOL     OW27202   3.517   3.732  15.333 -0.5454  0.4284 -0.0660
 5189SOL    HW127203   3.555   3.815  15.364  0.1602  0.3069 -0.5997
 5189SOL    HW227204   3.440   3.714  15.387  0.3662 -0.5183  0.9192
 5190SOL     OW27205   3.553   0.053  14.368 -0.1954  0.3053  0.1256
 5190SOL    HW127206   3.465   0.033  14.338  0.4608 -1.4325 -0.6394
 5190SOL    HW227207   3.599   0.068  14.286  0.0734  0.1363  0.2437
 5191SOL     OW27208   1.658   2.555   3.299 -0.3145 -0.2660  0.8305
 5191SOL    HW127209   1.688   2.646   3.301 -2.7747  0.5637 -0.1008
 5191SOL    HW227210   1.695   2.530   3.384 -0.5077 -0.6710  0.7952
 5192SOL     OW27211   0.055   4.031   5.587  0.0009 -0.0826 -0.2287
 5192SOL    HW127212   4.711   4.085   5.585  0.4337  0.5931  1.2463
 5192SOL    HW227213   0.019   3.942   5.591 -0.2134 -0.0643 -1.6064
 5193SOL     OW27214   1.619   1.583   0.521 -0.1718  0.1494  0.2391
 5193SOL    HW127215   1.539   1.614   0.479 -0.2412 -2.2001 -1.4117
 5193SOL    HW227216   1.575   1.520   0.578  1.1424 -0.9212  0.0689
 5194SOL     OW27217   3.827   1.672   2.106 -0.1995 -0.2816  0.0916
 5194SOL    HW127218   3.878   1.741   2.061 -1.6772  1.5673  1.2561
 5194SOL    HW227219   3.889   1.634   2.169 -0.8315 -0.7517  0.4191
 5195SOL     OW27220   1.531   0.942   5.924  0.4375 -0.0962 -0.1045
 5195SOL    HW127221   1.578   1.021   5.951 -2.0546  1.6381 -0.8131
 5195SOL    HW227222   1.470   0.951   5.997  0.6750  1.6453 -0.1061
 5196SOL     OW27223   4.387   4.571  14.012 -0.2725  0.7273  0.1452
 5196SOL    HW127224   4.474   4.533  14.000 -0.0589  1.3641 -0.3324
 5196SOL    HW227225   4.365   4.561  14.105  2.0863  0.4887  0.6741
 5197SOL     OW27226   4.658   3.070   9.707  0.1458  0.1881  0.0733
 5197SOL    HW127227   4.625   3.120   9.631  0.2777 -0.0240 -0.1234
 5197SOL    HW227228   4.663   3.140   9.772 -1.4458 -2.0082  2.5445
 5198SOL     OW27229   1.832   2.606   2.536  0.3854 -0.0141  0.6927
 5198SOL    HW127230   1.902   2.671   2.548 -0.3010  1.2174 -1.8491
 5198SOL    HW227231   1.894   2.533   2.537  0.9620  0.4802  1.5987
 5199SOL     OW27232   3.350   2.837   1.995  0.2378 -0.6621 -0.5895
 5199SOL    HW127233   3.437   2.814   1.963  0.4650 -1.4529  0.5862
 5199SOL    HW227234   3.331   2.752   2.035 -0.3534 -1.6832 -3.0321
 5200SOL     OW27235   1.109   4.292   5.732 -0.5768  0.0856 -0.2576
 5200SOL    HW127236   1.015   4.298   5.713 -0.5246 -0.3756 -0.6510
 5200SOL    HW227237   1.142   4.366   5.681 -1.1805  0.1870 -0.5001
 5201SOL     OW27238   0.605   1.224  15.245  0.1613  0.4955  0.0107
 5201SOL    HW127239   0.568   1.195  15.328 -2.4643 -1.4750 -1.8466
 5201SOL    HW227240   0.641   1.309  15.269  0.0493  0.3048  0.8496
 5202SOL     OW27241   1.809   1.189   6.728 -0.2642  0.0971  0.2157
 5202SOL    HW127242   1.899   1.221   6.739 -0.9074  1.7591  0.6722
 5202SOL    HW227243   1.795   1.134   6.805 -0.8456 -0.1932 -0.1035
 5203SOL     OW27244   0.427   2.842   0.435  0.3001 -0.1318 -0.6351
 5203SOL    HW127245   0.424   2.904   0.508  0.7636 -0.4350 -0.3544
 5203SOL    HW227246   0.335   2.841   0.408  0.2279 -0.0762 -0.3955
 5204SOL     OW27247   1.211   2.322   5.750 -0.0017 -0.0569  0.1985
 5204SOL    HW127248   1.175   2.240   5.716 -2.6254  0.4270  1.7353
 5204SOL    HW227249   1.233   2.369   5.670 -2.2427  0.1865 -0.2993
 5205SOL     OW27250   2.141   0.339   9.413 -0.3965 -0.4337 -0.4019
 5205SOL    HW127251   2.174   0.367   9.328  0.1377 -0.1413 -0.0994
 5205SOL    HW227252   2.131   0.246   9.393 -3.0601 -0.3433  0.5052
 5206SOL     OW27253   3.229   4.163   5.771  0.0619  0.6163 -0.4053
 5206SOL    HW127254   3.183   4.079   5.772 -1.5921  1.5138 -0.1912
 5206SOL    HW227255   3.307   4.152   5.825  0.3805  1.5416 -0.6922
 5207SOL     OW27256   2.681   3.179   1.426  0.0256 -0.3514  0.6629
 5207SOL    HW127257   2.717   3.204   1.511  0.6235 -0.7769  0.5329
 5207SOL    HW227258   2.758   3.133   1.393 -1.2073 -1.4020 -0.7543
 5208SOL     OW27259   4.030   4.580  13.447  0.3657 -0.2621  0.1734
 5208SOL    HW127260   3.964   4.572  13.379  1.1481  1.3094 -0.7691
 5208SOL    HW227261   4.023   4.672  13.472  2.3974 -0.3745  1.1640
 5209SOL     OW27262   0.593   1.022   5.471  1.3043 -0.3150  0.3418
 5209SOL    HW127263   0.626   0.995   5.386  0.4384  3.6096 -1.2186
 5209SOL    HW227264   0.507   1.059   5.449  2.6391  2.1073 -0.7321
 5210SOL     OW27265   1.585   1.614   4.849 -0.0515  0.1157  0.2054
 5210SOL    HW127266   1.652   1.668   4.808  0.9819 -1.4982 -0.2602
 5210SOL    HW227267   1.570   1.540   4.790 -1.0918  0.7817 -0.3740
 5211SOL     OW27268   3.971   2.446   8.611 -0.5256  0.1169 -0.3426
 5211SOL    HW127269   3.971   2.426   8.704 -0.7203 -1.7688 -0.7588
 5211SOL    HW227270   3.966   2.354   8.587  0.3528 -0.1544  0.5085
 5212SOL     OW27271   2.159   4.037   4.851 -0.4246  0.2497  0.1531
 5212SOL    HW127272   2.195   4.094   4.919  0.1895 -0.4498  0.4098
 5212SOL    HW227273   2.092   3.995   4.905 -0.9587  0.1934 -0.5627
 5213SOL     OW27274   3.525   4.243  16.996 -0.1725  0.0661 -0.1691
 5213SOL    HW127275   3.545   4.252  16.903  0.6843 -1.7987 -0.1620
 5213SOL    HW227276   3.526   4.148  17.011 -3.9936 -0.0324 -0.5085
 5214SOL     OW27277   1.558   3.067  11.729 -0.7220 -0.2417 -0.5232
 5214SOL    HW127278   1.574   3.009  11.803 -0.2446  0.5396 -0.0195
 5214SOL    HW227279   1.582   3.151  11.767 -0.0166 -1.2110  1.1861
 5215SOL     OW27280   3.623   1.486   1.694  0.2103  0.0905  0.1934
 5215SOL    HW127281   3.633   1.409   1.749 -0.0722 -1.1707 -1.5419
 5215SOL    HW227282   3.595   1.552   1.758  0.5430  0.2902  0.1386
 5216SOL     OW27283   4.217   1.764   7.598  0.3706  0.0252  0.0277
 5216SOL    HW127284   4.136   1.802   7.630  0.0153  0.1397 -1.0022
 5216SOL    HW227285   4.231   1.819   7.520 -1.3615  0.3709 -0.0295
 5217SOL     OW27286   4.274   2.600  13.006 -0.4138 -0.3875 -0.4613
 5217SOL    HW127287   4.182   2.604  12.978 -1.0675  2.3016  2.0078
 5217SOL    HW227288   4.306   2.523  12.960  1.6633 -0.4266  1.0478
 5218SOL     OW27289   3.489   3.242  11.879  0.2052  0.6066  0.4334
 5218SOL    HW127290   3.422   3.257  11.812  0.0987 -2.1876 -0.0582
 5218SOL    HW227291   3.493   3.330  11.916 -1.2556  0.4146  1.0603
 5219SOL     OW27292   2.119   4.467   2.508  0.0940 -0.4405 -0.3375
 5219SOL    HW127293   2.041   4.469   2.453 -1.1804  1.4578  1.5185
 5219SOL    HW227294   2.108   4.543   2.566  1.4906 -2.8689  3.1196
 5220SOL     OW27295   2.384   0.953   3.032 -0.3208 -0.2893 -0.8525
 5220SOL    HW127296   2.410   1.042   3.055  2.5127 -1.0673 -1.0105
 5220SOL    HW227297   2.445   0.908   3.091 -2.5026  0.7591  2.2065
 5221SOL     OW27298   1.475   0.683   8.886 -0.1138 -0.4978  0.2608
 5221SOL    HW127299   1.436   0.761   8.926 -0.4373 -1.2976  1.4907
 5221SOL    HW227300   1.493   0.709   8.795 -2.1364  0.8160  0.2137
 5222SOL     OW27301   3.701   2.924   4.432 -0.0938 -0.3247  0.4544
 5222SOL    HW127302   3.651   2.861   4.379  0.2902  1.1433 -1.6227
 5222SOL    HW227303   3.701   2.878   4.516 -1.1318  0.5570  0.9265
 5223SOL     OW27304   1.928   1.394  12.278 -0.4331  0.2633 -0.0857
 5223SOL    HW127305   1.973   1.393  12.194 -0.7186 -0.7641 -0.2231
 5223SOL    HW227306   1.965   1.316  12.319 -1.3257 -0.6193 -0.9692
 5224SOL     OW27307   0.867   4.575   3.514 -0.1665  0.3022 -0.8837
 5224SOL    HW127308   0.897   4.492   3.478 -3.8211 -2.7625  3.0151
 5224SOL    HW227309   0.900   4.638   3.450  1.6304 -0.7223 -0.9513
 5225SOL     OW27310   1.446   1.305   5.501  0.1166 -0.5672 -0.6213
 5225SOL    HW127311   1.472   1.268   5.417 -1.6791  1.2061 -1.9414
 5225SOL    HW227312   1.482   1.245   5.567 -0.2168  1.8082  1.7296
 5226SOL     OW27313   4.088   3.537   8.302 -0.0090  0.1298  0.4108
 5226SOL    HW127314   4.084   3.494   8.217 -0.6549  2.3640 -0.6797
 5226SOL    HW227315   4.007   3.503   8.339 -0.1757  0.5195  0.4031
 5227SOL     OW27316   3.924   3.405   3.761 -0.0423  0.3964 -0.4701
 5227SOL    HW127317   3.974   3.324   3.750 -1.4492 -0.4478 -0.6644
 5227SOL    HW227318   3.994   3.471   3.769  1.8924 -1.8012  0.6919
 5228SOL     OW27319   4.463   2.678  17.525  0.0881 -0.2313  0.3540
 5228SOL    HW127320   4.496   2.620  17.593 -1.7661 -1.6863  0.0120
 5228SOL    HW227321   4.373   2.691  17.555 -0.7081 -3.7846 -0.4928
 5229SOL     OW27322   3.510   0.409   7.732 -0.0854 -0.3092  0.0758
 5229SOL    HW127323   3.596   0.373   7.749  0.6013  1.5314  0.5192
 5229SOL    HW227324   3.498   0.401   7.638 -2.6981 -0.8687  0.4539
 5230SOL     OW27325   0.737   3.508   7.948  0.1758 -0.5699 -0.1274
 5230SOL    HW127326   0.738   3.603   7.959 -1.4190 -0.8755  2.6585
 5230SOL    HW227327   0.691   3.483   8.028 -0.3992 -2.9988 -1.2249
 5231SOL     OW27328   0.022   0.497  17.496  0.0291  0.4185 -0.2383
 5231SOL    HW127329   0.051   0.507  17.405 -0.3265  1.6003 -0.2317
 5231SOL    HW227330   4.681   0.444  17.472  2.6906 -3.3397 -0.1568
 5232SOL     OW27331   1.908   4.563   6.650 -0.6811  0.7208  0.0083
 5232SOL    HW127332   1.931   4.476   6.682  1.2658  1.8338  1.6762
 5232SOL    HW227333   1.858   4.540   6.572 -1.5616 -1.5642  1.2326
 5233SOL     OW27334   3.116   1.212   1.524 -0.1648  0.5068  0.0666
 5233SOL    HW127335   3.077   1.171   1.447  2.1054  1.1304 -1.4276
 5233SOL    HW227336   3.157   1.141   1.573 -1.6001 -1.4738 -1.5871
 5234SOL     OW27337   1.174   2.586   3.998  0.7508 -0.5374 -0.2438
 5234SOL    HW127338   1.196   2.644   3.924 -2.1560  1.5437  0.5252
 5234SOL    HW227339   1.155   2.644   4.071 -1.7865 -1.4775 -0.1469
 5235SOL     OW27340   2.669   2.058   8.027 -0.0849 -0.0897 -0.1845
 5235SOL    HW127341   2.717   1.998   8.085 -0.6639 -1.3330 -0.9804
 5235SOL    HW227342   2.733   2.123   8.002 -0.0136  0.3668  1.1937
 5236SOL     OW27343   2.262   4.119  11.607 -0.3458  0.4195  0.3740
 5236SOL    HW127344   2.176   4.129  11.648  0.6004 -3.6012  3.2405
 5236SOL    HW227345   2.295   4.205  11.631 -1.8454  1.0323  0.2557
 5237SOL     OW27346   0.960   0.232   7.909 -0.3126  0.8546  0.2115
 5237SOL    HW127347   0.982   0.245   7.817  0.3012  0.8921  0.3682
 5237SOL    HW227348   0.994   0.150   7.944 -0.3457  1.6715  2.1509
 5238SOL     OW27349   4.086   0.253   7.778 -0.1844 -0.5657 -0.5228
 5238SOL    HW127350   4.052   0.170   7.812  2.0292 -0.8968  0.8901
 5238SOL    HW227351   4.163   0.225   7.729  0.3960  1.0200 -0.5107
 5239SOL     OW27352   2.901   3.392  12.361  0.0958  0.7142  0.0070
 5239SOL    HW127353   2.944   3.312  12.331  1.2336  1.3392 -0.0342
 5239SOL    HW227354   2.809   3.378  12.339  0.2066 -0.7362  0.4219
 5240SOL     OW27355   3.220   3.057   3.666  0.2387 -0.5644  0.4127
 5240SOL    HW127356   3.255   2.970   3.685 -2.6213 -2.4378 -2.8742
 5240SOL    HW227357   3.137   3.024   3.631  0.6220  0.5380 -1.5208
 5241SOL     OW27358   4.060   2.628   0.760  1.3531  0.6643 -0.2777
 5241SOL    HW127359   3.969   2.656   0.746 -0.1001 -1.7433  4.4056
 5241SOL    HW227360   4.044   2.547   0.808 -3.8793  1.4891 -0.5616
 5242SOL     OW27361   3.453   3.647   2.150 -0.2537 -0.7237  0.2297
 5242SOL    HW127362   3.468   3.740   2.138  1.6889 -1.5063 -3.5540
 5242SOL    HW227363   3.455   3.618   2.058 -0.0758  0.8055 -0.2373
 5243SOL     OW27364   0.104   4.641  13.112 -0.4109 -0.6432  0.1988
 5243SOL    HW127365   0.120   4.558  13.158  1.0450 -1.0522 -1.0597
 5243SOL    HW227366   0.011   4.620  13.099 -0.5679  0.0433  0.2250
 5244SOL     OW27367   2.454   1.609  15.907 -0.2375  0.4131  0.1677
 5244SOL    HW127368   2.508   1.687  15.897 -1.4094  1.2484  0.2919
 5244SOL    HW227369   2.369   1.633  15.869  0.0791 -0.9683 -1.4115
 5245SOL     OW27370   0.992   2.684  13.300  0.6293  0.5392  0.0238
 5245SOL    HW127371   0.953   2.648  13.220 -0.0994  1.0509  0.1510
 5245SOL    HW227372   0.940   2.653  13.374 -1.5429  3.9747 -0.0846
 5246SOL     OW27373   2.103   2.014   0.742  0.6930 -0.0102 -0.0773
 5246SOL    HW127374   2.151   1.968   0.811 -0.0729 -0.4640  0.1575
 5246SOL    HW227375   2.171   2.072   0.709  0.2701  0.0156 -0.8921
 5247SOL     OW27376   2.861   2.196   6.282 -0.8799  0.3854 -0.1236
 5247SOL    HW127377   2.895   2.228   6.366 -2.9391  0.8986  0.5112
 5247SOL    HW227378   2.774   2.170   6.314 -0.0226 -1.1876  0.9116
 5248SOL     OW27379   2.218   0.543   2.510  0.9390  0.0872 -0.2867
 5248SOL    HW127380   2.130   0.580   2.504  0.6203 -0.7402 -0.8044
 5248SOL    HW227381   2.266   0.618   2.544  0.0596  0.5525 -0.0781
 5249SOL     OW27382   0.282   2.145   5.153  0.5342  0.1115  0.2098
 5249SOL    HW127383   0.211   2.165   5.093  1.3238 -0.4912 -0.9311
 5249SOL    HW227384   0.367   2.155   5.109  0.2945  0.2899 -0.2115
 5250SOL     OW27385   4.403   4.191   5.214  0.6753 -0.2752  0.1107
 5250SOL    HW127386   4.347   4.117   5.189  1.9792 -1.1658 -0.1677
 5250SOL    HW227387   4.354   4.263   5.174  0.8499  0.1551  0.6641
 5251SOL     OW27388   3.862   0.756   3.908 -0.0027  0.7058  0.4591
 5251SOL    HW127389   3.914   0.800   3.975 -0.3424  1.1137  0.4488
 5251SOL    HW227390   3.791   0.820   3.904  0.2158  0.8478 -0.8500
 5252SOL     OW27391   2.631   3.871  16.969 -0.0046  0.0754 -0.1464
 5252SOL    HW127392   2.678   3.861  17.052  1.3270  1.6104 -0.7077
 5252SOL    HW227393   2.662   3.798  16.917 -0.7841  0.4234 -1.0991
 5253SOL     OW27394   3.084   2.627   4.989  0.6229  0.2180 -0.6134
 5253SOL    HW127395   3.019   2.589   4.931  0.1000  0.8972 -0.4698
 5253SOL    HW227396   3.044   2.710   5.012 -0.5065 -0.2788 -0.8015
 5254SOL     OW27397   1.810   0.898   3.746  0.2055  0.6813 -0.2581
 5254SOL    HW127398   1.724   0.937   3.766  1.2892  1.8229  2.1681
 5254SOL    HW227399   1.791   0.816   3.700  2.5584 -0.6861  1.1972
 5255SOL     OW27400   0.666   3.304   5.247 -0.0146  0.2525  0.1521
 5255SOL    HW127401   0.583   3.310   5.293 -0.1519 -0.1431 -0.0382
 5255SOL    HW227402   0.719   3.249   5.305  1.7355  0.2153 -1.4648
 5256SOL     OW27403   0.108   3.984  14.877 -0.2911 -0.7006 -0.6539
 5256SOL    HW127404   0.188   3.935  14.895 -0.6462 -2.4554 -3.9444
 5256SOL    HW227405   0.133   4.077  14.874 -2.2600 -0.2039 -1.8571
 5257SOL     OW27406   1.264   1.223   6.002 -0.0195  0.2853 -0.3803
 5257SOL    HW127407   1.291   1.155   6.064 -0.3519 -0.4266 -1.0114
 5257SOL    HW227408   1.334   1.288   6.012 -0.1889  0.4436 -0.2404
 5258SOL     OW27409   0.569   4.477   1.663  0.3558 -0.2576  0.0561
 5258SOL    HW127410   0.636   4.410   1.675  0.2345 -0.2681  0.6405
 5258SOL    HW227411   0.621   4.558   1.661  0.4516 -0.2656  2.7710
 5259SOL     OW27412   3.081   4.084   1.132 -0.1297  0.0514 -0.1639
 5259SOL    HW127413   3.159   4.113   1.180  1.5843 -1.0256 -2.2707
 5259SOL    HW227414   3.121   4.052   1.051  1.0838  0.1258  0.4110
 5260SOL     OW27415   0.877   2.867  11.236 -0.3443 -0.0417  0.1917
 5260SOL    HW127416   0.957   2.859  11.184 -0.0898 -1.0944  0.7552
 5260SOL    HW227417   0.908   2.865  11.326 -0.3540  0.2838  0.2041
 5261SOL     OW27418   2.870   1.941   4.466  0.0070 -0.3724 -0.4561
 5261SOL    HW127419   2.793   1.891   4.441 -0.2975 -0.5447  0.8448
 5261SOL    HW227420   2.945   1.897   4.426  0.5971 -1.2440  1.6356
 5262SOL     OW27421   3.858   3.423   4.302 -0.5422 -0.1827  0.0285
 5262SOL    HW127422   3.948   3.419   4.333 -0.1307  1.5817 -0.9511
 5262SOL    HW227423   3.866   3.432   4.207 -1.0939  1.8049  0.1718
 5263SOL     OW27424   1.436   0.406   3.899  0.2480 -0.0064 -0.2499
 5263SOL    HW127425   1.492   0.328   3.905 -1.0384 -0.8422  0.9004
 5263SOL    HW227426   1.358   0.352   3.890 -1.3334  2.6951 -2.6260
 5264SOL     OW27427   3.988   4.691   5.563 -0.6466  0.2821  0.4021
 5264SOL    HW127428   4.021   4.602   5.578  1.2408  0.6694 -1.5242
 5264SOL    HW227429   3.893   4.681   5.575 -0.4249 -2.2806  0.0776
 5265SOL     OW27430   1.383   3.288   3.716  0.0539 -0.0022 -0.2186
 5265SOL    HW127431   1.376   3.382   3.702  0.2903 -0.0626 -0.7291
 5265SOL    HW227432   1.322   3.282   3.790 -0.7492 -0.3357 -0.9101
 5266SOL     OW27433   4.385   3.496   4.990 -0.4799  0.0554  0.5000
 5266SOL    HW127434   4.413   3.524   4.903 -2.7217 -0.7661 -0.4627
 5266SOL    HW227435   4.461   3.474   5.044 -0.4173  1.0717  0.8161
 5267SOL     OW27436   1.188   3.170   0.059 -0.1985  0.2507 -0.4087
 5267SOL    HW127437   1.260   3.227   0.084  0.7866 -0.4275 -1.6974
 5267SOL    HW227438   1.134   3.230   0.007  0.9865  0.2457 -1.6487
 5268SOL     OW27439   1.690   2.697   1.152  0.2978 -0.2117  0.1284
 5268SOL    HW127440   1.689   2.633   1.081 -0.7835 -0.0398 -0.0101
 5268SOL    HW227441   1.598   2.701   1.177  0.5266 -1.9199  1.2655
 5269SOL     OW27442   3.945   3.805   1.218  0.6017 -0.4717 -0.5356
 5269SOL    HW127443   3.991   3.872   1.167 -1.0221  2.9381  2.4648
 5269SOL    HW227444   4.002   3.808   1.295  1.9908 -0.4374 -1.5727
 5270SOL     OW27445   2.674   2.681   7.259 -0.4986 -0.1700  0.1763
 5270SOL    HW127446   2.624   2.738   7.317  1.5895  1.9968 -0.1722
 5270SOL    HW227447   2.751   2.738   7.257  0.3992 -1.3637  0.0984
 5271SOL     OW27448   1.853   1.432  14.213  0.2259 -0.1862 -0.3210
 5271SOL    HW127449   1.914   1.501  14.187 -0.4100  0.7426  0.6369
 5271SOL    HW227450   1.913   1.368  14.253 -0.5860  0.1385  1.4229
 5272SOL     OW27451   0.935   4.553   6.890  0.2526  0.2406 -0.0231
 5272SOL    HW127452   0.920   4.545   6.984  2.3899 -1.0530  0.2265
 5272SOL    HW227453   0.849   4.580   6.860  0.7187 -0.4556 -1.9562
 5273SOL     OW27454   3.635   1.361   4.894  0.1472 -0.2059 -0.1982
 5273SOL    HW127455   3.583   1.312   4.829 -2.1256  1.4391  0.3916
 5273SOL    HW227456   3.715   1.381   4.845  1.4708 -0.8999  1.6751
 5274SOL     OW27457   0.368   4.717   6.592  0.2816  0.0650 -0.1428
 5274SOL    HW127458   0.455   4.680   6.577  0.7604  0.3685  1.9730
 5274SOL    HW227459   0.394   0.074   6.581  2.2958 -0.8410 -3.0166
 5275SOL     OW27460   2.760   2.413   8.178 -0.3131  0.5307  0.0543
 5275SOL    HW127461   2.681   2.455   8.144 -1.0761 -0.3234  0.7733
 5275SOL    HW227462   2.825   2.458   8.124 -0.2090 -1.2552 -1.2957
 5276SOL     OW27463   4.556   1.661   2.437 -0.5586  0.1698 -0.7105
 5276SOL    HW127464   4.497   1.638   2.365 -1.2814  1.0177 -0.3796
 5276SOL    HW227465   4.511   1.607   2.503 -0.2899 -1.2025 -1.6447
 5277SOL     OW27466   2.382   3.540   1.602 -0.3506  0.8097  0.0685
 5277SOL    HW127467   2.468   3.505   1.624 -0.0159  1.4464 -0.2500
 5277SOL    HW227468   2.393   3.635   1.606  3.2533  0.3557  1.0083
 5278SOL     OW27469   1.917   3.888   4.312  0.6909  0.2069 -0.4300
 5278SOL    HW127470   1.984   3.827   4.344 -4.6132 -3.7685  2.9726
 5278SOL    HW227471   1.924   3.889   4.216 -2.3778  2.2778 -0.5973
 5279SOL     OW27472   0.825   2.620   5.530 -0.0797 -0.3160  0.1927
 5279SOL    HW127473   0.877   2.653   5.603 -0.9925 -0.7782  1.0609
 5279SOL    HW227474   0.891   2.613   5.462  0.7193 -2.3434  1.1592
 5280SOL     OW27475   3.450   3.445  14.285 -0.1642  0.0928  0.3750
 5280SOL    HW127476   3.479   3.526  14.326  1.2135 -0.1866 -0.0524
 5280SOL    HW227477   3.514   3.376  14.305  1.0925  0.6454 -1.7810
 5281SOL     OW27478   1.763   4.159  10.167  0.2939  0.4565  0.1208
 5281SOL    HW127479   1.764   4.140  10.261  1.9728  1.6088  0.3292
 5281SOL    HW227480   1.844   4.204  10.143  0.9928  0.8627  3.2171
 5282SOL     OW27481   2.306   0.998   3.729 -0.1630  0.9266  0.2746
 5282SOL    HW127482   2.231   0.996   3.789  0.3682 -0.9339  0.8803
 5282SOL    HW227483   2.338   1.088   3.740 -1.1589  1.1224  1.5733
 5283SOL     OW27484   0.148   0.954   9.207 -0.3167  0.3183  0.5761
 5283SOL    HW127485   0.133   0.990   9.295 -0.0778  1.6061  0.0892
 5283SOL    HW227486   0.167   1.038   9.166  3.6012 -0.9480 -0.2363
 5284SOL     OW27487   0.662   0.868   5.917 -0.1949 -0.7875 -0.4172
 5284SOL    HW127488   0.625   0.888   6.003 -1.5745 -2.8630 -0.5193
 5284SOL    HW227489   0.658   0.958   5.886 -0.4281 -0.8574 -0.5903
 5285SOL     OW27490   4.561   1.047   8.990  0.3000 -0.3045 -0.4867
 5285SOL    HW127491   4.635   1.107   8.974 -1.9692  1.9311 -2.6420
 5285SOL    HW227492   4.514   1.051   8.907  1.2877  0.5164 -1.0113
 5286SOL     OW27493   0.226   4.527   2.191  0.0978  0.0709 -0.0449
 5286SOL    HW127494   0.283   4.548   2.117  0.3012 -2.7704 -0.6974
 5286SOL    HW227495   0.252   4.601   2.245  0.5434  0.2145 -0.4563
 5287SOL     OW27496   1.119   1.374   7.347 -0.5736  0.3294 -0.4582
 5287SOL    HW127497   1.184   1.305   7.361  1.1860  2.3796  1.5586
 5287SOL    HW227498   1.093   1.389   7.438  0.9063 -1.6526  0.2951
 5288SOL     OW27499   4.096   3.497   2.443  0.0839  0.1596 -0.4713
 5288SOL    HW127500   4.098   3.404   2.465 -0.8921  0.8135  2.4123
 5288SOL    HW227501   4.009   3.506   2.404  0.2029  2.9121 -0.1055
 5289SOL     OW27502   2.503   3.319  16.582  0.0026 -0.3976 -0.0017
 5289SOL    HW127503   2.480   3.390  16.522 -2.0368 -1.8836 -0.9934
 5289SOL    HW227504   2.425   3.263  16.588  0.0729 -0.4198  0.8073
 5290SOL     OW27505   0.454   3.232   9.302  0.1127  0.3900 -0.2566
 5290SOL    HW127506   0.426   3.261   9.215 -1.2584 -1.1749 -0.3451
 5290SOL    HW227507   0.546   3.219   9.278  0.1791  1.1246 -0.4042
 5291SOL     OW27508   1.432   2.003   9.110 -0.7892  0.1494 -0.6122
 5291SOL    HW127509   1.479   1.926   9.078 -1.4344 -0.4890 -0.0324
 5291SOL    HW227510   1.342   1.973   9.101 -1.3185  1.1070  1.3356
 5292SOL     OW27511   4.650   3.853   3.874 -0.4265 -0.4468  0.2963
 5292SOL    HW127512   4.722   3.906   3.841 -1.1032  0.7648  0.7357
 5292SOL    HW227513   4.640   3.906   3.954  0.8380 -0.3001  0.3476
 5293SOL     OW27514   4.718   0.011  13.373 -0.0956 -0.1709 -0.2422
 5293SOL    HW127515   4.693   0.005  13.466 -1.6072 -0.9816 -0.6986
 5293SOL    HW227516   4.733   4.653  13.355  0.0648  0.0783 -1.3474
 5294SOL     OW27517   3.266   2.106   8.365  0.1552 -0.2927  0.5425
 5294SOL    HW127518   3.189   2.055   8.388 -0.5884  0.8984  0.7144
 5294SOL    HW227519   3.230   2.188   8.399  1.4976  0.2247  0.7203
 5295SOL     OW27520   3.613   0.409   8.062  0.5064  0.6783  0.6019
 5295SOL    HW127521   3.676   0.478   8.044  1.5816 -1.1938 -2.7859
 5295SOL    HW227522   3.655   0.327   8.037 -0.1306  0.4037  0.4163
 5296SOL     OW27523   4.028   1.870   2.059 -0.0723 -0.3592 -0.2232
 5296SOL    HW127524   4.019   1.945   1.999 -0.5119  1.8851  2.6356
 5296SOL    HW227525   4.069   1.800   2.008 -1.3556 -0.6258 -0.8964
 5297SOL     OW27526   4.023   3.943  14.700 -0.7511  0.0080  0.1308
 5297SOL    HW127527   4.115   3.923  14.713 -0.6256  0.1794 -0.4725
 5297SOL    HW227528   4.016   3.932  14.605  0.0432 -0.7607  0.1658
 5298SOL     OW27529   2.254   4.219   9.377 -0.1596 -0.1493  0.1092
 5298SOL    HW127530   2.309   4.268   9.317  1.7496  1.7918  3.4030
 5298SOL    HW227531   2.214   4.286   9.433 -1.5071 -1.4649  0.7266
 5299SOL     OW27532   4.199   1.353   2.650 -0.0017 -0.2472 -0.7215
 5299SOL    HW127533   4.287   1.371   2.681 -0.0630 -0.0080 -0.6827
 5299SOL    HW227534   4.185   1.259   2.659  1.8913 -0.2569  2.0896
 5300SOL     OW27535   2.221   4.102   5.655 -0.1842 -0.1383  0.4056
 5300SOL    HW127536   2.283   4.095   5.727  0.9610  0.2873 -0.5245
 5300SOL    HW227537   2.278   4.077   5.582  1.6657  0.7190  1.5729
 5301SOL     OW27538   2.908   1.304   2.646  0.6740 -0.5476  0.4413
 5301SOL    HW127539   2.975   1.312   2.713  0.2088 -0.6404  0.9215
 5301SOL    HW227540   2.962   1.339   2.575 -0.7125 -1.9149 -1.2942
 5302SOL     OW27541   1.992   2.904   8.800 -0.8092 -0.0655  0.1393
 5302SOL    HW127542   1.931   2.846   8.847  1.0084 -0.5067  1.9901
 5302SOL    HW227543   1.969   2.991   8.831  0.9408  0.4265  0.0385
 5303SOL     OW27544   2.803   3.191  12.000 -0.2366 -0.3534 -0.7350
 5303SOL    HW127545   2.822   3.243  11.922 -0.8197 -0.7695 -1.1509
 5303SOL    HW227546   2.865   3.119  11.986 -1.1363 -1.3650  0.5382
 5304SOL     OW27547   1.039   3.821   8.335  0.0438  0.7549  0.3179
 5304SOL    HW127548   1.057   3.727   8.344 -0.4847  0.4394 -2.0572
 5304SOL    HW227549   0.962   3.828   8.393 -0.5411  1.5418 -0.5509
 5305SOL     OW27550   4.554   2.545   7.585  0.1993  0.3270 -0.1815
 5305SOL    HW127551   4.505   2.529   7.504 -1.5555 -3.4191  1.6002
 5305SOL    HW227552   4.640   2.574   7.558  0.3269  0.2074  0.0952
 5306SOL     OW27553   2.311   2.246   8.718  0.3650  0.0249 -0.0441
 5306SOL    HW127554   2.279   2.309   8.654  0.8108  0.6262  0.3304
 5306SOL    HW227555   2.405   2.259   8.714  0.0467  2.2895 -0.2448
 5307SOL     OW27556   1.993   3.399   9.485 -0.4362 -0.1011  0.5010
 5307SOL    HW127557   2.043   3.469   9.526 -0.6034 -0.5632  1.4928
 5307SOL    HW227558   2.017   3.329   9.545  1.1669 -1.0867 -1.2761
 5308SOL     OW27559   2.829   2.970   6.348  0.1480 -0.1873  0.2329
 5308SOL    HW127560   2.816   2.893   6.293  0.1003 -0.4381  0.5966
 5308SOL    HW227561   2.905   2.941   6.398  0.3752  1.1004  0.6418
 5309SOL     OW27562   2.629   1.879   7.382  0.1372 -0.4476 -0.1258
 5309SOL    HW127563   2.698   1.900   7.320 -0.9840  0.6644 -0.9986
 5309SOL    HW227564   2.666   1.807   7.432  1.4237  0.5121  0.2837
 5310SOL     OW27565   1.671   0.522   7.729  0.0506  0.1896 -0.0107
 5310SOL    HW127566   1.583   0.536   7.763  0.0004 -2.7680  1.1273
 5310SOL    HW227567   1.663   0.585   7.657  1.1426  2.5456  1.9434
 5311SOL     OW27568   0.010   3.322  15.694  0.2994 -0.2655  0.2018
 5311SOL    HW127569   0.024   3.332  15.788 -1.3627  1.2545  0.2723
 5311SOL    HW227570   0.063   3.391  15.654  0.9293 -1.8681 -1.7252
 5312SOL     OW27571   3.693   3.048  16.123  0.5045 -0.5341 -0.7833
 5312SOL    HW127572   3.644   3.026  16.203  0.2699 -0.3470 -0.8763
 5312SOL    HW227573   3.749   2.970  16.118 -2.3354 -2.6174 -0.1416
 5313SOL     OW27574   3.755   3.318  16.670 -0.2192  0.4681  0.0752
 5313SOL    HW127575   3.815   3.274  16.610 -0.4637  0.8753 -0.4700
 5313SOL    HW227576   3.682   3.333  16.610 -0.7139  1.7354  0.9933
 5314SOL     OW27577   3.760   1.640   3.655  0.1872 -0.0050 -0.0343
 5314SOL    HW127578   3.716   1.668   3.575  0.1494 -1.1766 -0.4135
 5314SOL    HW227579   3.783   1.551   3.631  0.8990  0.6182 -1.6639
 5315SOL     OW27580   4.596   3.901   1.904 -0.4513 -0.3161 -0.5659
 5315SOL    HW127581   4.546   3.873   1.827  2.0537 -2.0578 -1.5210
 5315SOL    HW227582   4.673   3.944   1.868 -0.0298 -1.1780 -0.6828
 5316SOL     OW27583   2.041   4.503   7.548  0.4711 -0.3719  0.0019
 5316SOL    HW127584   2.073   4.589   7.524  2.9650 -1.2863  0.0691
 5316SOL    HW227585   2.084   4.449   7.482  3.6699 -1.6051  3.1168
 5317SOL     OW27586   0.473   1.052   9.598  0.0021 -0.1333  0.1449
 5317SOL    HW127587   0.405   1.055   9.665 -1.3250 -2.8771 -1.0823
 5317SOL    HW227588   0.554   1.054   9.649 -0.4977 -1.3489  0.9690
 5318SOL     OW27589   4.377   1.895   4.931  0.3927 -0.1837  0.0928
 5318SOL    HW127590   4.370   1.807   4.968 -0.7633 -0.3059 -0.4190
 5318SOL    HW227591   4.412   1.948   5.002  2.5162 -1.6619  0.1553
 5319SOL     OW27592   3.085   0.174   4.662  0.0759  0.1973  0.7328
 5319SOL    HW127593   3.102   0.149   4.753  0.8699 -2.3708 -0.1436
 5319SOL    HW227594   3.057   0.087   4.633  1.0460  0.6473 -1.5495
 5320SOL     OW27595   0.499   2.712  12.784  0.1726  0.2223  0.6868
 5320SOL    HW127596   0.523   2.793  12.739  0.2171 -0.0130  0.2881
 5320SOL    HW227597   0.543   2.650  12.725  0.7978  2.2587 -0.9624
 5321SOL     OW27598   0.621   1.156  17.645  0.1928  0.4144 -0.0417
 5321SOL    HW127599   0.546   1.156  17.705 -0.5269  2.3622 -0.9483
 5321SOL    HW227600   0.669   1.076  17.667  2.3984  2.0029  0.9975
 5322SOL     OW27601   2.646   2.037   4.087 -0.9476 -0.1922  0.1074
 5322SOL    HW127602   2.554   2.059   4.070 -1.0343 -2.4156 -2.3079
 5322SOL    HW227603   2.646   2.052   4.182  0.7337  0.7668 -0.0464
 5323SOL     OW27604   1.611   0.221   7.247  0.1377 -0.2527  0.5386
 5323SOL    HW127605   1.623   0.127   7.239 -0.5904 -0.4074  1.2639
 5323SOL    HW227606   1.671   0.237   7.319  0.6992 -0.4837  0.1276
 5324SOL     OW27607   0.875   1.185   5.664  0.0465  0.4941  0.0874
 5324SOL    HW127608   0.856   1.265   5.713  1.9640  0.6519  0.5674
 5324SOL    HW227609   0.953   1.145   5.703  0.0583  2.2148  1.8361
 5325SOL     OW27610   1.871   2.851   1.940 -0.0060 -0.6455 -0.5754
 5325SOL    HW127611   1.878   2.805   2.023 -1.4101 -1.5492 -0.9490
 5325SOL    HW227612   1.965   2.866   1.933  0.1292 -0.2024  2.0947
 5326SOL     OW27613   1.527   0.703   9.827  0.0505  0.2260 -0.0299
 5326SOL    HW127614   1.614   0.728   9.796 -0.6380  0.4157 -1.7756
 5326SOL    HW227615   1.538   0.640   9.898 -1.0143  1.9827  1.7149
 5327SOL     OW27616   4.113   4.279   2.143 -0.0847 -0.2899 -0.0722
 5327SOL    HW127617   4.068   4.325   2.073 -0.2334 -0.0905  0.1568
 5327SOL    HW227618   4.045   4.248   2.203  0.5057 -0.9490  0.2611
 5328SOL     OW27619   2.633   3.589   7.489  0.0380 -0.3498  0.2377
 5328SOL    HW127620   2.710   3.582   7.431 -0.1011  0.4826 -0.0455
 5328SOL    HW227621   2.572   3.590   7.416  0.2294  0.9056  0.0858
 5329SOL     OW27622   1.708   2.312   6.658 -0.0567 -0.2622  0.3912
 5329SOL    HW127623   1.736   2.326   6.567  0.1170 -3.6900 -0.0632
 5329SOL    HW227624   1.752   2.228   6.673 -0.0574  0.0557  2.1620
 5330SOL     OW27625   4.572   1.049  16.665  0.8629 -0.0299 -0.2758
 5330SOL    HW127626   4.512   1.060  16.591  1.2792 -1.4491 -0.8309
 5330SOL    HW227627   4.611   1.136  16.669 -0.6075  0.6916 -1.5198
 5331SOL     OW27628   0.073   0.186   3.651  0.1036 -0.9651 -0.0416
 5331SOL    HW127629   0.033   0.207   3.735  2.0847 -3.0806  1.4341
 5331SOL    HW227630   0.151   0.142   3.683 -0.1896 -3.3686 -2.6269
 5332SOL     OW27631   4.610   2.358   4.143  0.4058 -0.0938 -0.2099
 5332SOL    HW127632   4.617   2.337   4.050  1.9810  0.3463 -0.1918
 5332SOL    HW227633   4.705   2.356   4.160  0.2040 -2.1742  0.5896
 5333SOL     OW27634   1.800   1.779   4.732  0.8320 -0.1507 -0.0571
 5333SOL    HW127635   1.743   1.844   4.692  1.8705 -0.1846 -1.5946
 5333SOL    HW227636   1.878   1.788   4.677  2.1260 -0.5520  1.6886
 5334SOL     OW27637   1.492   1.654   5.848  0.3865 -0.3302 -0.2079
 5334SOL    HW127638   1.567   1.698   5.807 -0.1853 -0.4701 -1.4001
 5334SOL    HW227639   1.513   1.649   5.941  0.0267  2.1846  0.0242
 5335SOL     OW27640   4.300   4.719   8.367  0.3358 -0.3069 -0.5048
 5335SOL    HW127641   4.308   4.695   8.460 -0.3054 -0.0066 -0.3723
 5335SOL    HW227642   4.274   4.638   8.325  1.0088  0.0387 -1.5918
 5336SOL     OW27643   4.037   0.893   1.581 -0.1300  0.9099 -0.0239
 5336SOL    HW127644   4.093   0.951   1.530  0.5518  2.0571  2.0195
 5336SOL    HW227645   4.002   0.833   1.515 -0.0477 -1.7680  2.3446
 5337SOL     OW27646   0.499   2.072   8.878  0.0331 -0.5382  0.8223
 5337SOL    HW127647   0.455   2.046   8.959 -2.0878  1.2340  0.2236
 5337SOL    HW227648   0.583   2.105   8.912  0.5812 -1.2392  0.1366
 5338SOL     OW27649   1.504   1.800   1.569  0.4905 -0.1356  0.0645
 5338SOL    HW127650   1.501   1.709   1.600 -0.9673 -0.7502 -1.9354
 5338SOL    HW227651   1.442   1.847   1.624  2.4567  0.3062  1.9165
 5339SOL     OW27652   0.762   0.961   7.777 -0.1166  0.0798  0.1533
 5339SOL    HW127653   0.699   0.961   7.705  0.8620  3.1433 -0.7264
 5339SOL    HW227654   0.746   0.881   7.827  0.4534  0.8330  1.5457
 5340SOL     OW27655   1.933   1.787   9.004  0.3857  0.1621 -0.2133
 5340SOL    HW127656   1.992   1.845   8.956  0.7047  0.0011 -0.0152
 5340SOL    HW227657   1.951   1.813   9.094  2.2085  1.3719 -0.9094
 5341SOL     OW27658   0.425   2.284   3.774 -0.4079  0.7925  0.3501
 5341SOL    HW127659   0.499   2.240   3.818 -3.3253 -3.1703  1.2763
 5341SOL    HW227660   0.378   2.211   3.734  1.7839 -0.1368 -0.5093
 5342SOL     OW27661   3.946   2.818   2.750 -0.0715  0.0645  0.0397
 5342SOL    HW127662   3.852   2.838   2.756 -0.4461 -2.0387  1.2623
 5342SOL    HW227663   3.951   2.725   2.774  2.5778 -0.1511 -1.3669
 5343SOL     OW27664   1.233   3.077   5.089 -0.7431  0.2549  0.1578
 5343SOL    HW127665   1.321   3.088   5.126 -0.8503 -1.9851  1.0554
 5343SOL    HW227666   1.244   2.985   5.068 -0.6041  0.1763  0.5705
 5344SOL     OW27667   1.486   1.355   1.549 -0.4602 -0.1166 -0.1710
 5344SOL    HW127668   1.528   1.435   1.582  0.1503 -0.7351  0.5590
 5344SOL    HW227669   1.446   1.316   1.626  0.7416 -0.4957  0.2635
 5345SOL     OW27670   4.673   3.213  16.907 -0.6546  0.0083  0.0528
 5345SOL    HW127671   4.617   3.233  16.982  0.5974  3.3905  0.0903
 5345SOL    HW227672   0.018   3.251  16.944 -0.5563  1.1116 -1.2922
 5346SOL     OW27673   4.551   1.334   5.455 -0.3264  0.5056 -0.0182
 5346SOL    HW127674   4.638   1.337   5.495 -1.4467 -0.2982  2.4859
 5346SOL    HW227675   4.580   1.296   5.372  0.2438 -2.7767  1.6737
 5347SOL     OW27676   3.429   2.360   3.878 -0.1028  0.2779  0.4834
 5347SOL    HW127677   3.517   2.396   3.864  0.6214  0.6624  5.9031
 5347SOL    HW227678   3.395   2.422   3.942  0.3716  0.9712  0.0748
 5348SOL     OW27679   1.790   3.816   5.465  0.0623  0.1595  0.2518
 5348SOL    HW127680   1.711   3.835   5.517  0.7748 -0.2767  1.5095
 5348SOL    HW227681   1.774   3.878   5.395  0.7851 -1.3993 -1.2955
 5349SOL     OW27682   4.401   2.310   1.657  0.0967  0.2745 -0.3014
 5349SOL    HW127683   4.441   2.243   1.711 -0.0188  0.6346  0.2260
 5349SOL    HW227684   4.313   2.273   1.651  0.4405 -0.4320 -0.9987
 5350SOL     OW27685   2.163   3.007   5.468 -0.2375 -0.3710 -0.8635
 5350SOL    HW127686   2.150   3.069   5.397  1.4614  0.1336 -0.7463
 5350SOL    HW227687   2.247   2.969   5.440  0.7406  1.4299 -0.3784
 5351SOL     OW27688   1.625   0.496  10.008 -0.5349 -0.1556  0.4747
 5351SOL    HW127689   1.701   0.460   9.963  0.7497  1.6360  1.2002
 5351SOL    HW227690   1.672   0.536  10.081 -0.1227 -0.1732  0.2182
 5352SOL     OW27691   4.479   2.938   7.327 -0.2143  0.0444  0.3905
 5352SOL    HW127692   4.515   2.987   7.254 -0.8294 -0.7972 -0.4773
 5352SOL    HW227693   4.406   2.992   7.357  1.7719  1.9315  1.7820
 5353SOL     OW27694   2.594   3.408   1.719 -0.3292 -0.7182  0.1720
 5353SOL    HW127695   2.563   3.449   1.800 -1.4540  0.3594 -0.8073
 5353SOL    HW227696   2.660   3.464   1.679 -0.4744 -0.9112 -0.3417
 5354SOL     OW27697   0.181   3.242  15.149  0.3345  0.1148  0.0765
 5354SOL    HW127698   0.148   3.329  15.129  2.3339  0.9457  0.3959
 5354SOL    HW227699   0.171   3.239  15.244  0.0690  0.0023  0.0459
 5355SOL     OW27700   3.223   3.308   6.510  0.0988 -0.1798  0.2644
 5355SOL    HW127701   3.152   3.261   6.466 -1.3900 -0.2423  2.7098
 5355SOL    HW227702   3.183   3.393   6.529  0.7380  0.0457  0.6001
 5356SOL     OW27703   4.309   0.257  17.478  0.2784  0.1224 -0.0538
 5356SOL    HW127704   4.327   0.176  17.526  0.6302 -0.1779 -0.6917
 5356SOL    HW227705   4.242   0.220  17.421  0.1563  0.1900  0.0456
 5357SOL     OW27706   4.656   1.840  15.055  0.3984 -0.1166  0.5289
 5357SOL    HW127707   0.002   1.856  15.004 -0.7394 -0.4354 -1.3872
 5357SOL    HW227708   4.681   1.778  15.122  2.0485  0.6074  0.5886
 5358SOL     OW27709   2.547   1.281   2.930  0.7455 -0.2149 -1.0112
 5358SOL    HW127710   2.593   1.364   2.914  0.8883 -0.5143 -2.1787
 5358SOL    HW227711   2.561   1.244   2.843  0.2707  1.0564 -1.6314
 5359SOL     OW27712   3.147   1.085   3.807 -0.2174  0.3377  0.0322
 5359SOL    HW127713   3.098   1.158   3.844 -0.4568  0.6835 -0.9512
 5359SOL    HW227714   3.128   1.086   3.713  1.2000 -1.2083 -0.2874
 5360SOL     OW27715   1.353   3.403  11.560  0.2325  0.2548  0.4498
 5360SOL    HW127716   1.394   3.351  11.491 -1.0398  1.2191 -1.0366
 5360SOL    HW227717   1.416   3.392  11.631  2.1294 -0.9207 -1.3874
 5361SOL     OW27718   3.700   2.178  13.565  0.0774  0.1898 -0.4897
 5361SOL    HW127719   3.669   2.266  13.587  1.1660  0.6653 -0.8723
 5361SOL    HW227720   3.717   2.193  13.472  0.2968  3.7973  0.1365
 5362SOL     OW27721   1.613   0.820   0.160  0.3025  0.2649 -0.5354
 5362SOL    HW127722   1.626   0.737   0.204 -0.1321  0.1716 -0.5815
 5362SOL    HW227723   1.542   0.793   0.102 -0.8001 -0.7014  1.2675
 5363SOL     OW27724   2.415   3.020  17.403 -0.3476  0.1343  0.2042
 5363SOL    HW127725   2.426   3.095  17.345 -2.7177  0.3556  0.0241
 5363SOL    HW227726   2.404   2.948  17.341 -0.0141  0.4753 -0.2445
 5364SOL     OW27727   4.457   1.418   3.659 -0.2934 -0.0138  0.0404
 5364SOL    HW127728   4.440   1.449   3.748 -1.0993 -1.4081  0.3773
 5364SOL    HW227729   4.372   1.416   3.616  0.8828  1.8857 -2.3145
 5365SOL     OW27730   1.683   3.373   2.649  0.0734  0.0563  0.3894
 5365SOL    HW127731   1.731   3.311   2.594 -2.1090 -0.9604 -0.3731
 5365SOL    HW227732   1.742   3.448   2.659 -0.0704  0.1163  0.7947
 5366SOL     OW27733   1.551   3.715   6.375  0.1530 -0.2100 -0.1682
 5366SOL    HW127734   1.491   3.675   6.312 -1.0097 -1.1552  1.5437
 5366SOL    HW227735   1.637   3.678   6.353 -0.3651 -0.4004 -1.9172
 5367SOL     OW27736   0.048   2.257   7.544 -0.4496  0.1597  0.0452
 5367SOL    HW127737   0.110   2.202   7.592 -2.7186 -1.2509  1.3222
 5367SOL    HW227738   4.698   2.249   7.588 -1.3745  0.9550 -1.5990
 5368SOL     OW27739   3.716   1.524   8.976  0.2416  0.3628 -0.3586
 5368SOL    HW127740   3.658   1.537   8.901  0.2297  0.4729 -0.3305
 5368SOL    HW227741   3.779   1.468   8.931 -1.0441 -1.2770 -0.1000
 5369SOL     OW27742   3.273   2.938  17.390 -0.0908 -0.1510 -0.8217
 5369SOL    HW127743   3.253   2.924  17.297 -1.5917 -0.6768 -0.4235
 5369SOL    HW227744   3.356   2.891  17.398 -0.0089 -0.0203 -0.8903
 5370SOL     OW27745   1.406   4.407   7.565  0.0412 -0.2560  0.0834
 5370SOL    HW127746   1.425   4.500   7.579  0.7216 -0.6165  1.4955
 5370SOL    HW227747   1.311   4.407   7.572 -0.0883 -1.5038 -1.7251
 5371SOL     OW27748   4.051   1.679   6.506  0.5500  0.1908  0.4340
 5371SOL    HW127749   3.996   1.616   6.552 -0.0319  0.5699  0.2545
 5371SOL    HW227750   4.011   1.690   6.420 -0.1509  2.5735  1.0773
 5372SOL     OW27751   0.368   0.888  10.901  0.5368  0.3558 -0.1202
 5372SOL    HW127752   0.397   0.881  10.810  0.5572  1.0662 -0.1681
 5372SOL    HW227753   0.430   0.831  10.947  0.1667 -0.7995 -1.0474
 5373SOL     OW27754   2.748   1.253   8.818 -0.7376  0.2813  0.0202
 5373SOL    HW127755   2.786   1.190   8.757  1.3743  0.3330  1.2902
 5373SOL    HW227756   2.814   1.322   8.825 -3.0759  2.5765 -0.6537
 5374SOL     OW27757   2.111   3.534   0.076  0.7920  0.1071  0.3270
 5374SOL    HW127758   2.145   3.452   0.043  0.2637 -0.0692  0.2159
 5374SOL    HW227759   2.157   3.547   0.159  1.6709 -0.5265 -0.0758
 5375SOL     OW27760   1.649   0.711   6.581  0.1183  0.8983  0.0992
 5375SOL    HW127761   1.648   0.624   6.620 -0.0465  1.6269  1.7307
 5375SOL    HW227762   1.715   0.760   6.629  2.0166 -1.2861 -0.2834
 5376SOL     OW27763   1.965   3.639   4.112  0.1370 -0.4080 -0.5410
 5376SOL    HW127764   1.873   3.637   4.086  0.0948  1.0386 -0.4810
 5376SOL    HW227765   2.007   3.703   4.055 -1.9670  0.3471 -1.2290
 5377SOL     OW27766   3.080   3.413   5.734  0.5537 -0.1672 -0.1845
 5377SOL    HW127767   2.991   3.385   5.713 -0.1078  1.2395  0.7113
 5377SOL    HW227768   3.114   3.342   5.787  3.1982  1.3865  0.2194
 5378SOL     OW27769   3.679   1.275   2.208  0.0614  0.0928 -0.2388
 5378SOL    HW127770   3.765   1.274   2.166  0.4475  1.4718  0.5383
 5378SOL    HW227771   3.686   1.207   2.276 -2.0164  1.6957  1.5771
 5379SOL     OW27772   1.408   0.379  14.105  0.5961  0.6445 -0.1599
 5379SOL    HW127773   1.397   0.327  14.025 -4.1230  3.1902 -1.1930
 5379SOL    HW227774   1.324   0.426  14.106  1.0534  1.4226  0.7648
 5380SOL     OW27775   3.384   1.854  13.887  0.2771  0.1750 -0.1521
 5380SOL    HW127776   3.412   1.887  13.802  2.5664 -1.8192 -0.1382
 5380SOL    HW227777   3.360   1.937  13.928 -0.7906 -0.8649  1.3516
 5381SOL     OW27778   4.411   3.324   1.169 -0.3204  0.5062 -0.1199
 5381SOL    HW127779   4.397   3.349   1.078 -1.6209  1.9571  0.4714
 5381SOL    HW227780   4.323   3.327   1.207  0.4847  2.7497  1.6098
 5382SOL     OW27781   0.539   3.149   6.102 -0.1545  0.0698 -0.1494
 5382SOL    HW127782   0.631   3.125   6.092 -0.4047 -0.7778 -0.4066
 5382SOL    HW227783   0.547   3.241   6.077 -2.2300  0.7424  1.6227
 5383SOL     OW27784   0.533   4.689   6.067  0.2932  0.4253 -0.3351
 5383SOL    HW127785   0.536   4.711   5.974  0.0731  1.4279 -0.1061
 5383SOL    HW227786   0.506   4.597   6.065  2.5402 -0.2337 -1.2007
 5384SOL     OW27787   1.087   2.721  16.597  0.3024  0.1565  0.2103
 5384SOL    HW127788   1.133   2.684  16.522  0.2783  0.0484  0.2490
 5384SOL    HW227789   1.117   2.663  16.667 -0.8870 -1.7403 -0.8584
 5385SOL     OW27790   4.158   3.571   7.096 -0.1074 -0.8367  0.4288
 5385SOL    HW127791   4.237   3.517   7.105  0.8350  0.4208 -0.3053
 5385SOL    HW227792   4.196   3.653   7.127 -2.6916  0.3303  0.4905
 5386SOL     OW27793   3.834   3.484   1.682 -0.2581  0.0170 -0.5532
 5386SOL    HW127794   3.780   3.441   1.615  0.0518 -0.9471 -0.1693
 5386SOL    HW227795   3.775   3.541   1.732 -2.0530 -1.7871 -0.6320
 5387SOL     OW27796   1.475   3.786   7.349  0.2528 -0.3575 -0.5439
 5387SOL    HW127797   1.512   3.841   7.418  1.8892  0.5452 -2.1310
 5387SOL    HW227798   1.549   3.730   7.324  1.6590  0.0661  2.7428
 5388SOL     OW27799   0.711   3.888  16.029 -0.7710  0.4587  0.0988
 5388SOL    HW127800   0.716   3.852  16.118  1.7817 -2.2001 -1.0992
 5388SOL    HW227801   0.666   3.971  16.041 -2.7771 -0.7381  0.9082
 5389SOL     OW27802   3.479   4.643   1.516 -0.2746  0.0731  0.1940
 5389SOL    HW127803   3.464   0.002   1.533  2.0760  0.4318  0.3275
 5389SOL    HW227804   3.565   4.642   1.559  0.1036 -3.0687 -0.6066
 5390SOL     OW27805   1.079   0.316  11.100 -0.2678  0.1371  0.0741
 5390SOL    HW127806   1.100   0.339  11.009 -1.2769 -0.3238 -0.2778
 5390SOL    HW227807   1.156   0.339  11.151 -1.2081  0.3946  1.3770
 5391SOL     OW27808   2.205   0.118  12.387  0.0394  0.4708 -0.0272
 5391SOL    HW127809   2.114   0.120  12.415 -0.5599 -1.1037 -1.8322
 5391SOL    HW227810   2.217   0.026  12.367  0.4396  0.1831  1.5314
 5392SOL     OW27811   4.534   1.718   0.751 -0.1100  0.0834 -0.3960
 5392SOL    HW127812   4.524   1.741   0.659 -2.2459  0.5173 -0.0532
 5392SOL    HW227813   4.591   1.641   0.745  2.7124  1.9812  1.8230
 5393SOL     OW27814   2.381   2.914   8.166 -0.5223  0.1554  0.5163
 5393SOL    HW127815   2.316   2.959   8.220 -1.9832  1.0056 -1.9227
 5393SOL    HW227816   2.351   2.823   8.173 -0.9971  0.3003  0.3903
 5394SOL     OW27817   1.480   4.694   3.622  0.2560 -0.0291  0.5665
 5394SOL    HW127818   1.509   4.626   3.683 -0.1300  0.9523  1.8447
 5394SOL    HW227819   1.551   0.017   3.650 -1.0749  1.6237  0.5579
 5395SOL     OW27820   1.582   3.785   8.493  0.5013  0.3610 -0.4422
 5395SOL    HW127821   1.549   3.853   8.552  1.1373  0.4667 -0.2066
 5395SOL    HW227822   1.619   3.845   8.429 -1.8701 -1.8642 -3.8896
 5396SOL     OW27823   2.501   1.356  16.858 -0.1139 -0.1409  0.4041
 5396SOL    HW127824   2.436   1.306  16.807 -0.6920  2.0884 -1.0433
 5396SOL    HW227825   2.517   1.433  16.803  1.5000 -3.0008 -3.1348
 5397SOL     OW27826   0.527   2.441   9.823  0.1961 -0.5673  0.3244
 5397SOL    HW127827   0.577   2.411   9.748  1.5678 -0.9985  1.4092
 5397SOL    HW227828   0.565   2.528   9.839  0.0956 -0.6927  1.2927
 5398SOL     OW27829   3.587   0.266   8.483 -0.4590  0.3137 -0.6474
 5398SOL    HW127830   3.619   0.288   8.570  0.1149  0.1973 -0.8323
 5398SOL    HW227831   3.505   0.221   8.501 -2.1446  4.9720  3.5044
 5399SOL     OW27832   3.461   0.926  12.368  0.1396 -0.0030  0.6833
 5399SOL    HW127833   3.431   1.013  12.394  1.2951  0.5469  0.1794
 5399SOL    HW227834   3.555   0.934  12.382  0.6121 -4.1643  0.1179
 5400SOL     OW27835   2.272   3.264  12.024 -0.5551 -1.0329  0.2503
 5400SOL    HW127836   2.366   3.279  12.028 -0.6302 -0.7944  1.0406
 5400SOL    HW227837   2.270   3.171  12.046 -0.2426 -1.0632  0.1561
 5401SOL     OW27838   2.836   0.581   3.152 -0.2154  0.5207  0.1360
 5401SOL    HW127839   2.764   0.608   3.095  0.9123  1.6030 -0.7790
 5401SOL    HW227840   2.827   0.644   3.224  0.5649  0.8759 -0.0799
 5402SOL     OW27841   1.753   2.171   2.895  0.3191 -0.3862 -0.4483
 5402SOL    HW127842   1.721   2.130   2.976 -0.5573 -0.0361 -0.6229
 5402SOL    HW227843   1.810   2.231   2.943 -0.9829  0.6144 -0.1623
 5403SOL     OW27844   0.712   3.853   7.337 -0.6225  0.0863 -0.4612
 5403SOL    HW127845   0.750   3.919   7.278 -0.1526  0.3788  0.1764
 5403SOL    HW227846   0.670   3.910   7.401  0.9335  1.3931 -0.5850
 5404SOL     OW27847   2.285   0.488   4.491 -0.2995 -0.1914 -0.2969
 5404SOL    HW127848   2.291   0.394   4.474 -0.2471  0.2879 -2.8181
 5404SOL    HW227849   2.193   0.499   4.517 -0.1498 -1.7822  0.9321
 5405SOL     OW27850   1.907   3.689  14.717 -0.4087 -0.2619 -0.6740
 5405SOL    HW127851   1.818   3.723  14.720  0.4403  1.8295  1.1090
 5405SOL    HW227852   1.948   3.744  14.785 -2.9944  0.7064  0.0821
 5406SOL     OW27853   4.548   4.700  14.733  0.8508  0.0281  0.4047
 5406SOL    HW127854   4.505   0.031  14.788  0.4328 -0.7775  1.0483
 5406SOL    HW227855   4.627   0.014  14.712  1.3476 -0.1863  1.7356
 5407SOL     OW27856   1.782   3.122  10.316  0.2487  0.1089  0.3354
 5407SOL    HW127857   1.726   3.066  10.370  1.6878 -0.7129  0.9692
 5407SOL    HW227858   1.849   3.065  10.277  0.9746  1.6402 -0.6537
 5408SOL     OW27859   2.209   0.785   6.618  0.4279  0.2756  0.0607
 5408SOL    HW127860   2.166   0.832   6.546 -0.6036  0.7752  0.9986
 5408SOL    HW227861   2.261   0.859   6.649  0.9118  0.8036 -2.0559
 5409SOL     OW27862   1.861   1.529   1.826  0.1196 -0.1007  0.3008
 5409SOL    HW127863   1.882   1.556   1.737  3.2915 -2.9107  0.1596
 5409SOL    HW227864   1.820   1.606   1.864 -1.0418 -0.3381 -0.4669
 5410SOL     OW27865   4.320   1.505   9.658 -0.0443  0.3975 -0.1710
 5410SOL    HW127866   4.314   1.413   9.681  1.0263  0.0492 -1.2936
 5410SOL    HW227867   4.412   1.517   9.632  0.1562 -1.9957 -0.5756
 5411SOL     OW27868   3.029   1.895   7.819  0.0426  0.4937 -0.8038
 5411SOL    HW127869   3.115   1.906   7.778  0.2151  0.8827 -0.3433
 5411SOL    HW227870   3.026   1.802   7.800 -2.5446  0.4046  0.1188
 5412SOL     OW27871   2.866   3.295  16.442  0.5025  0.3540 -0.3138
 5412SOL    HW127872   2.820   3.358  16.388  1.0147  1.6863  0.8006
 5412SOL    HW227873   2.952   3.291  16.402  1.6673  2.5076  1.9661
 5413SOL     OW27874   4.726   3.175   4.310  0.3504 -0.0241 -0.4706
 5413SOL    HW127875   0.077   3.196   4.348  0.0001 -0.1095  0.3737
 5413SOL    HW227876   4.676   3.137   4.382  0.9877 -0.5759 -0.3200
 5414SOL     OW27877   1.852   2.100  17.304 -0.2300  0.4063 -0.1082
 5414SOL    HW127878   1.810   2.184  17.290 -1.0245 -0.1413 -1.0284
 5414SOL    HW227879   1.779   2.038  17.307  0.7084 -0.5687  2.5970
 5415SOL     OW27880   3.963   4.283   7.070 -0.1701 -0.4026  0.2390
 5415SOL    HW127881   3.878   4.322   7.093 -0.1214 -0.5412  0.6447
 5415SOL    HW227882   3.931   4.194   7.055 -0.9208  0.0139 -0.6401
 5416SOL     OW27883   2.847   4.328   9.690  0.1278  0.3557  0.8305
 5416SOL    HW127884   2.756   4.311   9.666  1.0513 -1.9440 -0.9562
 5416SOL    HW227885   2.883   4.245   9.721 -2.1579 -0.4059  1.3887
 5417SOL     OW27886   2.862   2.302  13.076  0.3713 -0.1135 -0.6469
 5417SOL    HW127887   2.781   2.291  13.025 -0.8266 -0.4834  1.3509
 5417SOL    HW227888   2.909   2.377  13.040  1.6990 -0.0161  1.2919
 5418SOL     OW27889   0.714   3.619   4.179  0.5729 -0.6213  0.2649
 5418SOL    HW127890   0.755   3.683   4.121  0.2064 -1.1434 -0.5751
 5418SOL    HW227891   0.738   3.538   4.134 -0.1791 -0.9662  0.4727
 5419SOL     OW27892   2.703   3.295   7.547  0.4862  0.8133 -0.2226
 5419SOL    HW127893   2.668   3.265   7.630  1.4302  0.9129  0.2141
 5419SOL    HW227894   2.646   3.259   7.479 -0.4087  2.3181 -0.2548
 5420SOL     OW27895   3.772   0.058  15.029  0.2081  0.0251 -0.4915
 5420SOL    HW127896   3.802   0.035  14.941 -0.4366  0.9022 -0.9408
 5420SOL    HW227897   3.760   0.151  15.008 -0.1450  0.5677  2.0913
 5421SOL     OW27898   2.339   4.431   8.117  0.2525 -0.0608 -0.0951
 5421SOL    HW127899   2.338   4.455   8.210  1.4136 -0.5251  0.0332
 5421SOL    HW227900   2.252   4.391   8.109 -0.1138  0.5626  0.7229
 5422SOL     OW27901   3.008   2.938  10.616 -0.1203  0.1068  0.1682
 5422SOL    HW127902   3.013   3.029  10.645  1.9645 -0.4116  1.4032
 5422SOL    HW227903   3.072   2.914  10.682  0.1745 -1.5631 -0.7326
 5423SOL     OW27904   3.691   1.905   1.373  0.2046 -0.7851 -0.2970
 5423SOL    HW127905   3.731   1.952   1.300  1.1828 -1.0065  0.1032
 5423SOL    HW227906   3.693   1.980   1.433 -0.2548  0.2381 -1.5594
 5424SOL     OW27907   3.608   1.455   2.417  0.3783 -0.5735 -0.2776
 5424SOL    HW127908   3.628   1.405   2.338 -1.8568 -0.4796 -0.9080
 5424SOL    HW227909   3.532   1.502   2.381 -0.5817 -1.0508  1.1618
 5425SOL     OW27910   1.845   1.247   5.255  0.2487 -0.3399 -0.7085
 5425SOL    HW127911   1.879   1.332   5.285  0.8025 -1.2263  1.1986
 5425SOL    HW227912   1.793   1.265   5.177  2.0278 -0.8310 -2.0091
 5426SOL     OW27913   0.979   4.162   2.909 -0.3536  1.0071 -0.8165
 5426SOL    HW127914   1.000   4.193   2.821 -1.9357 -0.0020 -1.5550
 5426SOL    HW227915   0.941   4.079   2.882 -0.6407  0.5439  1.0359
 5427SOL     OW27916   3.403   2.502   4.125  0.1028 -0.5759  0.1566
 5427SOL    HW127917   3.494   2.490   4.152 -0.0511  0.2392  1.0588
 5427SOL    HW227918   3.402   2.595   4.103  1.8310 -0.9472 -1.4579
 5428SOL     OW27919   2.599   3.761   4.376 -0.5096  0.1016 -0.0251
 5428SOL    HW127920   2.685   3.782   4.413  0.3193 -1.9695 -0.8120
 5428SOL    HW227921   2.562   3.849   4.363 -0.3790  0.0041 -1.0156
 5429SOL     OW27922   0.690   1.715   9.685  0.0303 -0.1930 -0.1503
 5429SOL    HW127923   0.598   1.692   9.702 -0.7139  3.1115  0.1941
 5429SOL    HW227924   0.716   1.636   9.637  1.0401 -0.0838  0.2236
 5430SOL     OW27925   3.342   2.932   2.282 -0.2029  0.1758  0.3681
 5430SOL    HW127926   3.339   3.026   2.265  0.6214 -0.0034 -0.7342
 5430SOL    HW227927   3.356   2.889   2.198  0.8667  0.1963  0.5385
 5431SOL     OW27928   2.736   2.090  14.206 -0.5255 -0.2615  0.3133
 5431SOL    HW127929   2.686   2.010  14.189  1.0422 -0.7819 -1.8404
 5431SOL    HW227930   2.755   2.121  14.117  1.9308 -1.7318  0.3198
 5432SOL     OW27931   4.669   1.375  14.819  0.2186 -0.1295  0.6627
 5432SOL    HW127932   0.010   1.431  14.837 -1.1130  1.3200  1.7765
 5432SOL    HW227933   4.602   1.436  14.848  0.7380  0.6505  0.2042
 5433SOL     OW27934   4.444   1.001   4.846  0.2953  0.2957  0.7026
 5433SOL    HW127935   4.513   0.936   4.835 -1.0525 -1.3562  2.1764
 5433SOL    HW227936   4.370   0.945   4.866 -0.2695  1.0194  0.6576
 5434SOL     OW27937   3.012   4.069   4.298 -0.3060 -1.0075 -0.2699
 5434SOL    HW127938   3.023   3.998   4.236 -1.6039 -0.2016 -1.4344
 5434SOL    HW227939   3.100   4.075   4.334 -0.3384 -2.1333 -0.0110
 5435SOL     OW27940   2.459   2.257   1.759  0.2470 -0.1880 -0.3409
 5435SOL    HW127941   2.364   2.267   1.752  0.1734 -0.7810 -0.1400
 5435SOL    HW227942   2.462   2.344   1.801  0.0290  0.2215 -1.1853
 5436SOL     OW27943   1.717   1.069  17.713  0.4430 -0.5815 -0.5120
 5436SOL    HW127944   1.640   1.099  17.665 -0.2158 -0.6781  0.4886
 5436SOL    HW227945   1.716   1.104   0.065 -0.1753 -1.4501 -0.1918
 5437SOL     OW27946   1.435   1.727   7.109  0.1867 -0.2736 -0.0629
 5437SOL    HW127947   1.399   1.680   7.184  0.2762  0.5111  0.4643
 5437SOL    HW227948   1.374   1.799   7.095  1.4696  1.2007  1.9868
 5438SOL     OW27949   4.622   1.056  10.146 -0.2780 -0.2651  0.0338
 5438SOL    HW127950   4.608   1.148  10.125 -1.1715 -0.8733 -2.0982
 5438SOL    HW227951   4.713   1.056  10.175 -0.6543 -0.7076  1.1951
 5439SOL     OW27952   2.496   4.318   4.788 -0.6762  0.1785  0.0471
 5439SOL    HW127953   2.439   4.350   4.858 -0.2143  1.4509 -0.1430
 5439SOL    HW227954   2.574   4.367   4.814 -0.9683  0.0786  1.1419
 5440SOL     OW27955   3.295   4.136  16.102  0.4031  0.4531 -0.3243
 5440SOL    HW127956   3.254   4.192  16.168  0.4240 -1.7799  1.5756
 5440SOL    HW227957   3.379   4.175  16.078  1.5557 -1.2554  0.9291
 5441SOL     OW27958   1.716   0.920   9.175  0.3131 -0.2428  0.2151
 5441SOL    HW127959   1.790   0.973   9.204  1.2383 -0.4628 -1.7350
 5441SOL    HW227960   1.699   0.873   9.257  1.0018  0.6737  0.8749
 5442SOL     OW27961   1.160   1.749   6.856 -0.5999 -0.0786  0.2539
 5442SOL    HW127962   1.153   1.791   6.942 -0.6137 -1.4277  0.9127
 5442SOL    HW227963   1.072   1.767   6.821 -0.8335  2.4486  2.1037
 5443SOL     OW27964   0.184   1.084   9.722 -0.1963  0.4425 -0.0099
 5443SOL    HW127965   0.194   1.122   9.810 -0.8902 -0.1417  0.3197
 5443SOL    HW227966   0.209   0.992   9.726 -0.9658  0.1867 -1.0579
 5444SOL     OW27967   0.433   2.743   5.265  0.3462  0.4764  0.6428
 5444SOL    HW127968   0.465   2.713   5.350  1.5953  1.2063  0.4316
 5444SOL    HW227969   0.502   2.712   5.206 -0.9624 -2.3119  0.5955
 5445SOL     OW27970   1.949   2.503   7.622  0.1957 -0.4033 -0.2793
 5445SOL    HW127971   1.975   2.520   7.531  1.2042 -1.6307 -0.2264
 5445SOL    HW227972   2.027   2.463   7.659 -0.2360 -0.5179  0.4991
 5446SOL     OW27973   0.114   3.037   1.940 -0.2088 -0.3193  0.6142
 5446SOL    HW127974   0.051   2.982   1.893 -0.0639 -1.3048  1.5745
 5446SOL    HW227975   0.114   3.114   1.882 -0.6258 -1.1623 -0.5175
 5447SOL     OW27976   0.453   0.708   4.781  0.1230  0.2453 -0.1249
 5447SOL    HW127977   0.540   0.744   4.765  0.5296 -0.8339 -0.3184
 5447SOL    HW227978   0.446   0.652   4.704  0.6437 -0.7542  0.5494
 5448SOL     OW27979   4.022   3.501  13.412  0.0820 -0.3428  0.5298
 5448SOL    HW127980   4.095   3.563  13.421 -1.2443  0.9021  2.7649
 5448SOL    HW227981   3.979   3.530  13.332 -1.1316  0.7370  1.5755
 5449SOL     OW27982   4.295   1.337   8.728  0.0248 -0.0735  0.2375
 5449SOL    HW127983   4.229   1.349   8.796  2.4680  2.1297  2.2484
 5449SOL    HW227984   4.359   1.406   8.746  0.0870 -0.3031  0.9011
 5450SOL     OW27985   2.601   3.808   5.357  0.3841 -0.5395 -0.4257
 5450SOL    HW127986   2.556   3.890   5.378  1.4731  0.1119 -0.6223
 5450SOL    HW227987   2.616   3.774   5.445  0.4452  1.0457  0.1726
 5451SOL     OW27988   4.281   0.499   4.644  0.0205  0.2603 -0.0296
 5451SOL    HW127989   4.260   0.407   4.662  0.8521  0.1346  0.3122
 5451SOL    HW227990   4.306   0.530   4.731  0.7311  0.4410 -0.2947
 5452SOL     OW27991   1.999   2.392   9.152 -0.3774 -0.7335 -0.4941
 5452SOL    HW127992   2.020   2.387   9.246 -1.3634  0.5277 -0.1940
 5452SOL    HW227993   2.023   2.304   9.124  0.4124 -0.8362  0.4873
 5453SOL     OW27994   1.211   3.806   3.659 -0.2458  0.4791  0.0212
 5453SOL    HW127995   1.130   3.829   3.705  0.1383 -0.6050  1.2402
 5453SOL    HW227996   1.271   3.853   3.717  0.7847 -3.7558  2.3330
 5454SOL     OW27997   1.021   2.511   7.831 -0.4173 -0.0833  0.1518
 5454SOL    HW127998   0.947   2.457   7.858  0.8679 -1.9705 -0.1129
 5454SOL    HW227999   1.074   2.511   7.911 -1.0315 -1.8155  0.5618
 5455SOL     OW28000   1.284   2.554   6.467  0.0081 -0.2366  0.2294
 5455SOL    HW128001   1.266   2.590   6.554 -0.8615 -0.0398 -0.0256
 5455SOL    HW228002   1.330   2.472   6.485 -0.6612 -0.0485  2.8595
 5456SOL     OW28003   0.156   2.016   2.686 -0.2586  0.0251  0.3009
 5456SOL    HW128004   0.093   2.061   2.742  0.2200  0.4519  0.5024
 5456SOL    HW228005   0.229   2.067   2.722 -1.2125  1.0162  0.8235
 5457SOL     OW28006   0.935   3.738   2.974  0.2407  0.2287 -0.3074
 5457SOL    HW128007   0.924   3.645   2.994 -1.9783  0.5230 -0.1652
 5457SOL    HW228008   1.030   3.741   2.970  0.4361 -2.7952  1.5791
 5458SOL     OW28009   4.383   0.234   8.298  0.0666 -0.0225  0.0293
 5458SOL    HW128010   4.435   0.257   8.375  2.7033 -1.1359 -1.4242
 5458SOL    HW228011   4.359   0.146   8.327 -0.5237  0.1565  0.0913
 5459SOL     OW28012   0.504   0.362   6.180 -0.7816  0.2145  0.8116
 5459SOL    HW128013   0.455   0.388   6.258  2.4049 -1.9316  3.5290
 5459SOL    HW228014   0.484   0.270   6.162 -1.7934  0.7348 -0.7264
 5460SOL     OW28015   3.318   1.821   3.054  0.4106  0.5060 -0.0062
 5460SOL    HW128016   3.264   1.840   2.978  1.1012 -1.1893 -0.9289
 5460SOL    HW228017   3.256   1.795   3.123 -1.6228  1.6167 -1.4145
 5461SOL     OW28018   3.036   3.833   3.884  0.1196  0.3964 -0.4727
 5461SOL    HW128019   3.042   3.873   3.797 -0.3568  0.5335 -0.4409
 5461SOL    HW228020   3.032   3.740   3.866 -0.0352  0.1594  0.7942
 5462SOL     OW28021   3.354   3.997   6.736 -0.3517 -0.4468 -0.1300
 5462SOL    HW128022   3.421   4.044   6.687 -3.2414  3.2330 -0.5587
 5462SOL    HW228023   3.411   3.959   6.803 -0.8515  0.6812  0.9286
 5463SOL     OW28024   0.759   2.218  10.471 -0.0238 -0.1506 -0.2880
 5463SOL    HW128025   0.781   2.151  10.407  0.1346 -0.5033  0.1342
 5463SOL    HW228026   0.736   2.292  10.416 -0.9170 -0.9389 -0.9744
 5464SOL     OW28027   0.393   4.087   8.341 -0.2414 -0.0547  0.2565
 5464SOL    HW128028   0.415   4.178   8.364 -1.4662 -0.4501  2.9714
 5464SOL    HW228029   0.479   4.057   8.314 -0.9741 -1.0277 -1.0289
 5465SOL     OW28030   4.458   1.622   2.815 -0.7220 -0.1020  0.2514
 5465SOL    HW128031   4.403   1.681   2.764  1.1298  1.7278  0.4140
 5465SOL    HW228032   4.493   1.676   2.886  0.3736 -1.0487  0.4345
 5466SOL     OW28033   1.017   1.237   8.767  0.1591  0.1061  0.0162
 5466SOL    HW128034   0.941   1.267   8.717 -0.1018 -0.4767  0.0584
 5466SOL    HW228035   0.973   1.191   8.839  0.2066  0.3548  0.2035
 5467SOL     OW28036   4.397   0.214   2.443  0.4817 -0.0071  0.4745
 5467SOL    HW128037   4.361   0.166   2.368 -0.0582 -2.5812  2.3753
 5467SOL    HW228038   4.334   0.282   2.465  1.0369  0.8564 -0.5986
 5468SOL     OW28039   2.530   2.475   7.102  0.4242 -0.1110 -0.2818
 5468SOL    HW128040   2.472   2.491   7.027  1.0801  0.1606 -0.7327
 5468SOL    HW228041   2.472   2.498   7.174  2.9595 -0.1126  1.7725
 5469SOL     OW28042   1.322   3.798   4.035  0.4624  0.3108 -0.3084
 5469SOL    HW128043   1.345   3.837   4.119  0.8996 -1.3466  0.3507
 5469SOL    HW228044   1.310   3.704   4.051  0.8984  0.2693 -0.2201
 5470SOL     OW28045   1.558   1.675  11.858  0.5204 -0.3996 -0.5864
 5470SOL    HW128046   1.621   1.734  11.899  2.0289 -2.1253 -0.4377
 5470SOL    HW228047   1.482   1.701  11.911  1.4389  0.4108  0.3360
 5471SOL     OW28048   2.718   2.496  13.252  0.3722  0.2951 -0.4137
 5471SOL    HW128049   2.722   2.439  13.176 -0.5017 -0.1053 -0.1602
 5471SOL    HW228050   2.805   2.532  13.232  0.3149 -0.1473 -1.4467
 5472SOL     OW28051   2.314   2.958   4.723  0.1867 -0.1237  0.0790
 5472SOL    HW128052   2.396   2.934   4.766  0.3808  2.4934  1.1804
 5472SOL    HW228053   2.251   2.889   4.746  0.2092  0.2925  1.4366
 5473SOL     OW28054   2.242   2.420   8.511 -0.4439 -0.0601  0.8610
 5473SOL    HW128055   2.191   2.493   8.475  1.7024  0.6332 -0.7654
 5473SOL    HW228056   2.326   2.423   8.464 -0.1151 -1.7060  1.3417
 5474SOL     OW28057   2.049   1.981   8.857  0.5233  0.7788  0.0275
 5474SOL    HW128058   2.087   2.051   8.910 -0.5161 -0.3493  2.2556
 5474SOL    HW228059   2.001   2.028   8.789  1.3293  0.4303 -0.7830
 5475SOL     OW28060   1.058   0.794   5.327  0.0550  0.1702  0.5094
 5475SOL    HW128061   0.996   0.865   5.346 -0.5175 -0.6797  1.8757
 5475SOL    HW228062   1.010   0.714   5.352  0.2103 -0.0653  0.0501
 5476SOL     OW28063   4.341   2.251   2.168 -0.0899  0.1863 -0.4719
 5476SOL    HW128064   4.321   2.336   2.129 -0.0736  0.3719 -0.0695
 5476SOL    HW228065   4.398   2.282   2.238 -2.0597  1.4686  0.5595
 5477SOL     OW28066   0.669   4.448   3.298 -0.1525  0.0265 -0.2760
 5477SOL    HW128067   0.643   4.530   3.340 -3.3947 -1.0657 -0.1322
 5477SOL    HW228068   0.763   4.454   3.286 -0.5142  3.0302 -1.4366
 5478SOL     OW28069   2.957   1.746   5.138  0.0959 -0.8154  0.6092
 5478SOL    HW128070   2.908   1.729   5.057  0.9430 -1.0065  0.1309
 5478SOL    HW228071   2.996   1.658   5.137 -0.7111 -1.1619 -1.2420
 5479SOL     OW28072   0.325   0.500   9.350  0.1717  0.6724  0.0782
 5479SOL    HW128073   0.286   0.473   9.267 -1.3308  1.5404  0.4924
 5479SOL    HW228074   0.248   0.547   9.383 -0.8977  0.1560 -1.6885
 5480SOL     OW28075   0.790   3.368   3.915 -0.6168 -0.3804 -0.0825
 5480SOL    HW128076   0.710   3.418   3.901 -0.4418 -0.1214 -0.1607
 5480SOL    HW228077   0.771   3.284   3.873  1.4749 -1.3474  0.9143
 5481SOL     OW28078   3.951   3.469   5.208  0.1976 -0.6146  0.4491
 5481SOL    HW128079   3.975   3.538   5.147 -2.5583 -0.5400 -0.5561
 5481SOL    HW228080   4.035   3.426   5.225  1.0677  1.5892  1.6545
 5482SOL     OW28081   1.799   0.706   8.950  0.1612 -0.4019 -0.0880
 5482SOL    HW128082   1.769   0.650   8.879  0.5461 -2.8528  1.7016
 5482SOL    HW228083   1.723   0.764   8.960  1.1102  1.0920 -1.4534
 5483SOL     OW28084   4.220   3.610   1.989  0.4722  0.1410  0.7620
 5483SOL    HW128085   4.137   3.617   1.942 -0.6933 -1.3004  2.6004
 5483SOL    HW228086   4.208   3.675   2.058 -1.7245 -1.6721  2.0926
 5484SOL     OW28087   2.545   1.878  15.784  0.0055  0.0050 -0.5804
 5484SOL    HW128088   2.559   1.971  15.770 -2.3225  0.0359 -2.7193
 5484SOL    HW228089   2.555   1.845  15.694  2.0313  1.0703 -0.7535
 5485SOL     OW28090   3.890   3.208   2.593 -0.5063  0.0165 -0.5476
 5485SOL    HW128091   3.965   3.173   2.544 -0.6511  0.5234 -1.1301
 5485SOL    HW228092   3.824   3.168   2.536  0.4601 -3.5649  0.8492
 5486SOL     OW28093   2.246   4.492  15.693 -0.1231 -0.1300 -0.0351
 5486SOL    HW128094   2.219   4.427  15.628 -1.6471  0.8121 -0.3377
 5486SOL    HW228095   2.272   4.439  15.768  0.0779 -1.3272 -0.9510
 5487SOL     OW28096   0.771   4.724   4.498 -0.3572 -0.1002 -0.0199
 5487SOL    HW128097   0.799   0.050   4.429 -0.1908  2.3405  2.2242
 5487SOL    HW228098   0.809   4.642   4.465  0.1474 -0.0013  0.3305
 5488SOL     OW28099   2.129   2.529   9.654 -0.3804 -0.2869 -0.3012
 5488SOL    HW128100   2.038   2.549   9.630  0.7935  2.2133 -2.7140
 5488SOL    HW228101   2.166   2.555   9.569 -0.3767  0.1532 -0.1675
 5489SOL     OW28102   3.411   1.539   7.245 -0.4860 -0.0139 -0.2881
 5489SOL    HW128103   3.443   1.599   7.313  0.6466 -0.7662 -0.1639
 5489SOL    HW228104   3.349   1.491   7.300 -2.2263  2.0464 -0.4575
 5490SOL     OW28105   4.471   1.760  15.287 -0.9167  0.0535  0.4583
 5490SOL    HW128106   4.397   1.793  15.338 -1.3356  1.2373 -0.9411
 5490SOL    HW228107   4.439   1.674  15.260  0.3993 -0.2722 -0.0561
 5491SOL     OW28108   3.627   3.712   6.996  0.3949  0.2160 -0.1315
 5491SOL    HW128109   3.625   3.733   6.903 -1.4529 -0.8264 -0.3281
 5491SOL    HW228110   3.645   3.618   6.990 -0.2320 -0.0239  1.6147
 5492SOL     OW28111   2.160   0.545   5.450  0.0717  0.1494 -0.2578
 5492SOL    HW128112   2.207   0.619   5.488  0.3340  0.0392 -0.3722
 5492SOL    HW228113   2.067   0.558   5.471  0.5323  3.0083  0.0348
 5493SOL     OW28114   0.383   1.328  15.111  0.8338 -0.1599  0.0915
 5493SOL    HW128115   0.471   1.332  15.148  0.8980 -1.3613  0.0876
 5493SOL    HW228116   0.385   1.232  15.106  2.3904 -0.1358  0.1151
 5494SOL     OW28117   4.678   3.270  14.899  0.0744 -0.1945  0.1607
 5494SOL    HW128118   4.603   3.230  14.856  1.3024 -0.1315 -2.0211
 5494SOL    HW228119   4.643   3.274  14.988  2.2516  3.3580  0.8462
 5495SOL     OW28120   3.948   0.184  14.606  0.2864  0.2908 -0.4796
 5495SOL    HW128121   4.040   0.208  14.613  0.2931  0.6177 -1.6511
 5495SOL    HW228122   3.928   0.245  14.535 -0.0068 -0.0498 -0.6883
 5496SOL     OW28123   4.703   1.830   5.031  0.0836  0.1427 -0.2579
 5496SOL    HW128124   4.660   1.858   5.112 -0.4691  1.0758 -0.8725
 5496SOL    HW228125   4.706   1.735   5.042  1.4504  0.2140  0.0137
 5497SOL     OW28126   1.912   1.102   9.535  0.3717 -0.2401 -0.4261
 5497SOL    HW128127   1.841   1.069   9.590 -0.3241  2.2331  0.1522
 5497SOL    HW228128   1.932   1.187   9.574  0.3882 -0.9003  0.9986
 5498SOL     OW28129   3.125   0.543  16.935 -0.0021 -0.0063 -0.2605
 5498SOL    HW128130   3.033   0.517  16.937 -0.0312  0.1012 -0.2312
 5498SOL    HW228131   3.143   0.564  16.843  1.7127 -0.8517 -0.1358
 5499SOL     OW28132   0.002   0.101   8.277  0.2458  0.7084  0.2718
 5499SOL    HW128133   4.657   0.064   8.240  0.3772  2.2859 -1.5701
 5499SOL    HW228134   0.038   0.016   8.302 -1.4735  0.0192  0.4011
 5500SOL     OW28135   3.663   4.574   1.908 -0.3536 -0.2051 -0.4305
 5500SOL    HW128136   3.682   4.613   1.822 -0.5773  1.3346  0.2213
 5500SOL    HW228137   3.617   4.641   1.958  2.3143  1.3822 -0.0953
 5501SOL     OW28138   2.874   2.784   0.302 -0.0180 -0.3195 -0.1965
 5501SOL    HW128139   2.820   2.821   0.232 -0.2061 -2.8403 -1.3751
 5501SOL    HW228140   2.812   2.727   0.347  0.0825 -1.3777 -1.3893
 5502SOL     OW28141   3.477   2.340  12.856 -0.0150  0.4455 -0.5734
 5502SOL    HW128142   3.452   2.373  12.770 -0.4359  2.5774  0.3701
 5502SOL    HW228143   3.524   2.258  12.842  3.3141  2.4295 -1.1618
 5503SOL     OW28144   2.388   0.570  16.485 -0.7610  0.0442 -0.2330
 5503SOL    HW128145   2.408   0.490  16.435  2.0460  0.6339 -0.0509
 5503SOL    HW228146   2.353   0.535  16.566  0.5730  1.0094  0.7651
 5504SOL     OW28147   2.069   3.966   1.402  0.3156 -0.0336  0.3502
 5504SOL    HW128148   2.160   3.944   1.384 -0.6628 -2.4909 -1.6412
 5504SOL    HW228149   2.022   3.883   1.391 -0.7577  0.3230  2.0580
 5505SOL     OW28150   1.249   3.625   7.310 -0.4028  0.1592  0.1393
 5505SOL    HW128151   1.219   3.662   7.393 -0.7654 -1.2922  0.6490
 5505SOL    HW228152   1.324   3.685   7.305  0.7884 -1.2228  1.4815
 5506SOL     OW28153   3.233   0.791   6.457  0.4279 -0.0675 -0.0057
 5506SOL    HW128154   3.140   0.810   6.468  1.0995  1.0914  3.6814
 5506SOL    HW228155   3.265   0.881   6.462 -0.6162  0.3741 -1.2776
 5507SOL     OW28156   2.231   0.821  11.036  0.6444  0.0664  0.1477
 5507SOL    HW128157   2.204   0.744  11.087 -1.1209 -0.6094 -1.8052
 5507SOL    HW228158   2.276   0.883  11.092 -0.7863 -0.8881  2.3724
 5508SOL     OW28159   0.491   2.578   3.729 -0.0896 -0.2325  0.2497
 5508SOL    HW128160   0.430   2.624   3.787 -1.3019  0.7629 -1.7710
 5508SOL    HW228161   0.443   2.495   3.719 -0.7981 -0.0666  2.4368
 5509SOL     OW28162   1.881   3.387  14.598  0.0261 -0.5802  0.6785
 5509SOL    HW128163   1.832   3.409  14.519 -3.5800  0.2622  3.1701
 5509SOL    HW228164   1.878   3.467  14.652 -1.3211  0.0254 -0.3153
 5510SOL     OW28165   4.393   3.657  14.021  0.1793 -0.0924  0.3527
 5510SOL    HW128166   4.436   3.571  14.022  0.1136 -0.1501 -1.0323
 5510SOL    HW228167   4.474   3.707  14.036 -0.1184 -0.1462  2.0556
 5511SOL     OW28168   1.478   2.674   5.254  0.1224  0.0765 -0.2546
 5511SOL    HW128169   1.572   2.693   5.264 -0.2132 -0.3762  3.7655
 5511SOL    HW228170   1.455   2.765   5.271  1.3695  0.3953 -0.2411
 5512SOL     OW28171   4.673   3.244   4.976 -0.3538  0.1878  0.5964
 5512SOL    HW128172   4.726   3.173   5.013 -2.0176 -2.7089 -2.5684
 5512SOL    HW228173   4.588   3.202   4.987 -0.7780  0.3328 -2.2166
 5513SOL     OW28174   3.652   1.763   5.897  0.5638  0.0251  0.0296
 5513SOL    HW128175   3.615   1.688   5.850 -1.6131  0.9691  0.2150
 5513SOL    HW228176   3.690   1.814   5.825 -0.7566  2.7777  1.2775
 5514SOL     OW28177   0.031   2.150   6.270  0.1908 -0.1459 -0.2510
 5514SOL    HW128178   0.043   2.070   6.321  1.3405  1.2325  1.6568
 5514SOL    HW228179   4.690   2.132   6.214 -2.4981  0.2439  3.2612
 5515SOL     OW28180   2.935   3.706   9.884  0.5334  0.0174  0.1222
 5515SOL    HW128181   2.843   3.694   9.910  0.0276  2.7388 -0.4372
 5515SOL    HW228182   2.936   3.669   9.796  1.6827 -0.7794  0.4746
 5516SOL     OW28183   1.191   2.374   2.609  0.4147 -0.2667 -0.5187
 5516SOL    HW128184   1.257   2.431   2.647 -2.3936  1.9662  1.0217
 5516SOL    HW228185   1.229   2.345   2.525  1.0505  0.5748 -0.5190
 5517SOL     OW28186   0.349   0.614  15.948 -0.1578  0.3691 -0.0492
 5517SOL    HW128187   0.385   0.539  15.901 -0.6937 -0.4506  0.8537
 5517SOL    HW228188   0.424   0.670  15.931 -0.9504  1.2223 -0.7804
 5518SOL     OW28189   2.125   4.336  12.356 -0.5520  0.3856 -0.3748
 5518SOL    HW128190   2.179   4.415  12.348  1.3671 -1.2047 -3.0037
 5518SOL    HW228191   2.125   4.307  12.264  1.4991  0.7893 -0.4973
 5519SOL     OW28192   0.517   0.032   7.985  0.4629  0.0352 -0.1836
 5519SOL    HW128193   0.590   4.726   7.938 -0.9763 -2.6470 -0.0823
 5519SOL    HW228194   0.552   0.059   8.071  2.7070 -2.1344 -0.3996
 5520SOL     OW28195   2.559   4.699  13.574 -0.1103  0.0763 -0.3053
 5520SOL    HW128196   2.621   4.640  13.615 -1.2916  0.3404  1.8892
 5520SOL    HW228197   2.538   0.043  13.625  0.6026 -1.4030  2.2517
 5521SOL     OW28198   0.018   2.253   9.350 -0.0421  0.4281  0.1589
 5521SOL    HW128199   0.011   2.300   9.267 -3.7819 -1.0673 -0.3931
 5521SOL    HW228200   4.723   2.322   9.409  1.5843  2.2294 -1.1207
 5522SOL     OW28201   3.727   0.964   3.769  0.1029  0.4812 -0.8923
 5522SOL    HW128202   3.726   1.031   3.837 -0.3886  0.6204 -1.0397
 5522SOL    HW228203   3.806   0.986   3.720  0.6226 -1.3165 -0.8932
 5523SOL     OW28204   3.749   0.770   7.352 -0.0820  0.2305  0.5649
 5523SOL    HW128205   3.825   0.820   7.321  1.4523 -3.4610 -1.6609
 5523SOL    HW228206   3.701   0.785   7.271  0.9081 -0.1661 -0.1002
 5524SOL     OW28207   2.962   1.648   7.693 -0.3443 -0.6105 -0.3104
 5524SOL    HW128208   2.876   1.661   7.653  1.1434  3.2193 -2.3405
 5524SOL    HW228209   3.012   1.617   7.617  2.9401 -0.7919  1.9095
 5525SOL     OW28210   0.997   4.591   7.543 -0.4992 -0.1320  0.0039
 5525SOL    HW128211   0.958   4.520   7.491 -0.3509  0.2346 -0.6045
 5525SOL    HW228212   1.042   4.534   7.606  0.1985 -0.6953 -0.9953
 5526SOL     OW28213   2.396   2.928   5.368  0.3211  0.0882 -0.1547
 5526SOL    HW128214   2.472   2.937   5.426  2.3596 -0.3291 -2.7444
 5526SOL    HW228215   2.417   3.012   5.326 -1.4906  0.2724 -0.6916
 5527SOL     OW28216   1.258   0.798   8.633 -0.8539 -0.2044 -0.5471
 5527SOL    HW128217   1.205   0.869   8.669  0.8333  0.8150 -0.0873
 5527SOL    HW228218   1.347   0.833   8.634 -0.0100 -2.3787  1.2971
 5528SOL     OW28219   4.479   3.384   8.420  0.3697 -0.2970 -0.6698
 5528SOL    HW128220   4.488   3.466   8.469 -0.9742 -0.3669 -0.3086
 5528SOL    HW228221   4.409   3.332   8.461  1.3077 -2.6584 -2.0342
 5529SOL     OW28222   0.623   4.386   5.302 -0.4441 -0.0356 -0.3435
 5529SOL    HW128223   0.597   4.477   5.285  2.4464  0.5872 -1.4544
 5529SOL    HW228224   0.535   4.351   5.294  0.0967 -1.1316 -1.4691
 5530SOL     OW28225   1.339   2.968  11.578  0.4668  0.4076 -0.0284
 5530SOL    HW128226   1.263   2.938  11.628  1.2248  0.0323  0.8833
 5530SOL    HW228227   1.402   2.979  11.649 -0.8411  1.6532  0.9587
 5531SOL     OW28228   2.778   4.315   5.263  0.6439  0.4765 -0.2322
 5531SOL    HW128229   2.725   4.275   5.194  2.1302  0.6144 -1.4517
 5531SOL    HW228230   2.751   4.278   5.347 -0.2840  2.2773  0.2792
 5532SOL     OW28231   1.789   1.534   8.824 -0.0290  0.4220 -0.3399
 5532SOL    HW128232   1.835   1.493   8.751 -2.3881 -1.8961 -0.5345
 5532SOL    HW228233   1.796   1.470   8.895 -1.4994  1.0256  0.3505
 5533SOL     OW28234   2.632   0.902   4.049 -0.3040 -0.2247 -0.6308
 5533SOL    HW128235   2.571   0.870   3.983 -0.0551 -2.2704  0.1172
 5533SOL    HW228236   2.580   0.977   4.080  0.8909  0.2995  0.0747
 5534SOL     OW28237   4.242   2.160   7.443 -0.0643 -0.5650  0.3855
 5534SOL    HW128238   4.209   2.209   7.368 -0.2925  0.1869  0.9772
 5534SOL    HW228239   4.220   2.070   7.418 -1.2155 -0.5506  1.3356
 5535SOL     OW28240   1.413   2.828   7.568 -0.4494 -0.0506  0.3710
 5535SOL    HW128241   1.343   2.769   7.540 -1.0345 -0.2498  2.3017
 5535SOL    HW228242   1.453   2.838   7.481 -1.8789  2.1270 -0.0392
 5536SOL     OW28243   2.455   2.231  12.002 -0.2445  0.1094  0.4017
 5536SOL    HW128244   2.537   2.253  12.047  0.6792 -2.6499  0.0428
 5536SOL    HW228245   2.461   2.136  11.998 -3.5382 -0.0270 -0.6306
 5537SOL     OW28246   0.889   2.912  10.704 -0.2541  0.2384 -0.4609
 5537SOL    HW128247   0.861   2.827  10.736  1.5284 -0.8208 -1.7210
 5537SOL    HW228248   0.857   2.966  10.776 -1.2952 -1.7520  0.5631
 5538SOL     OW28249   1.078   0.356   5.638 -0.7845 -0.0260  0.2620
 5538SOL    HW128250   1.080   0.450   5.656 -0.4833  0.3620 -1.8634
 5538SOL    HW228251   1.157   0.322   5.681 -0.4984  0.1936 -0.0911
 5539SOL     OW28252   2.752   1.362   5.329 -0.1341 -0.0337 -0.5163
 5539SOL    HW128253   2.715   1.450   5.336 -1.2673 -0.6047  0.7103
 5539SOL    HW228254   2.843   1.389   5.320 -0.2330  1.5032  2.9830
 5540SOL     OW28255   2.913   0.490  13.219 -0.6224  0.3586 -0.1067
 5540SOL    HW128256   2.981   0.425  13.202 -1.3918 -0.1295 -1.3469
 5540SOL    HW228257   2.827   0.448  13.209 -0.8787  1.1592 -1.1996
 5541SOL     OW28258   4.226   0.155   5.926 -0.4391  0.3081  0.7539
 5541SOL    HW128259   4.169   0.143   6.003 -1.4582 -0.1713 -0.0770
 5541SOL    HW228260   4.216   0.068   5.886 -0.0028  0.6352 -0.0588
 5542SOL     OW28261   1.336   0.924   9.780 -0.1139  0.4844  0.4907
 5542SOL    HW128262   1.398   0.862   9.819 -2.0264 -0.2138  2.4309
 5542SOL    HW228263   1.329   0.993   9.846  0.9968  2.7781 -1.7691
 5543SOL     OW28264   0.016   2.449   5.535 -0.0696  0.5789  0.3431
 5543SOL    HW128265   0.010   2.539   5.501  0.6401  0.4770 -0.0400
 5543SOL    HW228266   0.105   2.427   5.508 -0.4730  1.8570 -2.0818
 5544SOL     OW28267   1.868   2.793   5.624 -0.6607 -0.7740  0.2247
 5544SOL    HW128268   1.780   2.828   5.606  0.2986  1.0206 -0.9223
 5544SOL    HW228269   1.917   2.869   5.655 -0.0153 -2.4750  3.3187
 5545SOL     OW28270   2.605   4.647   6.349 -0.5250 -0.0217  0.1789
 5545SOL    HW128271   2.680   4.651   6.408  1.0336 -3.2768 -1.5787
 5545SOL    HW228272   2.541   4.613   6.413 -0.8972  1.7534  0.7579
 5546SOL     OW28273   2.127   0.903  12.299  0.2469  0.4446 -0.2331
 5546SOL    HW128274   2.100   0.829  12.245  1.6624  2.2009 -3.3130
 5546SOL    HW228275   2.214   0.882  12.333  0.0031  1.8660  1.2880
 5547SOL     OW28276   4.700   2.855   7.008 -0.2007 -0.0773  0.1156
 5547SOL    HW128277   0.019   2.920   7.054  0.7151 -0.1957 -0.7705
 5547SOL    HW228278   4.692   2.789   7.076 -3.5897  2.4077  2.1261
 5548SOL     OW28279   3.884   4.700   0.729 -0.4227  1.0705 -0.1666
 5548SOL    HW128280   3.950   4.631   0.735 -0.8139  0.6124 -1.0365
 5548SOL    HW228281   3.804   4.661   0.695  1.1245  0.4270 -3.0781
 5549SOL     OW28282   0.336   2.489   7.886  0.2032 -0.0636 -0.2342
 5549SOL    HW128283   0.343   2.395   7.869  0.6951  0.1602 -1.2701
 5549SOL    HW228284   0.306   2.523   7.802  0.6301 -1.6730 -1.0342
 5550SOL     OW28285   2.410   0.353   5.007 -0.3253 -0.5896  0.1939
 5550SOL    HW128286   2.353   0.277   4.997  2.2342 -2.6318  1.1845
 5550SOL    HW228287   2.489   0.333   4.957 -0.0268  0.6513  0.1825
 5551SOL     OW28288   4.092   3.653  13.168  0.3226 -0.2767 -0.1645
 5551SOL    HW128289   4.150   3.729  13.161 -0.2885  0.1865 -0.1751
 5551SOL    HW228290   4.147   3.593  13.119 -0.9392 -1.6371  0.0879
 5552SOL     OW28291   2.734   1.859   3.850  0.6309  0.4509 -0.0738
 5552SOL    HW128292   2.724   1.894   3.939  1.4608 -1.6534  0.8455
 5552SOL    HW228293   2.826   1.833   3.848  0.3182 -0.6510 -0.1881
 5553SOL     OW28294   1.955   2.728  12.153 -0.0106 -0.3436 -0.3655
 5553SOL    HW128295   1.984   2.807  12.106  0.8130 -1.8701 -2.4428
 5553SOL    HW228296   2.040   2.713  12.195  0.2533  2.1878 -0.0006
 5554SOL     OW28297   3.609   3.744   6.711  0.4083  0.2034  0.3550
 5554SOL    HW128298   3.623   3.655   6.680 -0.5998  0.4206 -0.7522
 5554SOL    HW228299   3.672   3.801   6.666  0.5035  0.3550  0.6777
 5555SOL     OW28300   0.994   1.228   8.422 -0.5147  0.0682  0.0552
 5555SOL    HW128301   1.033   1.154   8.377 -0.2981  0.9191 -1.1630
 5555SOL    HW228302   1.065   1.292   8.412 -0.9565  0.4613 -0.5596
 5556SOL     OW28303   2.535   0.772   3.226  0.1447 -0.2297 -0.4555
 5556SOL    HW128304   2.584   0.751   3.146  1.0581 -1.3724  0.4120
 5556SOL    HW228305   2.472   0.700   3.218  1.8908 -1.6658 -1.3635
 5557SOL     OW28306   1.846   1.302   4.685 -0.1586 -0.1861 -0.3131
 5557SOL    HW128307   1.800   1.244   4.745  0.0258  0.5127  0.5128
 5557SOL    HW228308   1.917   1.249   4.651  0.1303  0.8363 -1.2865
 5558SOL     OW28309   4.066   1.600  13.063  0.4197 -0.0374  0.5382
 5558SOL    HW128310   4.039   1.689  13.082  2.1577  0.8308 -1.1035
 5558SOL    HW228311   4.133   1.598  13.131  1.7850 -1.0567 -0.8383
 5559SOL     OW28312   0.039   2.315  10.441 -0.9364 -0.0266 -0.2520
 5559SOL    HW128313   4.722   2.276  10.511 -0.2683  0.2402  0.3843
 5559SOL    HW228314   0.097   2.239  10.433 -2.6442 -1.2365 -1.2943
 5560SOL     OW28315   2.311   1.938   0.378 -0.5744  0.3793  0.4660
 5560SOL    HW128316   2.281   1.961   0.290  0.4397 -0.0593  0.0028
 5560SOL    HW228317   2.237   1.896   0.422 -2.0382  2.2510 -0.2464
 5561SOL     OW28318   4.625   1.758   5.352 -0.7251 -0.0439 -0.5523
 5561SOL    HW128319   4.642   1.701   5.278 -0.6299  0.9043 -1.2555
 5561SOL    HW228320   4.546   1.808   5.328  0.8392  2.0297 -1.3766
 5562SOL     OW28321   3.766   2.381   5.462 -0.0148  0.6977 -0.1568
 5562SOL    HW128322   3.855   2.416   5.454  0.3587  0.2151  1.7164
 5562SOL    HW228323   3.726   2.413   5.381 -3.3448  0.2648  1.3460
 5563SOL     OW28324   2.608   2.809  17.724  0.1789  0.3985  0.0470
 5563SOL    HW128325   2.611   2.855   0.071  2.4041 -0.2671  0.3374
 5563SOL    HW228326   2.634   2.883  17.670 -0.6825 -0.8393 -2.0359
 5564SOL     OW28327   3.759   3.584   5.349  0.2508 -0.6960 -0.3473
 5564SOL    HW128328   3.752   3.513   5.413 -0.0276 -0.6693 -0.3458
 5564SOL    HW228329   3.845   3.564   5.312 -0.8599 -1.5385 -2.4993
 5565SOL     OW28330   4.032   4.297   7.624  0.5444  0.2975  0.3638
 5565SOL    HW128331   4.127   4.307   7.620  0.5569  0.4231  1.0695
 5565SOL    HW228332   4.019   4.318   7.531  0.0584 -1.1647  0.1016
 5566SOL     OW28333   1.543   1.013  14.175 -0.0637  0.1252 -0.6716
 5566SOL    HW128334   1.551   0.917  14.175 -2.3206 -0.0586  0.0823
 5566SOL    HW228335   1.613   1.038  14.115  1.0311 -0.0529  0.5305
 5567SOL     OW28336   3.026   3.377   8.048  0.6939 -0.0096 -0.3408
 5567SOL    HW128337   2.951   3.326   8.079  0.9023  0.1113  0.3642
 5567SOL    HW228338   3.047   3.434   8.122  0.8846 -1.3789  0.6592
 5568SOL     OW28339   1.068   1.246   9.751 -0.0336 -0.4126  0.4061
 5568SOL    HW128340   1.141   1.264   9.691 -1.3216  0.3168 -0.9607
 5568SOL    HW228341   1.057   1.331   9.794  1.2071 -0.4276  0.7378
 5569SOL     OW28342   4.061   0.166   2.369 -0.5571 -0.0139 -0.0349
 5569SOL    HW128343   4.088   0.074   2.362  0.8051  0.2701  1.5530
 5569SOL    HW228344   4.081   0.188   2.460 -1.0508 -1.0939  0.3424
 5570SOL     OW28345   4.734   2.465   4.927  0.5652 -0.2094  0.0799
 5570SOL    HW128346   0.013   2.506   5.013  0.3263  2.4724 -1.1686
 5570SOL    HW228347   4.675   2.395   4.955 -1.9781  1.4154 -1.1671
 5571SOL     OW28348   2.253   4.484   7.746  0.0206 -0.7496 -0.2012
 5571SOL    HW128349   2.194   4.509   7.675 -0.8501 -1.0833  0.4073
 5571SOL    HW228350   2.249   4.554   7.811  2.0961  0.0992 -0.9962
 5572SOL     OW28351   1.807   1.330   3.594 -0.0476  0.1024 -0.1030
 5572SOL    HW128352   1.734   1.268   3.602 -0.7459  0.9027 -0.3044
 5572SOL    HW228353   1.760   1.411   3.574 -1.5132 -1.0068 -1.1569
 5573SOL     OW28354   3.262   3.865  16.490  0.0297  0.2264 -0.1372
 5573SOL    HW128355   3.200   3.901  16.426  1.0862 -0.4611 -1.5572
 5573SOL    HW228356   3.327   3.934  16.504  0.4890 -0.2791  0.2377
 5574SOL     OW28357   4.188   0.216   4.678 -0.1882  0.0966 -0.0020
 5574SOL    HW128358   4.112   0.187   4.728 -0.0325 -2.1197 -1.0396
 5574SOL    HW228359   4.163   0.197   4.587 -1.2420 -3.1245  0.9809
 5575SOL     OW28360   0.983   4.678   2.396  0.2144 -0.2417  0.2160
 5575SOL    HW128361   0.990   4.677   2.301 -3.2187  3.6294 -0.0747
 5575SOL    HW228362   0.948   4.591   2.415  3.5157 -1.8048 -0.9419
 5576SOL     OW28363   1.866   2.144   4.488  0.7728  0.3699  0.1405
 5576SOL    HW128364   1.923   2.216   4.517  2.6785 -1.2252  0.3513
 5576SOL    HW228365   1.804   2.131   4.560 -1.5180  0.7781 -1.7575
 5577SOL     OW28366   0.349   2.630   7.646  0.4720  0.0115 -0.2795
 5577SOL    HW128367   0.379   2.685   7.718 -1.9752  1.0954 -0.0965
 5577SOL    HW228368   0.434   2.611   7.605  0.0444  0.0460 -1.1660
 5578SOL     OW28369   0.784   0.969   4.111  0.5704 -0.2372 -0.3950
 5578SOL    HW128370   0.861   1.014   4.076  0.7629 -1.0141 -0.9738
 5578SOL    HW228371   0.725   0.967   4.035  0.3655  1.8682 -0.2809
 5579SOL     OW28372   3.552   1.685  15.554  0.1814 -0.4435  0.6499
 5579SOL    HW128373   3.485   1.688  15.487  0.8405  0.2706  0.0145
 5579SOL    HW228374   3.585   1.775  15.548  0.2245 -0.3460  2.1391
 5580SOL     OW28375   4.601   1.224   9.896 -0.3870  0.4239  0.3715
 5580SOL    HW128376   4.587   1.318   9.885 -1.1301  0.1776 -0.8703
 5580SOL    HW228377   4.695   1.224   9.909 -0.5638 -0.0124  1.6408
 5581SOL     OW28378   1.984   1.075  15.291 -0.4924  0.3056 -0.0238
 5581SOL    HW128379   1.959   1.040  15.376 -1.7704  1.6510  0.1574
 5581SOL    HW228380   1.968   0.998  15.237 -0.9568 -0.8739  1.8039
 5582SOL     OW28381   3.485   3.090   7.119  0.2005 -0.4364 -0.3652
 5582SOL    HW128382   3.472   2.999   7.090  1.4505 -0.2819 -1.4600
 5582SOL    HW228383   3.564   3.110   7.069 -0.4134  3.2718  0.1728
 5583SOL     OW28384   1.981   2.355   1.777  0.0670  0.0171  0.2360
 5583SOL    HW128385   1.938   2.399   1.704  1.9800  0.8319 -0.4138
 5583SOL    HW228386   1.915   2.344   1.845  0.3108  0.5902  0.5644
 5584SOL     OW28387   2.752   1.233  16.425  0.2288 -0.1573 -0.0424
 5584SOL    HW128388   2.754   1.164  16.358  3.5217 -1.3570  1.3090
 5584SOL    HW228389   2.662   1.220  16.455  0.4842  0.5047  0.9796
 5585SOL     OW28390   1.127   4.306  16.044 -0.0429  0.3349  0.0178
 5585SOL    HW128391   1.094   4.321  16.132  0.5710 -0.3710  0.3644
 5585SOL    HW228392   1.166   4.219  16.053  1.6194  1.3077  2.0718
 5586SOL     OW28393   3.979   1.226   4.548  0.0338  0.0935 -0.1280
 5586SOL    HW128394   3.994   1.168   4.623 -1.5516  1.6042  1.3589
 5586SOL    HW228395   4.058   1.279   4.548  0.4151 -0.4667 -0.8420
 5587SOL     OW28396   3.593   3.415   3.137 -0.0697 -0.0142  0.0010
 5587SOL    HW128397   3.500   3.397   3.154 -0.0838 -1.2115 -1.4357
 5587SOL    HW228398   3.619   3.335   3.092  0.6423 -1.4346  2.9142
 5588SOL     OW28399   1.436   4.027   8.974 -0.3138 -0.1366  0.3244
 5588SOL    HW128400   1.502   3.959   8.962  0.2015 -0.0432  2.6265
 5588SOL    HW228401   1.372   3.972   9.020 -1.4581  1.4079  0.6142
 5589SOL     OW28402   0.041   0.202   3.352  0.4777  0.3477  0.5573
 5589SOL    HW128403   0.025   0.109   3.342  1.6551  0.2375 -0.3243
 5589SOL    HW228404   4.730   0.209   3.436 -0.3581 -0.2997  0.1577
 5590SOL     OW28405   3.036   4.288   6.744  0.2876 -0.0210  0.2336
 5590SOL    HW128406   3.035   4.369   6.795 -1.5104  0.0056  0.1569
 5590SOL    HW228407   3.061   4.223   6.808 -1.9312 -1.7070 -0.5866
 5591SOL     OW28408   4.163   3.208   5.722 -0.5296 -0.3349 -0.5666
 5591SOL    HW128409   4.167   3.114   5.709  2.3905  0.0117 -2.0128
 5591SOL    HW228410   4.178   3.243   5.634  2.0068  1.5518  0.6285
 5592SOL     OW28411   2.733   0.278   2.844  0.1787  0.5630 -0.8176
 5592SOL    HW128412   2.821   0.287   2.807  1.5019  0.0520  2.2529
 5592SOL    HW228413   2.723   0.183   2.847 -0.3334  0.6369 -0.3210
 5593SOL     OW28414   3.869   1.902  15.001 -0.0779 -0.3877  0.1052
 5593SOL    HW128415   3.786   1.871  15.038  0.2893 -1.3325  0.1489
 5593SOL    HW228416   3.830   1.978  14.959  0.4539  0.9365  1.9936
 5594SOL     OW28417   3.847   4.193   4.830 -0.8667  0.1328  0.6558
 5594SOL    HW128418   3.811   4.149   4.752 -0.6721  0.1740  0.5420
 5594SOL    HW228419   3.791   4.270   4.822  0.9333  1.2708 -1.1504
 5595SOL     OW28420   4.271   0.352   5.761 -0.0626  0.4856 -0.0297
 5595SOL    HW128421   4.323   0.328   5.684  0.7214  0.6579  0.4359
 5595SOL    HW228422   4.256   0.269   5.806 -1.2881  1.2035  0.8705
 5596SOL     OW28423   2.334   3.754  11.065 -0.3545 -0.5795  0.4478
 5596SOL    HW128424   2.364   3.745  11.155 -0.8596 -0.9520  0.5777
 5596SOL    HW228425   2.344   3.660  11.050 -1.7693 -0.4774 -1.1066
 5597SOL     OW28426   0.556   4.674   8.407  0.2983  0.7108 -0.4078
 5597SOL    HW128427   0.585   4.726   8.332 -0.5710  1.0113 -0.5277
 5597SOL    HW228428   0.478   4.635   8.368  1.0808 -0.4011 -0.8759
 5598SOL     OW28429   3.830   4.718   2.407  0.9143 -0.2757  0.1143
 5598SOL    HW128430   3.743   4.722   2.367  0.7301  2.2729  0.7600
 5598SOL    HW228431   3.861   0.070   2.379  1.0636 -1.2539 -2.7268
 5599SOL     OW28432   4.481   3.579   2.820  0.1577 -0.3781 -1.0512
 5599SOL    HW128433   4.519   3.531   2.893  1.1271 -0.5670 -1.6900
 5599SOL    HW228434   4.476   3.666   2.859 -0.4306 -0.6208 -0.5715
 5600SOL     OW28435   2.289   2.836   5.771  0.0799 -0.2575 -0.4536
 5600SOL    HW128436   2.307   2.761   5.828  0.1162  0.2916  0.2650
 5600SOL    HW228437   2.265   2.788   5.692  0.5796 -1.3797  0.0669
 5601SOL     OW28438   2.450   1.061   1.806 -0.3861 -0.4970 -0.0936
 5601SOL    HW128439   2.464   1.048   1.712 -0.8759 -2.3537  0.0899
 5601SOL    HW228440   2.401   1.143   1.804 -0.9954 -0.8429  0.9196
 5602SOL     OW28441   1.347   1.141   9.538 -0.3975 -0.6363 -0.0839
 5602SOL    HW128442   1.316   1.228   9.565  0.2522 -0.2760 -0.4928
 5602SOL    HW228443   1.348   1.102   9.626  0.9028  0.5072  0.4148
 5603SOL     OW28444   4.222   0.441   4.094 -0.3908 -0.0507 -0.1335
 5603SOL    HW128445   4.248   0.447   4.186 -1.3278  0.7092  0.0825
 5603SOL    HW228446   4.135   0.404   4.110 -0.3721 -0.9385 -2.0994
 5604SOL     OW28447   4.189   4.103  10.643 -0.6233  0.2839  0.1354
 5604SOL    HW128448   4.218   4.103  10.734  0.5281 -1.1807 -0.2520
 5604SOL    HW228449   4.260   4.052  10.605 -0.1128  2.8605 -2.3661
 5605SOL     OW28450   1.050   1.316   6.117  0.2900  0.5027  0.1018
 5605SOL    HW128451   1.135   1.324   6.073  1.1852 -4.0360  1.0707
 5605SOL    HW228452   1.072   1.239   6.169 -1.0500 -0.3112 -0.5297
 5606SOL     OW28453   1.233   4.660   3.995  0.9403 -0.5285 -0.0216
 5606SOL    HW128454   1.164   4.697   4.051  0.2247  1.8268 -2.4567
 5606SOL    HW228455   1.195   4.677   3.909 -1.5074  0.1408  1.1867
 5607SOL     OW28456   2.582   3.198   0.208  0.1343  0.6628 -0.6108
 5607SOL    HW128457   2.644   3.221   0.138  1.4290 -2.5682 -0.5414
 5607SOL    HW228458   2.522   3.273   0.208 -1.0124 -0.2694 -0.2803
 5608SOL     OW28459   0.653   0.711   5.681  1.0398 -0.3719 -0.3026
 5608SOL    HW128460   0.662   0.778   5.749 -0.6711 -1.0974  0.6222
 5608SOL    HW228461   0.658   0.635   5.739 -0.1609 -2.2800 -2.7411
 5609SOL     OW28462   1.118   0.677   8.067  0.0849  0.1361 -0.2106
 5609SOL    HW128463   1.180   0.735   8.023 -2.9954  2.6198 -1.2660
 5609SOL    HW228464   1.080   0.739   8.130  0.9670  1.5542 -1.0782
 5610SOL     OW28465   3.277   3.751  14.546  0.3518  0.0073 -0.4740
 5610SOL    HW128466   3.245   3.689  14.612  1.3721  0.1826  0.1793
 5610SOL    HW228467   3.233   3.832  14.571  0.5932  0.3175 -1.0689
 5611SOL     OW28468   2.492   2.763  12.180  0.3107 -0.1169  0.0395
 5611SOL    HW128469   2.559   2.818  12.220  0.6220 -0.3434 -0.1710
 5611SOL    HW228470   2.536   2.717  12.109 -2.9000 -2.3726 -0.4927
 5612SOL     OW28471   1.031   1.250   7.976 -0.5524  0.0556 -0.4097
 5612SOL    HW128472   1.105   1.244   8.035 -0.0150 -2.0471 -1.3147
 5612SOL    HW228473   0.973   1.311   8.022 -1.2254 -0.0597 -1.0824
 5613SOL     OW28474   4.405   0.047   1.270 -0.6482  0.1360 -0.0916
 5613SOL    HW128475   4.452   0.032   1.352 -0.9571 -0.6534 -0.0539
 5613SOL    HW228476   4.400   4.691   1.239  1.2646 -0.4334  1.2691
 5614SOL     OW28477   3.972   3.586   3.071 -0.4105 -0.4924  0.2439
 5614SOL    HW128478   3.897   3.611   3.125  0.7989 -0.3711  1.8387
 5614SOL    HW228479   3.932   3.552   2.990 -1.2862 -1.6658  1.1671
 5615SOL     OW28480   2.005   3.856   5.919  0.3743 -0.1388 -0.6559
 5615SOL    HW128481   2.095   3.827   5.931 -0.0185 -1.2999 -0.4950
 5615SOL    HW228482   2.012   3.907   5.838  1.2880 -0.2079 -0.6182
 5616SOL     OW28483   4.052   2.170  11.683 -0.3079  0.0699  0.0996
 5616SOL    HW128484   4.056   2.231  11.757  2.5841  1.5046 -1.2205
 5616SOL    HW228485   4.071   2.235  11.615 -1.1787  0.5035  0.2782
 5617SOL     OW28486   2.206   3.303  11.544 -0.0479  0.6647 -0.8565
 5617SOL    HW128487   2.234   3.364  11.475  1.3157  1.6767  0.5882
 5617SOL    HW228488   2.151   3.239  11.499  1.2359 -0.0394 -1.4110
 5618SOL     OW28489   3.206   0.654   4.899 -0.4395  0.0323 -0.5139
 5618SOL    HW128490   3.120   0.693   4.917 -0.2452 -0.5008  1.6493
 5618SOL    HW228491   3.268   0.706   4.949 -1.2427 -0.0019  0.5286
 5619SOL     OW28492   0.779   1.585   3.280 -0.0569 -0.5376 -0.9070
 5619SOL    HW128493   0.822   1.509   3.240 -0.1304 -0.4360 -1.1778
 5619SOL    HW228494   0.710   1.612   3.220  0.7324  2.7747 -0.2757
 5620SOL     OW28495   1.149   3.580   8.945 -0.1183  0.6579 -0.3310
 5620SOL    HW128496   1.133   3.634   8.867 -0.9052  2.1159  0.8477
 5620SOL    HW228497   1.228   3.532   8.918  0.8787  0.8301  2.2663
 5621SOL     OW28498   1.417   4.708  12.201  0.4464  0.8143  0.1348
 5621SOL    HW128499   1.510   4.693  12.186  0.7636  0.7733  2.1665
 5621SOL    HW228500   1.399   4.658  12.280 -1.6842 -0.0417 -0.8875
 5622SOL     OW28501   4.259   4.450   5.135 -0.2652 -0.8313 -0.2598
 5622SOL    HW128502   4.165   4.451   5.118 -0.5381  0.2279  1.2835
 5622SOL    HW228503   4.292   4.443   5.045 -1.3353 -1.3311 -0.6077
 5623SOL     OW28504   3.248   4.282  12.498  0.0106  0.1014 -0.2675
 5623SOL    HW128505   3.231   4.308  12.408 -2.5203 -2.6375 -0.5927
 5623SOL    HW228506   3.282   4.194  12.484 -0.8093 -0.3376  0.5056
 5624SOL     OW28507   2.036   0.835   7.954  0.2016  0.0882 -0.1208
 5624SOL    HW128508   2.033   0.751   8.000  1.1637 -1.2432 -2.5200
 5624SOL    HW228509   1.951   0.877   7.963  0.0550  0.1617 -1.8848
 5625SOL     OW28510   4.190   2.311   7.158 -0.1245  0.4354 -0.4175
 5625SOL    HW128511   4.223   2.381   7.215 -2.4281  0.1748  1.2190
 5625SOL    HW228512   4.272   2.268   7.137 -0.2872 -0.1271  0.1073
 5626SOL     OW28513   2.902   4.347   8.744 -0.1645  0.4181 -0.2060
 5626SOL    HW128514   2.958   4.324   8.670 -0.7458  1.0175 -0.8236
 5626SOL    HW228515   2.967   4.389   8.800  0.0477  0.4713 -0.4969
 5627SOL     OW28516   3.829   3.598   1.092 -0.2315  0.3956 -0.7443
 5627SOL    HW128517   3.877   3.670   1.132  0.3007  0.1042 -0.8654
 5627SOL    HW228518   3.892   3.556   1.034 -0.7654 -1.0706 -0.2723
 5628SOL     OW28519   1.646   1.671   1.924  0.1010 -0.1358 -0.2426
 5628SOL    HW128520   1.606   1.618   1.993  1.2345 -1.4514 -0.6046
 5628SOL    HW228521   1.613   1.755   1.956  0.8455  0.4304 -0.9570
 5629SOL     OW28522   0.495   1.550   2.765  0.4240  0.2873 -0.0813
 5629SOL    HW128523   0.421   1.605   2.738  1.3341  3.0154  2.9074
 5629SOL    HW228524   0.468   1.521   2.852 -0.2251  1.2313  0.0439
 5630SOL     OW28525   4.148   2.897   9.204  0.3961  0.1954  0.0168
 5630SOL    HW128526   4.178   2.988   9.210  1.4324 -0.2569  1.6224
 5630SOL    HW228527   4.089   2.911   9.130 -1.1857 -0.9039  1.0878
 5631SOL     OW28528   1.720   3.050  11.479 -0.1943  0.1739  0.0626
 5631SOL    HW128529   1.716   3.048  11.575  2.3815  3.0217  0.2494
 5631SOL    HW228530   1.633   3.089  11.467 -0.1070 -0.6123 -2.9605
 5632SOL     OW28531   3.759   1.035  14.281 -0.5940  0.5381 -0.1433
 5632SOL    HW128532   3.755   1.092  14.357 -2.0902  0.7610 -0.3760
 5632SOL    HW228533   3.668   1.032  14.252 -0.5154 -1.7386 -0.1647
 5633SOL     OW28534   3.340   1.851   4.293  0.4103 -0.0769  0.0594
 5633SOL    HW128535   3.370   1.942   4.299  0.0264 -0.1076  2.2232
 5633SOL    HW228536   3.399   1.812   4.358 -0.2515  0.9499  1.2751
 5634SOL     OW28537   1.262   4.720  16.274  0.7182  0.0361 -0.1272
 5634SOL    HW128538   1.212   4.674  16.342  0.1360 -0.9261 -1.2116
 5634SOL    HW228539   1.256   0.073  16.312  1.0103  1.2223 -2.8070
 5635SOL     OW28540   3.594   0.889  15.791 -0.7988  0.4102 -0.1711
 5635SOL    HW128541   3.597   0.881  15.887  0.6119 -1.5520 -0.3625
 5635SOL    HW228542   3.592   0.984  15.783 -2.6546  0.2250 -1.7778
 5636SOL     OW28543   0.565   2.599   1.858  0.3025 -0.5767 -0.2813
 5636SOL    HW128544   0.586   2.686   1.893 -1.3642 -0.3179  0.0993
 5636SOL    HW228545   0.652   2.561   1.849  0.9732  0.4942  1.6248
 5637SOL     OW28546   1.575   0.255  16.939  0.7417  0.3604  0.0383
 5637SOL    HW128547   1.662   0.294  16.945  1.4716 -1.2703  0.0511
 5637SOL    HW228548   1.528   0.312  16.999 -2.9572 -1.0425 -1.4771
 5638SOL     OW28549   2.830   3.091   2.214  0.5555  0.4667 -0.3352
 5638SOL    HW128550   2.906   3.114   2.161  1.7790 -1.8672  0.4574
 5638SOL    HW228551   2.861   3.003   2.234 -1.2219 -0.0953  0.0175
 5639SOL     OW28552   1.700   3.974   9.300  0.0930  0.2059  0.1701
 5639SOL    HW128553   1.774   3.964   9.240  0.6438 -2.6792  1.3186
 5639SOL    HW228554   1.652   3.893   9.280 -1.5039  2.1920 -4.1340
 5640SOL     OW28555   3.271   2.752   3.659  0.3663  0.2116 -0.0053
 5640SOL    HW128556   3.242   2.694   3.589  0.1561  1.0708 -0.6346
 5640SOL    HW228557   3.219   2.713   3.729 -2.1357  2.0377 -0.8469
 5641SOL     OW28558   0.773   2.780   7.636  0.0720  0.6863  0.7762
 5641SOL    HW128559   0.865   2.793   7.615 -0.3233  1.6826 -0.3752
 5641SOL    HW228560   0.771   2.741   7.724  1.9557 -3.6681 -1.1227
 5642SOL     OW28561   4.248   1.788   1.633  0.6082  0.0995 -0.0059
 5642SOL    HW128562   4.292   1.704   1.640 -0.6700 -0.6826 -1.3820
 5642SOL    HW228563   4.212   1.775   1.545  2.1436 -2.5990 -0.2117
 5643SOL     OW28564   2.383   3.554   4.160 -0.0622 -0.0561 -0.2146
 5643SOL    HW128565   2.393   3.603   4.078  1.6414 -1.8913 -1.1040
 5643SOL    HW228566   2.380   3.630   4.218  0.1522 -0.4650  0.3304
 5644SOL     OW28567   3.607   4.635   6.116  0.1990  0.4626  0.2776
 5644SOL    HW128568   3.602   4.647   6.211 -0.8531  0.5053  0.2071
 5644SOL    HW228569   3.684   4.690   6.100  1.6128 -1.6931 -0.3275
 5645SOL     OW28570   2.991   3.498   1.465  0.0960  0.1226  0.6727
 5645SOL    HW128571   2.906   3.494   1.422 -0.1154  1.3442  0.9653
 5645SOL    HW228572   3.010   3.409   1.493  0.0158  0.0847  0.6051
 5646SOL     OW28573   0.070   3.527   3.134 -0.3478  0.2588  0.5082
 5646SOL    HW128574   0.126   3.603   3.154 -0.8493  0.6333  0.4848
 5646SOL    HW228575   0.069   3.486   3.220  0.6687 -0.6169  0.0994
 5647SOL     OW28576   1.706   3.667   9.180  0.4404  0.5398  0.1388
 5647SOL    HW128577   1.705   3.684   9.274  0.0939  0.9958  0.0555
 5647SOL    HW228578   1.726   3.573   9.178  0.8722  0.6296  0.2365
 5648SOL     OW28579   0.849   2.922   2.952 -0.0926 -0.1822  0.3850
 5648SOL    HW128580   0.841   3.014   2.928 -2.9016 -0.6071 -0.4030
 5648SOL    HW228581   0.794   2.874   2.890  0.4063  0.9412 -0.9098
 5649SOL     OW28582   0.074   1.430   4.935 -0.0244 -0.0549  0.5274
 5649SOL    HW128583   0.016   1.368   4.890 -1.6101  0.2030  2.2092
 5649SOL    HW228584   0.116   1.475   4.862 -1.4793  1.2154  0.4670
 5650SOL     OW28585   2.933   4.624   6.122  0.2488  0.2659  0.0141
 5650SOL    HW128586   3.005   4.561   6.120  0.7274  0.7106  2.2423
 5650SOL    HW228587   2.968   4.698   6.072  0.3298 -0.6792 -1.3204
 5651SOL     OW28588   1.255   0.549   5.084 -0.0883 -0.0604 -0.0525
 5651SOL    HW128589   1.230   0.630   5.128 -0.3220 -1.0661  1.7005
 5651SOL    HW228590   1.269   0.587   4.997 -0.8881  1.5344  0.5262
 5652SOL     OW28591   2.178   4.319   7.394 -0.0487  0.3278  0.0561
 5652SOL    HW128592   2.247   4.317   7.461 -1.1017 -0.7006  1.1080
 5652SOL    HW228593   2.178   4.232   7.354 -1.7990 -0.6682  2.2438
 5653SOL     OW28594   0.475   0.526   7.986  0.3143 -0.2934 -0.2026
 5653SOL    HW128595   0.533   0.454   8.009 -0.4222 -0.6191  0.6188
 5653SOL    HW228596   0.387   0.490   7.974 -1.0295  2.5295  1.0135
 5654SOL     OW28597   2.397   1.326   9.209 -0.2296  0.5506  0.7188
 5654SOL    HW128598   2.392   1.386   9.283 -2.6606  0.9801  0.2113
 5654SOL    HW228599   2.385   1.384   9.134 -0.8074  0.0710  0.4429
 5655SOL     OW28600   1.671   4.370   5.321  0.1376 -0.5036  0.3037
 5655SOL    HW128601   1.635   4.302   5.265 -0.1535 -0.1931  0.1136
 5655SOL    HW228602   1.609   4.443   5.314  1.0648  0.0792 -1.8611
 5656SOL     OW28603   0.672   1.566   5.987  0.3615 -0.7020  0.1703
 5656SOL    HW128604   0.586   1.580   6.025 -0.1820 -1.7650 -0.6553
 5656SOL    HW228605   0.722   1.633   6.033 -0.1509 -0.2211  0.0269
 5657SOL     OW28606   2.686   2.489   5.688  0.1932 -0.0227 -0.4719
 5657SOL    HW128607   2.760   2.446   5.730  0.1244  0.5633  0.2753
 5657SOL    HW228608   2.726   2.541   5.618 -0.2003  2.0164  0.8093
 5658SOL     OW28609   0.289   2.890   8.880 -0.1837 -0.6799 -0.1790
 5658SOL    HW128610   0.256   2.870   8.968 -0.5978  3.5778  0.6288
 5658SOL    HW228611   0.250   2.972   8.853  0.3368 -1.1932 -2.4487
 5659SOL     OW28612   0.886   4.570   9.531 -0.0125  0.2530  0.0010
 5659SOL    HW128613   0.948   4.498   9.524  1.2131  1.5502 -2.2850
 5659SOL    HW228614   0.940   4.630   9.584  1.9707  0.1997 -1.9579
 5660SOL     OW28615   3.913   1.838  13.047  0.6208 -0.1758 -0.1945
 5660SOL    HW128616   3.923   1.884  13.130 -0.5212 -1.7389  0.8209
 5660SOL    HW228617   3.825   1.801  13.047  0.8509 -0.7385  2.5218
 5661SOL     OW28618   2.060   2.499   2.379  0.1714  0.1288  0.2613
 5661SOL    HW128619   2.022   2.453   2.303  2.1741  1.2011 -1.3902
 5661SOL    HW228620   2.140   2.544   2.350 -0.7109  1.1566 -0.5650
 5662SOL     OW28621   2.940   1.851   8.599 -0.7157 -0.1902  0.1645
 5662SOL    HW128622   2.914   1.821   8.686  1.4629 -1.9021  0.2011
 5662SOL    HW228623   3.004   1.782   8.585 -0.7705  0.1898 -1.9589
 5663SOL     OW28624   4.637   1.109   1.526  0.5931  0.0483  0.2461
 5663SOL    HW128625   4.545   1.117   1.502  0.8826 -0.4405 -1.0043
 5663SOL    HW228626   4.618   1.053   1.602 -0.6416 -0.3226 -0.3316
 5664SOL     OW28627   2.557   3.175   2.890  0.3559 -0.2096 -0.0337
 5664SOL    HW128628   2.602   3.253   2.922 -0.9482  0.6867 -0.3922
 5664SOL    HW228629   2.467   3.199   2.912  0.4937 -0.1887  0.4946
 5665SOL     OW28630   2.255   2.203   8.314  0.3253 -0.0036 -0.0612
 5665SOL    HW128631   2.215   2.291   8.314 -0.3688 -0.3148  0.6936
 5665SOL    HW228632   2.348   2.225   8.318  0.5726 -1.2261  0.7374
 5666SOL     OW28633   1.521   3.235  15.108 -0.5046 -0.1140  0.0269
 5666SOL    HW128634   1.529   3.319  15.152 -2.1666 -0.1268  0.3605
 5666SOL    HW228635   1.431   3.209  15.127  0.1159 -1.2570  1.3622
 5667SOL     OW28636   2.645   1.490   5.634 -0.3323  0.0018 -0.0413
 5667SOL    HW128637   2.650   1.585   5.625  1.1500  0.2010  2.6448
 5667SOL    HW228638   2.569   1.468   5.688  0.0521  0.7499  0.8043
 5668SOL     OW28639   1.848   0.036   5.941 -0.1712  0.9437 -0.2842
 5668SOL    HW128640   1.809   0.083   5.867 -2.5554 -0.9689 -0.2548
 5668SOL    HW228641   1.933   0.021   5.899 -0.6612  2.7623 -1.9036
 5669SOL     OW28642   4.095   1.295   7.550  0.2550  0.0255 -0.4418
 5669SOL    HW128643   4.037   1.241   7.496 -0.6262  0.1004  0.4185
 5669SOL    HW228644   4.120   1.371   7.497 -2.1848  0.9339 -0.2669
 5670SOL     OW28645   2.101   1.840   4.304 -0.0275 -0.0612 -0.3706
 5670SOL    HW128646   2.044   1.857   4.379  2.1290 -0.9935  1.4846
 5670SOL    HW228647   2.043   1.831   4.229  0.4048  0.4175 -0.7667
 5671SOL     OW28648   0.559   1.288  16.650  0.1990 -0.0946 -0.0853
 5671SOL    HW128649   0.470   1.267  16.679 -0.0479 -1.9090 -2.1652
 5671SOL    HW228650   0.592   1.327  16.731 -1.3836 -1.0455  1.0240
 5672SOL     OW28651   2.702   2.232   8.462 -0.0611  0.2448  0.4094
 5672SOL    HW128652   2.622   2.204   8.416  0.3089  1.1934 -0.8234
 5672SOL    HW228653   2.761   2.223   8.387 -1.0125 -1.7222 -0.0960
 5673SOL     OW28654   4.548   4.237  17.448  0.0201 -0.2559 -0.2398
 5673SOL    HW128655   4.603   4.255  17.524 -0.4483  0.2640 -0.0285
 5673SOL    HW228656   4.592   4.169  17.397  2.5921  1.0654  0.1909
 5674SOL     OW28657   0.992   3.479   4.103  0.4619 -0.3709 -0.5730
 5674SOL    HW128658   0.955   3.564   4.081  0.7468 -0.1247 -0.0983
 5674SOL    HW228659   0.933   3.422   4.053 -1.8145  0.9300  0.6038
 5675SOL     OW28660   2.336   3.699   3.928 -0.1213 -0.5586 -0.4470
 5675SOL    HW128661   2.374   3.742   3.852  0.6056  0.2024  0.3537
 5675SOL    HW228662   2.241   3.704   3.914 -0.1743 -2.3008 -0.7417
 5676SOL     OW28663   0.596   1.360  10.521  0.2770  0.2998 -0.2766
 5676SOL    HW128664   0.532   1.342  10.590  0.0553 -1.1921 -0.8631
 5676SOL    HW228665   0.586   1.454  10.510 -0.4796  0.4284  1.5205
 5677SOL     OW28666   1.413   1.825   3.967  0.5764  0.0248  0.3759
 5677SOL    HW128667   1.431   1.880   3.890 -0.6866 -1.9357 -1.3224
 5677SOL    HW228668   1.335   1.872   3.997 -0.4117 -2.6406  1.9530
 5678SOL     OW28669   0.082   0.178   4.292 -0.2345 -0.5561  0.3180
 5678SOL    HW128670   0.069   0.264   4.332 -0.2045 -0.1722 -0.5063
 5678SOL    HW228671   0.060   0.125   4.368 -1.7097 -0.3994 -0.0046
 5679SOL     OW28672   3.504   3.461   1.665 -0.6958 -0.6715 -0.1601
 5679SOL    HW128673   3.537   3.372   1.675 -2.6657 -1.3729  0.1585
 5679SOL    HW228674   3.500   3.476   1.571  0.5322  0.0544 -0.0956
 5680SOL     OW28675   1.716   0.481   8.765 -0.4284  0.1806 -0.1513
 5680SOL    HW128676   1.731   0.431   8.685  0.9648 -0.9284  0.8117
 5680SOL    HW228677   1.673   0.418   8.823  0.5733  0.5168  0.9622
 5681SOL     OW28678   1.990   1.246  14.366  0.1312 -0.3588 -0.7344
 5681SOL    HW128679   1.917   1.230  14.425  1.3055  0.1574  0.8630
 5681SOL    HW228680   2.030   1.158  14.367 -1.8153 -1.1818  2.3541
 5682SOL     OW28681   2.450   4.112   5.863 -0.2889 -0.0562  0.3485
 5682SOL    HW128682   2.513   4.041   5.880  0.3074 -0.1875 -2.4944
 5682SOL    HW228683   2.449   4.169   5.940 -2.5587 -1.9400  1.7267
 5683SOL     OW28684   0.977   4.235   2.643  0.4421 -0.0089 -0.4094
 5683SOL    HW128685   0.981   4.288   2.563 -2.1614  1.7323  0.6014
 5683SOL    HW228686   0.896   4.269   2.681  0.1331 -1.8782  0.5996
 5684SOL     OW28687   2.507   3.723  14.612 -0.2962 -0.0434  0.0105
 5684SOL    HW128688   2.571   3.716  14.683 -0.4143 -1.3017 -0.0068
 5684SOL    HW228689   2.492   3.818  14.612 -0.1833 -0.0287  3.3309
 5685SOL     OW28690   2.095   0.216   2.644  0.3915  0.1173  0.2052
 5685SOL    HW128691   2.067   0.247   2.558 -0.9744 -1.0661  0.2342
 5685SOL    HW228692   2.083   0.121   2.643  0.3825  0.1167  0.3334
 5686SOL     OW28693   2.979   3.782   5.883  0.1648 -0.1906  0.5449
 5686SOL    HW128694   2.931   3.766   5.802  2.3343 -1.1211 -0.5583
 5686SOL    HW228695   2.914   3.796   5.952  0.5236 -1.1950  1.0965
 5687SOL     OW28696   2.780   2.960   3.909  0.0083  0.5738  0.2187
 5687SOL    HW128697   2.757   2.903   3.835  1.1129 -0.4261  0.6365
 5687SOL    HW228698   2.705   2.931   3.962  0.8758  2.1645  2.3200
 5688SOL     OW28699   3.464   1.954   2.228  0.3949 -0.3050  0.2739
 5688SOL    HW128700   3.485   2.020   2.161  0.2698  0.2736  0.8051
 5688SOL    HW228701   3.369   1.959   2.236  0.1874  1.5801 -2.8830
 5689SOL     OW28702   1.882   4.582  13.077  0.8172  0.1300  0.2041
 5689SOL    HW128703   1.827   4.507  13.055 -1.5167  2.6177 -2.3187
 5689SOL    HW228704   1.958   4.540  13.119 -1.1405 -5.2112 -1.6933
 5690SOL     OW28705   4.382   1.430   3.930 -0.3361 -0.2197 -0.0394
 5690SOL    HW128706   4.370   1.510   3.981 -0.5927 -2.9355  4.1819
 5690SOL    HW228707   4.296   1.389   3.942 -0.8943  0.8486 -0.3745
 5691SOL     OW28708   3.324   1.587   7.723 -0.0980 -0.0702  0.6756
 5691SOL    HW128709   3.242   1.544   7.743  0.6943 -1.6035  0.6333
 5691SOL    HW228710   3.302   1.611   7.633  0.4487 -2.4254 -0.0828
 5692SOL     OW28711   1.675   1.216   5.064 -0.3726  0.0290  0.2692
 5692SOL    HW128712   1.667   1.123   5.088  0.9684 -0.2083 -0.1964
 5692SOL    HW228713   1.584   1.232   5.086 -0.4505 -0.2612  0.1714
 5693SOL     OW28714   4.413   4.513  17.555 -0.6390 -0.2516 -0.2694
 5693SOL    HW128715   4.400   4.431  17.603  0.3000 -0.3536 -0.1830
 5693SOL    HW228716   4.493   4.495  17.505 -1.4022  2.1438 -2.3577
 5694SOL     OW28717   1.356   1.590   4.446  0.1154 -0.1541  0.5941
 5694SOL    HW128718   1.323   1.660   4.389  0.1031 -0.6412  0.0058
 5694SOL    HW228719   1.314   1.515   4.404  0.3176  0.5705 -0.8952
 5695SOL     OW28720   3.660   4.689   7.841  0.1651  0.5598  0.0290
 5695SOL    HW128721   3.701   0.037   7.868 -0.1043  0.4120  0.8982
 5695SOL    HW228722   3.739   4.649   7.803 -0.1479  1.8908 -2.0033
 5696SOL     OW28723   2.117   3.324  12.254  0.1326 -0.7119  0.4436
 5696SOL    HW128724   2.106   3.405  12.205  0.7011 -0.7208  0.3011
 5696SOL    HW228725   2.184   3.287  12.196  1.0940 -0.5372  1.4277
 5697SOL     OW28726   3.673   1.770  12.962  0.1565 -0.0105 -0.4886
 5697SOL    HW128727   3.621   1.850  12.971  2.7837  1.7020 -0.5979
 5697SOL    HW228728   3.615   1.719  12.906  1.6111 -0.5644 -1.4865
 5698SOL     OW28729   0.969   3.108   5.704  0.2035  0.1322  0.2257
 5698SOL    HW128730   0.893   3.061   5.737  0.3144  0.3909  0.8612
 5698SOL    HW228731   1.044   3.057   5.735  0.3098  0.8089  1.0802
 5699SOL     OW28732   4.380   1.795   9.391  0.0070 -0.3317 -0.4348
 5699SOL    HW128733   4.322   1.857   9.435  1.2757  0.9727 -0.5936
 5699SOL    HW228734   4.327   1.766   9.317 -1.0536  1.0389 -0.2253
 5700SOL     OW28735   2.811   4.542   9.973 -0.6182  0.2232 -0.1338
 5700SOL    HW128736   2.789   4.633   9.950  1.6748  0.6210 -0.8360
 5700SOL    HW228737   2.903   4.549   9.998 -0.7303  1.5794 -0.0581
 5701SOL     OW28738   1.854   4.520   8.135 -0.1942  0.1045  0.3204
 5701SOL    HW128739   1.907   4.596   8.158  1.3500 -0.4356 -1.3833
 5701SOL    HW228740   1.901   4.484   8.059 -0.2184  0.8159 -0.0288
 5702SOL     OW28741   4.678   1.310  13.267  0.0323 -0.8474 -0.6804
 5702SOL    HW128742   4.633   1.257  13.201 -0.3202 -2.4195  0.8491
 5702SOL    HW228743   0.018   1.254  13.287  1.2905  1.6571  1.6647
 5703SOL     OW28744   2.560   1.114   3.499 -0.8124 -0.0380  0.2846
 5703SOL    HW128745   2.513   1.032   3.512 -2.2427  1.1864  2.9417
 5703SOL    HW228746   2.612   1.091   3.422  0.9259  1.2607  1.0840
 5704SOL     OW28747   1.818   4.131   5.532 -0.1053  0.2399  0.1310
 5704SOL    HW128748   1.793   4.223   5.522 -1.9681 -0.3202 -0.3681
 5704SOL    HW228749   1.740   4.082   5.505  0.0679 -0.3221  0.6466
 5705SOL     OW28750   4.404   0.938   8.538 -0.2819  0.0287  0.2359
 5705SOL    HW128751   4.487   0.928   8.492  0.9257  1.0021  2.1896
 5705SOL    HW228752   4.354   0.859   8.516 -1.1105  0.5761  0.1285
 5706SOL     OW28753   2.586   2.392  14.438  0.1106  0.3059 -0.3003
 5706SOL    HW128754   2.590   2.368  14.531  0.4292 -1.1298 -0.6831
 5706SOL    HW228755   2.500   2.435  14.437  0.3722  0.9097  1.8850
 5707SOL     OW28756   3.476   4.087   5.110 -0.5737  0.1000 -0.2892
 5707SOL    HW128757   3.447   4.166   5.156 -1.5900 -0.4961  0.0924
 5707SOL    HW228758   3.459   4.107   5.017 -5.1598 -2.3823  0.0423
 5708SOL     OW28759   0.215   2.099   4.459 -0.2449  0.1957 -0.1945
 5708SOL    HW128760   0.196   2.147   4.540  2.5310 -0.6826  0.9881
 5708SOL    HW228761   0.243   2.173   4.406  0.2218 -1.3436 -2.0829
 5709SOL     OW28762   2.831   4.540   7.720  0.1607  0.1629  0.3301
 5709SOL    HW128763   2.741   4.524   7.691  1.1529  0.3378 -2.8613
 5709SOL    HW228764   2.820   4.535   7.815  0.8608 -0.8856  0.3655
 5710SOL     OW28765   3.684   1.295  12.965  0.6325 -0.1235  0.3373
 5710SOL    HW128766   3.773   1.317  12.990  0.8872  0.4668 -1.0727
 5710SOL    HW228767   3.692   1.303  12.870  0.4216  0.8625  0.3976
 5711SOL     OW28768   2.431   2.280   5.754 -0.3522 -0.5475  0.4390
 5711SOL    HW128769   2.449   2.297   5.847 -0.1127  0.8626  0.1405
 5711SOL    HW228770   2.343   2.243   5.755 -0.4701 -0.2829 -0.1761
 5712SOL     OW28771   3.769   2.837  10.428  0.1234  0.5039  0.3029
 5712SOL    HW128772   3.779   2.930  10.407  0.7098  0.1916 -0.7963
 5712SOL    HW228773   3.703   2.808  10.365 -0.2471  0.7830  0.5653
 5713SOL     OW28774   1.360   3.707  16.250 -0.4772  0.6270 -0.7328
 5713SOL    HW128775   1.267   3.689  16.263 -0.1756 -1.5516 -1.5973
 5713SOL    HW228776   1.379   3.793  16.288  2.2506  0.4016 -1.5569
 5714SOL     OW28777   2.731   4.437   9.182 -0.5944 -0.2140 -0.1541
 5714SOL    HW128778   2.808   4.449   9.127 -0.5497  1.3773  0.2447
 5714SOL    HW228779   2.760   4.456   9.271  0.7241 -0.2213 -0.5833
 5715SOL     OW28780   3.236   0.514  17.436 -0.5388 -0.0623  0.1753
 5715SOL    HW128781   3.281   0.598  17.437 -0.8577  0.1002  1.2095
 5715SOL    HW228782   3.245   0.487  17.344  3.4116  3.3607 -0.4069
 5716SOL     OW28783   0.229   0.965  11.527 -0.3785 -0.1424  0.3205
 5716SOL    HW128784   0.295   1.018  11.573  0.4497 -0.5097 -0.4304
 5716SOL    HW228785   0.253   0.877  11.558  0.4560  0.1391  0.4890
 5717SOL     OW28786   4.686   4.698   0.554 -0.3610 -0.0751 -0.1531
 5717SOL    HW128787   0.003   0.040   0.577  1.9451 -1.5517 -0.3286
 5717SOL    HW228788   4.607   0.002   0.517 -1.0361 -2.5243 -1.2997
 5718SOL     OW28789   2.326   2.376   6.917  0.4112 -0.4307 -0.1754
 5718SOL    HW128790   2.286   2.397   6.833  2.0219  0.3992 -0.7366
 5718SOL    HW228791   2.244   2.378   6.967  0.2160  2.1773 -0.5790
 5719SOL     OW28792   1.313   3.178   5.965  0.2401  0.1189 -0.6551
 5719SOL    HW128793   1.249   3.239   5.928 -0.6468 -0.4759 -0.0940
 5719SOL    HW228794   1.256   3.109   6.000 -2.0301  2.6687  0.6943
 5720SOL     OW28795   3.348   2.177   5.775  0.4319 -0.1958 -0.5121
 5720SOL    HW128796   3.420   2.224   5.732 -1.0401  1.8042 -0.7967
 5720SOL    HW228797   3.302   2.246   5.823  0.1273 -0.5290 -0.3234
 5721SOL     OW28798   1.400   2.681   5.651  0.5164  0.3397  0.4531
 5721SOL    HW128799   1.489   2.710   5.669  0.9628 -0.8646  0.1546
 5721SOL    HW228800   1.376   2.663   5.742 -2.2913 -0.2703 -0.3956
 5722SOL     OW28801   4.235   1.440   1.153  0.1803  0.3727 -0.6193
 5722SOL    HW128802   4.242   1.389   1.072 -1.0175  2.3346 -1.9576
 5722SOL    HW228803   4.142   1.464   1.154  0.3226  0.9066 -0.3565
 5723SOL     OW28804   1.946   2.504   6.249 -0.6081 -0.5455  0.4194
 5723SOL    HW128805   1.959   2.416   6.215 -0.1257  0.4685 -2.0200
 5723SOL    HW228806   2.033   2.543   6.244 -1.1753  0.6536 -0.0778
 5724SOL     OW28807   1.417   1.246  14.897  0.1026  0.0318 -0.0762
 5724SOL    HW128808   1.360   1.253  14.974  1.2089 -1.4840  0.8863
 5724SOL    HW228809   1.360   1.193  14.842 -0.0704 -0.4067  0.5263
 5725SOL     OW28810   1.302   2.624  12.530 -0.8814  0.3368 -0.4399
 5725SOL    HW128811   1.226   2.583  12.487 -0.3610 -1.8940  0.7753
 5725SOL    HW228812   1.338   2.548  12.576  0.7189  0.7935 -0.9347
 5726SOL     OW28813   1.700   1.145  14.362  0.1303  0.7184 -0.1509
 5726SOL    HW128814   1.649   1.161  14.441 -0.4974 -0.6285 -0.2807
 5726SOL    HW228815   1.647   1.083  14.312  1.1533  1.0309 -1.6456
 5727SOL     OW28816   4.248   1.329   9.922 -0.0288  0.0124  0.3814
 5727SOL    HW128817   4.156   1.301   9.923 -0.2879  0.7471 -2.0831
 5727SOL    HW228818   4.282   1.277   9.849  1.0670  0.7486  0.3669
 5728SOL     OW28819   1.451   2.770   3.015  0.5664 -0.6466  0.5474
 5728SOL    HW128820   1.499   2.784   2.933  0.9566  0.2896  0.9391
 5728SOL    HW228821   1.478   2.679   3.028  0.5785 -0.3918  2.2566
 5729SOL     OW28822   2.330   4.224   3.743  0.2517  0.2533  0.7903
 5729SOL    HW128823   2.411   4.195   3.703  1.0593  1.9596  1.1608
 5729SOL    HW228824   2.268   4.196   3.677 -0.9037  0.7482  1.6582
 5730SOL     OW28825   4.329   2.176   5.294 -0.4188 -0.3725  0.0317
 5730SOL    HW128826   4.284   2.110   5.347 -0.6829 -0.1942  0.0327
 5730SOL    HW228827   4.253   2.210   5.246 -0.0730  0.6212  0.1918
 5731SOL     OW28828   0.185   0.357   1.659 -0.0717 -0.5141 -0.4739
 5731SOL    HW128829   0.109   0.351   1.601  0.6821  0.8453 -1.6036
 5731SOL    HW228830   0.187   0.265   1.685  1.9444 -0.5978 -0.9439
 5732SOL     OW28831   2.439   4.342   5.194  0.3792 -0.0054 -0.4083
 5732SOL    HW128832   2.471   4.366   5.281 -0.7360  1.4868 -0.4202
 5732SOL    HW228833   2.405   4.425   5.161  2.4037  1.1247  0.3701
 5733SOL     OW28834   3.559   4.340  16.732 -0.4073 -0.1230  0.0951
 5733SOL    HW128835   3.653   4.360  16.729 -0.6103  1.0714  1.4742
 5733SOL    HW228836   3.534   4.359  16.642  2.9928 -1.7837 -1.2156
 5734SOL     OW28837   2.655   4.712   2.247 -0.3859 -0.2034 -0.1273
 5734SOL    HW128838   2.566   4.716   2.212  0.5824 -1.9018 -2.7416
 5734SOL    HW228839   2.637   4.667   2.330  0.4715  1.3797  0.9096
 5735SOL     OW28840   3.584   1.915   7.626 -0.2769 -0.2448  0.3141
 5735SOL    HW128841   3.654   1.936   7.688 -0.0566  2.1839 -0.7527
 5735SOL    HW228842   3.551   2.003   7.606  0.6016 -0.1372 -0.6429
 5736SOL     OW28843   3.202   3.413  12.675  0.1800  0.3179 -0.3483
 5736SOL    HW128844   3.199   3.469  12.598 -0.7580 -1.6221 -1.7012
 5736SOL    HW228845   3.108   3.400  12.683  1.1348 -6.0511  0.1376
 5737SOL     OW28846   2.222   4.395   5.895  0.5535 -0.4674 -0.2849
 5737SOL    HW128847   2.202   4.488   5.882 -0.7238 -0.3911  2.2902
 5737SOL    HW228848   2.170   4.366   5.969 -1.0849 -0.9223 -1.6146
 5738SOL     OW28849   3.453   1.547  14.347  0.0596  0.0674  0.3940
 5738SOL    HW128850   3.534   1.586  14.379  0.5949  0.0535 -0.9871
 5738SOL    HW228851   3.464   1.581  14.259  0.7872 -1.6507 -0.1763
 5739SOL     OW28852   2.849   2.313  10.223 -0.2719  1.0109 -0.5619
 5739SOL    HW128853   2.943   2.299  10.212 -0.0373  0.8008  1.6997
 5739SOL    HW228854   2.808   2.298  10.138  1.2423  0.2741 -1.1544
 5740SOL     OW28855   4.414   0.449   7.191  0.0572  0.0483  0.4624
 5740SOL    HW128856   4.396   0.359   7.218 -2.1973  0.2931 -0.2281
 5740SOL    HW228857   4.336   0.480   7.145  1.7889 -0.1603 -2.6650
 5741SOL     OW28858   2.743   2.696   5.990  0.4866  0.3952 -0.1062
 5741SOL    HW128859   2.789   2.724   5.911  2.6560  2.0482  1.7276
 5741SOL    HW228860   2.798   2.639   6.043 -0.8928 -1.5662 -0.7653
 5742SOL     OW28861   2.735   1.475   9.065 -0.0032  0.1536 -0.3452
 5742SOL    HW128862   2.653   1.522   9.080  0.0456  0.0654  0.2135
 5742SOL    HW228863   2.736   1.398   9.122 -2.2916  0.6466  0.3543
 5743SOL     OW28864   3.187   1.809   5.953 -0.5666  0.0663  0.5293
 5743SOL    HW128865   3.235   1.787   6.033  0.8446 -0.9830 -0.6065
 5743SOL    HW228866   3.114   1.864   5.981 -0.6827 -0.0396  0.4311
 5744SOL     OW28867   3.077   2.090   7.987  0.0482 -0.2592  0.5116
 5744SOL    HW128868   3.020   2.071   8.061  1.1552 -3.1736  0.6255
 5744SOL    HW228869   3.053   2.024   7.921  1.5947 -0.9311  0.6267
 5745SOL     OW28870   2.522   0.453   2.907 -0.5362 -0.4173  0.3101
 5745SOL    HW128871   2.594   0.392   2.893  0.0756  0.1590  0.8919
 5745SOL    HW228872   2.458   0.450   2.836 -1.1409 -1.1743  0.8924
 5746SOL     OW28873   2.890   3.054   2.840 -0.5649  0.5619 -0.1970
 5746SOL    HW128874   2.819   3.033   2.901  0.5843  1.7027  1.5378
 5746SOL    HW228875   2.914   3.142   2.869 -2.6625  2.0171 -2.8098
 5747SOL     OW28876   3.832   2.503   4.008  0.1372 -0.4690  0.6366
 5747SOL    HW128877   3.774   2.527   3.936  2.1173 -0.5430 -0.9625
 5747SOL    HW228878   3.861   2.590   4.038 -2.3398  0.6369 -0.2164
 5748SOL     OW28879   2.295   0.777   6.294 -0.0186 -0.4181  0.1292
 5748SOL    HW128880   2.288   0.844   6.227 -0.5023  0.5727  1.1675
 5748SOL    HW228881   2.335   0.837   6.357 -0.7561 -0.0481  0.2434
 5749SOL     OW28882   4.656   4.125   7.281 -0.3949  0.4027 -0.0472
 5749SOL    HW128883   4.601   4.176   7.222 -0.2795  2.2511  1.4206
 5749SOL    HW228884   4.719   4.104   7.212 -2.2614  0.7873 -1.8792
 5750SOL     OW28885   4.661   1.558   7.137  0.2683  0.7130  0.1630
 5750SOL    HW128886   4.731   1.563   7.202  2.1877 -0.2778 -1.8225
 5750SOL    HW228887   4.600   1.619   7.177  0.0599  0.0562  0.8436
 5751SOL     OW28888   1.822   3.979   7.697  0.5932  0.0918 -0.2439
 5751SOL    HW128889   1.900   3.936   7.664  0.8627  1.3882 -1.3038
 5751SOL    HW228890   1.843   4.071   7.678  0.1041  0.8611  2.9148
 5752SOL     OW28891   1.173   4.421   4.505  0.0308 -0.2562 -0.1951
 5752SOL    HW128892   1.152   4.369   4.427 -0.5771 -0.3179  0.0100
 5752SOL    HW228893   1.182   4.341   4.557  1.5783  0.3583  0.4687
 5753SOL     OW28894   3.956   4.091  12.316 -0.9200 -0.0645 -0.2987
 5753SOL    HW128895   3.903   4.079  12.395  0.5968 -3.2138  0.2054
 5753SOL    HW228896   4.033   4.120  12.366  0.8239 -4.6373 -0.4136
 5754SOL     OW28897   2.967   1.324   9.916  0.0841  0.5052  0.2391
 5754SOL    HW128898   2.995   1.271   9.842  0.4431  2.6354 -1.1457
 5754SOL    HW228899   2.938   1.260   9.981  0.1536  2.1193  1.8751
 5755SOL     OW28900   0.558   1.100  13.252 -0.1861 -0.7923 -0.0577
 5755SOL    HW128901   0.511   1.182  13.243  1.5389  0.1107 -0.8223
 5755SOL    HW228902   0.542   1.073  13.342  0.5735  0.2342  0.3896
 5756SOL     OW28903   0.665   0.031   3.587  0.2020 -0.5476 -0.2537
 5756SOL    HW128904   0.755   4.732   3.587  0.1145 -0.7662  1.1230
 5756SOL    HW228905   0.626   4.727   3.508  0.1084  0.8360 -0.8811
 5757SOL     OW28906   2.834   3.036  17.126  0.0936  0.3106 -0.4663
 5757SOL    HW128907   2.781   3.008  17.052 -0.2638  1.6878 -0.7450
 5757SOL    HW228908   2.819   2.976  17.198 -0.6412  0.3175 -0.6147
 5758SOL     OW28909   3.057   1.590   9.082 -0.2157  0.4986 -0.8265
 5758SOL    HW128910   3.106   1.650   9.027  1.1138  1.3317  1.2436
 5758SOL    HW228911   3.131   1.589   9.143  0.8587 -0.2982 -2.1582
 5759SOL     OW28912   2.805   1.587   1.971 -0.3655 -0.2126 -0.8413
 5759SOL    HW128913   2.846   1.544   1.896 -0.3795  0.5747 -1.3071
 5759SOL    HW228914   2.880   1.643   1.992  0.9803 -1.5319 -2.0988
 5760SOL     OW28915   2.998   0.289   5.616 -0.1529 -0.2744 -0.9296
 5760SOL    HW128916   3.092   0.299   5.602 -0.3524 -1.0244 -2.8895
 5760SOL    HW228917   2.972   0.377   5.643  0.5588 -0.5192  0.5658
 5761SOL     OW28918   3.311   4.244   0.113 -0.3830 -0.0343 -0.5340
 5761SOL    HW128919   3.284   4.285   0.031 -0.4717  0.2816 -0.3466
 5761SOL    HW228920   3.238   4.186   0.134  0.3530 -1.2637 -1.3851
 5762SOL     OW28921   1.851   3.127   9.704 -0.1664 -0.2017 -0.0885
 5762SOL    HW128922   1.765   3.166   9.689 -0.2530 -1.0294 -1.7989
 5762SOL    HW228923   1.867   3.088   9.618  0.0246  0.9071 -0.5589
 5763SOL     OW28924   2.824   2.393   2.677  0.4008 -0.6791 -0.6486
 5763SOL    HW128925   2.884   2.341   2.730 -0.5101 -0.7278  0.3348
 5763SOL    HW228926   2.798   2.459   2.741  0.5386 -1.0602 -0.1972
 5764SOL     OW28927   0.923   3.197   0.463  0.8280  0.5300  0.0624
 5764SOL    HW128928   0.950   3.148   0.385 -2.7299 -0.0931 -0.7915
 5764SOL    HW228929   0.934   3.282   0.420 -0.3228  0.8977  0.5114
 5765SOL     OW28930   3.311   2.106   3.491  0.4693 -0.2145 -0.1659
 5765SOL    HW128931   3.295   2.139   3.579 -0.1915  0.5586 -0.5800
 5765SOL    HW228932   3.250   2.032   3.496  0.0672  0.1018 -0.4550
 5766SOL     OW28933   0.244   2.953  14.881  0.1969 -0.9199 -0.1769
 5766SOL    HW128934   0.226   2.876  14.826 -0.6708 -0.1167 -1.0111
 5766SOL    HW228935   0.191   2.927  14.956  1.5425  0.1354  1.1254
 5767SOL     OW28936   4.593   3.499  10.768  0.2268 -0.4128 -0.2052
 5767SOL    HW128937   4.670   3.555  10.762  1.3745 -2.0766 -1.1424
 5767SOL    HW228938   4.526   3.566  10.785  0.2879 -0.2710 -0.5099
 5768SOL     OW28939   4.093   3.660   3.801 -0.0225 -0.4583  0.1185
 5768SOL    HW128940   4.145   3.631   3.876 -1.7348 -0.0627  1.4740
 5768SOL    HW228941   4.141   3.646   3.720  1.4013 -0.8723  1.0417
 5769SOL     OW28942   2.791   2.167   4.318  0.3070  0.2763  0.0091
 5769SOL    HW128943   2.785   2.093   4.379  1.4087  0.9622  0.9326
 5769SOL    HW228944   2.863   2.139   4.262 -0.0167  2.2076 -1.3809
 5770SOL     OW28945   4.211   0.951  11.693  0.0493  0.1266 -0.1116
 5770SOL    HW128946   4.196   0.981  11.604  0.9493  1.1742  0.0930
 5770SOL    HW228947   4.156   1.005  11.751  1.6696  0.8096  0.7993
 5771SOL     OW28948   3.702   0.364   1.847  0.3579 -0.2036  0.0085
 5771SOL    HW128949   3.738   0.358   1.758  0.0841 -0.8735 -0.0555
 5771SOL    HW228950   3.769   0.419   1.888 -0.3584 -0.3036  1.3008
 5772SOL     OW28951   3.086   3.431   0.899 -0.0186 -0.3541 -0.1803
 5772SOL    HW128952   3.087   3.335   0.895  0.6661 -0.3032 -1.4028
 5772SOL    HW228953   3.126   3.456   0.815 -1.9821  1.2845 -0.6206
 5773SOL     OW28954   1.268   3.375  17.549  0.4148 -0.3002 -0.0778
 5773SOL    HW128955   1.176   3.393  17.529  0.2990 -0.3765  0.3881
 5773SOL    HW228956   1.307   3.441  17.491  0.4634  1.3334  1.8136
 5774SOL     OW28957   3.213   4.589  11.156 -0.1385 -0.2835 -0.0956
 5774SOL    HW128958   3.180   4.676  11.131  1.3702  0.6870  1.2916
 5774SOL    HW228959   3.182   4.572  11.245 -1.8233  0.8514 -0.4655
 5775SOL     OW28960   1.648   3.436   5.021 -0.0700 -0.2123  0.0801
 5775SOL    HW128961   1.634   3.430   5.116 -1.5175 -1.8947 -0.2422
 5775SOL    HW228962   1.717   3.370   5.016 -0.5505 -0.8451  1.8199
 5776SOL     OW28963   1.920   0.987   7.141 -0.9733  0.0785 -0.7340
 5776SOL    HW128964   2.005   1.031   7.144  0.3376 -2.2740 -2.8224
 5776SOL    HW228965   1.937   0.895   7.120  1.4450  0.1665  0.8598
 5777SOL     OW28966   1.362   4.189  12.416 -0.0943 -0.0448  0.5810
 5777SOL    HW128967   1.420   4.264  12.402 -2.2685  1.3397 -1.2122
 5777SOL    HW228968   1.407   4.111  12.384  1.9960  0.5976  1.9631
 5778SOL     OW28969   3.524   2.298   8.095 -0.3922  0.1821 -0.0734
 5778SOL    HW128970   3.519   2.353   8.017  0.0044 -0.7248 -0.7340
 5778SOL    HW228971   3.440   2.332   8.127 -0.3445  0.5548 -0.3476
 5779SOL     OW28972   1.556   1.349   7.971  0.1542 -0.3577  0.2921
 5779SOL    HW128973   1.544   1.256   7.954  2.6032 -0.6934  0.3537
 5779SOL    HW228974   1.643   1.353   7.929 -0.2686  1.5809 -0.3967
 5780SOL     OW28975   2.474   0.993   7.686 -0.7342  0.0041  0.5546
 5780SOL    HW128976   2.474   1.073   7.739 -0.3819 -0.7834  1.7616
 5780SOL    HW228977   2.469   0.941   7.766 -1.4029  0.8444  1.0659
 5781SOL     OW28978   1.626   3.087   5.830 -0.3514 -0.4290 -0.0900
 5781SOL    HW128979   1.560   3.087   5.900 -1.9232 -0.8585 -1.5663
 5781SOL    HW228980   1.655   3.178   5.833  1.3945 -0.9515 -1.2728
 5782SOL     OW28981   1.551   0.257   6.500 -0.3891  0.1626 -0.4530
 5782SOL    HW128982   1.565   0.190   6.567 -0.7409  0.4716 -0.0688
 5782SOL    HW228983   1.551   0.325   6.568  1.0084 -1.6585  1.3541
 5783SOL     OW28984   1.040   0.722   1.967 -0.0788 -0.0051 -0.5291
 5783SOL    HW128985   1.130   0.743   1.944 -0.2007 -1.2862 -2.1198
 5783SOL    HW228986   1.059   0.665   2.041  1.3614 -0.6053 -1.3746
 5784SOL     OW28987   2.221   3.536  12.062  0.1244  0.5196 -0.0254
 5784SOL    HW128988   2.192   3.476  11.994  2.9137  1.6344 -2.2237
 5784SOL    HW228989   2.237   3.609  12.002 -0.7459  0.4991 -0.2814
 5785SOL     OW28990   1.514   4.697  13.893 -0.4078 -0.4116  0.1521
 5785SOL    HW128991   1.606   4.675  13.905 -0.6366 -2.4156 -1.9284
 5785SOL    HW228992   1.515   4.722  13.801  0.3709 -1.7942 -0.2214
 5786SOL     OW28993   1.671   1.082   4.752 -0.1688  0.1135  0.5202
 5786SOL    HW128994   1.705   0.994   4.737  0.5892  0.0379  2.5752
 5786SOL    HW228995   1.622   1.073   4.834  0.7172  0.8302  1.1217
 5787SOL     OW28996   3.990   2.755   7.999  0.1339 -0.9828 -0.0186
 5787SOL    HW128997   4.023   2.813   7.930 -2.3836 -0.4311 -0.7741
 5787SOL    HW228998   4.063   2.763   8.060 -0.5914  0.0186  0.7116
 5788SOL     OW28999   2.950   2.263   2.875  0.0735  0.2314 -0.0019
 5788SOL    HW129000   3.034   2.264   2.828  0.8609  2.0304  1.4899
 5788SOL    HW229001   2.979   2.281   2.964  0.8085  1.3793 -0.4817
 5789SOL     OW29002   2.955   0.853   8.795  0.0958 -0.6839 -0.5532
 5789SOL    HW129003   2.992   0.873   8.881 -1.2183  0.1374 -0.1816
 5789SOL    HW229004   2.883   0.793   8.812 -0.4936  0.3169  0.4587
 5790SOL     OW29005   0.282   2.620   2.532  0.1573  0.0514 -0.0125
 5790SOL    HW129006   0.372   2.620   2.563  0.2541 -1.5066 -0.2768
 5790SOL    HW229007   0.279   2.544   2.474  2.2485  0.8634 -1.1893
 5791SOL     OW29008   3.462   1.723   2.665  0.1503  0.1192 -0.0384
 5791SOL    HW129009   3.375   1.723   2.704 -0.3166  1.6011 -1.0533
 5791SOL    HW229010   3.510   1.762   2.738 -0.4132 -0.1850  0.4932
 5792SOL     OW29011   2.221   2.665   5.562  0.1644  0.0728 -0.3337
 5792SOL    HW129012   2.150   2.641   5.502 -0.4499 -1.0412  0.8373
 5792SOL    HW229013   2.287   2.598   5.549  1.2315  0.6706  1.9716
 5793SOL     OW29014   0.766   2.772   9.101 -0.4421  0.1690 -0.3120
 5793SOL    HW129015   0.694   2.821   9.061 -0.4432 -1.4338 -2.2382
 5793SOL    HW229016   0.714   2.706   9.148  1.6316 -1.5878 -0.5197
 5794SOL     OW29017   3.919   3.023   0.965 -0.4684 -0.1085 -0.0079
 5794SOL    HW129018   3.977   2.992   0.896 -0.2184  1.0224 -0.2994
 5794SOL    HW229019   3.878   3.097   0.921 -0.7230 -0.3286 -0.1437
 5795SOL     OW29020   4.265   4.344   9.200  0.0720  0.2609  0.2074
 5795SOL    HW129021   4.355   4.314   9.187  0.5353  1.7106  0.0642
 5795SOL    HW229022   4.212   4.266   9.180 -1.1502  0.6066  2.1040
 5796SOL     OW29023   1.690   1.000   8.508  0.4108  0.4522 -0.1746
 5796SOL    HW129024   1.688   1.087   8.467 -0.1444  0.9759  0.9671
 5796SOL    HW229025   1.757   1.011   8.575 -1.4861  2.2172  1.4328
 5797SOL     OW29026   2.751   1.281   6.521  0.4092 -0.3432 -0.5138
 5797SOL    HW129027   2.777   1.200   6.566 -0.3038 -1.0539 -1.3547
 5797SOL    HW229028   2.734   1.236   6.438  0.3007  0.4559 -0.9248
 5798SOL     OW29029   1.431   0.287   5.005 -0.1140 -0.2361  0.1166
 5798SOL    HW129030   1.440   0.371   4.960 -0.9144 -1.5099 -2.3806
 5798SOL    HW229031   1.431   0.312   5.097 -0.0877  1.7955 -0.4388
 5799SOL     OW29032   3.580   0.872   6.085 -0.0640 -0.2966 -0.2879
 5799SOL    HW129033   3.492   0.851   6.114  0.5847 -0.6287  1.4303
 5799SOL    HW229034   3.633   0.806   6.130  1.4797  0.7779 -0.5106
 5800SOL     OW29035   0.103   0.641   1.584  0.5775  0.2041  0.5232
 5800SOL    HW129036   0.079   0.557   1.623 -0.3610  0.2764  0.1009
 5800SOL    HW229037   0.195   0.621   1.568  0.6598  1.4432 -0.5869
 5801SOL     OW29038   3.307   3.374  11.109  0.5538  0.3895 -0.1780
 5801SOL    HW129039   3.259   3.318  11.047  1.5857  0.3158 -0.9056
 5801SOL    HW229040   3.394   3.364  11.072  1.2493  0.2966  1.5304
 5802SOL     OW29041   3.838   0.688   7.630  0.0953  0.0826 -0.3538
 5802SOL    HW129042   3.807   0.693   7.539  1.9510  1.0526 -0.9462
 5802SOL    HW229043   3.769   0.733   7.678  0.0071  0.3046 -0.6827
 5803SOL     OW29044   2.756   2.827   8.749  0.2623  0.0981  0.7496
 5803SOL    HW129045   2.708   2.886   8.691  1.5010  4.1194  3.7813
 5803SOL    HW229046   2.845   2.832   8.712  0.1008 -1.8308  0.1344
 5804SOL     OW29047   4.215   2.337   2.971  0.3231  0.2458 -0.3219
 5804SOL    HW129048   4.257   2.345   2.886 -0.1753  0.0883 -0.5803
 5804SOL    HW229049   4.274   2.267   2.998  0.7671  1.3973  1.7132
 5805SOL     OW29050   3.003   3.510   5.304 -0.5117 -0.3421 -0.5009
 5805SOL    HW129051   3.024   3.463   5.224 -1.3284 -0.5578 -0.5849
 5805SOL    HW229052   2.944   3.577   5.270  1.1715  1.4465  0.0650
 5806SOL     OW29053   0.632   3.988   7.559  0.0554 -0.1748 -0.3787
 5806SOL    HW129054   0.603   4.079   7.568  0.6029 -0.2037  1.6676
 5806SOL    HW229055   0.689   3.988   7.636 -2.1115  0.4185  1.2453
 5807SOL     OW29056   0.364   3.895   6.830  0.0972  0.0238  0.5607
 5807SOL    HW129057   0.316   3.959   6.776 -1.4356  0.3409  2.2948
 5807SOL    HW229058   0.452   3.898   6.794 -0.0843  1.1271  0.2112
 5808SOL     OW29059   0.766   4.434   9.314 -0.0757 -0.3930 -0.0627
 5808SOL    HW129060   0.811   4.471   9.390 -2.3285 -1.5208  1.8179
 5808SOL    HW229061   0.837   4.430   9.250 -1.3610 -1.8992 -1.3994
 5809SOL     OW29062   1.777   4.291   2.105  0.1495  0.5051 -0.6159
 5809SOL    HW129063   1.847   4.254   2.051 -0.5773 -0.0978 -1.1562
 5809SOL    HW229064   1.705   4.237   2.073  0.3008 -0.7558  1.2031
 5810SOL     OW29065   3.529   1.732   7.414  0.1010 -0.4158 -0.5007
 5810SOL    HW129066   3.537   1.786   7.493 -2.0200 -0.7748 -0.0434
 5810SOL    HW229067   3.470   1.792   7.368  0.0509  0.3462  0.5554
 5811SOL     OW29068   0.733   0.329   6.618  0.2517  0.1490  0.3557
 5811SOL    HW129069   0.808   0.323   6.558 -1.0154 -0.8876 -1.1070
 5811SOL    HW229070   0.740   0.423   6.638 -1.0891  0.7130 -1.7544
 5812SOL     OW29071   3.885   3.798  15.185 -0.3333 -0.1385 -0.1704
 5812SOL    HW129072   3.825   3.755  15.123  0.1872 -1.4531  0.2498
 5812SOL    HW229073   3.855   3.758  15.266  1.0981 -1.3198 -0.2241
 5813SOL     OW29074   1.631   0.461  14.646 -0.0212 -0.0283 -0.2694
 5813SOL    HW129075   1.575   0.460  14.723  1.4164  2.8189  0.8227
 5813SOL    HW229076   1.715   0.442  14.688  0.5857 -1.3131 -2.0756
 5814SOL     OW29077   0.650   1.938   6.514 -0.5901 -0.2278  0.0449
 5814SOL    HW129078   0.615   1.882   6.446 -2.8467  1.3681 -0.0810
 5814SOL    HW229079   0.726   1.968   6.464 -1.1432  2.1661  0.6369
 5815SOL     OW29080   4.195   0.710   6.192 -0.3394 -0.6030 -0.2887
 5815SOL    HW129081   4.150   0.695   6.275  0.0652  3.1730  0.6410
 5815SOL    HW229082   4.269   0.650   6.202 -1.7889 -2.1670  0.9790
 5816SOL     OW29083   4.414   2.593   1.966  0.1564  0.7408  0.2833
 5816SOL    HW129084   4.353   2.530   1.929  0.0026  2.7988 -2.9378
 5816SOL    HW229085   4.478   2.541   2.014  1.8700  1.6751 -0.9836
 5817SOL     OW29086   1.636   3.990  15.500  0.3736  0.6125 -0.4603
 5817SOL    HW129087   1.717   3.967  15.454 -0.1245 -1.0975 -0.4616
 5817SOL    HW229088   1.670   4.024  15.583  0.5247  0.9225 -0.6495
 5818SOL     OW29089   0.731   4.057   3.769 -0.8052  0.1169  0.1424
 5818SOL    HW129090   0.735   4.100   3.684  1.3196  0.2202  0.2942
 5818SOL    HW229091   0.798   4.100   3.821 -0.8322 -0.9640  1.0641
 5819SOL     OW29092   4.314   0.747   8.200 -0.3784  0.2010  0.1844
 5819SOL    HW129093   4.346   0.706   8.280 -2.1044 -0.1136  0.7231
 5819SOL    HW229094   4.385   0.803   8.170 -0.9477  0.5492 -0.5024
 5820SOL     OW29095   2.485   1.188   4.975  0.0844  0.2157 -0.3124
 5820SOL    HW129096   2.506   1.180   5.068  0.5698  0.0993 -0.4342
 5820SOL    HW229097   2.571   1.222   4.950  1.1335 -1.8166  0.5809
 5821SOL     OW29098   3.091   1.034  15.896 -0.0484  0.4330 -0.4769
 5821SOL    HW129099   3.175   0.991  15.907  1.6579  2.8394 -3.9521
 5821SOL    HW229100   3.060   0.991  15.817 -0.5669 -0.0006 -0.0378
 5822SOL     OW29101   4.233   3.625   3.084  0.5225  0.4554  0.0018
 5822SOL    HW129102   4.273   3.677   3.014  1.4280 -0.0575  0.1333
 5822SOL    HW229103   4.150   3.592   3.052  1.1324 -0.7124 -0.3541
 5823SOL     OW29104   3.746   1.024   8.090 -0.7994 -0.3368 -0.4062
 5823SOL    HW129105   3.784   1.027   8.002  0.2124 -1.5948 -0.0096
 5823SOL    HW229106   3.754   1.114   8.122  1.2723 -0.8166  0.4438
 5824SOL     OW29107   3.694   1.387  12.685  0.4459 -0.3983 -0.9198
 5824SOL    HW129108   3.665   1.461  12.631  0.4379  0.3194  0.0543
 5824SOL    HW229109   3.766   1.429  12.732 -0.4848 -0.3323  0.4764
 5825SOL     OW29110   2.977   3.843  12.425  0.1536 -0.2014  0.3604
 5825SOL    HW129111   2.922   3.782  12.474  0.0754 -0.2617  0.1980
 5825SOL    HW229112   3.005   3.784  12.355 -0.5421 -2.0475  1.6247
 5826SOL     OW29113   2.921   2.905   3.436 -0.0817  0.0341 -0.2618
 5826SOL    HW129114   2.991   2.897   3.371 -2.3607 -0.5101 -2.6165
 5826SOL    HW229115   2.911   2.817   3.472 -1.0412  0.6071  0.9152
 5827SOL     OW29116   1.089   1.620   5.246  0.5262  0.0672 -0.7978
 5827SOL    HW129117   1.061   1.704   5.209  1.0059  0.0062 -1.3019
 5827SOL    HW229118   1.039   1.610   5.326  1.5448  0.7472 -0.0701
 5828SOL     OW29119   4.360   1.844   2.703 -0.1659 -0.8296 -0.3422
 5828SOL    HW129120   4.359   1.900   2.781 -0.0302 -2.6729  0.9618
 5828SOL    HW229121   4.324   1.904   2.638  0.8647 -0.5904 -0.6890
 5829SOL     OW29122   3.293   1.722   4.555  0.0713  0.1213 -0.1270
 5829SOL    HW129123   3.198   1.716   4.566  0.0179 -1.7819 -1.5432
 5829SOL    HW229124   3.317   1.800   4.605 -0.1457 -0.7692  1.3570
 5830SOL     OW29125   0.693   3.938   1.754  0.4640 -0.5541  0.1213
 5830SOL    HW129126   0.665   3.859   1.800 -1.8531  0.1266 -0.1354
 5830SOL    HW229127   0.609   3.973   1.724 -0.1711 -1.0597  1.3289
 5831SOL     OW29128   0.057   3.034  12.566  0.7284  0.7559  0.0273
 5831SOL    HW129129   0.089   3.015  12.654  3.5883  0.0745 -1.1437
 5831SOL    HW229130   4.697   3.026  12.579  1.0479  0.0170  1.9597
 5832SOL     OW29131   2.787   2.476  10.676  0.0113 -0.2515  0.4464
 5832SOL    HW129132   2.795   2.518  10.761  2.0507 -1.0044  0.6164
 5832SOL    HW229133   2.857   2.515  10.623  0.8966 -0.1807  1.6786
 5833SOL     OW29134   1.545   1.568   9.321  0.3209  0.0958  0.1012
 5833SOL    HW129135   1.584   1.604   9.241 -1.3141 -0.0076 -0.7421
 5833SOL    HW229136   1.557   1.473   9.310 -0.5307 -0.0986  0.8815
 5834SOL     OW29137   4.562   4.313   7.490  0.1353  0.2886  0.5072
 5834SOL    HW129138   4.587   4.240   7.432  1.1432 -0.3160  1.7118
 5834SOL    HW229139   4.641   4.357   7.520  0.8689 -0.6684 -0.0080
 5835SOL     OW29140   0.634   1.578   5.185  0.1332  0.1157 -0.3885
 5835SOL    HW129141   0.543   1.573   5.154  0.7605  0.5972 -2.3351
 5835SOL    HW229142   0.647   1.487   5.209  2.6258  0.0237 -2.0889
 5836SOL     OW29143   4.539   4.676   8.171  0.2179 -0.0220  0.6455
 5836SOL    HW129144   4.559   4.583   8.176 -0.1623 -0.1624 -0.4727
 5836SOL    HW229145   4.444   4.674   8.178  0.2356  1.5696  1.3596
 5837SOL     OW29146   0.674   3.789   9.449  0.2471 -0.3314  0.6499
 5837SOL    HW129147   0.611   3.852   9.415  0.9863  0.4634  0.7642
 5837SOL    HW229148   0.651   3.713   9.394 -2.5584 -0.7381  2.4002
 5838SOL     OW29149   0.278   0.480   8.974  0.4968 -0.0115 -0.0231
 5838SOL    HW129150   0.314   0.523   8.896  0.1883 -0.6305 -0.4977
 5838SOL    HW229151   0.257   0.561   9.021 -2.4259 -3.3312  4.3445
 5839SOL     OW29152   0.177   4.277   7.312  0.0632 -0.0701  0.5142
 5839SOL    HW129153   0.249   4.338   7.300 -0.8767  0.3629 -3.0373
 5839SOL    HW229154   0.197   4.228   7.391 -2.6887 -1.6753  0.2358
 5840SOL     OW29155   0.028   1.322   5.658  0.5483  0.1181  0.5155
 5840SOL    HW129156   0.086   1.283   5.723 -1.9601 -1.9399  1.5448
 5840SOL    HW229157   0.089   1.319   5.584 -0.9024 -0.3390 -0.6772
 5841SOL     OW29158   4.290   4.675   8.024 -0.0737 -0.1444 -0.3772
 5841SOL    HW129159   4.204   4.659   7.984  0.1688 -0.5248 -0.7515
 5841SOL    HW229160   4.279   0.035   8.034  0.5967  0.1475 -2.5369
 5842SOL     OW29161   3.887   3.872   7.375 -0.0766  0.5287  0.1799
 5842SOL    HW129162   3.826   3.942   7.400  0.1072  1.4622 -1.9538
 5842SOL    HW229163   3.837   3.794   7.355  0.5235  0.2592 -0.2635
 5843SOL     OW29164   3.068   3.844  13.534  0.1289  0.3774  0.0848
 5843SOL    HW129165   3.109   3.887  13.459  1.3958  0.8942  1.0652
 5843SOL    HW229166   3.138   3.803  13.586 -0.5589 -1.0225 -0.1027
 5844SOL     OW29167   3.765   0.902   6.880  0.3257 -0.7885  0.2891
 5844SOL    HW129168   3.765   0.858   6.795  0.7556  3.1398 -1.7345
 5844SOL    HW229169   3.833   0.853   6.926  0.0647 -0.9977  0.4551
 5845SOL     OW29170   1.109   0.336   1.611 -0.2363  0.4726  0.3781
 5845SOL    HW129171   1.177   0.305   1.551 -2.4506  0.5942 -2.1677
 5845SOL    HW229172   1.128   0.430   1.606  0.7940  0.3587  2.0274
 5846SOL     OW29173   3.332   0.064   4.536 -0.1898  0.3960  0.2122
 5846SOL    HW129174   3.390   0.091   4.607 -0.3407 -1.9988  1.2461
 5846SOL    HW229175   3.335   0.145   4.485  1.6722 -0.0957 -0.4558
 5847SOL     OW29176   2.287   3.089   6.723  0.1707  0.0830 -0.1289
 5847SOL    HW129177   2.279   3.042   6.640 -2.8777 -1.2395  0.8937
 5847SOL    HW229178   2.368   3.047   6.750  0.5702  0.6788 -0.4021
 5848SOL     OW29179   2.726   3.349   7.877  0.5182  0.2357 -0.3984
 5848SOL    HW129180   2.741   3.330   7.970 -0.5435  0.6373 -0.1464
 5848SOL    HW229181   2.752   3.441   7.877  1.9672 -0.1758 -2.0719
 5849SOL     OW29182   3.166   2.942   5.066  0.2721 -0.6080  0.1409
 5849SOL    HW129183   3.081   2.911   5.095 -0.0074  0.0654  0.0221
 5849SOL    HW229184   3.146   2.972   4.977 -1.0453  0.8982  0.9676
 5850SOL     OW29185   3.031   1.198   5.939  0.1021  0.0655  0.4660
 5850SOL    HW129186   3.015   1.168   6.029 -0.6773 -2.5249 -0.5326
 5850SOL    HW229187   3.072   1.280   5.966 -1.3515  0.4092  1.6636
 5851SOL     OW29188   0.084   0.987  12.302 -0.5080 -0.2884 -0.5387
 5851SOL    HW129189   0.093   0.965  12.209  0.5354 -1.6727 -0.0977
 5851SOL    HW229190   0.175   1.002  12.328 -0.7426  0.4173 -0.1090
 5852SOL     OW29191   2.837   3.776   6.137 -0.1214  0.8315 -0.0989
 5852SOL    HW129192   2.814   3.797   6.227 -0.1615  0.3487  0.0003
 5852SOL    HW229193   2.778   3.704   6.118 -1.1265  1.9216 -1.1359
 5853SOL     OW29194   0.119   1.414   0.257  0.1853  0.1646 -0.3343
 5853SOL    HW129195   0.131   1.352   0.185  0.5641 -0.7743  0.5428
 5853SOL    HW229196   0.198   1.467   0.250  0.1818  0.1537 -0.4636
 5854SOL     OW29197   3.302   3.178   8.474 -0.3122  0.0526 -0.0974
 5854SOL    HW129198   3.285   3.175   8.380  2.2229 -0.1773 -0.5500
 5854SOL    HW229199   3.363   3.106   8.494  1.0827 -0.2964 -5.5693
 5855SOL     OW29200   0.693   3.202   0.923  0.3837 -0.7522  0.5816
 5855SOL    HW129201   0.684   3.123   0.977 -3.6879 -0.8874 -0.2699
 5855SOL    HW229202   0.717   3.166   0.838 -0.9917 -0.7466  0.1964
 5856SOL     OW29203   1.159   1.280   4.952 -0.3057 -0.6137 -0.2337
 5856SOL    HW129204   1.104   1.211   4.989 -0.1846  0.1168  1.3184
 5856SOL    HW229205   1.109   1.361   4.963 -0.6448 -0.7755 -0.5784
 5857SOL     OW29206   1.417   4.157   8.339  0.0763  0.0661 -0.1547
 5857SOL    HW129207   1.354   4.206   8.286  0.1706  0.6661  0.2957
 5857SOL    HW229208   1.392   4.176   8.429  0.1057 -0.7441  0.0272
 5858SOL     OW29209   3.931   1.467  15.525 -0.1234  0.2993  0.0537
 5858SOL    HW129210   3.922   1.467  15.430  1.7145 -1.6562 -0.1185
 5858SOL    HW229211   4.021   1.501  15.533 -0.0826 -0.0238  1.0276
 5859SOL     OW29212   3.373   0.899   4.742 -0.1484  0.0030  0.2117
 5859SOL    HW129213   3.426   0.853   4.676  3.4079  0.1400  3.0126
 5859SOL    HW229214   3.383   0.837   4.814  0.4956  1.4275  1.3490
 5860SOL     OW29215   4.108   0.069   6.216  0.5902 -0.8195  0.2424
 5860SOL    HW129216   4.105   4.713   6.247 -0.1209 -0.4257  1.3059
 5860SOL    HW229217   4.043   0.059   6.146 -1.4132  0.1408  1.9694
 5861SOL     OW29218   2.518   1.786   8.123 -0.5152  0.0557  0.1461
 5861SOL    HW129219   2.512   1.778   8.218 -0.3097 -1.9911 -0.0278
 5861SOL    HW229220   2.590   1.724   8.113  0.5104  0.9406  1.9946
 5862SOL     OW29221   1.252   0.920   7.189  0.4038 -0.5590  0.0615
 5862SOL    HW129222   1.247   0.834   7.232  0.5914 -0.5931  0.0185
 5862SOL    HW229223   1.347   0.919   7.172  0.2610 -0.1454 -0.7377
 5863SOL     OW29224   0.569   4.047  14.119  0.5250  0.4210  0.0469
 5863SOL    HW129225   0.620   4.101  14.180 -0.8096  1.7718 -0.0292
 5863SOL    HW229226   0.520   4.110  14.066  0.0531  0.4638  0.5363
 5864SOL     OW29227   1.184   1.140  14.802 -0.3557 -0.2710 -0.1101
 5864SOL    HW129228   1.127   1.215  14.780  0.4092  0.5093  0.5599
 5864SOL    HW229229   1.130   1.089  14.862 -1.4543 -0.0678 -0.9089
 5865SOL     OW29230   4.405   3.026   8.881 -0.5679 -0.0214  0.1699
 5865SOL    HW129231   4.468   2.976   8.933 -1.3042 -1.8530 -0.6796
 5865SOL    HW229232   4.323   2.979   8.896 -0.8873  0.9744  1.6127
 5866SOL     OW29233   1.628   3.629  16.551  0.4077  0.0910 -0.4220
 5866SOL    HW129234   1.679   3.639  16.470  0.7529  0.3312 -0.1723
 5866SOL    HW229235   1.570   3.554  16.536  0.4832 -0.5261  2.3327
 5867SOL     OW29236   4.146   2.343   5.591 -0.4928 -0.0258  0.1706
 5867SOL    HW129237   4.198   2.368   5.667  0.7693 -2.4990  0.1130
 5867SOL    HW229238   4.149   2.249   5.609  1.7755 -0.4760 -2.5251
 5868SOL     OW29239   0.474   3.612  17.324  0.2112 -0.8404  0.1127
 5868SOL    HW129240   0.400   3.664  17.294 -1.2015 -2.5418  0.6267
 5868SOL    HW229241   0.526   3.679  17.369 -0.7617 -0.1098  0.1502
 5869SOL     OW29242   3.832   3.339  15.076 -0.1944  0.0243  0.0343
 5869SOL    HW129243   3.872   3.352  15.162 -2.0086  1.7872  0.6120
 5869SOL    HW229244   3.756   3.387  15.110  0.0045  0.8241 -0.6496
 5870SOL     OW29245   4.311   1.450   2.405  0.2887  0.2976  0.3615
 5870SOL    HW129246   4.377   1.417   2.466 -1.6889 -0.7311  1.9168
 5870SOL    HW229247   4.230   1.425   2.450  0.6547 -1.9922 -0.2932
 5871SOL     OW29248   3.881   4.013   8.396 -0.3040  0.2101  0.5250
 5871SOL    HW129249   3.968   4.038   8.425 -0.3145 -0.1762  0.8847
 5871SOL    HW229250   3.850   4.091   8.349  0.1701 -0.2659 -0.5811
 5872SOL     OW29251   1.956   4.070   5.752  0.6326  0.0698 -0.1763
 5872SOL    HW129252   1.898   4.112   5.689  1.2299  1.6018  0.3046
 5872SOL    HW229253   2.036   4.122   5.737  1.0516 -0.2436  0.9953
 5873SOL     OW29254   2.004   3.359   6.005 -0.0896 -0.1072 -0.0602
 5873SOL    HW129255   2.044   3.428   6.059 -0.9429 -0.2119  0.7084
 5873SOL    HW229256   2.017   3.285   6.064 -1.8630 -0.7416 -0.4630
 5874SOL     OW29257   3.511   0.998   2.001 -0.2449  0.8361 -0.0001
 5874SOL    HW129258   3.480   0.951   2.078  3.0426 -2.5000 -0.7442
 5874SOL    HW229259   3.513   1.088   2.034 -1.2927  1.2705 -1.1526
 5875SOL     OW29260   2.030   2.571  11.053  0.5176 -0.2481  0.3796
 5875SOL    HW129261   2.068   2.657  11.071 -1.2600  0.5110  0.4882
 5875SOL    HW229262   2.005   2.539  11.139 -1.2027 -0.6766 -0.2627
 5876SOL     OW29263   2.823   1.556   1.704  0.0362  0.1120  0.4716
 5876SOL    HW129264   2.916   1.533   1.702 -0.4369 -1.7424 -0.3581
 5876SOL    HW229265   2.798   1.581   1.616 -0.1325  0.0963  0.5161
 5877SOL     OW29266   0.398   3.256   7.687  0.5725  0.4011  0.0259
 5877SOL    HW129267   0.394   3.325   7.621  1.4449 -0.4955 -0.9598
 5877SOL    HW229268   0.365   3.186   7.632 -4.4020  1.0571  2.2150
 5878SOL     OW29269   3.566   3.317  16.963 -0.0347  0.0953 -0.1256
 5878SOL    HW129270   3.524   3.393  16.921 -0.8058  0.6044  1.5729
 5878SOL    HW229271   3.583   3.352  17.050 -1.6247 -1.5268  0.8291
 5879SOL     OW29272   4.167   0.211   2.082 -0.4144  0.3415 -0.3324
 5879SOL    HW129273   4.120   0.192   2.164  0.6073 -0.9789 -0.0431
 5879SOL    HW229274   4.197   0.299   2.102 -1.6285  0.8544 -0.7803
 5880SOL     OW29275   0.787   1.683   8.977  0.2395  0.0116 -0.2979
 5880SOL    HW129276   0.702   1.727   8.975  1.8944  3.2344  0.2903
 5880SOL    HW229277   0.833   1.743   9.036  0.3666 -0.5666  0.1969
 5881SOL     OW29278   3.199   4.524   2.189  0.3320 -0.1064  1.1532
 5881SOL    HW129279   3.234   4.514   2.101 -2.0774  1.7300 -0.0225
 5881SOL    HW229280   3.191   4.619   2.196 -0.8998 -0.0529 -0.9406
 5882SOL     OW29281   0.522   0.506   1.814  0.3196 -0.6001  0.0140
 5882SOL    HW129282   0.614   0.524   1.835  0.9074  1.0832 -3.8348
 5882SOL    HW229283   0.505   0.571   1.746 -1.6651  1.4969  2.5102
 5883SOL     OW29284   3.773   2.014  14.061  0.1545 -0.6638 -0.1951
 5883SOL    HW129285   3.796   1.936  14.010  0.2509 -0.1442 -0.9509
 5883SOL    HW229286   3.688   1.985  14.095 -0.9116  0.9541 -1.4836
 5884SOL     OW29287   4.054   3.499   7.341 -0.1453 -0.1465  0.0625
 5884SOL    HW129288   4.019   3.413   7.318  1.7332 -0.5484 -1.2667
 5884SOL    HW229289   4.089   3.514   7.253 -0.6811 -1.2549 -0.3377
 5885SOL     OW29290   1.330   1.698   3.371  0.3132  0.0636  0.8873
 5885SOL    HW129291   1.411   1.737   3.404  0.1224  0.4383  0.9118
 5885SOL    HW229292   1.268   1.767   3.396 -1.6939 -1.4748  0.1159
 5886SOL     OW29293   1.532   0.464   5.219  0.3634 -0.3007 -0.4155
 5886SOL    HW129294   1.452   0.510   5.192  0.6624 -0.4243 -1.5339
 5886SOL    HW229295   1.596   0.505   5.160  1.4690 -2.0386 -0.4305
 5887SOL     OW29296   1.455   2.522  16.230 -0.5697  0.2437  0.2138
 5887SOL    HW129297   1.542   2.507  16.267  0.0985 -1.0378 -1.8810
 5887SOL    HW229298   1.449   2.471  16.150 -0.2374  2.1999 -1.0657
 5888SOL     OW29299   1.028   2.666   4.377  0.2491  0.4590  0.3384
 5888SOL    HW129300   0.971   2.630   4.445 -0.0666  1.8216  0.7878
 5888SOL    HW229301   1.084   2.710   4.441  0.5083 -1.1530  1.2211
 5889SOL     OW29302   3.134   0.324  16.554  0.0730 -0.1084 -0.6191
 5889SOL    HW129303   3.081   0.393  16.595 -1.4618 -1.4159 -0.3840
 5889SOL    HW229304   3.121   0.347  16.462  1.8592  1.7563 -0.4024
 5890SOL     OW29305   1.390   3.650   1.976 -0.1921 -0.0930  0.0947
 5890SOL    HW129306   1.296   3.632   1.984 -0.3921  1.0199  0.2871
 5890SOL    HW229307   1.437   3.570   2.000  2.0682  1.2365  0.1393
 5891SOL     OW29308   2.573   2.571  11.992  0.5471  0.2698  0.1333
 5891SOL    HW129309   2.610   2.582  11.905 -2.0133 -1.5958 -1.1717
 5891SOL    HW229310   2.653   2.566  12.045  0.7615 -0.9386 -0.3037
 5892SOL     OW29311   1.706   1.982   2.500 -0.0621 -0.4563  0.2332
 5892SOL    HW129312   1.627   1.983   2.555 -0.3300  0.4157 -0.1688
 5892SOL    HW229313   1.777   1.991   2.564 -0.8032  2.7136  0.6055
 5893SOL     OW29314   4.166   0.987   1.810 -0.0373 -0.0299  0.1478
 5893SOL    HW129315   4.189   0.910   1.861 -0.0564  0.2866  0.6362
 5893SOL    HW229316   4.157   0.948   1.723  2.1283 -0.0030 -0.0921
 5894SOL     OW29317   3.770   2.090   2.473 -0.0135 -0.1161 -0.1783
 5894SOL    HW129318   3.691   2.038   2.489 -0.6259  0.7434 -0.4146
 5894SOL    HW229319   3.795   2.050   2.390  1.5753  0.2715  0.1008
 5895SOL     OW29320   3.047   0.259   4.369 -0.5654 -0.0351  0.0945
 5895SOL    HW129321   3.097   0.247   4.450  0.4625  0.0446 -0.5293
 5895SOL    HW229322   3.052   0.353   4.355 -0.8699  0.2031  1.5797
 5896SOL     OW29323   1.669   3.999   5.011  0.4771 -0.0896 -0.4769
 5896SOL    HW129324   1.731   4.010   4.939  1.9128 -2.2955  0.3984
 5896SOL    HW229325   1.618   3.924   4.980 -1.0014  1.0799 -0.8864
 5897SOL     OW29326   3.073   3.282  14.411  0.0100 -0.4415 -0.0771
 5897SOL    HW129327   3.117   3.353  14.364 -0.0578  1.1458  2.2426
 5897SOL    HW229328   2.984   3.316  14.405  0.5723  1.2316  1.2229
 5898SOL     OW29329   1.807   1.762   2.669 -0.1784  0.1873 -0.2778
 5898SOL    HW129330   1.745   1.747   2.597  2.0330  1.9947 -2.5283
 5898SOL    HW229331   1.755   1.731   2.744  0.2894  0.8982  0.3398
 5899SOL     OW29332   0.051   1.024   7.621  0.1865 -0.2610  0.0978
 5899SOL    HW129333   0.125   0.972   7.589  1.8581  1.7123  0.6971
 5899SOL    HW229334   4.734   1.049   7.545 -2.3282  0.6185  2.1035
 5900SOL     OW29335   2.018   4.072  16.640  0.5064 -0.0258 -0.1117
 5900SOL    HW129336   1.971   4.156  16.639 -0.5072 -0.5548  2.0504
 5900SOL    HW229337   2.083   4.093  16.708  1.1113  0.0791 -0.7307
 5901SOL     OW29338   3.602   3.930   3.140  0.2195 -0.2769 -0.1044
 5901SOL    HW129339   3.557   3.999   3.091 -1.0584 -0.3561  0.9421
 5901SOL    HW229340   3.522   3.889   3.171 -1.2163  1.8989 -0.9289
 5902SOL     OW29341   3.540   3.976   6.396  0.0379 -0.0371 -0.9257
 5902SOL    HW129342   3.477   3.922   6.349 -0.8160 -0.8047  1.0775
 5902SOL    HW229343   3.613   3.920   6.368 -1.3775 -1.3482 -1.9699
 5903SOL     OW29344   2.437   1.241   7.873  0.0357  0.4564 -0.0479
 5903SOL    HW129345   2.383   1.304   7.825  0.0689  1.9011  1.7691
 5903SOL    HW229346   2.509   1.290   7.912 -0.1421  0.2213  0.5952
 5904SOL     OW29347   0.932   4.226  11.756  0.2417 -0.4727 -0.3225
 5904SOL    HW129348   0.946   4.189  11.669 -2.0934 -0.6318 -0.6097
 5904SOL    HW229349   0.843   4.196  11.771 -0.3123  1.6722  0.6660
 5905SOL     OW29350   3.647   3.620   0.584 -0.7685 -0.6748  1.1431
 5905SOL    HW129351   3.686   3.706   0.598 -2.5319  0.4032 -0.4902
 5905SOL    HW229352   3.563   3.658   0.556 -0.8578 -0.9749  1.0004
 5906SOL     OW29353   2.513   4.368   7.436 -0.0604 -0.1407 -0.1506
 5906SOL    HW129354   2.539   4.445   7.486 -0.4486  0.5613 -1.0256
 5906SOL    HW229355   2.478   4.308   7.501 -1.6081 -1.2555 -2.0155
 5907SOL     OW29356   4.416   2.122   7.176  0.1236 -0.0828  0.3612
 5907SOL    HW129357   4.376   2.035   7.167 -0.7393  0.1195  2.2570
 5907SOL    HW229358   4.462   2.139   7.094  0.0576  0.0195  0.3451
 5908SOL     OW29359   3.984   2.594   5.918  0.0794 -0.1422 -0.8047
 5908SOL    HW129360   4.008   2.527   5.982 -0.3498  1.5783  1.1378
 5908SOL    HW229361   3.892   2.571   5.906  0.4310 -1.0860 -1.8085
 5909SOL     OW29362   3.673   2.706   9.481 -0.5763 -0.3823  0.1017
 5909SOL    HW129363   3.714   2.750   9.555 -1.9576 -1.2579  1.3929
 5909SOL    HW229364   3.691   2.615   9.505 -1.4416 -0.7601 -0.6558
 5910SOL     OW29365   3.002   3.722   3.203  0.3060 -0.2399  0.1588
 5910SOL    HW129366   2.970   3.652   3.146 -1.8222  2.2757 -1.7333
 5910SOL    HW229367   2.948   3.793   3.168  0.8535 -0.0535 -0.3125
 5911SOL     OW29368   0.367   1.758   7.893 -0.1512  0.4090 -0.2373
 5911SOL    HW129369   0.378   1.709   7.975 -0.8421 -0.2241 -0.5256
 5911SOL    HW229370   0.388   1.688   7.831 -1.1095 -0.0855 -0.0052
 5912SOL     OW29371   3.294   0.742   3.484  0.7926  0.7425 -0.1760
 5912SOL    HW129372   3.303   0.758   3.578 -0.2801  1.0871 -0.1335
 5912SOL    HW229373   3.385   0.749   3.454  1.1687 -1.8080  0.3656
 5913SOL     OW29374   3.078   0.624   3.391 -0.2282 -0.5996  0.2198
 5913SOL    HW129375   3.009   0.646   3.455 -0.4922 -0.1673 -0.2129
 5913SOL    HW229376   3.154   0.675   3.420 -0.8681 -0.7122  2.1560
 5914SOL     OW29377   2.336   3.778   4.916 -0.1333  0.2916  0.7313
 5914SOL    HW129378   2.267   3.843   4.922  0.1958  0.7113  0.0120
 5914SOL    HW229379   2.303   3.721   4.846  0.9287 -1.3309  1.5401
 5915SOL     OW29380   1.430   3.185  11.403 -0.3172 -0.0077  0.3204
 5915SOL    HW129381   1.430   3.125  11.477 -1.4260  1.1118  1.2153
 5915SOL    HW229382   1.369   3.135  11.349 -2.2265  1.9455  0.6842
 5916SOL     OW29383   0.990   1.691   7.216  0.2765  0.2592 -0.3194
 5916SOL    HW129384   0.926   1.750   7.176 -0.0729  0.8372  1.1044
 5916SOL    HW229385   0.962   1.616   7.163  2.2353  0.3272 -1.4545
 5917SOL     OW29386   1.567   3.860   1.999  0.0958  0.2314  0.6432
 5917SOL    HW129387   1.553   3.922   1.928 -0.8277 -1.1206 -0.3406
 5917SOL    HW229388   1.495   3.800   1.982  1.5093 -0.7795 -1.6831
 5918SOL     OW29389   1.291   3.485   4.168 -0.2061  1.0101  0.4691
 5918SOL    HW129390   1.206   3.458   4.202  1.1896 -0.4066  2.8394
 5918SOL    HW229391   1.344   3.492   4.247 -3.1911  1.4837  2.4081
 5919SOL     OW29392   1.445   2.207   8.542 -0.0418 -0.7748  0.3931
 5919SOL    HW129393   1.516   2.210   8.607  1.6200  0.4038 -1.4661
 5919SOL    HW229394   1.493   2.184   8.463  0.8107 -0.2813  0.7637
 5920SOL     OW29395   3.337   0.890  15.897 -0.1716  0.0144 -0.0913
 5920SOL    HW129396   3.405   0.881  15.831  1.1949  0.4499  1.2552
 5920SOL    HW229397   3.381   0.952  15.955  0.6704 -1.7316  1.1208
 5921SOL     OW29398   4.145   0.705   3.786 -0.2172  0.0980  0.2564
 5921SOL    HW129399   4.055   0.738   3.788  0.6087  2.3213  0.7152
 5921SOL    HW229400   4.146   0.626   3.732 -0.7208  0.8807 -0.9038
 5922SOL     OW29401   0.317   1.952   9.062 -0.2286  0.3792  0.0531
 5922SOL    HW129402   0.244   2.009   9.087 -0.7662 -0.5058  0.5490
 5922SOL    HW229403   0.297   1.892   9.135 -3.0330 -0.7536 -1.6282
 5923SOL     OW29404   4.304   0.900   2.779  0.0194  0.1613  0.0706
 5923SOL    HW129405   4.209   0.904   2.791 -0.1690 -0.7865 -1.1450
 5923SOL    HW229406   4.338   0.887   2.868  1.6728  1.2982 -0.3933
 5924SOL     OW29407   3.866   0.632   1.137  0.1392 -0.2282 -0.3493
 5924SOL    HW129408   3.874   0.539   1.114  1.5740 -0.5979  1.6437
 5924SOL    HW229409   3.777   0.660   1.113 -0.1670 -1.2135 -0.3705
 5925SOL     OW29410   0.349   4.174   6.661 -0.5406 -0.7310  0.2692
 5925SOL    HW129411   0.401   4.186   6.581  0.2388 -0.6843  0.7748
 5925SOL    HW229412   0.414   4.160   6.730 -0.9787  2.1996  1.2530
 5926SOL     OW29413   4.534   4.464  10.583 -0.0657  0.7841  0.4470
 5926SOL    HW129414   4.479   4.421  10.649 -1.3976  1.0102 -0.5156
 5926SOL    HW229415   4.480   4.484  10.506 -0.1447 -0.6770  0.1209
 5927SOL     OW29416   4.004   0.409   6.466 -0.0288 -0.2885 -0.1645
 5927SOL    HW129417   4.022   0.394   6.558 -0.5650 -0.2964 -0.0655
 5927SOL    HW229418   4.085   0.379   6.424  1.7298  2.8788  0.9674
 5928SOL     OW29419   0.781   0.652   9.116  0.4904 -0.1675 -0.3406
 5928SOL    HW129420   0.839   0.595   9.166  0.2930  0.4356  0.5880
 5928SOL    HW229421   0.780   0.617   9.027  2.4477  1.2177 -0.9009
 5929SOL     OW29422   3.536   3.359   6.189  0.9765  0.2808  0.3966
 5929SOL    HW129423   3.468   3.295   6.166 -1.2564  2.5190  0.8120
 5929SOL    HW229424   3.491   3.442   6.205  1.1903  0.2919  0.9249
 5930SOL     OW29425   1.032   3.459  17.434  0.2123  0.6924 -0.2784
 5930SOL    HW129426   1.048   3.434  17.343 -0.5462  0.8521 -0.4550
 5930SOL    HW229427   1.007   3.551  17.434  3.4025  1.5550 -1.6170
 5931SOL     OW29428   1.488   4.418  13.715  0.6639  0.0237 -0.1012
 5931SOL    HW129429   1.415   4.360  13.738  0.4550  0.4922  0.4430
 5931SOL    HW229430   1.519   4.449  13.801  2.0384 -1.1571 -0.1781
 5932SOL     OW29431   4.418   3.911  12.218 -0.2708 -0.1962  0.1978
 5932SOL    HW129432   4.504   3.869  12.210  0.3137  1.0041  0.1736
 5932SOL    HW229433   4.440   3.966  12.293  0.8991  2.0625 -1.7992
 5933SOL     OW29434   3.045   3.957  10.097  0.0999 -0.1366  0.3718
 5933SOL    HW129435   2.987   4.010  10.042 -1.0473 -1.2576  0.4992
 5933SOL    HW229436   2.984   3.888  10.123  0.0644 -0.0218  0.5940
 5934SOL     OW29437   3.138   3.366  17.389 -0.5968  0.0021 -0.0828
 5934SOL    HW129438   3.173   3.393  17.474  0.0098 -0.5156 -0.1669
 5934SOL    HW229439   3.055   3.327  17.414  0.8862 -2.3141  1.2874
 5935SOL     OW29440   0.853   3.604  16.312  0.8242  0.2509 -0.2083
 5935SOL    HW129441   0.772   3.597  16.261  0.9692  0.5368 -0.4793
 5935SOL    HW229442   0.865   3.511  16.328  0.6466 -0.0049 -1.6096
 5936SOL     OW29443   2.237   0.992   7.883  0.1791 -0.3636  0.9872
 5936SOL    HW129444   2.166   0.930   7.897 -2.1198  2.0111 -0.1251
 5936SOL    HW229445   2.199   1.057   7.824 -0.7692 -2.0826 -0.2709
 5937SOL     OW29446   2.819   4.141   7.424  0.1012  0.3183 -0.1275
 5937SOL    HW129447   2.824   4.048   7.402 -0.1365  0.2256  0.2252
 5937SOL    HW229448   2.843   4.134   7.516  1.5370 -1.0763 -0.5966
 5938SOL     OW29449   3.582   2.047   8.018  0.6856 -0.0032  0.1304
 5938SOL    HW129450   3.600   2.135   8.052  1.1485  1.1542 -3.0485
 5938SOL    HW229451   3.495   2.028   8.052  1.1052  1.2860  1.9439
 5939SOL     OW29452   0.862   2.554   4.546  0.7767 -0.1018 -0.0805
 5939SOL    HW129453   0.854   2.545   4.641  1.1596 -2.0211 -0.2330
 5939SOL    HW229454   0.830   2.467   4.522  0.6574 -0.2225  0.5372
 5940SOL     OW29455   4.564   2.028  15.842  0.0229  0.0532  0.2056
 5940SOL    HW129456   4.500   2.025  15.770  1.0148 -1.9894 -0.6216
 5940SOL    HW229457   4.634   1.974  15.804 -0.0035  0.5016 -0.4800
 5941SOL     OW29458   3.979   4.123   8.034 -0.3935  0.1956 -0.0825
 5941SOL    HW129459   3.933   4.097   7.955 -0.0580 -0.6913  0.0169
 5941SOL    HW229460   3.975   4.042   8.085  0.3522 -0.2066 -0.6773
 5942SOL     OW29461   4.206   4.175   7.197 -0.8053 -0.2156 -0.2610
 5942SOL    HW129462   4.171   4.117   7.264  2.5570 -1.1695  0.6846
 5942SOL    HW229463   4.141   4.185   7.127 -1.0781  0.1216  0.0430
 5943SOL     OW29464   2.343   4.292  13.313  0.3225 -0.6059 -0.2200
 5943SOL    HW129465   2.398   4.233  13.262  0.2902  0.1760 -1.1574
 5943SOL    HW229466   2.385   4.375  13.293  0.0907 -0.6184 -0.7497
 5944SOL     OW29467   0.292   4.676   4.186  0.2234 -0.1683  0.1620
 5944SOL    HW129468   0.300   4.691   4.280 -1.3669 -0.3638  0.3313
 5944SOL    HW229469   0.270   0.027   4.150 -0.9143 -0.5389 -0.0111
 5945SOL     OW29470   2.289   4.001   7.000 -0.3981  0.1319  0.3597
 5945SOL    HW129471   2.344   3.923   6.992  0.1166  0.4987  0.3101
 5945SOL    HW229472   2.220   3.980   6.938  2.9733 -1.7589 -2.7762
 5946SOL     OW29473   0.864   2.416   8.951  0.3419 -0.0820 -0.2129
 5946SOL    HW129474   0.805   2.432   8.878  1.9439 -0.2775 -1.5428
 5946SOL    HW229475   0.912   2.499   8.945  0.4037  0.0506  2.0018
 5947SOL     OW29476   1.885   3.125   8.400  0.5578 -0.0905  0.4769
 5947SOL    HW129477   1.928   3.050   8.441 -2.6606 -0.7049  2.7214
 5947SOL    HW229478   1.818   3.146   8.465 -1.3136 -0.0310 -1.4531
 5948SOL     OW29479   1.733   2.074  12.855 -0.3831  0.3715 -0.5709
 5948SOL    HW129480   1.822   2.038  12.849 -0.9266 -1.3087  1.2414
 5948SOL    HW229481   1.752   2.168  12.853 -2.7052  0.9795  4.4030
 5949SOL     OW29482   4.540   1.053   1.785 -0.3356 -0.5699 -0.2484
 5949SOL    HW129483   4.569   1.081   1.871 -0.2447 -2.5241  0.3638
 5949SOL    HW229484   4.570   0.962   1.788  0.3921 -0.4164 -2.7144
 5950SOL     OW29485   2.056   0.041   6.740  0.2530  0.3993 -0.8365
 5950SOL    HW129486   2.031   4.692   6.702 -1.4337  1.6291 -2.4546
 5950SOL    HW229487   2.022   0.100   6.672  0.4824  3.1770  1.4418
 5951SOL     OW29488   3.026   1.319  16.349  0.4640  0.3729 -0.1506
 5951SOL    HW129489   2.964   1.375  16.302 -1.6523 -0.1451  1.9802
 5951SOL    HW229490   2.969   1.312  16.426 -1.3700  1.3627 -1.4371
 5952SOL     OW29491   0.312   1.372   3.865  0.4199 -0.3926 -0.1094
 5952SOL    HW129492   0.357   1.307   3.919  0.3782 -0.9170 -0.6995
 5952SOL    HW229493   0.386   1.418   3.827  1.2037 -1.0812  0.5804
 5953SOL     OW29494   4.225   2.631   4.151  0.6512  0.5956 -0.0180
 5953SOL    HW129495   4.252   2.712   4.108 -0.4748  1.4876  0.9462
 5953SOL    HW229496   4.310   2.589   4.158  0.3433  0.0780  0.5902
 5954SOL     OW29497   3.402   1.962   5.595 -0.3834 -0.2022  0.0186
 5954SOL    HW129498   3.378   1.871   5.610 -3.7866  1.0963  2.4531
 5954SOL    HW229499   3.333   1.999   5.651 -0.4962 -0.4756  0.0567
 5955SOL     OW29500   2.041   3.936  10.446 -0.6359  0.1123 -0.0460
 5955SOL    HW129501   2.077   3.969  10.364  1.2071 -0.5607  0.4881
 5955SOL    HW229502   2.116   3.943  10.505  1.5457  0.3223 -2.8698
 5956SOL     OW29503   4.181   3.826  12.937 -0.7053  0.2350  0.4576
 5956SOL    HW129504   4.265   3.785  12.958 -1.8103 -1.2878  2.0207
 5956SOL    HW229505   4.167   3.887  13.009  0.1350 -0.1044  0.9214
 5957SOL     OW29506   0.609   2.580   9.259  0.8049  0.0716  0.1833
 5957SOL    HW129507   0.546   2.571   9.187 -1.3687  1.0367  1.9593
 5957SOL    HW229508   0.583   2.508   9.315  2.4549  0.7879  1.8698
 5958SOL     OW29509   1.907   0.709   0.040  0.1348  0.0459  0.1639
 5958SOL    HW129510   1.983   0.767   0.049  0.5025 -0.3440 -0.4091
 5958SOL    HW229511   1.898   0.701   0.135 -1.9960 -0.8304 -0.1226
 5959SOL     OW29512   1.190   3.630  11.579 -0.1981 -0.4374 -0.0417
 5959SOL    HW129513   1.176   3.632  11.673  1.5292 -2.9364  0.2717
 5959SOL    HW229514   1.237   3.547  11.573  1.7494  0.6255  0.4413
 5960SOL     OW29515   3.077   2.201   0.434 -0.4668 -0.1699  0.5149
 5960SOL    HW129516   3.093   2.151   0.354  2.1107  0.3314  0.7211
 5960SOL    HW229517   2.982   2.211   0.422 -0.6611 -4.5438 -1.4771
 5961SOL     OW29518   0.961   1.674   2.673 -0.6064 -0.6183  0.6097
 5961SOL    HW129519   1.026   1.604   2.682 -2.2109 -2.5400 -2.7266
 5961SOL    HW229520   1.013   1.735   2.725 -1.9122  0.0845  1.0619
 5962SOL     OW29521   1.813   0.629   4.765  0.0327 -0.1428 -0.0661
 5962SOL    HW129522   1.833   0.717   4.733 -1.0474  0.3126  0.5026
 5962SOL    HW229523   1.778   0.588   4.686  1.8816 -0.8237 -0.5481
 5963SOL     OW29524   2.088   3.846   6.595 -0.4645 -0.8086  0.0864
 5963SOL    HW129525   2.181   3.868   6.605 -0.9440  1.2031  0.1081
 5963SOL    HW229526   2.071   3.815   6.684 -0.0062 -1.3543 -0.0092
 5964SOL     OW29527   0.575   1.425  13.783  0.0333 -0.2753  0.0107
 5964SOL    HW129528   0.656   1.380  13.807  0.3538  1.4013  2.0747
 5964SOL    HW229529   0.579   1.492  13.852  1.2139 -0.1569 -0.1739
 5965SOL     OW29530   1.175   0.726   5.619  0.0970 -0.0927 -0.0150
 5965SOL    HW129531   1.176   0.636   5.589  0.2522  0.6607 -2.2617
 5965SOL    HW229532   1.094   0.749   5.574  0.0484 -1.1371 -0.4536
 5966SOL     OW29533   4.561   4.483   6.360 -0.2876  0.7617 -0.7544
 5966SOL    HW129534   4.597   4.423   6.295 -1.0159  1.1959 -1.5593
 5966SOL    HW229535   4.615   4.462   6.436 -0.5784 -0.4343 -0.8808
 5967SOL     OW29536   0.334   4.405   5.700 -0.1510  0.3098  0.5881
 5967SOL    HW129537   0.298   4.317   5.711 -0.2667  0.6576  2.9551
 5967SOL    HW229538   0.270   4.456   5.750  0.1939  2.9576 -1.6960
 5968SOL     OW29539   3.420   3.833   2.747  0.2860  0.4371 -0.9625
 5968SOL    HW129540   3.332   3.802   2.767 -0.0503  2.0430  0.1193
 5968SOL    HW229541   3.412   3.927   2.766 -2.7088  0.1501 -0.8113
 5969SOL     OW29542   2.630   2.890   6.541  0.1110 -0.0661 -0.3123
 5969SOL    HW129543   2.695   2.919   6.478 -0.4455  0.5312 -0.6113
 5969SOL    HW229544   2.659   2.799   6.541  0.6104  0.0932  0.7408
 5970SOL     OW29545   0.715   2.845  16.775  0.0397  0.0260 -0.1842
 5970SOL    HW129546   0.702   2.939  16.766  1.6332  0.3373  0.7136
 5970SOL    HW229547   0.688   2.811  16.690 -2.1810  0.7242  0.2535
 5971SOL     OW29548   4.297   2.882   4.713 -0.3306 -0.1563 -0.1416
 5971SOL    HW129549   4.329   2.794   4.730  1.8640  0.5751 -0.5902
 5971SOL    HW229550   4.204   2.869   4.694 -0.1804 -1.1778 -0.1844
 5972SOL     OW29551   0.877   0.015   3.297  0.6203 -0.0392 -0.5630
 5972SOL    HW129552   0.810   4.725   3.233 -0.8182  3.8244 -0.5343
 5972SOL    HW229553   0.951   4.709   3.252  0.4277 -0.5765 -0.3953
 5973SOL     OW29554   0.815   3.723   2.055 -0.2753 -0.3237 -0.2420
 5973SOL    HW129555   0.908   3.743   2.047 -0.2428 -0.0235  0.8396
 5973SOL    HW229556   0.799   3.733   2.149 -1.7792  1.8366 -0.7267
 5974SOL     OW29557   0.865   3.313   7.124 -0.1037 -0.1559  0.4770
 5974SOL    HW129558   0.902   3.348   7.044 -0.5025 -0.5251  0.1277
 5974SOL    HW229559   0.772   3.334   7.134 -0.0839  0.4669 -0.6516
 5975SOL     OW29560   4.631   1.540   5.767  0.4279  0.6409 -0.4434
 5975SOL    HW129561   4.656   1.466   5.712  1.1509  0.4083  0.2026
 5975SOL    HW229562   4.643   1.615   5.708  4.8069  1.2648  1.2706
 5976SOL     OW29563   4.089   4.175   9.033 -0.7495 -0.3112 -0.4963
 5976SOL    HW129564   4.022   4.157   9.099  0.7804  1.4505  1.5272
 5976SOL    HW229565   4.156   4.108   9.051  1.6377  2.1507 -0.3016
 5977SOL     OW29566   1.707   3.023  14.694 -0.2122 -0.2939  0.0021
 5977SOL    HW129567   1.693   3.108  14.735  2.8380 -0.4326  1.2539
 5977SOL    HW229568   1.765   2.990  14.762  1.0628 -0.5854 -1.2239
 5978SOL     OW29569   3.322   2.995   4.595 -0.5805  0.3781 -0.5746
 5978SOL    HW129570   3.361   2.908   4.600  1.3873  1.1565 -2.2335
 5978SOL    HW229571   3.284   2.994   4.507 -0.6743  0.9342 -0.5399
 5979SOL     OW29572   2.363   0.741   4.403  0.1716  0.2116 -0.0809
 5979SOL    HW129573   2.355   0.646   4.405 -1.4463  0.3179 -1.4571
 5979SOL    HW229574   2.313   0.752   4.484  1.5196  2.2187  0.4772
 5980SOL     OW29575   2.402   3.471  12.258 -0.6060  0.2657  0.3624
 5980SOL    HW129576   2.484   3.487  12.212 -0.8498  0.9475  0.1716
 5980SOL    HW229577   2.337   3.498  12.193  0.5534 -0.1463 -0.9702
 5981SOL     OW29578   3.397   0.210   2.293 -0.5240 -0.1479 -0.7021
 5981SOL    HW129579   3.442   0.292   2.314 -1.6966  0.2905  0.1321
 5981SOL    HW229580   3.363   0.230   2.206 -2.7808  1.1823  0.4815
 5982SOL     OW29581   3.662   3.819   3.430 -0.2447  0.1155 -0.1325
 5982SOL    HW129582   3.717   3.771   3.368  0.5389  1.0346 -0.1479
 5982SOL    HW229583   3.724   3.891   3.444  0.9779 -1.2928  1.7418
 5983SOL     OW29584   1.023   2.525  17.166  0.0770 -0.1338  0.0988
 5983SOL    HW129585   1.107   2.568  17.187 -0.0715 -0.7011  1.9138
 5983SOL    HW229586   0.957   2.593  17.175  0.3842  0.0154  1.2425
 5984SOL     OW29587   0.717   0.486   2.023  0.0960 -0.2796 -0.3444
 5984SOL    HW129588   0.761   0.477   2.107  1.3673  0.1566 -0.9624
 5984SOL    HW229589   0.775   0.445   1.959  2.3711 -0.6355  1.9494
 5985SOL     OW29590   0.004   1.746   3.571 -0.2978 -0.1832  0.1460
 5985SOL    HW129591   4.728   1.662   3.526  1.7830  0.7943 -2.1567
 5985SOL    HW229592   0.069   1.721   3.636 -2.0020  1.6013  2.5222
 5986SOL     OW29593   2.470   2.507   8.370 -0.1304  0.0850 -0.4025
 5986SOL    HW129594   2.523   2.522   8.291  1.7975  1.5495  1.1484
 5986SOL    HW229595   2.494   2.569   8.439 -0.7431 -1.5980  1.3115
 5987SOL     OW29596   2.405   4.071   3.120 -0.2158 -0.1265  0.4966
 5987SOL    HW129597   2.380   4.115   3.039  0.6833  4.0925  2.4676
 5987SOL    HW229598   2.334   4.104   3.175  1.0633  0.6122  1.7095
 5988SOL     OW29599   3.796   1.530  14.397  0.0314  0.5246 -0.0577
 5988SOL    HW129600   3.803   1.518  14.302  1.3031 -0.2292  0.1325
 5988SOL    HW229601   3.781   1.624  14.403  1.9893  0.8414  0.0575
 5989SOL     OW29602   1.811   2.626   6.046 -0.2528 -0.4534 -0.3967
 5989SOL    HW129603   1.843   2.542   6.078 -0.6978 -0.9713 -1.2906
 5989SOL    HW229604   1.846   2.620   5.957 -0.7452  0.2027 -0.6349
 5990SOL     OW29605   1.876   1.935   6.055  0.0727  0.2803  0.5460
 5990SOL    HW129606   1.871   1.975   5.969 -0.6342 -0.9061  0.0345
 5990SOL    HW229607   1.963   1.897   6.047 -0.3803 -0.7529  0.5320
 5991SOL     OW29608   3.129   3.462   8.310 -0.5184 -0.0216  0.4973
 5991SOL    HW129609   3.058   3.516   8.346 -0.8603 -2.0532  2.8858
 5991SOL    HW229610   3.209   3.495   8.352  1.3751 -0.1126 -3.0167
 5992SOL     OW29611   2.547   1.848   1.463  0.5785  0.1804  0.4062
 5992SOL    HW129612   2.571   1.936   1.433 -2.5087  0.2939 -1.6732
 5992SOL    HW229613   2.470   1.821   1.414  0.3383 -1.3450  1.6113
 5993SOL     OW29614   3.508   2.085   5.966 -0.0300  0.1477 -0.1231
 5993SOL    HW129615   3.493   2.083   5.871 -0.2456 -2.3419 -0.0377
 5993SOL    HW229616   3.439   2.033   6.006 -1.3861  1.8463 -0.2351
 5994SOL     OW29617   0.712   0.460   1.196  0.1719 -0.0637  0.1571
 5994SOL    HW129618   0.750   0.544   1.220  0.2282 -0.4887  1.5742
 5994SOL    HW229619   0.625   0.473   1.235 -0.0690  2.0240 -1.0905
 5995SOL     OW29620   2.721   2.427   7.410  0.4489 -0.2016 -0.2890
 5995SOL    HW129621   2.664   2.354   7.386  0.3246  0.2318 -1.3068
 5995SOL    HW229622   2.688   2.489   7.346  0.0451  0.6896  0.7878
 5996SOL     OW29623   2.194   0.834  10.342  0.8580  0.3919 -0.0549
 5996SOL    HW129624   2.245   0.884  10.279  0.7363 -0.1075 -0.5497
 5996SOL    HW229625   2.122   0.802  10.287  0.2289 -0.5550  1.3174
 5997SOL     OW29626   2.562   3.106   9.533 -0.3970 -1.0884 -0.4467
 5997SOL    HW129627   2.544   3.045   9.604  0.5849 -1.2728 -0.3567
 5997SOL    HW229628   2.577   3.191   9.574 -0.5109 -0.4987 -1.6068
 5998SOL     OW29629   2.602   2.857   0.491  0.0876 -0.0645 -0.0981
 5998SOL    HW129630   2.634   2.935   0.536 -1.9466  0.4161  0.5222
 5998SOL    HW229631   2.642   2.786   0.542 -1.4834  0.3151  1.6622
 5999SOL     OW29632   0.859   3.567   6.485 -0.3294 -0.2870  0.4631
 5999SOL    HW129633   0.768   3.595   6.499 -0.6239 -0.6408 -0.7452
 5999SOL    HW229634   0.908   3.603   6.558  0.7702  0.4558 -0.6450
 6000SOL     OW29635   1.181   3.560   9.980  0.0331 -0.2350  0.1125
 6000SOL    HW129636   1.131   3.613  10.042 -1.0650  0.7734 -1.6385
 6000SOL    HW229637   1.263   3.545  10.028  1.0731 -1.9334 -2.1705
 6001SOL     OW29638   4.118   2.279   3.502 -0.7187 -0.5352  0.8320
 6001SOL    HW129639   4.169   2.238   3.572 -0.6668  1.2548  1.8441
 6001SOL    HW229640   4.185   2.328   3.454 -1.1272 -3.9114 -3.2303
 6002SOL     OW29641   2.227   3.456   4.892 -0.1602  0.1062  0.9220
 6002SOL    HW129642   2.137   3.447   4.861 -0.3323 -0.3162  1.5525
 6002SOL    HW229643   2.254   3.526   4.832  1.2627 -0.5232  0.8103
 6003SOL     OW29644   3.752   0.412   6.679 -0.3132  0.0924  0.7375
 6003SOL    HW129645   3.816   0.393   6.610  0.1128 -0.4959  1.2947
 6003SOL    HW229646   3.676   0.362   6.650  0.1535  0.1442 -0.5690
 6004SOL     OW29647   0.702   4.112   4.252 -0.1322  0.1224 -0.3690
 6004SOL    HW129648   0.781   4.077   4.292  0.0960  2.7078  1.4063
 6004SOL    HW229649   0.670   4.041   4.195  2.5984 -0.3281 -1.3198
 6005SOL     OW29650   3.116   0.914   8.371 -0.1480 -0.1612  0.2864
 6005SOL    HW129651   3.096   1.007   8.366  0.6652  0.0320  0.6289
 6005SOL    HW229652   3.210   0.905   8.352 -0.6429 -4.4840 -0.1779
 6006SOL     OW29653   0.844   2.920  10.443  0.5844 -0.1701 -0.2674
 6006SOL    HW129654   0.757   2.889  10.469  1.4633 -0.2939  2.5386
 6006SOL    HW229655   0.882   2.927  10.530 -0.4703 -1.0911  0.2736
 6007SOL     OW29656   0.439   0.254   3.677 -0.0404 -0.1259 -0.2305
 6007SOL    HW129657   0.376   0.186   3.701 -0.2595  0.2171  0.1604
 6007SOL    HW229658   0.522   0.219   3.647 -0.9982 -1.4769 -1.3218
 6008SOL     OW29659   0.060   3.446   4.605 -0.2096  0.3525 -0.3728
 6008SOL    HW129660   0.063   3.361   4.561 -0.9649  0.1203  0.0228
 6008SOL    HW229661   0.032   3.506   4.536  0.6413 -0.4403 -1.4065
 6009SOL     OW29662   0.278   4.388   9.811 -0.6355  0.2044  0.2271
 6009SOL    HW129663   0.277   4.457   9.745 -0.9725 -2.1127 -2.2233
 6009SOL    HW229664   0.290   4.308   9.759  0.5323  1.2267 -1.0856
 6010SOL     OW29665   3.208   3.534  14.682 -0.5969  0.2893 -0.8111
 6010SOL    HW129666   3.278   3.472  14.703  0.8615  2.0720 -0.3977
 6010SOL    HW229667   3.130   3.480  14.676  0.6628 -1.7740  1.4656
 6011SOL     OW29668   2.850   3.945   8.967  0.2051 -0.2362 -0.4745
 6011SOL    HW129669   2.886   3.859   8.946  0.1661 -0.4965  0.5268
 6011SOL    HW229670   2.825   3.924   9.057  0.4992 -0.9746 -0.5590
 6012SOL     OW29671   1.534   1.117   5.671  0.4848 -0.0808  0.0299
 6012SOL    HW129672   1.559   1.073   5.753  0.6429 -0.1720 -0.0686
 6012SOL    HW229673   1.445   1.081   5.666 -0.4191  2.0019  0.9961
 6013SOL     OW29674   4.207   4.644  14.807 -0.1313  0.9186  0.3293
 6013SOL    HW129675   4.163   4.650  14.722 -1.0916 -0.6156  0.7050
 6013SOL    HW229676   4.235   0.000  14.815 -0.0297  1.1588 -2.5390
 6014SOL     OW29677   1.107   1.242   6.623 -0.0574  0.2207 -0.3358
 6014SOL    HW129678   1.051   1.319   6.619  0.5843  0.6546 -0.8237
 6014SOL    HW229679   1.180   1.262   6.566  0.8699  0.1862  0.8362
 6015SOL     OW29680   2.451   4.153   0.823 -0.1745  0.2041  0.5752
 6015SOL    HW129681   2.369   4.166   0.871 -1.5208  0.6327 -1.8323
 6015SOL    HW229682   2.454   4.058   0.838  0.1717  0.3533  1.4230
 6016SOL     OW29683   0.458   3.543  14.136 -0.6086 -0.1678 -0.1486
 6016SOL    HW129684   0.492   3.631  14.121 -0.1486 -0.0638  1.4212
 6016SOL    HW229685   0.494   3.524  14.223 -0.5567  0.6875  0.0168
 6017SOL     OW29686   3.822   3.738  12.523 -0.1603  1.0866 -0.0361
 6017SOL    HW129687   3.851   3.825  12.553 -0.9735  1.1699  0.5122
 6017SOL    HW229688   3.760   3.764  12.454  1.2293  0.9782 -1.3164
 6018SOL     OW29689   3.922   1.782   1.473 -0.3111 -0.3659  0.5007
 6018SOL    HW129690   3.835   1.815   1.453  0.3845 -0.2540 -2.4598
 6018SOL    HW229691   3.900   1.695   1.507 -2.1591  0.2665  0.9047
 6019SOL     OW29692   1.244   3.352   2.259  0.4366  0.2578  0.0759
 6019SOL    HW129693   1.293   3.398   2.328  0.9988  0.0951 -0.2163
 6019SOL    HW229694   1.289   3.268   2.255 -1.7054 -0.8916  0.3772
 6020SOL     OW29695   3.552   4.734   8.567  0.3318 -0.3414 -0.7013
 6020SOL    HW129696   3.591   0.051   8.637  0.3220  0.3402 -1.1945
 6020SOL    HW229697   3.605   4.655   8.557  0.3185 -0.4275 -0.0677
 6021SOL     OW29698   2.986   2.612   1.031  0.1196 -0.3457 -0.0005
 6021SOL    HW129699   2.958   2.575   0.947 -1.2198  0.9173 -0.1093
 6021SOL    HW229700   2.910   2.585   1.082  1.2704 -1.2205  1.2373
 6022SOL     OW29701   2.416   3.244   8.202 -0.0109  0.1940  0.5446
 6022SOL    HW129702   2.323   3.223   8.202  0.7961 -3.4282 -0.8059
 6022SOL    HW229703   2.416   3.290   8.118 -2.5093  0.5299  0.7340
 6023SOL     OW29704   3.203   3.246   0.350  0.0327  0.2063  0.7051
 6023SOL    HW129705   3.164   3.333   0.344  1.5463  0.9431  1.3694
 6023SOL    HW229706   3.298   3.261   0.342 -0.3136  2.7559  1.2966
 6024SOL     OW29707   2.990   0.852   6.546 -0.0692  0.3265  0.2199
 6024SOL    HW129708   2.974   0.764   6.582 -0.3041  1.1275  2.0521
 6024SOL    HW229709   2.956   0.917   6.607 -1.1353 -0.2675  0.2560
 6025SOL     OW29710   4.315   0.483   6.705  0.3875 -0.1252  0.2045
 6025SOL    HW129711   4.281   0.395   6.718  2.6576 -0.9046  0.7222
 6025SOL    HW229712   4.360   0.473   6.622 -0.2302 -2.1115  0.1134
 6026SOL     OW29713   4.206   4.376   2.397 -0.5059 -0.7814  0.3666
 6026SOL    HW129714   4.125   4.377   2.346 -1.6601 -3.9555  2.1190
 6026SOL    HW229715   4.190   4.296   2.447  1.1484 -1.1570  0.2808
 6027SOL     OW29716   0.896   2.223   4.801  0.8404  0.0409  0.2813
 6027SOL    HW129717   0.807   2.189   4.792  1.0633 -0.6521  0.7658
 6027SOL    HW229718   0.915   2.199   4.891 -0.6468 -2.5086 -0.1045
 6028SOL     OW29719   2.599   1.773   9.828 -0.3608 -0.0509  0.3675
 6028SOL    HW129720   2.511   1.809   9.827 -0.5643 -0.6908 -3.1305
 6028SOL    HW229721   2.599   1.719   9.749  1.6514 -0.1931  0.4657
 6029SOL     OW29722   1.810   2.362  14.579  0.0541 -0.3569 -0.4957
 6029SOL    HW129723   1.786   2.442  14.533 -1.8260 -1.5156 -1.5072
 6029SOL    HW229724   1.890   2.338  14.532  0.4638  1.1099 -0.5617
 6030SOL     OW29725   3.235   0.582   0.355 -0.4482 -0.0235 -0.1883
 6030SOL    HW129726   3.193   0.512   0.305 -2.1674  0.3000  0.8231
 6030SOL    HW229727   3.300   0.603   0.288  1.8024  1.9834  2.6418
 6031SOL     OW29728   1.360   2.360   5.163  0.3343 -0.1387  0.4846
 6031SOL    HW129729   1.377   2.343   5.070 -1.3437 -1.6312  0.4457
 6031SOL    HW229730   1.446   2.326   5.190 -0.1204 -1.9676 -0.3325
 6032SOL     OW29731   1.626   2.622   3.615  0.2876  0.1103  0.3498
 6032SOL    HW129732   1.531   2.614   3.626  0.6476 -1.0902  2.6127
 6032SOL    HW229733   1.655   2.539   3.577  0.2043  0.1260  0.2550
 6033SOL     OW29734   4.628   0.212   5.319  0.3123 -0.6001 -0.5580
 6033SOL    HW129735   4.595   0.138   5.268  1.4156 -0.4462 -1.4950
 6033SOL    HW229736   4.616   0.177   5.407  1.3228  2.6487  0.8565
 6034SOL     OW29737   1.052   1.379  14.760 -0.3134  0.0880 -0.0313
 6034SOL    HW129738   1.132   1.420  14.727 -2.4544  3.2072 -1.3332
 6034SOL    HW229739   0.986   1.430  14.713 -0.8906  1.1598  1.9314
 6035SOL     OW29740   2.940   2.910   4.710  0.0169  0.3268  0.2365
 6035SOL    HW129741   2.854   2.939   4.680  0.5119  1.8236  0.2759
 6035SOL    HW229742   2.956   2.834   4.654  0.4655  1.4939 -1.2125
 6036SOL     OW29743   3.145   3.688   2.530  0.1304 -0.0939 -0.0285
 6036SOL    HW129744   3.144   3.737   2.612 -0.2202  1.7245 -1.1030
 6036SOL    HW229745   3.211   3.622   2.553 -0.4951 -0.7402 -0.0973
 6037SOL     OW29746   4.531   2.076   4.667  0.4238 -0.0109  0.1725
 6037SOL    HW129747   4.610   2.130   4.654  0.3974 -0.3364 -1.3860
 6037SOL    HW229748   4.474   2.110   4.598  0.0344  0.9392  0.9530
 6038SOL     OW29749   4.391   2.548   7.818  0.2908 -0.1105  0.2559
 6038SOL    HW129750   4.397   2.461   7.857 -0.4675  0.1287  0.8985
 6038SOL    HW229751   4.433   2.543   7.732 -0.2744  0.6408 -0.0652
 6039SOL     OW29752   2.078   0.505  16.115  0.2510  0.0251 -0.3967
 6039SOL    HW129753   1.989   0.471  16.104 -0.8761  2.8886 -0.1438
 6039SOL    HW229754   2.105   0.451  16.189 -1.0947 -0.7837 -0.5010
 6040SOL     OW29755   4.665   4.373  14.910  0.9558 -0.1044  0.1087
 6040SOL    HW129756   4.607   4.445  14.934 -0.1239 -0.4350 -1.5107
 6040SOL    HW229757   4.597   4.313  14.879  1.6944 -1.1446  0.5008
 6041SOL     OW29758   2.526   4.594   3.894 -0.0193 -0.4093 -0.1400
 6041SOL    HW129759   2.609   4.600   3.942  0.4299 -0.7595 -0.8617
 6041SOL    HW229760   2.562   4.542   3.822 -0.6907 -1.4153  0.2497
 6042SOL     OW29761   3.608   3.394   7.734 -0.3233 -0.4556 -0.5290
 6042SOL    HW129762   3.567   3.353   7.810 -0.8455  0.1448 -0.4947
 6042SOL    HW229763   3.578   3.337   7.663  0.1727  0.5655 -1.5701
 6043SOL     OW29764   0.822   4.449   7.421  0.2723  0.3575  0.9665
 6043SOL    HW129765   0.819   4.354   7.409  2.9917  0.4809 -0.8328
 6043SOL    HW229766   0.799   4.477   7.332 -0.6199  0.6068  1.2732
 6044SOL     OW29767   1.640   0.994   0.629 -0.2804 -0.5697 -0.0296
 6044SOL    HW129768   1.683   1.004   0.544 -0.6751  1.2888 -0.0126
 6044SOL    HW229769   1.570   1.059   0.628 -1.3094 -1.6684  0.8906
 6045SOL     OW29770   4.320   3.523   6.478 -0.5342 -0.2129  0.5941
 6045SOL    HW129771   4.320   3.579   6.556  0.2930  0.7286 -0.0693
 6045SOL    HW229772   4.261   3.570   6.419 -0.9796 -2.2392 -0.5534
 6046SOL     OW29773   2.540   4.047   0.278  0.2991 -0.1714  0.8742
 6046SOL    HW129774   2.607   4.018   0.340  1.0938  0.8842  0.5153
 6046SOL    HW229775   2.505   4.112   0.339  2.0076  2.3124 -0.7516
 6047SOL     OW29776   0.587   1.741   8.553  0.3546 -0.5759 -0.1966
 6047SOL    HW129777   0.673   1.701   8.547  0.3984 -0.8360  2.1364
 6047SOL    HW229778   0.601   1.832   8.529  0.7275 -1.3174 -2.7831
 6048SOL     OW29779   1.196   3.388  16.173  0.2251 -0.3790  0.0421
 6048SOL    HW129780   1.290   3.375  16.184  0.4779  1.4426 -0.0235
 6048SOL    HW229781   1.192   3.437  16.091 -0.3342  0.0061  0.2972
 6049SOL     OW29782   3.285   4.645   7.078 -0.6086 -0.3577 -0.4909
 6049SOL    HW129783   3.349   4.605   7.137  1.2016  1.2691 -1.3292
 6049SOL    HW229784   3.253   4.701   7.148  4.1920  1.9865 -0.2066
 6050SOL     OW29785   2.847   0.173   2.293 -0.7357  0.0463  0.3801
 6050SOL    HW129786   2.817   0.238   2.228  1.3796  3.0194  2.3908
 6050SOL    HW229787   2.790   0.102   2.264 -0.3919  0.8598 -2.3390
 6051SOL     OW29788   2.454   3.583   6.373 -0.1085 -0.2315 -0.5775
 6051SOL    HW129789   2.524   3.565   6.310  0.9681 -1.5932  1.0085
 6051SOL    HW229790   2.417   3.494   6.375  1.7063 -0.9790 -0.6146
 6052SOL     OW29791   1.245   0.236   5.307 -0.5854  0.4042 -0.1302
 6052SOL    HW129792   1.208   0.317   5.343 -0.8300  0.0756  0.3575
 6052SOL    HW229793   1.166   0.196   5.270  0.9773  0.2370 -3.2767
 6053SOL     OW29794   2.832   0.308   6.787 -0.6702  0.1888  0.4675
 6053SOL    HW129795   2.845   0.219   6.818 -1.3228 -0.7709 -2.0247
 6053SOL    HW229796   2.904   0.310   6.725  0.7915  0.0443  2.1730
 6054SOL     OW29797   1.679   1.848   7.368  0.1339  0.1855 -0.2696
 6054SOL    HW129798   1.641   1.860   7.455  0.2998 -1.4797  0.0391
 6054SOL    HW229799   1.754   1.903   7.389 -1.5976  1.7385  1.8776
 6055SOL     OW29800   3.758   2.336   6.294  0.2372  0.2969  0.1859
 6055SOL    HW129801   3.689   2.326   6.228 -1.0936 -1.0955  1.7795
 6055SOL    HW229802   3.769   2.242   6.309 -1.1572 -0.2939 -2.3363
 6056SOL     OW29803   3.068   4.058   8.853 -0.5428  0.3780 -0.7719
 6056SOL    HW129804   2.980   4.045   8.888 -0.0050  1.0560  0.8021
 6056SOL    HW229805   3.056   4.116   8.777  0.5647  1.1200 -0.3652
 6057SOL     OW29806   0.859   2.631  13.521  0.3180  0.2321  0.3811
 6057SOL    HW129807   0.863   2.670  13.608 -0.1481  3.7180 -1.1713
 6057SOL    HW229808   0.769   2.596  13.523 -0.1844  1.4316 -1.3913
 6058SOL     OW29809   3.355   2.858   0.449  0.2613 -0.4510 -0.4135
 6058SOL    HW129810   3.275   2.883   0.402 -1.0166  0.7236  2.4034
 6058SOL    HW229811   3.323   2.790   0.509  0.6325  1.5742  2.0713
 6059SOL     OW29812   2.752   1.241  16.896 -0.4730  0.5392 -0.6780
 6059SOL    HW129813   2.673   1.293  16.906 -0.6613  0.6357 -2.5599
 6059SOL    HW229814   2.791   1.228  16.983 -0.7145 -1.5449 -0.8726
 6060SOL     OW29815   1.795   3.446   9.904 -0.1989 -0.1621 -0.1906
 6060SOL    HW129816   1.886   3.473   9.889 -0.0132 -0.4149  0.4728
 6060SOL    HW229817   1.799   3.373   9.966 -1.7435 -0.4674 -0.4479
 6061SOL     OW29818   4.486   0.796   1.470  0.8769 -0.1499  0.3439
 6061SOL    HW129819   4.427   0.866   1.441 -0.6590 -1.4003  0.4685
 6061SOL    HW229820   4.527   0.778   1.385  0.1131 -0.2967  0.0095
 6062SOL     OW29821   4.038   3.905   0.820 -0.6350 -0.4534 -0.1660
 6062SOL    HW129822   4.082   3.838   0.871  1.2240  0.1176 -1.0187
 6062SOL    HW229823   3.981   3.953   0.880 -0.6716 -1.4719  0.6055
 6063SOL     OW29824   0.735   0.696   5.424  0.0910  0.1237  0.2034
 6063SOL    HW129825   0.714   0.697   5.518 -1.7560 -2.1868 -0.1928
 6063SOL    HW229826   0.735   0.788   5.398  0.2125 -0.2973 -1.2693
 6064SOL     OW29827   2.137   0.750   3.267  0.0229  0.1006 -0.1179
 6064SOL    HW129828   2.206   0.686   3.284 -0.3251 -0.1892  0.1995
 6064SOL    HW229829   2.155   0.815   3.334 -0.1464 -1.1112  1.1111
 6065SOL     OW29830   3.868   0.306   5.561 -0.5217 -0.3717  0.5744
 6065SOL    HW129831   3.829   0.393   5.545 -2.6133 -2.1867 -4.2686
 6065SOL    HW229832   3.940   0.303   5.499  1.8520 -0.7795  3.3810
 6066SOL     OW29833   2.960   0.345   5.994 -0.1928 -0.2799  0.0281
 6066SOL    HW129834   2.912   0.340   6.077  1.4798 -0.4326  0.9895
 6066SOL    HW229835   2.879   0.345   5.944  0.2680 -0.4131 -0.7236
 6067SOL     OW29836   2.248   3.851   0.211 -0.3592  0.1013 -0.0311
 6067SOL    HW129837   2.288   3.833   0.296 -0.9047 -0.8584  0.0121
 6067SOL    HW229838   2.190   3.924   0.230  0.8546  1.3025 -0.9277
 6068SOL     OW29839   3.810   4.643  16.548 -0.5796 -0.1380  0.0093
 6068SOL    HW129840   3.766   4.722  16.516  0.0775  0.1385 -0.2042
 6068SOL    HW229841   3.888   4.678  16.591 -1.8986  1.3439  1.1877
 6069SOL     OW29842   3.653   3.474  11.931  0.0807  0.3140 -0.4824
 6069SOL    HW129843   3.609   3.495  11.848 -1.5962 -0.8737  0.1079
 6069SOL    HW229844   3.624   3.546  11.988  2.1141 -0.3258  1.3619
 6070SOL     OW29845   0.145   2.020  10.199 -0.0483 -0.1021 -0.6587
 6070SOL    HW129846   0.111   1.979  10.120 -0.4083 -0.5525 -0.2685
 6070SOL    HW229847   0.232   2.054  10.175  1.5411 -2.6650  1.4877
 6071SOL     OW29848   3.840   3.650  16.978  0.4702  0.2189  0.4977
 6071SOL    HW129849   3.794   3.628  16.897  0.6675 -3.3229  1.3253
 6071SOL    HW229850   3.835   3.743  16.957  1.0496 -0.0851 -0.9689
 6072SOL     OW29851   0.956   3.396   7.783  0.2653 -0.8270  0.4251
 6072SOL    HW129852   0.892   3.425   7.848 -0.9369 -0.7751 -0.7572
 6072SOL    HW229853   1.026   3.459   7.798 -0.7002  0.4661 -0.5316
 6073SOL     OW29854   4.289   4.534  16.859  0.5201 -0.3063 -0.0094
 6073SOL    HW129855   4.294   4.630  16.849 -1.9527 -0.1596  0.2064
 6073SOL    HW229856   4.313   4.517  16.950  2.9497 -0.9955 -0.7642
 6074SOL     OW29857   2.048   1.557   9.193 -0.0903  0.2475  0.3167
 6074SOL    HW129858   2.124   1.613   9.206  0.3248 -0.1263 -0.5388
 6074SOL    HW229859   2.057   1.537   9.100  0.9592  1.4177  0.1710
 6075SOL     OW29860   4.039   0.401   2.939 -0.5707 -0.8958 -0.1141
 6075SOL    HW129861   4.101   0.474   2.942  0.3451 -1.7801  1.8740
 6075SOL    HW229862   4.051   0.353   3.021 -1.5046  1.9907  1.7225
 6076SOL     OW29863   0.468   3.547   4.915 -0.3143  0.3982  0.6922
 6076SOL    HW129864   0.478   3.471   4.973 -0.9502 -0.4952 -0.3685
 6076SOL    HW229865   0.377   3.535   4.887 -0.3180  0.8313  0.5145
 6077SOL     OW29866   1.921   1.652   7.163 -0.2018 -0.0383 -0.0640
 6077SOL    HW129867   1.844   1.708   7.166 -0.7516 -0.8628  1.4117
 6077SOL    HW229868   1.978   1.704   7.219 -0.3242  2.3417 -2.1896
 6078SOL     OW29869   0.989   2.817  16.241  0.1173  0.2027 -0.1686
 6078SOL    HW129870   0.979   2.842  16.333  0.9682  1.0054 -0.2894
 6078SOL    HW229871   1.004   2.723  16.242 -0.1623  0.1459 -1.5946
 6079SOL     OW29872   3.611   1.082   0.502  0.1958  0.1869 -0.2487
 6079SOL    HW129873   3.594   1.037   0.586  0.2832  1.1653  0.2876
 6079SOL    HW229874   3.540   1.146   0.503 -3.0508 -3.4168 -0.1721
 6080SOL     OW29875   2.019   2.567   5.823  0.3894  0.0202 -0.0700
 6080SOL    HW129876   2.011   2.611   5.738 -0.3160  0.0241 -0.0016
 6080SOL    HW229877   2.105   2.587   5.859 -0.2999 -0.0527  1.6190
 6081SOL     OW29878   1.449   1.142   8.325  0.7048  0.4762  0.2432
 6081SOL    HW129879   1.462   1.106   8.412 -1.3862 -1.7983 -0.3828
 6081SOL    HW229880   1.538   1.176   8.314  0.7899 -0.0113 -0.6347
 6082SOL     OW29881   0.274   2.557   9.309 -0.3133  0.1064 -0.4734
 6082SOL    HW129882   0.290   2.615   9.384 -0.7032 -1.2169  0.6331
 6082SOL    HW229883   0.264   2.475   9.358  1.9285  1.3796  2.1252
 6083SOL     OW29884   0.599   0.036  13.165 -0.5419  0.6118 -0.1000
 6083SOL    HW129885   0.519   0.018  13.116  0.0871 -1.3563 -0.3880
 6083SOL    HW229886   0.659   4.702  13.136  1.6644  2.3359  0.4114
 6084SOL     OW29887   3.386   2.373  16.279  0.2837 -0.2054 -0.0842
 6084SOL    HW129888   3.308   2.427  16.264 -0.8830 -2.4980 -2.3339
 6084SOL    HW229889   3.358   2.291  16.319  1.3652 -0.3746  0.3016
 6085SOL     OW29890   0.171   1.473   1.796 -0.2432 -0.3409  0.0868
 6085SOL    HW129891   0.081   1.454   1.769 -0.7730  0.1548  1.4864
 6085SOL    HW229892   0.213   1.422   1.727 -2.8290 -2.2477 -0.0648
 6086SOL     OW29893   1.820   4.559   3.046  0.7700 -0.0142  0.8689
 6086SOL    HW129894   1.863   4.603   3.120 -0.7839  1.0859  1.1147
 6086SOL    HW229895   1.776   4.636   3.009 -1.6718 -2.4009 -1.1541
 6087SOL     OW29896   3.709   3.501   6.609 -0.5193 -0.1848  0.1897
 6087SOL    HW129897   3.752   3.524   6.527 -0.2899  0.3894  0.4682
 6087SOL    HW229898   3.655   3.433   6.569 -1.3624  0.4075  0.3152
 6088SOL     OW29899   1.272   1.791   5.799  0.1945 -0.2943 -0.5704
 6088SOL    HW129900   1.334   1.719   5.807  0.6064 -0.2463 -3.6789
 6088SOL    HW229901   1.338   1.860   5.810 -0.3389  0.1907 -0.4075
 6089SOL     OW29902   0.133   0.042   1.802 -0.1186 -0.0933 -0.3375
 6089SOL    HW129903   0.069   4.711   1.775 -0.3553 -0.1984  0.4885
 6089SOL    HW229904   0.100   0.076   1.884  1.8400  0.2537  0.3048
 6090SOL     OW29905   1.265   0.049   6.168  0.4549  0.8248 -0.3455
 6090SOL    HW129906   1.215   4.718   6.217 -0.3842  0.4489 -1.7089
 6090SOL    HW229907   1.260   0.126   6.224 -1.8917 -0.0379  0.6417
 6091SOL     OW29908   2.116   1.600   2.353 -0.0429 -0.0492 -0.2538
 6091SOL    HW129909   2.022   1.586   2.344 -0.1779 -0.2510  1.4563
 6091SOL    HW229910   2.150   1.545   2.283  0.8728 -1.1112  1.0258
 6092SOL     OW29911   4.486   1.230   5.982  0.1226  0.2654 -0.1367
 6092SOL    HW129912   4.471   1.186   6.066 -0.3735  2.0604  0.7118
 6092SOL    HW229913   4.477   1.156   5.922  1.3223  1.2862 -1.5662
 6093SOL     OW29914   3.434   0.506  16.959 -0.2840  0.0974 -0.6962
 6093SOL    HW129915   3.356   0.557  16.937 -0.0357  0.5681 -0.5025
 6093SOL    HW229916   3.426   0.422  16.914  2.4244  0.1427 -1.2329
 6094SOL     OW29917   0.170   0.392   2.287 -0.4069  0.1451  0.0884
 6094SOL    HW129918   0.143   0.448   2.215 -1.3565  0.8454  0.9839
 6094SOL    HW229919   0.085   0.391   2.330 -0.9625  1.5849 -0.9674
 6095SOL     OW29920   3.051   3.354   2.672 -0.1223  0.1313  0.1420
 6095SOL    HW129921   3.046   3.309   2.756 -1.2839  0.9946  0.5276
 6095SOL    HW229922   2.958   3.357   2.650  0.5639 -1.1192 -2.9992
 6096SOL     OW29923   0.014   2.566  11.312  0.2760  0.4901 -0.1543
 6096SOL    HW129924   4.689   2.505  11.268  1.5773 -1.5873  1.0184
 6096SOL    HW229925   0.059   2.525  11.385  1.9479  1.4868 -0.6160
 6097SOL     OW29926   3.018   0.494   3.880  0.3634  0.0638  0.5328
 6097SOL    HW129927   3.112   0.479   3.872  0.4092  0.3653  0.5008
 6097SOL    HW229928   3.021   0.505   3.975 -1.0687 -2.5261  0.8640
 6098SOL     OW29929   0.052   2.823  13.753 -0.3443  0.2326  0.1028
 6098SOL    HW129930   0.020   2.734  13.739  2.6241 -0.9101  0.6511
 6098SOL    HW229931   0.018   2.854  13.669 -0.6655  0.2028  0.2202
 6099SOL     OW29932   4.534   2.535   5.916 -0.3077 -0.4320  0.2234
 6099SOL    HW129933   4.590   2.471   5.958  0.0509  1.6453  2.8870
 6099SOL    HW229934   4.580   2.614   5.946 -1.8609  1.1972 -1.7012
 6100SOL     OW29935   1.346   4.649   1.926  0.2139  0.0653  0.6043
 6100SOL    HW129936   1.407   4.576   1.939  0.3556 -0.1177 -1.0818
 6100SOL    HW229937   1.377   4.725   1.976  3.0178  0.5743 -1.9268
 6101SOL     OW29938   4.239   2.391   6.480 -0.0763 -0.6058 -0.3499
 6101SOL    HW129939   4.331   2.388   6.453  0.1414  0.9611  0.1937
 6101SOL    HW229940   4.198   2.318   6.434 -0.2662  0.4858 -1.8911
 6102SOL     OW29941   3.272   0.650  15.814  0.3210 -0.0113 -0.0933
 6102SOL    HW129942   3.281   0.733  15.861  0.4705 -1.1945  1.9550
 6102SOL    HW229943   3.322   0.594  15.873 -0.5849  0.0615  0.7449
 6103SOL     OW29944   4.366   4.083  10.066 -0.2407  0.5794  0.3468
 6103SOL    HW129945   4.298   4.128  10.016  0.8491  2.0831  0.2269
 6103SOL    HW229946   4.391   4.149  10.130  0.6140 -0.2333  0.8694
 6104SOL     OW29947   1.952   1.631  13.652 -0.1585  0.2129  0.2707
 6104SOL    HW129948   1.996   1.668  13.576 -2.7088 -0.8453 -1.6809
 6104SOL    HW229949   1.984   1.684  13.725 -2.3854 -1.8113  2.7631
 6105SOL     OW29950   1.909   4.144  12.604 -0.3646 -0.2512  0.0345
 6105SOL    HW129951   1.999   4.132  12.573  0.6021  0.6923  2.4041
 6105SOL    HW229952   1.867   4.158  12.519  1.8283 -1.6673 -1.2824
 6106SOL     OW29953   2.311   2.896   5.069  0.7392 -0.2344  0.0236
 6106SOL    HW129954   2.290   2.990   5.074 -0.5648 -0.5475  0.5164
 6106SOL    HW229955   2.297   2.870   5.160  0.6383  1.6320  0.5517
 6107SOL     OW29956   3.088   0.290   7.340  0.0829  0.1234 -0.2539
 6107SOL    HW129957   3.057   0.351   7.273  0.3404  1.2635  0.6608
 6107SOL    HW229958   3.026   0.306   7.411  2.0279 -2.0640  1.9405
 6108SOL     OW29959   0.736   3.758  17.650  0.2636 -0.0991  0.7467
 6108SOL    HW129960   0.717   3.847  17.679 -0.8967 -1.0130  2.8070
 6108SOL    HW229961   0.655   3.708  17.662  1.6774 -2.9768 -1.6219
 6109SOL     OW29962   0.240   1.692  14.423 -0.5645 -0.1916  0.4990
 6109SOL    HW129963   0.276   1.685  14.335 -0.3603  1.6246  0.4262
 6109SOL    HW229964   0.173   1.760  14.408 -1.4785 -0.6747  2.3212
 6110SOL     OW29965   2.398   2.513   4.197  0.4037  0.3135  0.5167
 6110SOL    HW129966   2.337   2.578   4.232  1.3302  1.1903  0.4816
 6110SOL    HW229967   2.473   2.530   4.254  1.1552  1.8464 -0.9514
 6111SOL     OW29968   3.238   3.867   5.505  0.1858  0.1946 -0.1762
 6111SOL    HW129969   3.192   3.782   5.501 -1.5449  1.1250 -0.2010
 6111SOL    HW229970   3.218   3.891   5.596  1.9442 -0.2552  0.3282
 6112SOL     OW29971   3.146   0.897   7.471 -0.5076 -0.2673 -0.1292
 6112SOL    HW129972   3.069   0.931   7.425 -0.7889 -1.6878 -0.7047
 6112SOL    HW229973   3.109   0.872   7.556  0.9350 -0.0717  0.5634
 6113SOL     OW29974   1.669   4.099   9.780  0.1455 -0.0605 -0.7215
 6113SOL    HW129975   1.718   4.115   9.699 -0.3244 -0.2855 -1.0527
 6113SOL    HW229976   1.588   4.136   9.743  1.3109  2.6299 -0.5900
 6114SOL     OW29977   2.023   0.123   6.339 -0.6581 -0.1955 -0.2740
 6114SOL    HW129978   2.006   0.029   6.324 -0.1068 -0.3419  0.0226
 6114SOL    HW229979   2.039   0.151   6.249  2.7415  0.7286  0.6292
 6115SOL     OW29980   1.292   0.891   3.242 -0.0379  0.0019 -0.1926
 6115SOL    HW129981   1.266   0.982   3.227 -0.3180 -0.4232 -2.2132
 6115SOL    HW229982   1.387   0.893   3.257 -0.0673  0.3019 -0.0322
 6116SOL     OW29983   1.089   3.479   6.166  0.7789  0.2620 -0.1646
 6116SOL    HW129984   1.103   3.559   6.116 -0.2055  1.9573  2.2980
 6116SOL    HW229985   1.137   3.510   6.243  1.1936 -0.7181 -0.0236
 6117SOL     OW29986   2.419   4.065   5.223 -0.2111 -0.0795 -0.3640
 6117SOL    HW129987   2.416   4.160   5.213  2.1516  0.1399  0.8672
 6117SOL    HW229988   2.334   4.054   5.181  0.1271  2.4186 -1.7023
 6118SOL     OW29989   1.407   3.030   8.569  0.2792  0.0378 -0.2720
 6118SOL    HW129990   1.374   3.113   8.602  2.4306  0.6684  0.3244
 6118SOL    HW229991   1.332   2.974   8.587 -0.0539 -0.1738 -2.2583
 6119SOL     OW29992   1.267   3.594   3.138  0.2128  0.4490 -0.2607
 6119SOL    HW129993   1.228   3.620   3.222 -2.2403  0.1890 -1.3255
 6119SOL    HW229994   1.326   3.523   3.163 -1.9795 -0.8917  1.1944
 6120SOL     OW29995   2.166   2.672   8.380  0.0954  1.0413 -0.4712
 6120SOL    HW129996   2.103   2.740   8.355 -0.4223  0.1216 -1.6753
 6120SOL    HW229997   2.212   2.719   8.449  0.9880 -0.5807  0.0255
 6121SOL     OW29998   2.795   4.209   4.237 -0.1011 -0.4179 -0.2760
 6121SOL    HW129999   2.810   4.303   4.249 -1.4114  0.0792 -2.5907
 6121SOL    HW230000   2.883   4.175   4.249  0.5150  1.5127  0.8704
 6122SOL     OW30001   0.492   4.291  13.117  0.3080 -0.5168  0.3804
 6122SOL    HW130002   0.445   4.313  13.036  0.9627  1.4883  0.5548
 6122SOL    HW230003   0.538   4.373  13.132 -0.2258  0.0155 -0.9564
 6123SOL     OW30004   0.890   1.977  15.366 -0.2025 -0.3239 -0.3226
 6123SOL    HW130005   0.806   1.984  15.413  0.1556 -0.2872  0.3118
 6123SOL    HW230006   0.954   2.021  15.422 -1.4382 -0.6518  1.3732
 6124SOL     OW30007   2.245   3.641   9.956 -0.1604 -0.4379  0.4836
 6124SOL    HW130008   2.184   3.705   9.993 -0.5788 -0.5740  0.0292
 6124SOL    HW230009   2.297   3.700   9.900 -0.1646 -0.1201  0.8125
 6125SOL     OW30010   0.914   0.117  14.661 -0.0599 -0.8284 -0.3475
 6125SOL    HW130011   0.999   0.079  14.637 -0.2602 -0.6447 -1.3399
 6125SOL    HW230012   0.871   0.040  14.697  0.3637  0.0206  1.9637
 6126SOL     OW30013   2.329   0.456   2.074 -0.2665  0.1913  0.3286
 6126SOL    HW130014   2.355   0.370   2.039  0.5162  0.0668  1.2193
 6126SOL    HW230015   2.298   0.429   2.160  1.4486  0.4973  1.0362
 6127SOL     OW30016   3.904   3.813   8.989  0.5543 -0.0140  0.3171
 6127SOL    HW130017   3.982   3.759   8.998  3.3372  3.5564 -2.1141
 6127SOL    HW230018   3.841   3.770   9.045  0.3706  0.5661  0.5609
 6128SOL     OW30019   4.180   1.171   4.846 -0.1478 -0.2407  0.0181
 6128SOL    HW130020   4.188   1.263   4.871  1.4299 -1.0790  2.5649
 6128SOL    HW230021   4.274   1.159   4.831 -0.0041  1.5092 -0.4698
 6129SOL     OW30022   2.590   2.935   0.221  0.0377  0.2002  0.0251
 6129SOL    HW130023   2.590   2.922   0.316 -2.0633 -2.7326 -0.3721
 6129SOL    HW230024   2.592   3.030   0.217 -0.6731  0.3172  2.4296
 6130SOL     OW30025   0.249   2.341   2.470  0.0481 -0.7063  0.2065
 6130SOL    HW130026   0.298   2.277   2.522 -0.3095 -1.6253 -0.6062
 6130SOL    HW230027   0.162   2.300   2.468 -1.7849  3.1384  0.9881
 6131SOL     OW30028   0.169   3.980   6.559 -0.2609 -0.1104  0.4831
 6131SOL    HW130029   0.117   3.993   6.480  1.1373  0.0840 -0.4015
 6131SOL    HW230030   0.206   4.066   6.579 -0.6325  0.0899  0.2871
 6132SOL     OW30031   0.416   3.056   4.018 -0.2557 -0.8741 -0.1943
 6132SOL    HW130032   0.460   3.091   3.941 -1.7582  1.9832  0.2514
 6132SOL    HW230033   0.385   2.970   3.991 -0.7891 -1.0680  1.0024
 6133SOL     OW30034   1.471   2.384   4.649 -0.4818  0.3965  0.1295
 6133SOL    HW130035   1.398   2.380   4.588 -0.6887 -0.0614  0.4097
 6133SOL    HW230036   1.508   2.472   4.639 -0.5089  0.1830 -1.6884
 6134SOL     OW30037   2.777   3.806   2.008  0.4365  0.3201 -0.2610
 6134SOL    HW130038   2.868   3.817   2.036  0.2249 -0.0937  0.5865
 6134SOL    HW230039   2.737   3.765   2.085 -3.6749  0.0969 -2.5071
 6135SOL     OW30040   1.949   4.261   6.377  0.0766  0.3532 -0.4361
 6135SOL    HW130041   1.949   4.187   6.438  0.0865 -0.8885 -1.9385
 6135SOL    HW230042   2.034   4.271   6.335 -0.1031  0.1274 -0.8539
 6136SOL     OW30043   3.042   0.826  11.446  0.1485  0.8749  0.1966
 6136SOL    HW130044   3.093   0.785  11.516  0.5155  0.6962 -0.1751
 6136SOL    HW230045   2.962   0.854  11.491 -1.2436 -0.0055 -1.7114
 6137SOL     OW30046   0.198   2.337   5.360  0.2037 -0.2928  0.3327
 6137SOL    HW130047   0.110   2.309   5.333  0.3391 -0.4832  0.1013
 6137SOL    HW230048   0.256   2.277   5.315  1.1268  1.5877 -0.9814
 6138SOL     OW30049   2.558   2.845   9.184  0.0498  0.6051  0.0799
 6138SOL    HW130050   2.529   2.821   9.096  1.1847  0.4499 -0.2458
 6138SOL    HW230051   2.603   2.763   9.200 -0.3716  0.4786  0.6548
 6139SOL     OW30052   1.190   3.328   2.920  0.0340  0.3950 -0.2097
 6139SOL    HW130053   1.169   3.362   3.007  1.3664 -1.5456  0.8755
 6139SOL    HW230054   1.205   3.234   2.926  1.1462  0.5411 -0.6195
 6140SOL     OW30055   0.880   2.884  16.498  0.0764 -0.1962  0.5624
 6140SOL    HW130056   0.806   2.823  16.498 -0.2837  0.2371  0.2066
 6140SOL    HW230057   0.945   2.843  16.554  1.1026  0.2628 -0.2857
 6141SOL     OW30058   0.482   3.290   5.527  0.1643  0.1482  0.2724
 6141SOL    HW130059   0.530   3.346   5.587  1.8998 -1.9559  0.8476
 6141SOL    HW230060   0.414   3.262   5.589 -0.3945 -0.5373 -0.6436
 6142SOL     OW30061   4.091   2.626   1.772  0.2206 -0.2921 -0.2850
 6142SOL    HW130062   4.157   2.695   1.765 -1.7647  1.7398  0.8059
 6142SOL    HW230063   4.022   2.661   1.715 -0.0332 -1.0485 -0.4379
 6143SOL     OW30064   0.306   1.133   7.432 -0.4693 -0.1404 -0.3431
 6143SOL    HW130065   0.318   1.110   7.340  1.9509  0.3289 -0.1325
 6143SOL    HW230066   0.284   1.049   7.473  1.5246 -0.4132  0.1727
 6144SOL     OW30067   0.647   3.289  15.609  0.0305 -0.7655 -0.3090
 6144SOL    HW130068   0.675   3.255  15.524 -0.1244 -0.7598 -0.3614
 6144SOL    HW230069   0.588   3.357  15.577  0.7642  0.5546  1.1216
 6145SOL     OW30070   2.353   4.518  17.582 -0.3340  0.4264 -0.1834
 6145SOL    HW130071   2.419   4.515  17.512 -1.0244 -0.0595 -0.8115
 6145SOL    HW230072   2.399   4.557  17.657  1.0045 -2.0566  0.3042
 6146SOL     OW30073   0.089   0.346   8.292  0.6798  0.2267 -0.6144
 6146SOL    HW130074   0.009   0.380   8.251  0.9706  1.9973  0.2579
 6146SOL    HW230075   0.063   0.254   8.289 -2.9860  1.2996 -1.9240
 6147SOL     OW30076   1.237   1.990  17.410  0.2781 -0.2507 -0.9327
 6147SOL    HW130077   1.183   2.010  17.486  1.3426 -0.9241  0.0099
 6147SOL    HW230078   1.325   2.002  17.446 -0.2643  0.5410  0.1043
 6148SOL     OW30079   0.450   2.813   2.391  0.1908 -0.5458 -0.2659
 6148SOL    HW130080   0.420   2.784   2.305 -1.0745  1.2772 -0.4490
 6148SOL    HW230081   0.398   2.756   2.448  0.5914 -0.5326  0.1104
 6149SOL     OW30082   4.126   4.465   4.498 -0.3217  0.7371 -0.1712
 6149SOL    HW130083   4.072   4.489   4.423  0.7777 -0.5793 -1.3696
 6149SOL    HW230084   4.114   4.546   4.548 -0.2432 -0.5419  1.9282
 6150SOL     OW30085   1.062   2.853  10.021  0.2803 -0.4133 -0.3853
 6150SOL    HW130086   1.083   2.944  10.002 -2.8573 -0.1187 -2.3674
 6150SOL    HW230087   0.972   2.857  10.052 -0.1081 -2.0826 -1.2792
 6151SOL     OW30088   1.959   4.211  11.375  0.4058  0.7061  0.5134
 6151SOL    HW130089   2.014   4.210  11.453 -0.0516  2.7939  0.8428
 6151SOL    HW230090   1.882   4.251  11.416 -0.9708 -1.8692  0.4614
 6152SOL     OW30091   0.510   3.690  12.448  0.3708 -0.1066  0.2550
 6152SOL    HW130092   0.526   3.628  12.520  3.2367 -0.8482 -1.0127
 6152SOL    HW230093   0.511   3.772  12.498 -1.7280 -0.4654  0.8950
 6153SOL     OW30094   4.227   1.661   4.534  0.0203 -0.6910  0.2029
 6153SOL    HW130095   4.175   1.638   4.611  0.9426  1.3641  1.4355
 6153SOL    HW230096   4.265   1.743   4.568 -0.3772 -0.6024  0.4333
 6154SOL     OW30097   1.865   4.362   6.996 -0.4116  0.0934  0.2577
 6154SOL    HW130098   1.789   4.391   6.945  0.1057  1.7746  0.4357
 6154SOL    HW230099   1.936   4.401   6.945  0.5564  0.3891  1.8292
 6155SOL     OW30100   0.101   3.388   4.010 -0.2346 -0.3647  0.4766
 6155SOL    HW130101   0.129   3.386   4.102 -0.2069 -0.4937  0.4643
 6155SOL    HW230102   0.143   3.466   3.973 -1.1781 -0.1361 -0.1151
 6156SOL     OW30103   4.645   4.215  13.741  0.0678  0.2471 -0.1632
 6156SOL    HW130104   4.569   4.177  13.695  0.1797  0.2565 -0.3579
 6156SOL    HW230105   4.668   4.136  13.790  2.4384  0.4383 -0.9627
 6157SOL     OW30106   2.142   1.299   8.105 -0.0278 -0.1903  0.6813
 6157SOL    HW130107   2.104   1.287   8.018 -2.7845 -1.2006  2.0236
 6157SOL    HW230108   2.160   1.393   8.098 -0.9000 -0.0507  0.3060
 6158SOL     OW30109   4.144   2.188  14.249  0.4693 -0.6361  0.3112
 6158SOL    HW130110   4.137   2.170  14.155 -1.5243  1.4264  0.0645
 6158SOL    HW230111   4.054   2.195  14.278 -0.5688  2.3367 -3.5951
 6159SOL     OW30112   4.537   2.866   5.348  0.2131  0.5219 -0.6171
 6159SOL    HW130113   4.459   2.814   5.330  0.0556  0.3951  0.4363
 6159SOL    HW230114   4.503   2.949   5.381 -0.9895  0.0845 -0.7633
 6160SOL     OW30115   1.171   2.156   7.361  0.4154 -0.5208 -0.1331
 6160SOL    HW130116   1.086   2.118   7.338 -0.3766  1.5027 -0.5645
 6160SOL    HW230117   1.156   2.191   7.449  1.2129 -2.2501  0.6851
 6161SOL     OW30118   2.543   4.712   2.652  0.1646  0.1632  0.5531
 6161SOL    HW130119   2.529   4.673   2.566  0.2418 -1.5466  1.2999
 6161SOL    HW230120   2.603   0.051   2.641  0.5685 -0.2960 -0.3123
 6162SOL     OW30121   1.743   1.478  13.700 -0.0018  0.4888 -0.3589
 6162SOL    HW130122   1.821   1.518  13.663  0.4213 -1.2220 -1.2951
 6162SOL    HW230123   1.689   1.557  13.704 -0.1279  0.4218 -0.7788
 6163SOL     OW30124   1.177   1.530   2.951  0.0063 -0.6417 -0.1158
 6163SOL    HW130125   1.245   1.597   2.952 -1.6403  1.0458 -1.6233
 6163SOL    HW230126   1.232   1.463   2.909  0.8009  0.8519 -1.4473
 6164SOL     OW30127   2.956   4.070   8.043 -0.1785 -0.4169  0.1878
 6164SOL    HW130128   2.960   4.138   7.975  2.3516  0.6799  1.4404
 6164SOL    HW230129   2.868   4.035   8.030  0.0342 -0.3098 -1.4996
 6165SOL     OW30130   2.449   1.971  12.083 -0.5208  0.2303 -0.2725
 6165SOL    HW130131   2.391   2.002  12.152  1.9596  2.1370  0.9374
 6165SOL    HW230132   2.381   1.942  12.023 -0.3252 -1.5110  0.3293
 6166SOL     OW30133   1.503   0.788   7.065 -0.7610 -0.4242 -0.3749
 6166SOL    HW130134   1.497   0.723   6.995 -0.9728  0.8563 -1.5457
 6166SOL    HW230135   1.565   0.739   7.118 -0.2862  2.0121  1.3509
 6167SOL     OW30136   2.752   1.786   8.393  0.1706  0.2350 -0.4305
 6167SOL    HW130137   2.787   1.836   8.467  1.4210 -0.6518 -0.4351
 6167SOL    HW230138   2.671   1.760   8.437  0.6946  1.8760  1.5387
 6168SOL     OW30139   2.338   2.391   5.002  0.4553 -0.3736 -0.0143
 6168SOL    HW130140   2.254   2.398   5.046  0.3880 -0.4604 -0.1306
 6168SOL    HW230141   2.352   2.484   4.985  2.3619 -0.9753 -1.7842
 6169SOL     OW30142   2.427   3.413   0.487  0.3803 -0.1691 -0.4812
 6169SOL    HW130143   2.485   3.481   0.523 -0.3445 -1.0311  2.2633
 6169SOL    HW230144   2.404   3.463   0.409  0.8043  0.0467 -0.4701
 6170SOL     OW30145   0.116   0.806   7.876  0.2877 -0.0996  0.0715
 6170SOL    HW130146   0.181   0.866   7.912 -0.0603 -0.0128  0.5512
 6170SOL    HW230147   0.168   0.752   7.817 -1.9792  0.0382 -2.0881
 6171SOL     OW30148   2.637   4.289   7.190  0.5476  0.6128 -0.5484
 6171SOL    HW130149   2.601   4.333   7.113 -0.7202 -1.7427 -1.2753
 6171SOL    HW230150   2.575   4.316   7.257  2.2197  0.4717  1.0531
 6172SOL     OW30151   3.554   1.650  11.536 -0.2060 -0.6919  0.0360
 6172SOL    HW130152   3.521   1.584  11.476  1.4498 -0.5506 -1.0236
 6172SOL    HW230153   3.572   1.606  11.619 -0.0762 -1.6155 -0.4895
 6173SOL     OW30154   0.754   0.918  10.117  0.3000  0.3061  0.0128
 6173SOL    HW130155   0.704   0.994  10.146  2.0043  0.9623  1.1779
 6173SOL    HW230156   0.781   0.878  10.200  2.6031 -0.6920 -1.1893
 6174SOL     OW30157   3.956   0.847  16.102  0.0815 -0.0821  0.1505
 6174SOL    HW130158   3.936   0.832  16.194  4.9598  0.3503  1.2389
 6174SOL    HW230159   3.903   0.924  16.079  0.4097  0.2137  0.3906
 6175SOL     OW30160   0.465   0.505   2.135 -0.3928 -0.2566  0.0936
 6175SOL    HW130161   0.548   0.474   2.099 -0.4623 -0.1848 -0.1289
 6175SOL    HW230162   0.482   0.599   2.124  1.9357 -0.6772 -0.0625
 6176SOL     OW30163   1.215   1.387   4.240 -0.8017 -0.1755 -0.1077
 6176SOL    HW130164   1.191   1.295   4.254 -1.4129 -0.0782 -0.5393
 6176SOL    HW230165   1.132   1.422   4.208  0.4424  1.8126 -1.1375
 6177SOL     OW30166   4.356   1.329   2.934 -0.1951  0.0805  0.3070
 6177SOL    HW130167   4.439   1.318   2.980  0.4027  0.8822 -0.5934
 6177SOL    HW230168   4.366   1.417   2.898  0.3262  0.4174  1.2565
 6178SOL     OW30169   3.542   0.035   3.287 -1.0078 -0.2847  0.8852
 6178SOL    HW130170   3.576   0.027   3.198 -0.9033  4.1133  0.5101
 6178SOL    HW230171   3.447   0.037   3.273 -0.6226  0.4434 -1.6222
 6179SOL     OW30172   2.291   3.576   9.065 -0.0331  0.3309 -0.3709
 6179SOL    HW130173   2.332   3.489   9.068 -0.7637 -0.0132 -0.2325
 6179SOL    HW230174   2.353   3.627   9.013  0.7573  1.0552  1.2620
 6180SOL     OW30175   3.076   3.109   2.069 -0.6327  0.2624  0.0401
 6180SOL    HW130176   3.167   3.103   2.095 -1.3116  0.3201  2.3806
 6180SOL    HW230177   3.071   3.050   1.994  0.2327  0.6149 -0.2977
 6181SOL     OW30178   3.554   4.444   2.435 -0.0740  0.4566  0.5435
 6181SOL    HW130179   3.647   4.456   2.415 -0.3023  1.1989 -0.0872
 6181SOL    HW230180   3.554   4.366   2.490  1.4087  0.5280  0.6599
 6182SOL     OW30181   4.506   2.771   6.829  0.3260  0.4953  0.0196
 6182SOL    HW130182   4.567   2.730   6.767  1.2763  0.0974  1.2320
 6182SOL    HW230183   4.565   2.806   6.895 -0.8633 -0.9842  1.8647
 6183SOL     OW30184   0.591   1.756   7.193  0.2405 -0.5021 -0.4731
 6183SOL    HW130185   0.641   1.809   7.255  0.4481 -1.6536  0.3420
 6183SOL    HW230186   0.571   1.825   7.130 -1.7798 -0.9343 -0.3195
 6184SOL     OW30187   2.586   4.107   7.860 -0.5389  0.2797  0.3805
 6184SOL    HW130188   2.499   4.110   7.822 -1.4857 -2.6145  2.2732
 6184SOL    HW230189   2.586   4.024   7.908 -0.0612  0.8961  1.4583
 6185SOL     OW30190   4.568   2.338   8.180 -0.5195 -0.3776  0.8434
 6185SOL    HW130191   4.597   2.375   8.096 -0.2930 -1.6408  0.3684
 6185SOL    HW230192   4.475   2.361   8.179 -0.3536  0.3100  1.4053
 6186SOL     OW30193   3.927   0.596   2.227 -0.4192  0.2851 -0.4268
 6186SOL    HW130194   3.936   0.691   2.234 -1.9760  0.5865 -2.6768
 6186SOL    HW230195   3.894   0.577   2.315  0.6356 -0.1140 -0.1183
 6187SOL     OW30196   4.243   2.779   5.468 -0.2383  0.0930  0.3415
 6187SOL    HW130197   4.283   2.695   5.447 -0.0351  1.0028 -2.9626
 6187SOL    HW230198   4.151   2.766   5.445  0.4555 -1.6843 -1.3671
 6188SOL     OW30199   1.509   3.222   7.128 -0.6286 -0.7892 -0.1235
 6188SOL    HW130200   1.564   3.298   7.108 -0.4815 -0.9143 -0.1938
 6188SOL    HW230201   1.574   3.164   7.169 -1.4715 -1.4635  0.2595
 6189SOL     OW30202   4.570   1.038  16.934 -0.1147 -0.8528  0.1834
 6189SOL    HW130203   4.573   0.952  16.974 -0.5307 -0.8183  0.2797
 6189SOL    HW230204   4.561   1.020  16.840  0.3232  1.0146 -0.2198
 6190SOL     OW30205   4.707   3.157   3.693 -0.0926  0.1673 -0.2679
 6190SOL    HW130206   0.037   3.195   3.634 -0.3673  2.1303  0.6765
 6190SOL    HW230207   4.632   3.146   3.636 -0.3596 -0.1208  0.1351
 6191SOL     OW30208   1.184   0.608   6.776  0.3542 -0.6685  0.1031
 6191SOL    HW130209   1.262   0.637   6.729  0.2838 -1.4854 -0.5166
 6191SOL    HW230210   1.141   0.693   6.786  0.2091 -1.0189  2.3193
 6192SOL     OW30211   3.563   3.797  11.359  0.0407 -0.5107  0.0141
 6192SOL    HW130212   3.483   3.802  11.307 -0.4303  3.1725  1.0875
 6192SOL    HW230213   3.558   3.706  11.389  1.0412 -0.1272  1.3777
 6193SOL     OW30214   4.724   1.275   5.245  0.0162  0.3226 -0.0626
 6193SOL    HW130215   4.712   1.236   5.159  0.9030  1.3335 -0.6344
 6193SOL    HW230216   0.084   1.281   5.256 -0.0140 -0.3491  0.6065
 6194SOL     OW30217   4.617   2.872   3.163  0.0921 -0.2695  0.2060
 6194SOL    HW130218   4.653   2.909   3.083  2.4133 -0.5118  1.1607
 6194SOL    HW230219   4.530   2.912   3.172 -0.2314 -1.0553  0.6196
 6195SOL     OW30220   3.347   4.322   6.571  0.3099 -1.0636 -0.1645
 6195SOL    HW130221   3.328   4.405   6.529  0.5624  0.1219  2.0467
 6195SOL    HW230222   3.285   4.327   6.644  2.6521  0.4862  1.7491
 6196SOL     OW30223   1.471   1.789  10.100 -0.3668  0.0124  0.4387
 6196SOL    HW130224   1.538   1.857  10.097 -0.2008 -0.2450 -1.5509
 6196SOL    HW230225   1.398   1.838  10.138  0.6896  1.5943  0.4169
 6197SOL     OW30226   4.050   3.057   3.211 -0.2971 -0.0620 -0.0932
 6197SOL    HW130227   3.966   3.104   3.208 -0.7860 -0.8493  1.5227
 6197SOL    HW230228   4.039   2.979   3.157 -0.0737 -0.8734  1.0207
 6198SOL     OW30229   1.779   2.889   6.146  0.4964 -0.3001  0.0985
 6198SOL    HW130230   1.855   2.931   6.104 -0.5630  0.7152 -0.8107
 6198SOL    HW230231   1.770   2.804   6.102 -0.5473  0.8745 -1.9485
 6199SOL     OW30232   3.433   3.708   3.142  0.0196 -0.2654 -0.6736
 6199SOL    HW130233   3.485   3.671   3.070  0.5407  0.0762 -0.4720
 6199SOL    HW230234   3.432   3.631   3.199  0.3965 -0.5040 -0.9812
 6200SOL     OW30235   4.538   2.244   2.382  0.1097  0.2727  0.1032
 6200SOL    HW130236   4.515   2.162   2.426  0.9920 -0.6604 -1.1572
 6200SOL    HW230237   4.560   2.296   2.459  1.7644 -1.4074  0.7886
 6201SOL     OW30238   4.573   0.746   9.587  0.4449 -0.0487  0.0799
 6201SOL    HW130239   4.516   0.818   9.563 -0.1351 -0.3959  0.4080
 6201SOL    HW230240   4.601   0.772   9.675  0.3080  0.2323  0.0397
 6202SOL     OW30241   0.318   3.554   5.319 -0.1671  0.4426  0.0646
 6202SOL    HW130242   0.267   3.478   5.290 -0.4807  1.1380 -1.2304
 6202SOL    HW230243   0.266   3.604   5.382 -0.0470  0.8942 -0.1942
 6203SOL     OW30244   1.211   0.979  11.744 -0.2746 -0.2920 -0.0448
 6203SOL    HW130245   1.129   1.004  11.786  0.8141  0.5906  1.5555
 6203SOL    HW230246   1.268   0.964  11.820 -1.9466 -0.5180  1.1565
 6204SOL     OW30247   1.883   2.662  16.213 -0.7190 -0.0226  0.1022
 6204SOL    HW130248   1.960   2.666  16.269 -0.3340 -2.8104 -0.2030
 6204SOL    HW230249   1.888   2.750  16.175 -3.0931 -1.6657 -4.0547
 6205SOL     OW30250   2.514   0.417   8.348 -1.1581 -0.5046 -0.1597
 6205SOL    HW130251   2.597   0.396   8.390  0.5325 -0.5834 -3.5253
 6205SOL    HW230252   2.537   0.434   8.256  0.0827 -0.2559  0.2090
 6206SOL     OW30253   0.418   4.014   4.368  0.2415  0.0255  0.2724
 6206SOL    HW130254   0.481   4.042   4.302 -0.9984  0.2968 -0.7909
 6206SOL    HW230255   0.425   4.085   4.432 -2.7989  1.9339 -1.5264
 6207SOL     OW30256   4.640   2.257  14.895  0.2506 -0.7869  0.5504
 6207SOL    HW130257   4.596   2.180  14.931 -1.9233 -0.4539 -1.3986
 6207SOL    HW230258   4.612   2.320  14.962  0.6432 -0.5298  0.4792
 6208SOL     OW30259   3.933   1.637   8.718 -0.3755  0.0147  0.5337
 6208SOL    HW130260   4.011   1.636   8.662 -0.9675  0.1510 -0.2933
 6208SOL    HW230261   3.951   1.565   8.778  2.4063 -0.3645 -0.7256
 6209SOL     OW30262   2.915   3.129   7.828 -0.3252 -0.3619 -0.2163
 6209SOL    HW130263   2.840   3.074   7.808 -0.1274 -0.6731 -0.1077
 6209SOL    HW230264   2.878   3.212   7.860 -2.4483 -1.2970 -0.2431
 6210SOL     OW30265   2.413   1.870  16.651  0.2366 -0.8325  0.2368
 6210SOL    HW130266   2.334   1.918  16.677  0.2242  1.6400 -4.2501
 6210SOL    HW230267   2.443   1.911  16.570  1.6050 -0.2723  1.0447
 6211SOL     OW30268   2.156   3.232   9.280 -0.0883  0.9627  0.2794
 6211SOL    HW130269   2.108   3.314   9.293 -1.6029  0.1254  0.0120
 6211SOL    HW230270   2.245   3.245   9.312  0.4909  0.9938 -1.3451
 6212SOL     OW30271   4.711   1.800   6.037 -0.3265 -0.3876 -0.0590
 6212SOL    HW130272   0.019   1.716   6.018  0.9365  0.0603  0.7642
 6212SOL    HW230273   0.049   1.858   6.013  0.5554 -0.8816  1.4441
 6213SOL     OW30274   0.096   4.051   4.820  0.1263 -0.0761 -0.6135
 6213SOL    HW130275   0.038   3.988   4.864 -2.0206  1.3631 -1.3795
 6213SOL    HW230276   0.174   3.997   4.813 -0.0667 -0.3801 -0.4274
 6214SOL     OW30277   0.547   1.368   7.009 -0.3081  0.1434 -0.2824
 6214SOL    HW130278   0.513   1.372   7.098 -0.7841 -1.2031 -0.3987
 6214SOL    HW230279   0.471   1.411   6.970 -1.7981 -0.3103  2.1564
 6215SOL     OW30280   3.857   1.502   6.577 -0.5305  0.0444 -0.2018
 6215SOL    HW130281   3.788   1.475   6.637  0.4850  1.2381  1.5193
 6215SOL    HW230282   3.814   1.485   6.493 -0.0337 -0.7789 -0.2878
 6216SOL     OW30283   0.023   3.714  10.806  0.0714  0.1266  0.0794
 6216SOL    HW130284   4.674   3.761  10.814  0.6093  0.7720  1.9666
 6216SOL    HW230285   0.079   3.763  10.866  0.8206 -2.3677  1.4074
 6217SOL     OW30286   3.172   4.463   5.413  0.3533 -0.7840  0.4597
 6217SOL    HW130287   3.172   4.530   5.481  1.7933 -2.0835  1.7213
 6217SOL    HW230288   3.135   4.394   5.468  0.1890 -0.2241  1.0453
 6218SOL     OW30289   3.853   4.328   5.120  0.1739 -0.2487 -0.4388
 6218SOL    HW130290   3.829   4.400   5.062  0.4281 -0.5735 -0.9508
 6218SOL    HW230291   3.874   4.261   5.055  2.9785 -0.2275  0.4633
 6219SOL     OW30292   3.525   1.913  12.709  0.8331  0.2008 -0.0215
 6219SOL    HW130293   3.575   1.994  12.703  2.4348 -0.5532  3.2506
 6219SOL    HW230294   3.527   1.897  12.803  1.5701  2.7039  0.3720
 6220SOL     OW30295   3.358   0.810   7.999 -0.1144 -0.5267 -0.1488
 6220SOL    HW130296   3.369   0.759   8.080  2.2640  0.9028  0.4263
 6220SOL    HW230297   3.402   0.754   7.935 -2.5549 -0.2841 -2.0215
 6221SOL     OW30298   3.121   0.750   8.608 -0.3061  0.6777  0.0296
 6221SOL    HW130299   3.071   0.785   8.681 -1.8495 -0.3706 -0.5208
 6221SOL    HW230300   3.081   0.792   8.532 -0.4369  2.7343  1.2552
 6222SOL     OW30301   1.256   3.768   4.341 -0.0916  0.6177  0.4436
 6222SOL    HW130302   1.327   3.710   4.368  1.5554  1.2775 -2.4376
 6222SOL    HW230303   1.288   3.852   4.309 -0.9261  0.4088 -0.9414
 6223SOL     OW30304   1.453   4.029  10.861  0.0287 -0.0325 -0.0063
 6223SOL    HW130305   1.394   4.077  10.919  0.5172 -1.1643  1.4138
 6223SOL    HW230306   1.529   4.030  10.919 -0.0498  0.8411  0.0898
 6224SOL     OW30307   1.960   4.175  13.446 -0.2427 -0.2420 -0.2651
 6224SOL    HW130308   1.986   4.223  13.367  0.9265  1.9533  1.4394
 6224SOL    HW230309   2.045   4.178  13.489 -0.0430  1.3487 -0.7611
 6225SOL     OW30310   2.865   2.917   2.603  0.1740 -0.4166 -0.5655
 6225SOL    HW130311   2.790   2.858   2.602 -0.7565  0.7499 -0.6264
 6225SOL    HW230312   2.832   2.969   2.677  0.8320 -0.1245 -0.4753
 6226SOL     OW30313   4.476   2.041   8.161 -0.3100  0.4750  0.5931
 6226SOL    HW130314   4.505   2.019   8.072  0.5398  3.0859  0.2443
 6226SOL    HW230315   4.502   2.133   8.158 -0.1434  0.4896  2.7643
 6227SOL     OW30316   3.725   2.198   8.256  0.2175  0.5084  0.2184
 6227SOL    HW130317   3.666   2.252   8.202 -0.2721  0.0114  0.2545
 6227SOL    HW230318   3.658   2.162   8.314  0.1013 -0.6758 -0.6544
 6228SOL     OW30319   0.860   0.999   6.143 -0.2464 -0.6969 -0.3239
 6228SOL    HW130320   0.941   1.049   6.136  0.0303 -1.1644 -0.4608
 6228SOL    HW230321   0.892   0.909   6.131  0.1632 -0.5930 -0.0074
 6229SOL     OW30322   1.207   2.327   3.962  0.1308 -0.2317 -0.5896
 6229SOL    HW130323   1.295   2.312   3.997  0.3004  0.9887 -0.5043
 6229SOL    HW230324   1.191   2.420   3.976  0.3528 -0.2510 -0.1839
 6230SOL     OW30325   0.434   1.095   7.993 -0.2510  0.4317  0.1334
 6230SOL    HW130326   0.418   1.020   7.935 -1.4255  0.8623 -0.0994
 6230SOL    HW230327   0.454   1.050   8.075  2.0800 -0.6646 -1.0252
 6231SOL     OW30328   4.562   2.491   8.926  0.2577  0.0918 -0.3786
 6231SOL    HW130329   4.612   2.411   8.915  1.5419  0.5452  2.0324
 6231SOL    HW230330   4.599   2.546   8.858 -2.2589  3.5332  1.0094
 6232SOL     OW30331   1.498   2.759   6.441 -0.1869 -0.1065  0.6712
 6232SOL    HW130332   1.572   2.716   6.399  0.0259 -0.2456  1.1784
 6232SOL    HW230333   1.438   2.684   6.447  1.2818 -1.3108  0.1351
 6233SOL     OW30334   0.061   0.725   9.413  0.4104  0.3208  0.2564
 6233SOL    HW130335   0.080   0.815   9.440  0.8821  0.2322  0.2169
 6233SOL    HW230336   4.715   0.709   9.463  0.4281 -1.3823 -0.2528
 6234SOL     OW30337   1.916   3.198   2.610  0.2976 -0.1866 -0.1243
 6234SOL    HW130338   1.925   3.207   2.705 -0.4733 -1.5062  0.0708
 6234SOL    HW230339   1.996   3.244   2.584  0.5424 -1.6626 -2.0173
 6235SOL     OW30340   4.637   4.430   4.905  0.1377 -0.3992  0.2175
 6235SOL    HW130341   4.545   4.403   4.900 -0.5030  2.1819 -2.0510
 6235SOL    HW230342   4.674   4.409   4.990 -0.0880 -0.3826  0.3196
 6236SOL     OW30343   4.235   1.376  10.832  0.4741  0.0380 -0.4166
 6236SOL    HW130344   4.327   1.383  10.855  0.7465 -0.5934 -1.2796
 6236SOL    HW230345   4.199   1.464  10.838 -1.8447 -0.6538 -3.8954
 6237SOL     OW30346   3.193   1.863   4.049  0.2814 -0.5477 -0.1646
 6237SOL    HW130347   3.267   1.873   3.989 -0.9449  0.7533 -1.4600
 6237SOL    HW230348   3.241   1.849   4.131  0.2259  1.1973  0.1644
 6238SOL     OW30349   2.989   3.787   9.380 -0.2635  0.3074  0.3131
 6238SOL    HW130350   3.063   3.805   9.322 -0.0161  2.6367  1.3602
 6238SOL    HW230351   2.961   3.713   9.326 -0.6964  0.7979 -0.1292
 6239SOL     OW30352   0.351   0.204   4.028 -0.4347 -0.2464  0.8737
 6239SOL    HW130353   0.352   0.235   4.119  3.5478  2.0942  0.0133
 6239SOL    HW230354   0.427   0.252   3.995  0.3084 -1.3018  1.0258
 6240SOL     OW30355   3.747   2.886  13.865 -0.0530 -0.3676  0.1716
 6240SOL    HW130356   3.812   2.956  13.853  0.8626 -0.8878  2.0528
 6240SOL    HW230357   3.733   2.882  13.960 -0.7314  0.5838  0.1187
 6241SOL     OW30358   2.154   3.783   2.681 -0.2307 -0.5453  0.3273
 6241SOL    HW130359   2.145   3.866   2.728 -0.5807 -0.3543 -0.0819
 6241SOL    HW230360   2.105   3.812   2.604  2.0609  0.4197 -0.7345
 6242SOL     OW30361   4.561   4.240  15.636  0.2306 -0.3339 -0.2199
 6242SOL    HW130362   4.580   4.324  15.593  0.9653 -0.9567 -1.1053
 6242SOL    HW230363   4.466   4.244  15.634  0.1699 -1.1425  1.0441
 6243SOL     OW30364   4.360   2.917   2.924 -0.0536 -0.1308  0.4523
 6243SOL    HW130365   4.401   2.865   2.856 -3.0755  0.3895 -1.7562
 6243SOL    HW230366   4.392   3.005   2.902  0.8973 -0.4061  0.7389
 6244SOL     OW30367   2.054   1.628   4.499 -0.0076  0.4835  0.4260
 6244SOL    HW130368   1.987   1.690   4.469 -0.1037 -0.3228 -1.0429
 6244SOL    HW230369   2.047   1.560   4.431 -0.8629  0.8031  0.1877
 6245SOL     OW30370   0.489   1.635   4.554 -0.1084 -0.2831 -0.7146
 6245SOL    HW130371   0.481   1.542   4.575 -1.4567 -0.1956 -0.8420
 6245SOL    HW230372   0.429   1.639   4.479  0.1245  1.2336 -0.8186
 6246SOL     OW30373   2.167   1.343   6.170 -0.0703 -0.1974 -0.6010
 6246SOL    HW130374   2.129   1.259   6.196 -0.0322  0.1949  0.7209
 6246SOL    HW230375   2.184   1.370   6.260 -3.7420 -0.5571  0.1670
 6247SOL     OW30376   1.440   4.079   7.889  0.2080  0.7165  0.6751
 6247SOL    HW130377   1.477   3.993   7.907 -0.9157  0.0963 -0.0035
 6247SOL    HW230378   1.349   4.059   7.866 -0.1136  0.7549  1.9230
 6248SOL     OW30379   4.249   2.677   2.159 -0.2287 -0.5079  0.2991
 6248SOL    HW130380   4.315   2.691   2.090  1.3207  0.1616  1.9068
 6248SOL    HW230381   4.298   2.625   2.222  1.1548 -0.3733 -0.6470
 6249SOL     OW30382   3.851   0.426   3.451  0.1757  0.1426  0.2664
 6249SOL    HW130383   3.875   0.360   3.517  1.5534  0.3652 -0.0305
 6249SOL    HW230384   3.810   0.368   3.386  1.9103  0.9171 -1.5062
 6250SOL     OW30385   1.627   0.409  15.540 -0.1095  0.4845 -0.3405
 6250SOL    HW130386   1.711   0.364  15.528 -1.3909 -1.8817 -0.4487
 6250SOL    HW230387   1.570   0.333  15.539  0.6120 -0.0435 -0.9383
 6251SOL     OW30388   0.472   3.325   9.046  0.0957  0.0520 -0.3067
 6251SOL    HW130389   0.527   3.293   8.974  0.6443 -1.0363  0.5938
 6251SOL    HW230390   0.525   3.394   9.086 -0.1845 -0.1565  0.4270
 6252SOL     OW30391   3.600   2.237   9.317 -0.2606  0.4855 -0.0726
 6252SOL    HW130392   3.606   2.157   9.371 -0.8896  0.5464  0.0931
 6252SOL    HW230393   3.658   2.303   9.355  0.4433  0.3173 -0.8663
 6253SOL     OW30394   2.780   0.502  14.957 -0.0786 -0.0144 -0.3480
 6253SOL    HW130395   2.784   0.462  14.870 -0.0485  1.4397 -1.0164
 6253SOL    HW230396   2.740   0.436  15.013  0.9584 -1.7463 -1.6398
 6254SOL     OW30397   3.944   0.625   6.098  0.0836  0.9276 -0.1971
 6254SOL    HW130398   3.955   0.553   6.036 -1.1374  0.7442 -0.2079
 6254SOL    HW230399   4.030   0.649   6.131  0.1504 -0.8309  0.9344
 6255SOL     OW30400   1.824   1.292   1.565 -0.2377  0.5490  0.0123
 6255SOL    HW130401   1.773   1.276   1.485 -0.5176  0.8811  0.1270
 6255SOL    HW230402   1.766   1.245   1.624 -0.1141  1.5854  0.9659
 6256SOL     OW30403   2.618   0.771   2.724  0.2351  0.4525  0.1586
 6256SOL    HW130404   2.598   0.863   2.703 -0.4656  0.3082  0.1914
 6256SOL    HW230405   2.704   0.762   2.684  0.1882 -0.4802  0.2895
 6257SOL     OW30406   3.244   4.394  11.362 -0.2371 -0.4128  0.1300
 6257SOL    HW130407   3.246   4.377  11.457  0.3075 -0.1636  0.1600
 6257SOL    HW230408   3.337   4.397  11.341 -0.6901  0.6874 -1.7115
 6258SOL     OW30409   3.427   2.331   6.435  0.3249  0.3375  0.1816
 6258SOL    HW130410   3.508   2.298   6.473 -1.2525 -2.3554  1.1449
 6258SOL    HW230411   3.432   2.281   6.353 -1.5428  0.4624 -0.0136
 6259SOL     OW30412   2.758   2.293  12.492  0.0923 -0.4732 -0.5438
 6259SOL    HW130413   2.739   2.317  12.402 -0.3734 -1.5231 -0.7218
 6259SOL    HW230414   2.808   2.215  12.469  3.2219  1.5398 -0.5983
 6260SOL     OW30415   4.267   4.044   6.229  0.7900 -0.6250  0.4502
 6260SOL    HW130416   4.267   4.088   6.144  1.4594 -1.4521  0.0176
 6260SOL    HW230417   4.286   3.952   6.209 -0.5261 -1.2058  1.8841
 6261SOL     OW30418   3.249   3.652   4.517  0.2900 -0.1864  0.4562
 6261SOL    HW130419   3.243   3.704   4.597  0.9718 -1.0668  1.0908
 6261SOL    HW230420   3.246   3.565   4.557  0.5275 -0.6509 -0.5193
 6262SOL     OW30421   4.176   1.629   5.910 -0.1806 -0.3818  0.3159
 6262SOL    HW130422   4.195   1.570   5.983  1.1021 -1.2840 -0.7460
 6262SOL    HW230423   4.259   1.670   5.886  1.2152 -2.8840  0.8551
 6263SOL     OW30424   3.550   1.480  16.990  0.1654  0.2182  0.6621
 6263SOL    HW130425   3.579   1.470  17.080  1.1265  2.3973  0.6027
 6263SOL    HW230426   3.538   1.388  16.966 -0.5005  0.8472 -1.4962
 6264SOL     OW30427   1.355   1.924   6.525  0.2653 -0.2670 -0.0739
 6264SOL    HW130428   1.356   1.833   6.556 -1.9953  0.1445  1.1494
 6264SOL    HW230429   1.262   1.938   6.507  0.9359 -0.3533 -3.5512
 6265SOL     OW30430   4.443   3.210   2.858  0.5812  1.0673 -0.1442
 6265SOL    HW130431   4.478   3.223   2.770 -0.0636 -0.0143 -0.5613
 6265SOL    HW230432   4.501   3.272   2.902  1.8396  0.7450 -1.3572
 6266SOL     OW30433   1.502   3.529   8.213 -0.5123  0.1405 -0.1880
 6266SOL    HW130434   1.489   3.616   8.249  0.3116 -0.4978  1.6491
 6266SOL    HW230435   1.573   3.493   8.265  0.5220  0.4574 -1.3823
 6267SOL     OW30436   2.868   4.549   3.309  0.1593 -0.3504  0.3393
 6267SOL    HW130437   2.940   4.609   3.293  0.5020 -1.2010 -1.2992
 6267SOL    HW230438   2.796   4.600   3.272 -1.0875 -4.5875 -3.0511
 6268SOL     OW30439   0.759   1.296  13.913 -0.3166 -0.4539 -0.5820
 6268SOL    HW130440   0.836   1.351  13.905 -1.4658  1.2058 -0.2624
 6268SOL    HW230441   0.765   1.258  14.001  2.5740 -0.9317 -0.9853
 6269SOL     OW30442   0.826   4.158   6.879  0.4108  0.2110 -0.2180
 6269SOL    HW130443   0.876   4.085   6.842 -1.7801 -0.5644 -1.6433
 6269SOL    HW230444   0.873   4.160   6.962  0.5640  2.2484 -0.3416
 6270SOL     OW30445   0.587   4.298   3.611  0.6036 -0.8899  0.0764
 6270SOL    HW130446   0.524   4.366   3.586  2.1157  0.0050 -1.2753
 6270SOL    HW230447   0.533   4.262   3.682 -1.0834  0.3116 -0.5764
 6271SOL     OW30448   0.906   1.973   8.771 -0.5777  0.4406 -0.0564
 6271SOL    HW130449   0.924   2.062   8.741  0.6580 -0.1051 -0.9331
 6271SOL    HW230450   0.870   1.934   8.691 -1.3347  1.1822 -0.0759
 6272SOL     OW30451   3.896   1.261   6.898 -0.0520  0.2921  0.5797
 6272SOL    HW130452   3.908   1.217   6.982 -1.5874 -0.6184  0.3189
 6272SOL    HW230453   3.810   1.226   6.877 -0.2658  0.3825  1.2934
 6273SOL     OW30454   3.444   3.299   0.230  0.2247  0.3696 -0.5532
 6273SOL    HW130455   3.390   3.306   0.152 -1.6236  0.3770  0.7083
 6273SOL    HW230456   3.501   3.375   0.234 -2.6725  2.6161 -2.6348
 6274SOL     OW30457   0.141   1.762   0.540  1.0185  0.1863 -0.5794
 6274SOL    HW130458   0.091   1.716   0.473  2.1941  1.6780 -2.4832
 6274SOL    HW230459   0.186   1.695   0.591  1.4727  0.6106 -0.4150
 6275SOL     OW30460   3.337   1.091  17.063  0.2442 -0.0646  0.0655
 6275SOL    HW130461   3.420   1.127  17.030  0.5633  1.6316  2.6667
 6275SOL    HW230462   3.293   1.173  17.088  0.6390 -0.7067  2.9128
 6276SOL     OW30463   1.774   0.568  10.502 -0.7212 -0.2679  0.3815
 6276SOL    HW130464   1.853   0.514  10.492  0.2565  1.5486 -1.6747
 6276SOL    HW230465   1.797   0.628  10.574 -2.1021  1.4729 -0.6465
 6277SOL     OW30466   1.796   2.071   9.182  0.0439  0.2168 -0.1548
 6277SOL    HW130467   1.818   2.013   9.255  0.1343 -0.2990 -0.5933
 6277SOL    HW230468   1.769   2.138   9.246  0.6214 -1.4918  1.8976
 6278SOL     OW30469   1.131   1.018   1.283 -0.3485  0.1890  0.1916
 6278SOL    HW130470   1.095   1.101   1.252 -0.6277  0.2283  0.6139
 6278SOL    HW230471   1.050   0.981   1.320 -0.1388 -1.9704 -1.4632
 6279SOL     OW30472   3.735   0.225   5.008 -0.1231 -0.2447 -0.3987
 6279SOL    HW130473   3.646   0.214   4.976 -0.7709 -2.5195  2.2401
 6279SOL    HW230474   3.727   0.285   5.081  3.0890  1.0325 -1.0833
 6280SOL     OW30475   0.736   1.016   4.461 -1.0585  0.6034  0.3656
 6280SOL    HW130476   0.816   1.003   4.512 -0.9525  0.2901  0.1186
 6280SOL    HW230477   0.671   1.044   4.526  1.3932  2.5000  1.9739
 6281SOL     OW30478   3.980   2.673  10.504 -0.3687  0.3293 -0.4823
 6281SOL    HW130479   3.979   2.668  10.600  0.1685  0.1186 -0.4883
 6281SOL    HW230480   3.924   2.751  10.499 -0.9213 -0.1245 -1.2875
 6282SOL     OW30481   4.136   4.017  17.340 -0.0642  0.2056  0.2256
 6282SOL    HW130482   4.165   3.938  17.386 -1.3762  0.8393  2.1533
 6282SOL    HW230483   4.112   4.075  17.413  1.1871  0.8204  0.1420
 6283SOL     OW30484   0.749   0.676   8.204  0.2039 -0.0185  0.2523
 6283SOL    HW130485   0.826   0.717   8.166 -0.7700  0.8399 -0.8110
 6283SOL    HW230486   0.740   0.751   8.263 -1.3923  0.5542 -0.7141
 6284SOL     OW30487   1.315   1.074  16.204 -0.6643 -1.4567  0.8435
 6284SOL    HW130488   1.246   1.054  16.268 -1.8508  0.7968  0.2830
 6284SOL    HW230489   1.297   1.165  16.180  0.1006 -1.0792  1.7300
 6285SOL     OW30490   3.855   2.613   4.986 -0.3865  0.0391 -0.3033
 6285SOL    HW130491   3.801   2.635   4.910 -0.0965  0.3034 -0.4349
 6285SOL    HW230492   3.910   2.553   4.936  0.5425  1.7270 -1.2913
 6286SOL     OW30493   0.292   0.874   7.506 -0.0645  0.0499 -0.3584
 6286SOL    HW130494   0.278   0.793   7.554  1.5265 -0.1271 -0.1815
 6286SOL    HW230495   0.321   0.832   7.426  1.8883  2.6194 -1.0075
 6287SOL     OW30496   0.399   2.482  15.511 -0.0149 -0.2565 -0.3202
 6287SOL    HW130497   0.341   2.479  15.587 -1.1490  1.7467 -1.1079
 6287SOL    HW230498   0.473   2.535  15.541 -1.7272  2.5514 -1.0034
 6288SOL     OW30499   2.340   4.659   7.995  0.3447 -0.1427  0.0731
 6288SOL    HW130500   2.339   4.574   8.038 -1.1105  0.1526  0.6139
 6288SOL    HW230501   2.382   4.724   8.053 -0.6950  0.3406  0.2736
 6289SOL     OW30502   4.445   0.812   5.319  0.2550  0.1844  0.4196
 6289SOL    HW130503   4.458   0.906   5.303  1.3920  0.4790  3.0170
 6289SOL    HW230504   4.525   0.789   5.367  0.3336 -1.8684 -0.7009
 6290SOL     OW30505   3.268   0.078   7.914  0.0906 -0.3521  0.8722
 6290SOL    HW130506   3.321   0.158   7.922  1.9809 -1.7020  1.6215
 6290SOL    HW230507   3.313   0.040   7.839 -0.2742 -1.4510  1.2238
 6291SOL     OW30508   0.516   4.676   3.397  0.3957 -0.0492 -0.0623
 6291SOL    HW130509   0.431   4.668   3.441  0.8717 -0.6637  0.7397
 6291SOL    HW230510   0.498   4.688   3.304  1.2220  1.7369 -0.0082
 6292SOL     OW30511   1.736   2.281   9.358 -0.8923  0.1314 -0.2928
 6292SOL    HW130512   1.677   2.278   9.434 -1.4299 -1.4472 -0.7704
 6292SOL    HW230513   1.684   2.339   9.302 -1.0191  2.8172  2.6094
 6293SOL     OW30514   2.096   0.179  10.556  0.8314 -0.9869  0.2046
 6293SOL    HW130515   2.111   0.118  10.628 -0.6896 -0.6384  0.8142
 6293SOL    HW230516   2.184   0.208  10.531  0.3171 -0.2767 -0.7851
 6294SOL     OW30517   1.583   1.990   6.295 -0.2329  0.1292  0.6175
 6294SOL    HW130518   1.508   1.986   6.235 -0.7063  1.0819  1.1392
 6294SOL    HW230519   1.529   1.977   6.374  0.3078  2.2753  1.3385
 6295SOL     OW30520   3.128   4.239   8.633  0.0696  0.1672 -0.0405
 6295SOL    HW130521   3.217   4.208   8.651  0.0786  1.3055  1.8626
 6295SOL    HW230522   3.137   4.271   8.543  1.5486 -2.0428 -0.6864
 6296SOL     OW30523   4.079   0.021   1.460 -0.4592  0.4107 -0.9011
 6296SOL    HW130524   4.161   4.705   1.459 -0.2622  0.7365 -1.3897
 6296SOL    HW230525   4.109   0.101   1.417  0.7369  1.5480  2.0633
 6297SOL     OW30526   1.476   1.305   3.467 -0.3413 -0.5017 -0.1183
 6297SOL    HW130527   1.442   1.261   3.389 -0.5454 -1.2648  0.4075
 6297SOL    HW230528   1.508   1.393   3.447 -1.4699  0.1156  0.8040
 6298SOL     OW30529   3.802   3.701   4.039  0.3610 -0.3008  0.6398
 6298SOL    HW130530   3.858   3.719   4.115  0.5552 -1.9344  0.8937
 6298SOL    HW230531   3.849   3.753   3.975 -1.6958  2.7196  1.5971
 6299SOL     OW30532   1.949   2.969   6.339 -0.3671  0.4485  0.2306
 6299SOL    HW130533   1.902   2.916   6.275  1.2392  1.8191 -2.1129
 6299SOL    HW230534   1.999   2.902   6.386 -0.1505  0.2795 -0.2360
 6300SOL     OW30535   1.520   3.942   0.892  0.1605 -0.3192 -0.0984
 6300SOL    HW130536   1.536   4.019   0.838 -0.6314  0.5818  0.9401
 6300SOL    HW230537   1.487   3.876   0.832 -1.0864  0.5534 -0.3520
 6301SOL     OW30538   0.215   0.256  13.620  0.1870 -0.3799 -0.3164
 6301SOL    HW130539   0.176   0.169  13.612 -1.5905  0.4375 -0.5136
 6301SOL    HW230540   0.136   0.299  13.653 -0.2520 -0.7111 -0.9484
 6302SOL     OW30541   0.082   2.563   2.720  0.0332 -0.2534 -1.0201
 6302SOL    HW130542   0.149   2.561   2.652  1.5094 -1.0454  0.4476
 6302SOL    HW230543   0.097   2.638   2.778 -1.6100 -0.1657 -0.6878
 6303SOL     OW30544   0.221   4.025  12.339 -0.2120 -0.2183 -0.5380
 6303SOL    HW130545   0.215   4.077  12.259  1.1845  1.1619  0.2503
 6303SOL    HW230546   0.230   3.940  12.295 -3.7135 -0.7331 -0.2538
 6304SOL     OW30547   0.185   0.164  13.297 -0.4557 -0.2556 -0.0037
 6304SOL    HW130548   0.099   0.129  13.319 -1.5031  2.6405  0.4947
 6304SOL    HW230549   0.213   0.097  13.234  1.0249  0.7501 -0.4228
 6305SOL     OW30550   0.968   3.586   5.814  0.3569  0.3387 -0.2607
 6305SOL    HW130551   0.974   3.519   5.746 -0.7689 -2.0475  1.9614
 6305SOL    HW230552   0.967   3.536   5.897 -1.4281 -3.5423 -2.6037
 6306SOL     OW30553   1.682   0.004   8.240 -0.3541 -0.2532  0.1103
 6306SOL    HW130554   1.671   4.659   8.186 -0.7458 -0.1445  0.0305
 6306SOL    HW230555   1.606   0.060   8.222 -0.0922 -0.4250 -1.5439
 6307SOL     OW30556   0.349   3.612   2.966 -0.0797  0.3833 -0.3486
 6307SOL    HW130557   0.412   3.684   2.972  0.9290 -0.3711 -1.7889
 6307SOL    HW230558   0.292   3.636   3.039 -0.4143 -0.4470 -0.3391
 6308SOL     OW30559   0.769   1.936  10.772  0.1775  0.3757 -0.0025
 6308SOL    HW130560   0.722   1.877  10.832 -0.0779  1.4526  0.8599
 6308SOL    HW230561   0.778   1.881  10.694 -0.3790 -0.6777  0.6634
 6309SOL     OW30562   3.441   2.440   1.677 -0.2638 -0.6615  0.0885
 6309SOL    HW130563   3.532   2.465   1.689  0.1967 -3.2387  1.9002
 6309SOL    HW230564   3.403   2.528   1.677  0.6455 -0.2673  1.5439
 6310SOL     OW30565   4.010   0.694   5.580 -0.5797 -0.4579  0.0360
 6310SOL    HW130566   3.980   0.783   5.566 -0.5619 -0.6854 -1.4565
 6310SOL    HW230567   4.093   0.694   5.532 -0.0217  1.6480  1.0023
 6311SOL     OW30568   4.495   2.184   7.563  0.6295  0.1114  0.0528
 6311SOL    HW130569   4.549   2.149   7.492 -3.7320 -0.2192 -3.0465
 6311SOL    HW230570   4.407   2.161   7.536  0.2415 -0.6236  1.9343
 6312SOL     OW30571   4.287   1.074  11.435 -0.5134  0.6211 -0.1706
 6312SOL    HW130572   4.349   1.145  11.447 -1.5617  1.6132 -0.6931
 6312SOL    HW230573   4.229   1.110  11.368 -1.1924 -0.4625 -0.1747
 6313SOL     OW30574   0.727   4.115   5.815 -0.2752 -0.1271 -0.0887
 6313SOL    HW130575   0.776   4.163   5.748  0.1711  0.6787  0.8192
 6313SOL    HW230576   0.665   4.186   5.831  0.7098  0.3693  1.5542
 6314SOL     OW30577   2.529   1.415  10.848 -0.8111  0.1724 -0.6653
 6314SOL    HW130578   2.623   1.397  10.843 -1.1173 -1.6512  0.3167
 6314SOL    HW230579   2.506   1.415  10.941  2.1786  1.6913  0.0911
 6315SOL     OW30580   0.162   1.380   7.427  0.8172  0.5648 -0.0603
 6315SOL    HW130581   0.200   1.401   7.512 -0.7556 -0.9224  1.0154
 6315SOL    HW230582   0.190   1.291   7.408  0.1009  0.3306 -0.0404
 6316SOL     OW30583   3.481   4.200  10.470  0.1773 -0.0272 -0.3537
 6316SOL    HW130584   3.412   4.264  10.486 -1.1870 -1.2919 -1.2542
 6316SOL    HW230585   3.557   4.240  10.513  0.2274  0.3703 -0.8057
 6317SOL     OW30586   0.834   2.183   7.848 -0.0151 -0.3645 -0.0190
 6317SOL    HW130587   0.764   2.223   7.796 -2.1285 -3.0735  0.7396
 6317SOL    HW230588   0.849   2.254   7.911 -0.7476  0.0041 -0.2617
 6318SOL     OW30589   4.642   3.947   2.855  0.6571  0.0054  0.1889
 6318SOL    HW130590   4.661   4.000   2.777  0.8010 -1.5895 -0.8549
 6318SOL    HW230591   4.711   3.884   2.837 -1.6798 -2.7763  1.0417
 6319SOL     OW30592   3.978   1.356   5.482  0.2577  0.0332 -0.6291
 6319SOL    HW130593   4.025   1.303   5.546 -1.4215  0.6574  1.0841
 6319SOL    HW230594   3.967   1.294   5.410 -2.3351 -0.9837  0.6544
 6320SOL     OW30595   1.294   1.656  13.562 -0.2872 -0.2093  0.0519
 6320SOL    HW130596   1.259   1.628  13.646 -0.3841  1.3889  0.5440
 6320SOL    HW230597   1.215   1.638  13.510 -1.8054 -1.4870  2.7907
 6321SOL     OW30598   4.394   0.319   3.415  0.2297 -0.3011  0.1606
 6321SOL    HW130599   4.415   0.397   3.466 -0.3019  1.5822 -2.4826
 6321SOL    HW230600   4.425   0.364   3.336  2.2062 -1.6869  0.1452
 6322SOL     OW30601   4.648   2.813   4.280  0.3570 -0.7099  0.2111
 6322SOL    HW130602   4.614   2.836   4.366 -1.3415 -2.3446 -0.0422
 6322SOL    HW230603   4.606   2.876   4.221 -0.5926 -0.1819  1.4467
 6323SOL     OW30604   1.985   2.910   8.105 -0.1921  0.8293 -0.7774
 6323SOL    HW130605   1.943   2.950   8.029 -1.5807  0.8657  0.0031
 6323SOL    HW230606   1.910   2.853   8.121  2.2667 -2.0879  0.3338
 6324SOL     OW30607   0.933   0.822   5.823  0.2708 -0.8529  0.1197
 6324SOL    HW130608   0.974   0.889   5.767 -1.2676 -1.4122 -1.6987
 6324SOL    HW230609   0.853   0.863   5.855 -0.3282 -0.8273 -1.3891
 6325SOL     OW30610   2.436   0.135  15.095  0.2655  0.0699 -0.9677
 6325SOL    HW130611   2.405   0.114  15.183 -0.7970 -0.8863 -1.5777
 6325SOL    HW230612   2.382   0.062  15.065 -1.6149  1.4677 -0.9327
 6326SOL     OW30613   0.733   4.609   7.889 -0.2815  0.1874  0.5110
 6326SOL    HW130614   0.825   4.632   7.876  0.8302 -4.3270  0.4050
 6326SOL    HW230615   0.716   4.592   7.796 -0.3332 -0.3438  0.6199
 6327SOL     OW30616   0.056   4.173   2.624 -0.5775 -0.2938 -0.6580
 6327SOL    HW130617   0.081   4.247   2.569  0.6036 -0.4941 -0.3741
 6327SOL    HW230618   0.016   4.109   2.565 -2.0368 -1.1368  1.2350
 6328SOL     OW30619   0.484   3.824   2.707 -0.0245  0.4716  0.5511
 6328SOL    HW130620   0.540   3.819   2.629 -1.6574 -2.9151 -0.3908
 6328SOL    HW230621   0.404   3.856   2.667 -0.1734  0.5442  0.9073
 6329SOL     OW30622   3.537   0.922   5.795 -0.7217 -0.5117  0.5275
 6329SOL    HW130623   3.608   0.984   5.778 -1.2237  0.1591  0.8933
 6329SOL    HW230624   3.583   0.851   5.841  0.7154  0.9625  1.3931
 6330SOL     OW30625   1.569   2.170  12.565 -0.0293  0.2234  0.7408
 6330SOL    HW130626   1.501   2.199  12.504  0.8081 -0.9075 -0.7550
 6330SOL    HW230627   1.565   2.242  12.627  1.9468  2.0799 -1.2976
 6331SOL     OW30628   3.487   0.900   2.261 -0.5347 -0.4471  0.1439
 6331SOL    HW130629   3.551   0.857   2.317 -2.9377  0.2362  3.3684
 6331SOL    HW230630   3.449   0.960   2.325  0.2324  0.1501  0.0364
 6332SOL     OW30631   2.514   0.838  12.953 -0.0734  0.5770 -0.3414
 6332SOL    HW130632   2.458   0.807  12.882 -1.9336 -3.6743  2.9990
 6332SOL    HW230633   2.593   0.867  12.908  0.3117  0.8579  0.5179
 6333SOL     OW30634   0.305   3.217  13.737 -0.6300  0.3504 -0.1779
 6333SOL    HW130635   0.364   3.146  13.762 -3.1380 -1.3880  0.8414
 6333SOL    HW230636   0.326   3.286  13.800  1.3476  0.2141 -0.6894
 6334SOL     OW30637   4.696   4.546   6.624  0.2159  0.8010  0.1355
 6334SOL    HW130638   4.689   4.469   6.681  0.9713  0.0972 -0.7128
 6334SOL    HW230639   4.632   4.608   6.659  0.8856  0.7940  1.3711
 6335SOL     OW30640   3.343   2.471   8.193 -0.3658  0.3214  0.7487
 6335SOL    HW130641   3.383   2.531   8.256  0.9197 -1.3432  1.5027
 6335SOL    HW230642   3.307   2.539   8.136  0.4248  0.0817 -0.0400
 6336SOL     OW30643   2.703   2.546   3.966  0.3335  0.1359 -0.0732
 6336SOL    HW130644   2.793   2.547   3.999 -0.5157 -3.3093  2.2873
 6336SOL    HW230645   2.670   2.469   4.011 -1.1947  1.4887  1.1175
 6337SOL     OW30646   1.927   2.209   4.190 -0.1841 -0.2824  0.3168
 6337SOL    HW130647   1.880   2.267   4.251 -2.0097 -0.5718 -0.8131
 6337SOL    HW230648   1.871   2.132   4.191  0.2566 -0.6032  0.5899
 6338SOL     OW30649   2.767   0.156   7.878  0.3142  0.5399 -0.2810
 6338SOL    HW130650   2.808   0.173   7.963  0.1712  2.6787 -0.6370
 6338SOL    HW230651   2.847   0.142   7.827  0.6806  1.7244 -0.0331
 6339SOL     OW30652   2.684   2.964   4.623  0.2337  0.3124 -0.0712
 6339SOL    HW130653   2.693   2.993   4.532  1.7990  0.9640  0.2944
 6339SOL    HW230654   2.621   2.893   4.615 -0.4503  0.8433  0.6564
 6340SOL     OW30655   3.916   2.197   8.483  0.4582 -0.1009  0.0473
 6340SOL    HW130656   3.857   2.185   8.408 -1.4951 -1.1140  1.7425
 6340SOL    HW230657   3.999   2.202   8.437 -1.3864  1.2287 -3.1304
 6341SOL     OW30658   1.211   2.114   5.387 -0.0441  0.0189 -0.5177
 6341SOL    HW130659   1.150   2.043   5.408  0.6265 -0.4826 -0.2593
 6341SOL    HW230660   1.277   2.107   5.456 -0.7126  3.3114  0.4707
 6342SOL     OW30661   0.560   3.537   3.856 -0.3374 -0.4342 -0.3092
 6342SOL    HW130662   0.477   3.576   3.882  0.5456 -1.0843  3.6168
 6342SOL    HW230663   0.545   3.527   3.762  0.8098  0.5251 -0.5935
 6343SOL     OW30664   1.809   0.203  15.480 -0.3022 -0.1401 -0.0497
 6343SOL    HW130665   1.899   0.180  15.460 -0.0502 -0.0891  1.0229
 6343SOL    HW230666   1.797   0.150  15.559  2.5502  0.2081  0.6173
 6344SOL     OW30667   1.853   4.518  14.521  0.0704 -0.1719  0.1022
 6344SOL    HW130668   1.779   4.461  14.541  1.5144 -1.2273  2.3687
 6344SOL    HW230669   1.831   4.588  14.583 -0.0096 -1.4048  1.4435
 6345SOL     OW30670   4.013   3.661   7.548  0.2204  0.0831  0.2612
 6345SOL    HW130671   3.950   3.730   7.529  1.2346  1.0571  0.4748
 6345SOL    HW230672   4.033   3.621   7.463 -2.3398  0.2758 -0.4506
 6346SOL     OW30673   0.690   0.292   5.405  0.7026  0.3261  0.7450
 6346SOL    HW130674   0.781   0.313   5.384  0.5530 -0.2352 -0.5185
 6346SOL    HW230675   0.686   0.203   5.371 -1.6068  1.7968 -2.8970
 6347SOL     OW30676   2.529   0.805   8.378 -0.3166 -0.8153  0.2189
 6347SOL    HW130677   2.521   0.769   8.290 -1.5108  0.0281 -0.0055
 6347SOL    HW230678   2.447   0.854   8.387  0.7746  1.3881 -1.7634
 6348SOL     OW30679   3.671   1.385   6.727  0.0296 -0.6227 -0.0979
 6348SOL    HW130680   3.684   1.389   6.822 -0.6260  3.1289 -0.1648
 6348SOL    HW230681   3.579   1.411   6.721  0.3617  0.8178  1.0852
 6349SOL     OW30682   1.449   2.357   6.594 -0.0828 -0.0796  0.5480
 6349SOL    HW130683   1.541   2.350   6.620  0.0438 -0.8830 -0.1307
 6349SOL    HW230684   1.398   2.313   6.663  0.8466 -2.5452 -0.3570
 6350SOL     OW30685   1.979   4.578   6.315  0.0205 -0.4980 -0.0592
 6350SOL    HW130686   1.915   4.530   6.369 -0.2132 -1.3884 -1.1309
 6350SOL    HW230687   2.025   4.500   6.285  3.9994  1.9281 -0.2486
 6351SOL     OW30688   1.414   3.110   5.302  0.3841 -0.5040  0.1364
 6351SOL    HW130689   1.506   3.087   5.295 -0.1724 -2.7612  0.0874
 6351SOL    HW230690   1.424   3.184   5.362 -0.1466  0.1302 -0.5431
 6352SOL     OW30691   4.069   2.839   5.849 -0.2539 -0.3891  0.3015
 6352SOL    HW130692   4.049   2.751   5.883  2.4758 -1.9085 -1.9866
 6352SOL    HW230693   4.095   2.882   5.931  0.9023  1.7533 -1.2183
 6353SOL     OW30694   0.727   0.905  11.118  0.1319 -0.1422  0.3157
 6353SOL    HW130695   0.713   0.936  11.208 -2.7591  0.8617 -0.4608
 6353SOL    HW230696   0.672   0.826  11.118  0.9625 -0.7170  0.9583
 6354SOL     OW30697   1.189   3.278   8.369 -0.2028 -0.2396  0.1766
 6354SOL    HW130698   1.149   3.192   8.373 -1.9976  0.6188  0.4357
 6354SOL    HW230699   1.195   3.300   8.462 -1.3123  1.1183 -0.0710
 6355SOL     OW30700   3.582   0.135  12.232  0.3278 -0.1132  0.1792
 6355SOL    HW130701   3.669   0.152  12.269  0.4661 -0.0354 -0.1750
 6355SOL    HW230702   3.607   0.087  12.153  1.6234  0.2221  0.3828
 6356SOL     OW30703   3.337   4.630  14.272 -0.0004  0.0581 -0.4114
 6356SOL    HW130704   3.384   4.550  14.295 -0.3120 -0.5487 -1.9529
 6356SOL    HW230705   3.268   4.623  14.337  2.0990 -0.3610  1.7944
 6357SOL     OW30706   2.594   2.303  11.782  0.2784 -0.2930  0.1780
 6357SOL    HW130707   2.511   2.292  11.828  0.3653  2.8983  1.0673
 6357SOL    HW230708   2.601   2.217  11.742  0.8535  0.3090 -1.0127
 6358SOL     OW30709   0.647   0.825   8.570 -0.3698 -0.1683  0.1587
 6358SOL    HW130710   0.674   0.885   8.639  0.0491  0.7993 -0.8458
 6358SOL    HW230711   0.691   0.863   8.494  0.0148  0.7960  0.8598
 6359SOL     OW30712   2.659   2.671   2.458 -0.3567  0.0563 -0.2164
 6359SOL    HW130713   2.692   2.658   2.369  1.2588  4.8200 -0.3106
 6359SOL    HW230714   2.607   2.752   2.455  0.4743  0.6240  0.4847
 6360SOL     OW30715   2.625   1.805   2.940  0.2067 -0.1903  0.3423
 6360SOL    HW130716   2.552   1.851   2.983 -1.7024 -1.3597 -1.6392
 6360SOL    HW230717   2.643   1.856   2.862 -0.8584  1.3532  1.1033
 6361SOL     OW30718   3.985   1.162   2.422 -0.7669  0.1262  0.1019
 6361SOL    HW130719   3.891   1.150   2.436 -0.6705  0.7786  1.2993
 6361SOL    HW230720   3.987   1.258   2.429  0.0493  0.1853 -0.8742
 6362SOL     OW30721   3.108   2.546   1.949 -0.0399  0.2775  0.3116
 6362SOL    HW130722   3.081   2.455   1.952 -0.5649  0.5213  2.8791
 6362SOL    HW230723   3.193   2.540   1.993  0.1812 -0.7860 -0.2604
 6363SOL     OW30724   4.375   3.332   6.110  0.3040 -0.1176  0.5083
 6363SOL    HW130725   4.380   3.351   6.016  0.1180 -0.6848  0.3839
 6363SOL    HW230726   4.441   3.263   6.116 -1.2797 -1.9105 -2.9652
 6364SOL     OW30727   4.589   3.145  13.460 -0.2543 -0.4498 -0.3219
 6364SOL    HW130728   4.607   3.057  13.428  1.0230 -0.2661 -0.1197
 6364SOL    HW230729   4.550   3.126  13.545  0.2187  1.5196  0.3279
 6365SOL     OW30730   1.985   4.304  15.854 -0.6549  0.1770 -0.2062
 6365SOL    HW130731   1.971   4.399  15.861 -1.4529  0.0514 -0.0744
 6365SOL    HW230732   2.079   4.298  15.871 -0.7187  1.7621  0.7449
 6366SOL     OW30733   2.609   2.528   4.396 -0.2666  0.1090  0.3747
 6366SOL    HW130734   2.615   2.623   4.408 -0.0611 -0.2393  2.9257
 6366SOL    HW230735   2.639   2.493   4.480  0.0145 -0.1414  0.1657
 6367SOL     OW30736   2.634   2.321  12.908  0.0544  0.6771  0.2933
 6367SOL    HW130737   2.558   2.368  12.875 -0.5449 -1.6059 -1.6279
 6367SOL    HW230738   2.652   2.250  12.846 -0.6775 -0.6436  1.6083
 6368SOL     OW30739   4.507   3.552   2.559  0.3095 -0.8256 -0.7590
 6368SOL    HW130740   4.496   3.554   2.655 -0.5485  0.6800 -0.8902
 6368SOL    HW230741   4.593   3.512   2.562  1.0388  0.7980  0.0413
 6369SOL     OW30742   1.101   3.411   3.454 -0.2466  0.5059  0.0628
 6369SOL    HW130743   1.128   3.503   3.445 -0.8374  0.5091 -1.6883
 6369SOL    HW230744   1.090   3.409   3.549  0.1819 -0.5844  0.0866
 6370SOL     OW30745   2.527   4.155   2.419  0.5037  0.5651  0.8552
 6370SOL    HW130746   2.534   4.104   2.339 -0.0948  2.9701 -0.7362
 6370SOL    HW230747   2.458   4.219   2.399  0.4877 -0.5323 -2.5186
 6371SOL     OW30748   4.214   3.247   2.986  0.2352 -0.8204  0.5369
 6371SOL    HW130749   4.218   3.308   2.912 -0.2749 -1.7768 -0.2822
 6371SOL    HW230750   4.293   3.203   2.953  0.0920  0.8949 -2.1105
 6372SOL     OW30751   4.211   2.121   4.832 -0.5202 -0.6345 -0.6720
 6372SOL    HW130752   4.208   2.025   4.839  2.7451 -0.6371  0.4790
 6372SOL    HW230753   4.122   2.139   4.861 -0.6611  1.1162 -2.2088
 6373SOL     OW30754   1.265   0.290   9.262 -0.7277  0.0297 -0.0428
 6373SOL    HW130755   1.327   0.299   9.335 -1.3742 -1.6601  0.7213
 6373SOL    HW230756   1.186   0.308   9.314 -1.1179  1.5023 -1.1149
 6374SOL     OW30757   3.240   0.232   4.049  0.3236  0.3027  0.4713
 6374SOL    HW130758   3.322   0.184   4.032  0.0951  0.7463 -1.8871
 6374SOL    HW230759   3.211   0.245   3.959  2.0088  1.4190  0.0787
 6375SOL     OW30760   1.363   0.386   6.021  0.1921  0.1858 -0.0981
 6375SOL    HW130761   1.268   0.384   6.030  0.1576 -0.0634 -0.5553
 6375SOL    HW230762   1.370   0.470   6.066 -0.3042 -1.8548  3.7716
 6376SOL     OW30763   4.140   0.252   3.456  0.1012  0.0701  0.0838
 6376SOL    HW130764   4.106   0.319   3.515 -1.2242  0.5769 -1.2915
 6376SOL    HW230765   4.230   0.285   3.450  0.1818 -0.1001  0.3604
 6377SOL     OW30766   4.009   0.381   8.788  0.2618  0.1762  0.0903
 6377SOL    HW130767   3.976   0.320   8.853  1.0205 -1.0444 -0.6732
 6377SOL    HW230768   4.042   0.321   8.721  0.0809  0.1876 -0.0074
 6378SOL     OW30769   2.964   2.275   6.056  0.1914  0.2836 -0.1174
 6378SOL    HW130770   2.903   2.231   6.115  0.6319 -1.2231 -0.7886
 6378SOL    HW230771   3.039   2.215   6.061 -0.0569  0.2332  2.8478
 6379SOL     OW30772   4.148   3.942   7.398  0.3576  0.1929  0.0443
 6379SOL    HW130773   4.061   3.902   7.398 -0.0777  1.1272 -0.5883
 6379SOL    HW230774   4.169   3.956   7.491  0.1673 -1.0383  0.2626
 6380SOL     OW30775   3.103   2.161   1.617  0.6360  0.0743 -0.2949
 6380SOL    HW130776   3.146   2.109   1.548  0.6013 -1.4199  0.8125
 6380SOL    HW230777   3.017   2.177   1.579  0.4443 -0.2104  0.0170
 6381SOL     OW30778   3.031   1.435  14.514 -0.5168 -0.0243 -0.6868
 6381SOL    HW130779   2.976   1.513  14.524 -1.1836 -0.5150 -0.5269
 6381SOL    HW230780   3.008   1.385  14.593  0.7913 -0.4713 -0.5826
 6382SOL     OW30781   0.859   1.076   3.476 -0.1807  0.2557  0.3985
 6382SOL    HW130782   0.889   1.037   3.558  0.5327  0.5603  0.2783
 6382SOL    HW230783   0.911   1.156   3.465 -0.9084  0.6577 -0.1528
 6383SOL     OW30784   2.572   0.407   8.099  0.0000  0.0979  0.3400
 6383SOL    HW130785   2.627   0.397   8.022  0.3813 -0.0670  0.6359
 6383SOL    HW230786   2.538   0.496   8.087  0.2036  0.2734  1.0589
 6384SOL     OW30787   3.262   0.837  17.124  0.3858 -0.1208  0.6106
 6384SOL    HW130788   3.348   0.797  17.137  1.0416  1.2728  0.5301
 6384SOL    HW230789   3.287   0.928  17.106  0.5723 -0.0964  0.9876
 6385SOL     OW30790   3.022   2.674   4.590  0.4723 -0.5600 -0.4454
 6385SOL    HW130791   2.952   2.653   4.528 -0.4427  0.6349  0.2033
 6385SOL    HW230792   3.033   2.589   4.633 -0.8494 -0.3654  0.2712
 6386SOL     OW30793   2.064   1.033   1.627 -0.1457 -0.6971  0.2934
 6386SOL    HW130794   2.064   1.007   1.720 -2.3281  0.1614  0.5503
 6386SOL    HW230795   2.117   1.112   1.627 -0.1955 -0.6606  0.7915
 6387SOL     OW30796   0.229   2.199   8.781  0.4074 -0.5060  0.0892
 6387SOL    HW130797   0.197   2.109   8.790 -2.7484  0.8585  2.5704
 6387SOL    HW230798   0.324   2.190   8.788  0.2502 -1.4732  0.9052
 6388SOL     OW30799   2.399   4.041   2.702 -0.1658  0.1054 -0.6055
 6388SOL    HW130800   2.381   4.122   2.751  0.3704 -0.5573  0.6797
 6388SOL    HW230801   2.341   4.048   2.626 -0.8832  1.9102  0.0909
 6389SOL     OW30802   0.041   3.633   5.495 -0.3186 -0.1068  0.0943
 6389SOL    HW130803   0.037   3.663   5.586  1.1478 -1.3299  0.5682
 6389SOL    HW230804   0.079   3.545   5.506  0.1469  0.0261 -0.4869
 6390SOL     OW30805   3.117   1.925   3.678 -0.1651 -0.2381 -0.1710
 6390SOL    HW130806   3.069   1.895   3.755 -0.4265  1.4834  0.3293
 6390SOL    HW230807   3.125   2.019   3.692  0.7726 -0.0181 -2.1556
 6391SOL     OW30808   3.656   4.540  16.363  0.1894  0.2001  0.0266
 6391SOL    HW130809   3.697   4.569  16.444  0.2807 -0.8041  0.3418
 6391SOL    HW230810   3.713   4.469  16.333  1.9351  1.8697 -0.5970
 6392SOL     OW30811   2.349   3.217   4.639 -0.3744  0.2384 -0.4945
 6392SOL    HW130812   2.308   3.141   4.680  1.1203 -1.1099 -1.5055
 6392SOL    HW230813   2.436   3.213   4.678 -0.1774  1.0264 -0.8536
 6393SOL     OW30814   2.379   0.109   9.614 -0.1873  0.3570 -0.0915
 6393SOL    HW130815   2.469   0.082   9.594 -1.0533 -0.8705 -2.2699
 6393SOL    HW230816   2.383   0.202   9.591  0.8447  0.2123 -0.5308
 6394SOL     OW30817   0.235   1.200   2.542 -0.0601 -0.8321  0.8277
 6394SOL    HW130818   0.191   1.236   2.465  0.8626 -2.0696 -0.2923
 6394SOL    HW230819   0.326   1.225   2.524 -0.7973  1.2158  0.0292
 6395SOL     OW30820   4.102   2.279   0.183  0.0855  0.1394 -0.2652
 6395SOL    HW130821   4.118   2.214   0.251 -1.1566 -1.3268 -1.3607
 6395SOL    HW230822   4.191   2.312   0.169  0.5793 -0.2418  2.0142
 6396SOL     OW30823   0.806   0.881   9.871 -0.2380 -0.2190 -0.7003
 6396SOL    HW130824   0.857   0.960   9.890  1.0614 -1.4049  0.7202
 6396SOL    HW230825   0.771   0.867   9.958  0.2449 -1.1150 -0.6498
 6397SOL     OW30826   2.223   3.347   3.876  0.7837 -0.0022 -0.2868
 6397SOL    HW130827   2.269   3.303   3.804  0.8641  1.0872 -0.8917
 6397SOL    HW230828   2.300   3.380   3.921  0.7359  0.3762 -0.4878
 6398SOL     OW30829   0.840   3.043   4.968 -0.2119 -0.3224  0.8165
 6398SOL    HW130830   0.808   2.967   4.919 -0.2636 -0.0840  0.4804
 6398SOL    HW230831   0.789   3.041   5.049 -0.6338 -0.9097  0.5352
 6399SOL     OW30832   4.299   1.139   2.001 -0.8364  0.3167  0.2741
 6399SOL    HW130833   4.262   1.082   1.934  2.2385 -0.0620 -1.1281
 6399SOL    HW230834   4.324   1.084   2.074  0.5817 -0.1800 -0.5904
 6400SOL     OW30835   2.622   0.530   5.594 -0.0982  0.0929 -0.2014
 6400SOL    HW130836   2.578   0.561   5.674 -0.1939 -0.7044  0.0570
 6400SOL    HW230837   2.712   0.559   5.612  0.0064 -0.2319 -0.1986
 6401SOL     OW30838   2.544   2.903   5.605  0.1576  0.4440  0.5324
 6401SOL    HW130839   2.457   2.896   5.644 -0.0357 -1.3025 -0.1900
 6401SOL    HW230840   2.594   2.953   5.669  0.4359  0.2305  0.4843
 6402SOL     OW30841   4.662   3.832   3.449  0.4420  0.0458  0.6632
 6402SOL    HW130842   4.683   3.860   3.360 -2.0216 -0.1690  0.0193
 6402SOL    HW230843   4.660   3.920   3.486 -0.8908  0.0818  0.5025
 6403SOL     OW30844   1.313   0.806   7.896 -0.5878 -0.0755 -0.3582
 6403SOL    HW130845   1.363   0.724   7.888 -0.3067 -0.0192  0.8213
 6403SOL    HW230846   1.342   0.852   7.817 -1.7649 -1.0751 -1.3682
 6404SOL     OW30847   2.557   3.669   1.068  0.2886  0.2050 -0.1885
 6404SOL    HW130848   2.507   3.603   1.116  0.1107  1.6836  1.6652
 6404SOL    HW230849   2.601   3.632   0.991 -0.9062 -0.6240 -0.4737
 6405SOL     OW30850   1.950   3.898   3.753 -0.0165  0.4575 -0.3619
 6405SOL    HW130851   1.990   3.812   3.739 -0.9948  0.1524 -1.3068
 6405SOL    HW230852   1.877   3.901   3.690  1.1365  0.8787 -1.6806
 6406SOL     OW30853   3.178   3.228  11.925  0.1327  0.7376  0.8348
 6406SOL    HW130854   3.201   3.237  11.832 -1.1081 -0.2610  0.4253
 6406SOL    HW230855   3.086   3.203  11.917  0.5503 -0.8013  0.7437
 6407SOL     OW30856   1.370   1.024  12.178 -0.1248 -0.4437  0.3236
 6407SOL    HW130857   1.403   1.096  12.124  0.8334 -0.5056  0.8304
 6407SOL    HW230858   1.407   0.950  12.130 -2.1438 -0.6192 -0.9605
 6408SOL     OW30859   1.380   1.700   3.009  0.1668  0.1817  0.3970
 6408SOL    HW130860   1.419   1.775   2.964  2.2973 -0.9102  0.4213
 6408SOL    HW230861   1.444   1.690   3.079  1.2763  0.9749 -0.5012
 6409SOL     OW30862   3.124   0.498   5.828 -0.4798 -0.3135 -0.1681
 6409SOL    HW130863   3.202   0.533   5.871 -1.6299  0.6636  1.1155
 6409SOL    HW230864   3.093   0.421   5.875 -0.6149 -0.1065  0.0804
 6410SOL     OW30865   0.324   0.850   3.002  0.0683  0.4034  0.4862
 6410SOL    HW130866   0.343   0.889   2.916  0.1981 -1.6766 -0.4174
 6410SOL    HW230867   0.261   0.781   2.979  0.4710  0.3301 -0.3866
 6411SOL     OW30868   3.900   4.325   6.149 -0.1759 -0.2379  0.6084
 6411SOL    HW130869   3.880   4.237   6.115 -1.7278  1.3846 -2.6485
 6411SOL    HW230870   3.862   4.317   6.236 -0.5457  2.2886  0.6802
 6412SOL     OW30871   0.180   3.842   0.655  0.1163  0.5168  0.1172
 6412SOL    HW130872   0.204   3.898   0.582  2.0387  0.8905  1.0288
 6412SOL    HW230873   0.252   3.855   0.716  1.1700  2.3786 -1.5460
 6413SOL     OW30874   4.531   3.199   2.609  0.0148  0.7769  0.1732
 6413SOL    HW130875   4.573   3.117   2.633 -1.7448 -0.3277 -0.5469
 6413SOL    HW230876   4.593   3.244   2.551 -0.4749  3.1268  1.4803
 6414SOL     OW30877   0.979   2.420   1.993 -0.4685 -0.7775  0.4711
 6414SOL    HW130878   0.923   2.423   1.916 -1.2109  1.4241  1.1020
 6414SOL    HW230879   1.038   2.493   1.972 -1.0502 -0.4056  0.1309
 6415SOL     OW30880   4.529   4.061   1.677  0.1722 -0.4350 -0.0617
 6415SOL    HW130881   4.507   4.131   1.738  0.4137 -2.0500  1.9045
 6415SOL    HW230882   4.580   4.103   1.608  1.8012  2.1046  2.7045
 6416SOL     OW30883   3.382   4.001  17.363  0.3200  0.1274 -0.0540
 6416SOL    HW130884   3.330   4.056  17.304 -2.6999 -1.4156  1.1802
 6416SOL    HW230885   3.443   4.063  17.403 -0.2744 -0.5060  1.8304
 6417SOL     OW30886   1.695   1.432   8.463  0.3153  0.1553  0.5091
 6417SOL    HW130887   1.783   1.470   8.465  0.0866  0.7949 -1.8600
 6417SOL    HW230888   1.643   1.503   8.500  1.2023  0.8620  0.4053
 6418SOL     OW30889   2.068   0.273   4.360 -0.0275 -0.9584 -0.5292
 6418SOL    HW130890   2.154   0.243   4.330 -0.7212 -1.9543 -1.5104
 6418SOL    HW230891   2.047   0.213   4.432  0.7389 -0.3680  0.1895
 6419SOL     OW30892   3.874   4.046   8.841  0.6524 -0.4955  0.1425
 6419SOL    HW130893   3.894   3.965   8.887 -2.7604 -0.1709  2.1212
 6419SOL    HW230894   3.949   4.051   8.781  1.1849  0.2159  0.8648
 6420SOL     OW30895   1.378   2.848   5.013  0.1551  0.1909  0.2910
 6420SOL    HW130896   1.365   2.816   4.923  1.7673 -1.4592  0.6500
 6420SOL    HW230897   1.463   2.815   5.043  1.1548  1.0825 -1.5106
 6421SOL     OW30898   0.004   3.649   8.708  0.6301 -0.0853 -0.1707
 6421SOL    HW130899   4.734   3.668   8.614 -1.8285 -0.3556 -0.1223
 6421SOL    HW230900   4.729   3.553   8.705 -0.0249 -0.0320  0.0948
 6422SOL     OW30901   3.518   3.222   8.152  0.1299  0.3817 -0.2952
 6422SOL    HW130902   3.506   3.209   8.058 -1.8984  0.8276 -0.1202
 6422SOL    HW230903   3.431   3.223   8.193 -0.2873  2.6093 -1.2200
 6423SOL     OW30904   2.831   3.251   4.184 -0.2942 -0.0508 -0.2822
 6423SOL    HW130905   2.747   3.296   4.176  1.8627  4.3023  1.8624
 6423SOL    HW230906   2.882   3.301   4.248  1.0799 -1.8050  0.0182
 6424SOL     OW30907   4.450   3.204   9.533  0.2660 -0.1996 -0.5866
 6424SOL    HW130908   4.532   3.248   9.510  1.3852 -1.8776  0.2203
 6424SOL    HW230909   4.397   3.283   9.549 -1.0846 -0.7189 -2.5209
 6425SOL     OW30910   2.567   2.467   5.932 -0.5750 -0.4683  0.3317
 6425SOL    HW130911   2.636   2.533   5.928 -1.3268  0.3555  0.7715
 6425SOL    HW230912   2.555   2.455   5.838  2.4193  0.9446 -0.2379
 6426SOL     OW30913   2.513   3.457   5.118 -0.1832 -0.3112 -0.3048
 6426SOL    HW130914   2.491   3.550   5.115  1.4726  0.1441  1.7166
 6426SOL    HW230915   2.423   3.426   5.107  0.6370 -2.6214 -0.4847
 6427SOL     OW30916   4.289   2.361  12.326  0.8945  0.0102 -0.1215
 6427SOL    HW130917   4.241   2.282  12.302 -0.6344  0.5387  1.1419
 6427SOL    HW230918   4.372   2.321  12.349  0.8193  0.0276  0.1816
 6428SOL     OW30919   3.414   0.951   8.356  0.3824  0.2113 -0.0575
 6428SOL    HW130920   3.427   0.958   8.451 -1.7539  0.3302  0.2444
 6428SOL    HW230921   3.460   0.870   8.335 -1.2249 -0.5945 -0.4907
 6429SOL     OW30922   2.605   1.024  10.149 -1.1200  0.3200 -0.4381
 6429SOL    HW130923   2.665   0.973  10.095  0.5522  0.1486  1.6231
 6429SOL    HW230924   2.670   1.064  10.206  0.8777 -0.3915 -2.2254
 6430SOL     OW30925   1.128   1.898   3.384  0.1655  0.4167 -0.0104
 6430SOL    HW130926   1.103   1.943   3.303  2.1863  0.8351 -0.4036
 6430SOL    HW230927   1.042   1.879   3.421 -1.0882  0.9405 -2.6109
 6431SOL     OW30928   4.444   3.941  13.753  0.5176  0.5168  0.2849
 6431SOL    HW130929   4.532   3.958  13.785  1.6600 -0.9668 -2.1405
 6431SOL    HW230930   4.451   3.997  13.676 -2.8318  0.7873  0.1574
 6432SOL     OW30931   0.105   3.895   7.697  0.1617  0.2304 -0.1068
 6432SOL    HW130932   0.075   3.860   7.613 -0.4477  1.5178 -0.4319
 6432SOL    HW230933   0.186   3.846   7.712  0.4506  1.3493  1.9825
 6433SOL     OW30934   4.576   3.521  13.336  0.4588  0.3645  0.1639
 6433SOL    HW130935   4.520   3.451  13.371 -0.7664  1.0746 -0.3939
 6433SOL    HW230936   4.645   3.466  13.297 -2.3567 -2.0351 -1.4071
 6434SOL     OW30937   2.516   2.723   4.685  0.3593  0.0710 -0.2611
 6434SOL    HW130938   2.527   2.637   4.646 -2.3122 -0.4899  0.1931
 6434SOL    HW230939   2.467   2.699   4.764  0.7422 -0.4710 -0.1910
 6435SOL     OW30940   3.020   2.260  15.039 -0.2733 -0.0413  0.2254
 6435SOL    HW130941   2.947   2.212  15.001  0.3482 -0.5793 -0.2914
 6435SOL    HW230942   3.045   2.197  15.107  0.3353 -0.9988 -0.8867
 6436SOL     OW30943   1.821   1.306  14.622 -0.1220  0.4069 -0.0664
 6436SOL    HW130944   1.736   1.273  14.595  0.5006  0.3256 -1.9231
 6436SOL    HW230945   1.879   1.230  14.624 -0.4190  0.1976  0.5775
 6437SOL     OW30946   0.076   4.009  16.495 -0.0414  0.4969  0.0680
 6437SOL    HW130947   0.035   3.932  16.533  0.3486  0.6784  0.8593
 6437SOL    HW230948   0.067   3.986  16.403  0.5830 -0.9163  0.3604
 6438SOL     OW30949   3.162   0.644   9.363 -0.4424 -0.0160  0.3806
 6438SOL    HW130950   3.218   0.652   9.285 -0.9564  0.1726  0.0284
 6438SOL    HW230951   3.206   0.562   9.386 -0.8329  0.2354  2.0291
 6439SOL     OW30952   3.973   3.417   7.987  0.3667  0.3611  0.1007
 6439SOL    HW130953   3.981   3.325   8.012 -0.3206 -0.0445 -1.1842
 6439SOL    HW230954   3.893   3.438   8.035 -0.8663 -0.7916 -1.4343
 6440SOL     OW30955   4.374   3.262   4.456 -0.1044 -0.3672  0.1943
 6440SOL    HW130956   4.406   3.297   4.540  1.1563  0.5225 -0.6529
 6440SOL    HW230957   4.435   3.298   4.392 -2.3085  2.9775 -0.0892
 6441SOL     OW30958   3.723   2.773  13.617  0.6660 -0.0120 -0.5269
 6441SOL    HW130959   3.736   2.802  13.708  0.0417 -0.9789 -0.1265
 6441SOL    HW230960   3.779   2.837  13.573  0.9165  0.1239 -0.0178
 6442SOL     OW30961   4.494   3.531   7.880  0.1252  0.2554  0.2867
 6442SOL    HW130962   4.440   3.511   7.956 -2.3932 -1.5022 -1.9914
 6442SOL    HW230963   4.480   3.455   7.824 -0.2515  0.8186 -0.3917
 6443SOL     OW30964   1.445   2.692  11.539 -0.5134  0.4266 -0.8358
 6443SOL    HW130965   1.462   2.785  11.525  1.8563  0.0719 -0.2576
 6443SOL    HW230966   1.357   2.682  11.502 -0.3090 -1.6347 -0.7609
 6444SOL     OW30967   1.336   3.121   1.375  0.1007  0.5321 -0.1191
 6444SOL    HW130968   1.418   3.071   1.374  0.1142  0.5373  0.6344
 6444SOL    HW230969   1.280   3.080   1.441  4.2107 -2.9400  1.2235
 6445SOL     OW30970   0.341   2.540  15.258 -0.3517 -0.4405  0.1568
 6445SOL    HW130971   0.342   2.445  15.243 -0.7791 -0.2608 -1.0432
 6445SOL    HW230972   0.361   2.549  15.351 -0.1864 -0.7880  0.1563
 6446SOL     OW30973   1.606   1.674   2.481 -0.2701  0.6428 -0.2869
 6446SOL    HW130974   1.601   1.582   2.507 -2.2640  0.5954 -0.8669
 6446SOL    HW230975   1.517   1.705   2.464  0.2394  2.4130  0.2417
 6447SOL     OW30976   0.966   2.434   6.907 -0.1525  0.2453  0.0238
 6447SOL    HW130977   0.956   2.467   6.818 -1.7046  2.0034  0.8571
 6447SOL    HW230978   1.060   2.420   6.910  0.0247  1.8335  1.9087
 6448SOL     OW30979   3.804   3.250   3.286 -0.3737 -0.1796 -0.4245
 6448SOL    HW130980   3.766   3.201   3.214 -1.0003 -1.0151  0.4750
 6448SOL    HW230981   3.721   3.277   3.326 -0.4252 -0.1595 -0.5477
 6449SOL     OW30982   1.045   3.303   5.965  0.1194 -0.2866 -0.8315
 6449SOL    HW130983   1.038   3.214   5.999  0.9449  0.7864  2.1337
 6449SOL    HW230984   1.039   3.353   6.047 -2.5377  0.6674 -1.6106
 6450SOL     OW30985   0.654   2.111   2.810 -0.5412 -0.1467  0.4449
 6450SOL    HW130986   0.708   2.039   2.777 -1.8124 -0.9777  0.1846
 6450SOL    HW230987   0.725   2.155   2.856 -0.3108 -1.4476  1.3082
 6451SOL     OW30988   1.306   0.637   6.130  0.4104 -0.3139 -0.2295
 6451SOL    HW130989   1.282   0.692   6.055 -1.2023  0.7025  1.0404
 6451SOL    HW230990   1.386   0.675   6.166 -0.2096  1.8790 -1.1960
 6452SOL     OW30991   0.413   4.396   4.299 -0.0349  0.1039  0.2291
 6452SOL    HW130992   0.397   4.490   4.291 -3.7458 -0.5938 -0.2161
 6452SOL    HW230993   0.364   4.373   4.378 -1.9797  0.4605 -0.8844
 6453SOL     OW30994   4.262   4.218   0.546  0.0857 -0.4456 -0.0672
 6453SOL    HW130995   4.281   4.210   0.640 -2.8556 -3.6383  0.2641
 6453SOL    HW230996   4.350   4.243   0.517 -0.2935 -0.8456 -1.5606
 6454SOL     OW30997   0.275   1.985  11.608  0.3251  0.0725 -0.2471
 6454SOL    HW130998   0.233   1.912  11.652 -0.2020  0.0465 -0.7914
 6454SOL    HW230999   0.282   1.962  11.515  2.9316 -0.2611  0.0217
 6455SOL     OW31000   0.986   3.132   7.842  0.3281  0.0144 -0.3973
 6455SOL    HW131001   1.008   3.128   7.749  1.3615  1.4577 -0.2102
 6455SOL    HW231002   0.984   3.227   7.846 -0.8310 -0.0848  1.2248
 6456SOL     OW31003   1.482   3.474   9.396 -0.6394  0.0179  0.5546
 6456SOL    HW131004   1.571   3.507   9.405 -0.4631 -0.0314 -0.9947
 6456SOL    HW231005   1.480   3.476   9.300  0.8663  1.2570  0.5548
 6457SOL     OW31006   2.194   1.417  14.426 -0.1998 -0.2344  0.6544
 6457SOL    HW131007   2.163   1.432  14.515 -1.9877  0.9625 -0.1621
 6457SOL    HW231008   2.119   1.362  14.402 -0.2300 -0.8940  2.3310
 6458SOL     OW31009   0.025   1.759   7.602  0.1006  0.6944  0.0826
 6458SOL    HW131010   4.727   1.702   7.672 -0.2415 -1.2030 -1.6222
 6458SOL    HW231011   0.090   1.803   7.656 -0.5590 -1.3772  2.5861
 6459SOL     OW31012   0.560   3.303   2.749 -0.3541 -0.3321  0.1566
 6459SOL    HW131013   0.609   3.224   2.770 -1.3423 -1.0639 -0.3216
 6459SOL    HW231014   0.525   3.293   2.660  2.9900 -0.6007 -1.1126
 6460SOL     OW31015   0.662   3.461   0.492  0.1804 -0.1412 -0.1513
 6460SOL    HW131016   0.756   3.478   0.494  0.0510  0.4537  0.9173
 6460SOL    HW231017   0.626   3.546   0.467 -0.2161  0.0920  1.1879
 6461SOL     OW31018   0.528   2.952   6.403 -0.5025 -0.0163 -0.5589
 6461SOL    HW131019   0.527   2.915   6.315  1.8202 -0.8053 -0.2470
 6461SOL    HW231020   0.605   2.911   6.442 -1.5545  0.5117  2.1237
 6462SOL     OW31021   0.178   2.492   3.720 -0.3186  0.4120 -0.8164
 6462SOL    HW131022   0.195   2.399   3.702  0.3501  0.5534 -0.8945
 6462SOL    HW231023   0.100   2.508   3.667 -0.4166  0.3160 -0.7006
 6463SOL     OW31024   3.317   1.536   6.147  0.3180  0.5877 -0.5142
 6463SOL    HW131025   3.237   1.516   6.098  1.1794  1.2615 -2.2121
 6463SOL    HW231026   3.354   1.449   6.164 -0.2398  0.2774 -0.8680
 6464SOL     OW31027   1.306   3.638   8.032 -0.3700  0.9695 -0.2212
 6464SOL    HW131028   1.280   3.686   8.110 -0.7236 -0.0401  0.2868
 6464SOL    HW231029   1.379   3.598   8.080  1.0202  0.5892 -2.6493
 6465SOL     OW31030   0.090   0.923   4.577 -0.5896 -0.2238 -0.1381
 6465SOL    HW131031   0.035   0.907   4.500  0.3971  1.7939 -1.2525
 6465SOL    HW231032   0.142   0.988   4.530  0.3567 -0.2143  0.9228
 6466SOL     OW31033   0.508   4.659   3.134  0.2589  0.1421 -0.5310
 6466SOL    HW131034   0.556   4.680   3.054  0.6210  1.7761  0.1175
 6466SOL    HW231035   0.515   4.564   3.132  3.1780  0.3980 -1.8816
 6467SOL     OW31036   1.530   3.102   8.168  0.0258  0.0841  0.0789
 6467SOL    HW131037   1.492   3.026   8.124 -1.3292  0.8061 -0.0012
 6467SOL    HW231038   1.477   3.180   8.153 -0.8212 -0.3433  0.8387
 6468SOL     OW31039   3.481   0.420   3.323 -0.5188 -0.8639 -0.0742
 6468SOL    HW131040   3.514   0.372   3.399 -0.0995 -0.3312  0.0883
 6468SOL    HW231041   3.496   0.509   3.354  1.7346 -1.2962  0.0776
 6469SOL     OW31042   4.633   3.990  17.341  0.0261 -0.5410 -0.1339
 6469SOL    HW131043   4.634   3.945  17.256  1.7984  0.4045 -0.6005
 6469SOL    HW231044   4.599   3.920  17.398  2.6099 -2.3620 -0.8247
 6470SOL     OW31045   4.568   2.231   6.956  0.1158 -0.1096 -0.4081
 6470SOL    HW131046   4.654   2.198   6.933 -0.2244 -0.8715 -0.5738
 6470SOL    HW231047   4.593   2.321   6.979 -0.1117 -0.1310 -0.0781
 6471SOL     OW31048   0.835   1.233   4.752 -0.2807  0.6502  0.4255
 6471SOL    HW131049   0.772   1.164   4.776  0.8238 -0.4870  0.0301
 6471SOL    HW231050   0.819   1.311   4.805  0.2305  0.7960  0.3593
 6472SOL     OW31051   1.755   3.924   6.443 -0.2953 -0.4843  0.2287
 6472SOL    HW131052   1.666   3.893   6.462 -1.3092  1.0290 -1.9920
 6472SOL    HW231053   1.768   3.877   6.360 -1.3577  1.5342 -1.0914
 6473SOL     OW31054   0.639   0.702   7.816 -0.2395 -0.3275  0.5863
 6473SOL    HW131055   0.618   0.636   7.882  1.0830 -2.3878 -1.0409
 6473SOL    HW231056   0.587   0.673   7.741 -0.3924  1.4955 -0.0074
 6474SOL     OW31057   3.203   1.554  13.919 -0.1803  0.2916  0.2600
 6474SOL    HW131058   3.133   1.564  13.984 -1.2525 -0.7988 -0.7352
 6474SOL    HW231059   3.185   1.467  13.883  2.3414  0.0948 -0.5635
 6475SOL     OW31060   3.457   1.896   5.121  0.0917  0.1928  0.0737
 6475SOL    HW131061   3.363   1.900   5.102  0.1202 -0.0926 -0.1218
 6475SOL    HW231062   3.501   1.937   5.047  0.2537 -0.7938 -0.3826
 6476SOL     OW31063   3.276   3.875   0.043 -0.8017 -0.1847  0.1382
 6476SOL    HW131064   3.313   3.846   0.126 -0.3920 -1.8795 -0.6352
 6476SOL    HW231065   3.226   3.951   0.072 -0.5234  0.1687 -0.3200
 6477SOL     OW31066   4.119   2.657   3.729  0.3047  0.8302 -0.0052
 6477SOL    HW131067   4.157   2.628   3.812  2.5806  2.4744 -0.4886
 6477SOL    HW231068   4.073   2.579   3.697 -1.2431  1.4270  0.7847
 6478SOL     OW31069   4.512   0.316   8.526  0.4101 -0.4017 -0.2877
 6478SOL    HW131070   4.518   0.264   8.606  0.0663  0.4409  0.2801
 6478SOL    HW231071   4.520   0.404   8.563  1.6306 -0.6962  0.1550
 6479SOL     OW31072   1.091   2.096   3.893 -0.1184  0.1933 -0.1912
 6479SOL    HW131073   1.030   2.110   3.820  1.3005 -0.1764 -1.4597
 6479SOL    HW231074   1.129   2.183   3.910 -0.9458  0.1108  2.0623
 6480SOL     OW31075   2.733   4.455   5.649  0.4484 -0.5736  0.5808
 6480SOL    HW131076   2.739   4.500   5.733  0.9227 -1.7210  1.1589
 6480SOL    HW231077   2.700   4.527   5.595  0.9203 -0.5125  0.3759
 6481SOL     OW31078   2.051   2.954   8.541  0.0640 -0.2065  1.0714
 6481SOL    HW131079   2.081   2.944   8.631  1.2204  1.3438  0.8482
 6481SOL    HW231080   2.127   2.990   8.494 -0.3504  0.1234  0.6577
 6482SOL     OW31081   2.629   2.810   3.709 -0.6666 -0.0529  0.6630
 6482SOL    HW131082   2.540   2.793   3.740 -0.6411  0.5053  1.0218
 6482SOL    HW231083   2.652   2.717   3.712  1.6010  0.5080  0.5794
 6483SOL     OW31084   2.940   3.129   0.294  0.6600 -1.2966 -0.1613
 6483SOL    HW131085   3.007   3.192   0.319 -0.1717 -1.3525  2.1237
 6483SOL    HW231086   2.989   3.086   0.223  0.7970  0.6380 -1.2372
 6484SOL     OW31087   3.606   4.377   4.056  0.0356 -0.0869  0.5078
 6484SOL    HW131088   3.652   4.294   4.046  0.0621 -0.0533  0.3506
 6484SOL    HW231089   3.596   4.375   4.151 -1.7414  1.7837  0.3593
 6485SOL     OW31090   1.802   4.105   5.958  0.6028  0.3287  0.3890
 6485SOL    HW131091   1.848   4.101   5.874  0.8278 -4.0396  0.6943
 6485SOL    HW231092   1.871   4.126   6.021  0.8018  0.8795 -0.0160
 6486SOL     OW31093   1.001   1.885  17.035  0.3967 -0.4424  0.8029
 6486SOL    HW131094   1.072   1.941  17.066 -1.1525  1.4260  0.9801
 6486SOL    HW231095   0.931   1.949  17.018 -0.1002 -0.9210  1.0599
 6487SOL     OW31096   0.186   4.584  14.870 -0.1270 -0.3655  0.4093
 6487SOL    HW131097   0.135   4.661  14.891 -0.9426 -0.8668  0.2697
 6487SOL    HW231098   0.125   4.523  14.828  0.4364 -2.0353  2.0150
 6488SOL     OW31099   4.009   1.354   7.221 -0.6292  0.2630 -0.7338
 6488SOL    HW131100   4.042   1.402   7.297  0.2033  1.5631 -1.9220
 6488SOL    HW231101   4.086   1.339   7.167  0.2052  1.1382  0.2024
 6489SOL     OW31102   4.255   2.893  13.926  0.0879 -0.0606  0.1160
 6489SOL    HW131103   4.315   2.823  13.952  0.0712 -0.1707 -0.1356
 6489SOL    HW231104   4.200   2.847  13.862 -0.2558 -0.1716  0.4974
 6490SOL     OW31105   1.270   2.997  11.283  0.5753 -0.6886  0.2389
 6490SOL    HW131106   1.311   2.932  11.226  1.5803 -1.4362  1.8191
 6490SOL    HW231107   1.296   2.959  11.367 -0.3063 -0.4245  0.6305
 6491SOL     OW31108   0.862   2.527   4.838 -0.1537  0.2838 -0.3231
 6491SOL    HW131109   0.839   2.527   4.931 -1.9897  1.0741 -0.7737
 6491SOL    HW231110   0.850   2.432   4.827  0.8505  0.2881 -1.4407
 6492SOL     OW31111   2.998   1.837   3.204 -0.2087 -0.1944  0.5822
 6492SOL    HW131112   3.031   1.809   3.119 -1.6481 -1.4156  0.4184
 6492SOL    HW231113   2.908   1.803   3.203 -0.9757  1.7709  1.1249
 6493SOL     OW31114   0.552   0.796   9.749  1.0663  0.1930  0.6638
 6493SOL    HW131115   0.633   0.813   9.798  0.9422  0.6433  0.7165
 6493SOL    HW231116   0.578   0.842   9.669 -0.5591 -0.6251 -0.3283
 6494SOL     OW31117   4.100   2.765   7.462  0.5599 -0.0972  0.7060
 6494SOL    HW131118   4.151   2.737   7.386 -0.7467 -2.2984  0.6270
 6494SOL    HW231119   4.119   2.689   7.517  0.8067 -0.1882  0.4975
 6495SOL     OW31120   3.177   0.196   1.169  0.7306 -0.4552  0.3648
 6495SOL    HW131121   3.260   0.157   1.196  1.0152 -0.6067 -0.7489
 6495SOL    HW231122   3.175   0.267   1.232  2.2440 -0.1795  0.0907
 6496SOL     OW31123   3.810   2.179   5.660 -0.8276 -0.1135 -0.4687
 6496SOL    HW131124   3.789   2.215   5.746  0.2676  0.7105 -0.5559
 6496SOL    HW231125   3.775   2.250   5.606  1.5135  1.3086 -0.1137
 6497SOL     OW31126   1.913   4.443   5.762  0.4434  0.0074  0.1677
 6497SOL    HW131127   1.825   4.461   5.730  0.3184 -2.8031 -1.0427
 6497SOL    HW231128   1.891   4.435   5.855  1.3704  1.6723  0.5381
 6498SOL     OW31129   2.735   0.475   4.079 -0.9415  0.2664  0.5948
 6498SOL    HW131130   2.693   0.520   4.152 -1.5546  1.2884 -0.3986
 6498SOL    HW231131   2.827   0.501   4.089 -0.8206 -0.5981  1.7370
 6499SOL     OW31132   0.000   2.723   0.610 -0.1242  0.2296 -0.2444
 6499SOL    HW131133   4.721   2.659   0.540  0.9121  0.0604 -0.3007
 6499SOL    HW231134   4.649   2.765   0.600  0.0416  0.4945 -0.5832
 6500SOL     OW31135   3.351   4.277  10.111  0.4710 -0.3800 -0.1970
 6500SOL    HW131136   3.288   4.259  10.180  0.2522 -2.2304 -0.8805
 6500SOL    HW231137   3.403   4.340  10.162  0.8104 -1.7082  1.0846
 6501SOL     OW31138   1.647   2.314   5.208  0.2184 -0.3562  0.6787
 6501SOL    HW131139   1.712   2.278   5.267 -0.5448 -1.0544  1.0858
 6501SOL    HW231140   1.655   2.253   5.134  0.5923 -0.8411  1.1280
 6502SOL     OW31141   1.460   1.736   9.497  0.2631 -0.0839 -0.4762
 6502SOL    HW131142   1.507   1.669   9.447  0.7807  0.4979 -0.7743
 6502SOL    HW231143   1.485   1.818   9.453  0.2887  0.3160  0.2896
 6503SOL     OW31144   1.175   4.098   3.110 -0.4691  0.2880 -0.2530
 6503SOL    HW131145   1.101   4.154   3.088 -1.6884 -1.4397 -0.5243
 6503SOL    HW231146   1.179   4.057   3.023  0.0990  0.5683 -0.3621
 6504SOL     OW31147   2.101   2.292   9.813 -0.4865 -0.6524 -0.8160
 6504SOL    HW131148   2.185   2.276   9.856 -0.6855 -1.5900 -0.7720
 6504SOL    HW231149   2.123   2.377   9.776 -2.8041  0.5668  0.5827
 6505SOL     OW31150   0.485   2.328   0.256  0.5168  0.0797  0.4366
 6505SOL    HW131151   0.402   2.337   0.209 -0.9000  1.0112  3.1554
 6505SOL    HW231152   0.475   2.393   0.326 -2.3551 -1.6254  1.6017
 6506SOL     OW31153   2.194   2.407   7.670 -0.3397 -0.4393 -0.2045
 6506SOL    HW131154   2.206   2.363   7.754 -0.0442  2.1308  1.1154
 6506SOL    HW231155   2.225   2.496   7.690  0.5286 -1.0794  1.2598
 6507SOL     OW31156   2.731   3.916   6.374  0.0175 -0.1419  0.6290
 6507SOL    HW131157   2.691   3.922   6.461  0.1753  1.9558  0.5459
 6507SOL    HW231158   2.702   3.997   6.333  0.5332  0.0268  0.5978
 6508SOL     OW31159   2.481   0.693   0.440 -0.1266 -0.4603  0.0444
 6508SOL    HW131160   2.459   0.652   0.356  2.2576 -0.9536 -0.3409
 6508SOL    HW231161   2.574   0.712   0.429 -0.1607 -2.1766 -3.1908
 6509SOL     OW31162   3.793   0.910   4.423  0.0335 -0.2976  0.3910
 6509SOL    HW131163   3.780   0.927   4.516  0.0957 -0.3802  0.4156
 6509SOL    HW231164   3.790   0.999   4.387 -3.0174 -0.2515  0.7812
 6510SOL     OW31165   0.221   2.476   6.774 -0.2097  0.7739 -0.4657
 6510SOL    HW131166   0.172   2.468   6.855  0.7665  0.8987  0.1360
 6510SOL    HW231167   0.238   2.570   6.761  1.8618  0.4335 -0.2383
 6511SOL     OW31168   1.539   2.753  17.249 -0.3616 -0.2138 -0.2243
 6511SOL    HW131169   1.480   2.810  17.298 -1.7822 -0.5759 -1.4769
 6511SOL    HW231170   1.556   2.811  17.175 -0.0150  2.9668  2.3832
 6512SOL     OW31171   2.702   3.884   9.180 -0.4730 -0.6375 -1.5893
 6512SOL    HW131172   2.683   3.797   9.146 -1.3291 -1.0016 -0.1633
 6512SOL    HW231173   2.614   3.922   9.186 -0.7629 -1.7046  0.8237
 6513SOL     OW31174   2.261   2.582   3.973  0.1523 -0.2609  0.4786
 6513SOL    HW131175   2.176   2.549   4.003  0.6007 -0.0763  1.9442
 6513SOL    HW231176   2.315   2.559   4.048  0.7860 -1.6039 -0.3877
 6514SOL     OW31177   1.523   0.552   0.230  0.4367  0.2943  0.7908
 6514SOL    HW131178   1.596   0.492   0.246  2.1230  2.2309  0.3188
 6514SOL    HW231179   1.472   0.511   0.161 -2.1430 -0.6913  3.3034
 6515SOL     OW31180   3.729   1.800   3.334 -1.0042 -0.2731  0.7578
 6515SOL    HW131181   3.719   1.748   3.254 -0.0142 -1.9767  1.7630
 6515SOL    HW231182   3.823   1.802   3.349 -0.9989  0.0646  0.6784
 6516SOL     OW31183   1.327   0.848   2.442  0.3796  0.1155  0.1569
 6516SOL    HW131184   1.395   0.789   2.411 -0.5813 -0.8584 -0.1021
 6516SOL    HW231185   1.327   0.834   2.537  3.9210  3.5195  0.6596
 6517SOL     OW31186   3.321   0.452   3.067 -0.2846  0.8455 -0.5744
 6517SOL    HW131187   3.355   0.443   3.156 -1.3792 -0.3530 -0.2716
 6517SOL    HW231188   3.234   0.412   3.078  0.0872  0.1248 -0.2523
 6518SOL     OW31189   0.406   2.580  11.409 -0.0426  0.0488 -0.2073
 6518SOL    HW131190   0.446   2.493  11.415 -1.2894 -0.2572  3.7054
 6518SOL    HW231191   0.447   2.625  11.335 -1.1085  0.7184 -0.3929
 6519SOL     OW31192   1.283   4.144   2.570 -0.8124  0.1239 -0.4303
 6519SOL    HW131193   1.207   4.091   2.547 -1.5596  1.6402 -1.4808
 6519SOL    HW231194   1.241   4.219   2.612 -1.2399 -1.9555  2.8042
 6520SOL     OW31195   4.270   0.855   6.817 -0.2376  0.0527  0.6649
 6520SOL    HW131196   4.230   0.937   6.788 -1.8585 -0.2682  1.9984
 6520SOL    HW231197   4.313   0.824   6.738 -1.9721 -0.0894 -0.2321
 6521SOL     OW31198   3.066   4.624  14.341  0.0893 -0.2975  0.0048
 6521SOL    HW131199   3.054   4.668  14.425 -1.1991 -1.6969  0.5620
 6521SOL    HW231200   2.985   4.652  14.298  0.1045  0.5392  0.5147
 6522SOL     OW31201   4.222   1.355   4.599  0.5637  0.3815  0.0120
 6522SOL    HW131202   4.303   1.304   4.597 -0.0130 -0.4256 -2.5175
 6522SOL    HW231203   4.227   1.411   4.676  2.0805  1.5064 -0.9217
 6523SOL     OW31204   3.250   1.745   6.466 -0.0850 -0.1795  0.8884
 6523SOL    HW131205   3.228   1.804   6.539 -0.9842 -0.2454  0.6720
 6523SOL    HW231206   3.180   1.681   6.471 -1.2330  0.8342 -2.5934
 6524SOL     OW31207   0.011   3.512  16.743  0.1848  0.3357  0.0155
 6524SOL    HW131208   0.065   3.468  16.809 -1.9701 -0.2100  1.4232
 6524SOL    HW231209   4.690   3.439  16.715 -0.8061  1.3367 -0.6607
 6525SOL     OW31210   2.801   2.204   6.755 -0.0463  0.2752  0.3214
 6525SOL    HW131211   2.855   2.205   6.834 -1.4334  1.9158  1.2503
 6525SOL    HW231212   2.712   2.228   6.781  0.5834 -0.2794  2.9967
 6526SOL     OW31213   3.395   1.187  15.492  0.3425 -0.9285 -0.2197
 6526SOL    HW131214   3.322   1.147  15.539  1.7166 -2.3229  0.7121
 6526SOL    HW231215   3.438   1.109  15.457  0.8766  0.0179 -1.6697
 6527SOL     OW31216   1.019   2.396   8.101 -0.6543  0.7199  0.7831
 6527SOL    HW131217   0.933   2.411   8.061  0.0917 -2.3915 -1.9935
 6527SOL    HW231218   0.985   2.413   8.188 -1.3995  1.0332  0.4322
 6528SOL     OW31219   1.027   1.091  11.942  0.0205  0.4886  0.3303
 6528SOL    HW131220   1.044   1.094  12.036 -1.6397 -0.9663  0.6618
 6528SOL    HW231221   1.044   1.181  11.914 -1.2443  0.3657 -0.8364
 6529SOL     OW31222   3.467   3.388   2.773 -0.9088 -0.0165  0.4422
 6529SOL    HW131223   3.431   3.331   2.840  2.2082  1.0660  3.0629
 6529SOL    HW231224   3.534   3.330   2.736 -0.0275  1.2302  0.0783
 6530SOL     OW31225   3.607   2.168  16.354  0.0237 -0.1698 -0.5960
 6530SOL    HW131226   3.537   2.102  16.361  0.5203 -0.6250 -0.0155
 6530SOL    HW231227   3.677   2.142  16.413 -0.0107  0.2406 -0.3750
 6531SOL     OW31228   2.637   3.419   4.137 -0.2648 -0.4610  0.7006
 6531SOL    HW131229   2.653   3.508   4.106 -0.2348 -0.2871  1.2124
 6531SOL    HW231230   2.544   3.422   4.159  0.0272  1.5977  1.6088
 6532SOL     OW31231   0.832   2.456   5.116  0.0213  0.0166  0.6398
 6532SOL    HW131232   0.763   2.445   5.181 -1.0949 -0.3208 -0.5979
 6532SOL    HW231233   0.907   2.422   5.166  0.4923 -1.0047 -0.7583
 6533SOL     OW31234   3.136   2.381   2.679  0.4173  0.3323  0.5268
 6533SOL    HW131235   3.220   2.396   2.723  0.5867 -1.1383  0.7055
 6533SOL    HW231236   3.129   2.462   2.628 -2.1938  0.1818  0.6805
 6534SOL     OW31237   3.605   1.934  16.710  0.1792  0.4067  0.7773
 6534SOL    HW131238   3.659   1.945  16.631 -0.8019 -0.1899  0.0207
 6534SOL    HW231239   3.646   1.854  16.742  0.1324 -0.2847 -0.9175
 6535SOL     OW31240   3.731   0.044   2.817 -0.1766 -0.7322 -0.3193
 6535SOL    HW131241   3.675   0.065   2.742 -0.3438 -1.7836 -0.4931
 6535SOL    HW231242   3.797   0.113   2.817 -3.1524  2.1116 -0.2118
 6536SOL     OW31243   3.971   2.128   3.037 -0.3507  0.7569  0.0884
 6536SOL    HW131244   4.020   2.175   2.970 -0.1986  0.8014  0.2315
 6536SOL    HW231245   4.029   2.147   3.111 -0.6102 -1.4263  0.8479
 6537SOL     OW31246   2.995   1.493   5.392  0.1460 -0.3630 -0.4140
 6537SOL    HW131247   2.966   1.582   5.410 -1.9451 -1.1532  0.1319
 6537SOL    HW231248   3.059   1.481   5.461 -0.9523 -0.5563  0.5722
 6538SOL     OW31249   3.278   3.770   4.774 -0.2274  0.3191 -0.2333
 6538SOL    HW131250   3.251   3.860   4.755  0.1572  0.4546 -0.1307
 6538SOL    HW231251   3.237   3.756   4.860 -0.1156  0.5089 -0.1494
 6539SOL     OW31252   3.446   3.858   0.522  0.3977 -0.0583 -0.2164
 6539SOL    HW131253   3.526   3.907   0.502  1.5442 -2.0452 -0.5023
 6539SOL    HW231254   3.415   3.830   0.436 -0.5727 -1.4628  0.5914
 6540SOL     OW31255   1.332   0.673   4.615  0.5779  0.3008  0.2755
 6540SOL    HW131256   1.274   0.741   4.650 -1.8729 -1.7674  0.1802
 6540SOL    HW231257   1.324   0.683   4.520 -1.9654  1.0243  0.5698
 6541SOL     OW31258   4.203   3.995   2.978  0.1934  0.0733 -0.3832
 6541SOL    HW131259   4.140   4.033   2.916  0.4946  1.5152  0.1754
 6541SOL    HW231260   4.145   3.939   3.029 -0.3911 -0.3433 -1.5129
 6542SOL     OW31261   0.343   0.833   0.183 -0.3998 -0.0531 -0.6427
 6542SOL    HW131262   0.407   0.762   0.192  1.6225  1.8762  0.2297
 6542SOL    HW231263   0.345   0.851   0.089  4.3637  0.4025 -0.4792
 6543SOL     OW31264   3.222   3.425  12.152 -0.4319  1.3301 -0.2398
 6543SOL    HW131265   3.229   3.345  12.100 -1.1677  2.0680 -1.4869
 6543SOL    HW231266   3.137   3.462  12.125 -0.6089  1.0998  0.0013
 6544SOL     OW31267   0.576   4.719   8.759  0.2780 -0.6535  0.4417
 6544SOL    HW131268   0.607   4.722   8.669 -0.8610 -3.9245 -0.0560
 6544SOL    HW231269   0.590   0.076   8.783 -0.5111 -0.5815  0.6402
 6545SOL     OW31270   1.558   4.004   5.860  0.3019 -0.4756  0.5438
 6545SOL    HW131271   1.502   4.080   5.878  3.3220  1.8704  0.0448
 6545SOL    HW231272   1.641   4.030   5.901  1.3887 -1.5323 -1.0130
 6546SOL     OW31273   1.836   1.521   3.860 -0.1104 -0.2081  0.0738
 6546SOL    HW131274   1.848   1.615   3.868  1.4589 -0.2935 -1.2205
 6546SOL    HW231275   1.741   1.520   3.860 -0.1273  3.9111 -2.0919
 6547SOL     OW31276   4.622   4.629  12.530  0.2909 -0.2530 -0.3181
 6547SOL    HW131277   4.574   4.668  12.603  1.2894 -0.9469  0.7210
 6547SOL    HW231278   4.642   4.537  12.548  3.2714  0.8678  2.1780
 6548SOL     OW31279   2.678   3.642   9.953  0.0136  0.0576 -0.0064
 6548SOL    HW131280   2.599   3.635   9.900 -0.0493 -0.5493  0.1682
 6548SOL    HW231281   2.681   3.561  10.003  2.3716 -0.1762 -0.5434
 6549SOL     OW31282   4.411   0.829   3.048  0.1114 -0.2157  0.2723
 6549SOL    HW131283   4.418   0.889   3.122  0.6912 -1.6258  1.3524
 6549SOL    HW231284   4.505   0.824   3.031  0.5258  0.4949  2.3813
 6550SOL     OW31285   3.876   2.808   6.577  0.3473  0.1672 -0.0772
 6550SOL    HW131286   3.885   2.729   6.523 -2.3800  0.3217 -0.7903
 6550SOL    HW231287   3.940   2.772   6.638 -0.8949 -1.8762  0.0028
 6551SOL     OW31288   2.380   0.825  12.697  0.7791  0.2185 -0.4073
 6551SOL    HW131289   2.309   0.763  12.710 -0.4647  2.0548  1.5892
 6551SOL    HW231290   2.422   0.779  12.624  1.4617 -3.2369  2.1580
 6552SOL     OW31291   4.129   4.238   4.820  0.1273 -0.4044 -0.0971
 6552SOL    HW131292   4.035   4.248   4.834 -0.1290 -2.6010 -0.1802
 6552SOL    HW231293   4.135   4.145   4.842  2.0408 -0.2092  0.1974
 6553SOL     OW31294   0.807   1.333   8.178  0.2199  0.3538  0.2379
 6553SOL    HW131295   0.778   1.252   8.135 -0.7896 -0.0697  1.6999
 6553SOL    HW231296   0.806   1.308   8.271  2.9386 -0.5874  0.0050
 6554SOL     OW31297   0.234   2.424  15.830  0.5925  0.4484 -0.1594
 6554SOL    HW131298   0.218   2.340  15.872  0.3750  0.3441 -0.4534
 6554SOL    HW231299   0.161   2.442  15.772 -0.7511  1.2952  1.7740
 6555SOL     OW31300   1.655   2.971   1.825 -0.9875 -0.1572  0.1559
 6555SOL    HW131301   1.698   3.047   1.786  0.6464 -0.7894  0.7409
 6555SOL    HW231302   1.730   2.915   1.843 -0.8052  0.9851  2.8397
 6556SOL     OW31303   3.580   4.391  10.939  0.0781 -0.2482 -0.2037
 6556SOL    HW131304   3.528   4.471  10.938 -0.0422 -0.3016  1.9229
 6556SOL    HW231305   3.513   4.331  10.973  1.4995 -0.8622  1.5347
 6557SOL     OW31306   2.417   0.737   5.274  0.4675 -0.0532 -0.2809
 6557SOL    HW131307   2.494   0.689   5.303 -0.7316 -1.5812  0.3649
 6557SOL    HW231308   2.395   0.707   5.186  1.0732  1.4111 -0.9421
 6558SOL     OW31309   3.637   2.612   3.287  0.1401 -0.0326  0.0252
 6558SOL    HW131310   3.563   2.567   3.329  0.4975 -0.3732  0.2946
 6558SOL    HW231311   3.713   2.591   3.340 -1.0151 -2.3720  0.7757
 6559SOL     OW31312   2.128   3.093  10.935 -0.0557  0.1512 -0.8159
 6559SOL    HW131313   2.164   3.008  10.908  1.4610  0.1204  1.2858
 6559SOL    HW231314   2.215   3.128  10.953 -0.5964 -0.1597  2.4579
 6560SOL     OW31315   2.620   3.210   2.073  0.1222  0.0964  0.3535
 6560SOL    HW131316   2.669   3.265   2.011 -0.0011  1.7731  1.7392
 6560SOL    HW231317   2.686   3.148   2.103 -0.7302 -1.0113 -0.0594
 6561SOL     OW31318   3.237   0.796   3.748  0.2526  0.0673 -0.1748
 6561SOL    HW131319   3.180   0.733   3.791  0.5265  0.1693  0.3282
 6561SOL    HW231320   3.180   0.872   3.741  1.6505  1.0404 -1.2676
 6562SOL     OW31321   4.611   4.470  12.838  0.5445 -0.5329 -0.6744
 6562SOL    HW131322   4.639   4.495  12.926 -3.8537 -2.1689  1.1498
 6562SOL    HW231323   4.597   4.376  12.850  1.3293 -0.7525 -1.4783
 6563SOL     OW31324   0.240   4.413  14.596 -0.1695 -0.3447  0.0329
 6563SOL    HW131325   0.218   4.506  14.591 -1.2601 -0.6117 -0.1690
 6563SOL    HW231326   0.264   4.392  14.506 -0.2460 -0.8725  0.1377
 6564SOL     OW31327   4.211   1.840  15.849  0.3488 -0.1860  0.3970
 6564SOL    HW131328   4.134   1.793  15.816  0.5500  0.8685 -1.5447
 6564SOL    HW231329   4.260   1.859  15.769 -0.8055  1.2341  0.0234
 6565SOL     OW31330   2.254   1.926   2.815  0.4624  0.4165  0.4336
 6565SOL    HW131331   2.323   1.926   2.748  1.7542  0.2596  1.7616
 6565SOL    HW231332   2.247   1.830   2.818 -2.1385  0.5018 -2.6839
 6566SOL     OW31333   0.720   0.323  16.104  0.2889 -0.3061 -0.4346
 6566SOL    HW131334   0.802   0.277  16.092  0.1260 -1.3944  2.5959
 6566SOL    HW231335   0.717   0.332  16.200  2.3371 -1.1031 -0.3131
 6567SOL     OW31336   1.973   4.386   3.764 -0.1733 -0.3902  0.0532
 6567SOL    HW131337   2.058   4.424   3.789  0.6946 -1.9808 -0.4813
 6567SOL    HW231338   1.990   4.294   3.786  1.5427 -0.0276  0.2947
 6568SOL     OW31339   1.877   0.925   0.404 -0.2078  0.1985 -1.0637
 6568SOL    HW131340   1.949   0.933   0.467 -1.5877 -2.2246  0.8529
 6568SOL    HW231341   1.880   0.836   0.370 -3.1557 -1.2287  2.3661
 6569SOL     OW31342   4.226   3.164   2.614  0.1226 -0.3306  0.3961
 6569SOL    HW131343   4.179   3.103   2.556  1.2302 -2.4185  1.6757
 6569SOL    HW231344   4.316   3.139   2.597  0.1836 -0.4824  0.9185
 6570SOL     OW31345   2.347   0.314   6.081 -0.1284  0.2214  0.5466
 6570SOL    HW131346   2.295   0.242   6.045  2.9628 -1.6756 -0.1348
 6570SOL    HW231347   2.342   0.372   6.004 -0.8404 -2.5244 -1.4860
 6571SOL     OW31348   1.885   4.533   5.088  0.5715  0.3864  0.9626
 6571SOL    HW131349   1.914   4.555   5.176  1.3917  0.2205  0.7324
 6571SOL    HW231350   1.815   4.598   5.084  1.0038  0.9715  2.8903
 6572SOL     OW31351   3.112   1.700  14.667 -0.5679 -0.3009  0.0021
 6572SOL    HW131352   3.040   1.682  14.607  0.7063  0.6994 -1.8166
 6572SOL    HW231353   3.070   1.726  14.749  0.6205  1.3316  0.0903
 6573SOL     OW31354   2.343   4.731   6.690  0.1016 -0.3903  0.1364
 6573SOL    HW131355   2.248   4.733   6.700 -0.0442  0.1024 -1.2586
 6573SOL    HW231356   2.372   4.730   6.781 -0.9798  0.0161  0.4921
 6574SOL     OW31357   0.671   1.531  11.087  0.0300  0.1180 -0.4923
 6574SOL    HW131358   0.725   1.559  11.161  0.8719  0.4424 -1.2296
 6574SOL    HW231359   0.637   1.447  11.118 -2.2187 -0.0523 -3.4391
 6575SOL     OW31360   4.121   1.665   1.893 -0.1910  0.0804  0.4167
 6575SOL    HW131361   4.078   1.583   1.869 -3.9327  2.7664 -1.9237
 6575SOL    HW231362   4.143   1.698   1.806  2.0609 -0.6847  0.6893
 6576SOL     OW31363   2.237   1.571   6.391 -0.3616  0.0947  0.5820
 6576SOL    HW131364   2.321   1.554   6.349 -1.2817 -0.0652 -1.1796
 6576SOL    HW231365   2.267   1.570   6.482 -1.8116  0.4930  1.0662
 6577SOL     OW31366   4.583   3.594  12.005  0.0090  0.2276  0.2279
 6577SOL    HW131367   4.489   3.577  11.998 -0.1848  1.3836  0.0972
 6577SOL    HW231368   4.596   3.665  12.068 -0.2950  0.1466  0.3764
 6578SOL     OW31369   2.286   3.702   7.874  0.1696  0.5341 -0.0487
 6578SOL    HW131370   2.335   3.636   7.826 -0.0858 -0.2133  0.7331
 6578SOL    HW231371   2.340   3.774   7.843  0.4484 -0.0862 -0.9898
 6579SOL     OW31372   0.303   0.510   9.715  0.4139 -0.1593  0.7873
 6579SOL    HW131373   0.303   0.446   9.786  0.5551 -1.3232 -0.2687
 6579SOL    HW231374   0.310   0.451   9.640 -1.4823 -0.5074  0.8908
 6580SOL     OW31375   2.119   0.253   1.838 -0.4712  0.1802  0.3069
 6580SOL    HW131376   2.054   0.310   1.879 -0.2315  0.0448  0.8777
 6580SOL    HW231377   2.084   0.237   1.750 -0.0385 -2.3589  0.5880
 6581SOL     OW31378   0.705   2.400   9.612 -0.0415  0.5229 -0.1407
 6581SOL    HW131379   0.663   2.393   9.526  0.7698 -0.3305 -0.4720
 6581SOL    HW231380   0.715   2.494   9.625  1.2950  0.2449  0.9079
 6582SOL     OW31381   3.456   4.354   7.153  0.7034  0.4077 -0.3488
 6582SOL    HW131382   3.446   4.299   7.231 -0.7270 -0.4967 -1.1715
 6582SOL    HW231383   3.387   4.320   7.097 -0.4321  2.0405  0.0732
 6583SOL     OW31384   3.955   2.060   1.884  0.7263 -0.0678  0.3651
 6583SOL    HW131385   3.986   2.020   1.803 -0.0632  1.0086 -0.4730
 6583SOL    HW231386   3.859   2.052   1.877  0.7698  1.3564 -1.8754
 6584SOL     OW31387   0.265   2.219  11.913  0.8815 -0.5457 -0.1785
 6584SOL    HW131388   0.181   2.206  11.958  1.5925  1.8430  1.8694
 6584SOL    HW231389   0.226   2.248  11.830  0.5983  0.6570  0.3641
 6585SOL     OW31390   2.391   0.990   6.440  0.1022 -0.6052 -0.1338
 6585SOL    HW131391   2.357   1.007   6.528  0.8750  0.4663 -0.0369
 6585SOL    HW231392   2.425   1.077   6.416 -1.7009  0.3449  0.7986
 6586SOL     OW31393   2.612   0.341  15.121  0.4833 -0.2290  0.0224
 6586SOL    HW131394   2.562   0.391  15.185  2.3606  0.7927  0.6751
 6586SOL    HW231395   2.564   0.261  15.098 -1.1796  0.9969 -0.7322
 6587SOL     OW31396   2.108   1.320   3.180 -0.1423 -0.1682  0.6811
 6587SOL    HW131397   2.115   1.317   3.276 -1.8651 -0.5521  0.7882
 6587SOL    HW231398   2.201   1.332   3.161 -0.1072 -1.5944 -0.0008
 6588SOL     OW31399   3.168   3.110   7.968 -0.3296 -0.7272  0.3207
 6588SOL    HW131400   3.086   3.148   7.935 -0.1989 -1.4250 -0.8041
 6588SOL    HW231401   3.134   3.090   8.055 -0.3862 -1.8930  0.0319
 6589SOL     OW31402   3.384   3.638   0.782 -0.3839 -0.1780 -0.2135
 6589SOL    HW131403   3.304   3.664   0.828 -0.1706  0.3939 -0.1651
 6589SOL    HW231404   3.439   3.712   0.810 -1.7809  0.8405 -0.1644
 6590SOL     OW31405   3.513   1.296   6.508  0.4601 -0.1501 -0.4557
 6590SOL    HW131406   3.446   1.230   6.491  1.4455 -0.9696 -1.1336
 6590SOL    HW231407   3.553   1.257   6.586  1.0941 -2.1403 -1.7810
 6591SOL     OW31408   1.178   1.428   2.182  0.3451 -0.4289  0.7829
 6591SOL    HW131409   1.203   1.520   2.174  0.5056 -0.6126 -0.8799
 6591SOL    HW231410   1.156   1.416   2.274  0.7459  0.0863  0.9426
 6592SOL     OW31411   1.698   2.840   5.249 -0.3641 -0.1288  0.3430
 6592SOL    HW131412   1.722   2.835   5.156 -1.5738 -0.6292  0.0583
 6592SOL    HW231413   1.713   2.932   5.268 -0.1721 -0.2691  0.8888
 6593SOL     OW31414   3.154   0.249   1.604 -0.1954 -0.5688 -0.3441
 6593SOL    HW131415   3.117   0.308   1.669 -0.1464 -0.7018 -0.1961
 6593SOL    HW231416   3.077   0.191   1.603  0.4924 -1.4688 -1.8951
 6594SOL     OW31417   1.594   3.006  13.140  0.2026 -0.3693  0.5807
 6594SOL    HW131418   1.674   2.955  13.130  0.1698 -0.3820  0.3823
 6594SOL    HW231419   1.630   3.091  13.165 -1.3118  0.3506  0.3357
 6595SOL     OW31420   1.120   1.079  17.246  0.0496 -0.1050 -0.3320
 6595SOL    HW131421   1.048   1.120  17.197 -0.4914  0.0334  0.5745
 6595SOL    HW231422   1.159   1.159  17.281 -0.0984 -0.4105  0.5349
 6596SOL     OW31423   1.245   1.757   4.235 -0.4801  0.3511  0.0022
 6596SOL    HW131424   1.230   1.849   4.214  0.1106 -0.0138 -1.9356
 6596SOL    HW231425   1.321   1.743   4.180 -0.9706 -0.3526 -0.4986
 6597SOL     OW31426   2.416   3.712   5.169 -0.7505  0.2747  0.3565
 6597SOL    HW131427   2.392   3.732   5.078 -1.1185  0.6477  0.5391
 6597SOL    HW231428   2.502   3.752   5.181 -0.0414 -1.1123 -0.0774
 6598SOL     OW31429   3.872   0.783  11.624 -0.0513 -0.0705  0.3384
 6598SOL    HW131430   3.853   0.697  11.661  0.1374  0.1633  0.9855
 6598SOL    HW231431   3.968   0.784  11.618 -0.1141 -2.5335 -1.1534
 6599SOL     OW31432   1.905   1.873   4.480  0.0749  0.4259 -0.0216
 6599SOL    HW131433   1.818   1.838   4.462  0.8117  0.2586 -3.3100
 6599SOL    HW231434   1.896   1.967   4.462 -1.0763  0.4507  0.7325
 6600SOL     OW31435   0.857   2.970   9.778 -0.3000 -0.4891  0.0851
 6600SOL    HW131436   0.909   3.049   9.787  1.1848 -1.2031 -2.2821
 6600SOL    HW231437   0.796   3.003   9.713 -1.5124  1.3806  2.1744
 6601SOL     OW31438   2.623   3.026   4.928 -0.6774  0.0439 -0.5453
 6601SOL    HW131439   2.658   3.030   4.840 -1.4595 -3.2513 -1.0167
 6601SOL    HW231440   2.578   3.110   4.926  1.3577  1.1204 -0.7366
 6602SOL     OW31441   2.755   3.292  11.238 -0.1654  0.4375  0.2986
 6602SOL    HW131442   2.679   3.274  11.293  0.3426  1.6570  1.3965
 6602SOL    HW231443   2.799   3.206  11.238 -0.5947  0.2179  0.0545
 6603SOL     OW31444   4.284   2.043   1.980  0.3398  0.9469  0.8238
 6603SOL    HW131445   4.189   2.041   1.980  0.3809 -0.5685 -1.4035
 6603SOL    HW231446   4.304   2.122   2.031  0.7960  0.5728  1.2350
 6604SOL     OW31447   2.126   2.531   8.752  0.3392  0.7262  0.1842
 6604SOL    HW131448   2.208   2.563   8.715  0.1069  0.2293 -0.7780
 6604SOL    HW231449   2.072   2.551   8.675  1.2757 -1.4630 -1.0529
 6605SOL     OW31450   1.522   0.020   1.058 -0.6202  0.1659  0.2007
 6605SOL    HW131451   1.547   4.670   1.094  1.1066  0.3364 -0.6206
 6605SOL    HW231452   1.435   0.029   1.097 -0.3392 -0.5630  0.9901
 6606SOL     OW31453   2.722   4.014   1.107 -0.0780  0.1827 -0.2220
 6606SOL    HW131454   2.782   4.089   1.096  0.3984  0.0584  1.5860
 6606SOL    HW231455   2.785   3.947   1.132 -1.9787 -1.5495 -0.1452
 6607SOL     OW31456   2.318   3.332   2.086 -0.5384 -0.3147 -0.8518
 6607SOL    HW131457   2.311   3.376   2.001 -1.6679  2.1803  0.5593
 6607SOL    HW231458   2.339   3.242   2.061  0.8653  0.3022 -1.8998
 6608SOL     OW31459   2.911   2.501   0.778  0.5893  0.1287 -0.0279
 6608SOL    HW131460   2.957   2.486   0.695  2.9659  1.3759  1.0572
 6608SOL    HW231461   2.841   2.437   0.767  1.8093 -1.6060  2.3832
 6609SOL     OW31462   2.259   3.187  13.205 -0.2185 -0.5017  0.2345
 6609SOL    HW131463   2.303   3.120  13.153 -1.9327 -0.4183 -1.3219
 6609SOL    HW231464   2.323   3.258  13.197 -1.8084  0.7084 -1.6733
 6610SOL     OW31465   3.089   1.990   5.206 -0.3604  0.3343 -0.0701
 6610SOL    HW131466   3.103   1.991   5.112 -2.2703  0.8462 -0.3511
 6610SOL    HW231467   3.055   1.900   5.214  1.1657 -0.2826 -0.5476
 6611SOL     OW31468   1.035   0.883  17.042  0.1216  0.1693 -0.1319
 6611SOL    HW131469   1.087   0.938  16.984 -1.3528  0.0140 -1.5950
 6611SOL    HW231470   1.037   0.930  17.125 -1.8533  0.6016 -0.3141
 6612SOL     OW31471   1.643   2.925   0.215 -0.1561  0.2126 -0.4904
 6612SOL    HW131472   1.655   2.992   0.147  1.5332 -1.2719 -1.6469
 6612SOL    HW231473   1.614   2.966   0.296 -2.4084  0.0032 -1.1958
 6613SOL     OW31474   4.102   1.044   8.196 -0.2824  0.1885  0.1094
 6613SOL    HW131475   4.057   1.062   8.113  2.6301  1.5363 -1.1630
 6613SOL    HW231476   4.119   0.951   8.185  0.5328  0.3080  0.3541
 6614SOL     OW31477   2.056   3.716   2.410  0.0703  0.2299 -0.4479
 6614SOL    HW131478   2.065   3.803   2.372 -2.9159  0.7182 -0.0384
 6614SOL    HW231479   2.148   3.696   2.394  0.4812 -0.8381  3.1951
 6615SOL     OW31480   4.216   2.537   6.128  0.1707 -0.7345 -0.5997
 6615SOL    HW131481   4.148   2.469   6.137  0.7006 -1.0566  0.9812
 6615SOL    HW231482   4.302   2.499   6.147  1.0577  2.2590  1.2846
 6616SOL     OW31483   0.408   1.707   3.708 -0.1863 -0.4251 -0.2776
 6616SOL    HW131484   0.315   1.724   3.721 -0.3423 -2.9096  1.8661
 6616SOL    HW231485   0.405   1.636   3.645 -0.4602  1.1892 -2.0757
 6617SOL     OW31486   2.907   0.996   2.384 -0.4378  0.0866  0.1459
 6617SOL    HW131487   2.921   1.079   2.429  1.9527 -1.5546  2.4306
 6617SOL    HW231488   2.819   1.010   2.350 -0.6363 -0.9968  0.2140
 6618SOL     OW31489   2.993   3.070  16.245  0.1796 -0.2783 -0.1339
 6618SOL    HW131490   2.906   3.038  16.265 -0.0993 -0.6388 -1.8963
 6618SOL    HW231491   3.044   3.071  16.326 -3.3269  0.9874  2.0441
 6619SOL     OW31492   1.448   3.778  12.599  0.1622  0.7834  0.0583
 6619SOL    HW131493   1.467   3.689  12.569 -0.8054  0.9651 -1.1070
 6619SOL    HW231494   1.381   3.759  12.665 -0.8361 -0.4410 -1.3001
 6620SOL     OW31495   4.417   0.801   7.883 -0.0043 -0.6745  0.3302
 6620SOL    HW131496   4.427   0.842   7.797  0.2861  0.9546  1.1571
 6620SOL    HW231497   4.411   0.866   7.953 -0.1256 -0.5073  0.1642
 6621SOL     OW31498   1.937   1.812   2.131  0.3824 -0.0627  0.0757
 6621SOL    HW131499   1.984   1.807   2.214 -1.1346  0.8807  0.9731
 6621SOL    HW231500   1.880   1.885   2.154 -0.9613 -1.0748 -0.0103
 6622SOL     OW31501   1.996   4.008   4.647  0.0084 -0.0599  0.2803
 6622SOL    HW131502   2.049   4.045   4.718  0.7577  0.6019 -0.6299
 6622SOL    HW231503   2.003   3.913   4.661 -1.0555 -0.2009 -0.1611
 6623SOL     OW31504   2.488   2.040   3.361 -0.1166  0.2758 -0.3070
 6623SOL    HW131505   2.477   2.069   3.451  1.3965 -0.6344  0.1614
 6623SOL    HW231506   2.551   1.969   3.373  1.1076  1.5340  0.6510
 6624SOL     OW31507   4.636   2.070   5.615  0.1714  0.4123  0.1472
 6624SOL    HW131508   4.587   2.152   5.624  0.0554  0.4254 -0.5805
 6624SOL    HW231509   4.575   1.997   5.628  1.9232 -0.7978  1.6206
 6625SOL     OW31510   3.494   0.063   1.996  0.1675 -0.1719  0.3600
 6625SOL    HW131511   3.537   0.134   1.949  0.2693 -1.3067 -1.2502
 6625SOL    HW231512   3.403   0.091   2.007 -0.6588 -1.7241 -2.4597
 6626SOL     OW31513   0.047   1.416   0.531 -0.5335 -0.2849 -0.1432
 6626SOL    HW131514   0.027   1.443   0.442  0.1387 -1.4840 -0.6467
 6626SOL    HW231515   0.114   1.351   0.511 -0.6561 -0.5434  0.2863
 6627SOL     OW31516   3.476   1.556   8.281 -0.5940  0.4019  0.2312
 6627SOL    HW131517   3.531   1.502   8.337  1.3344  0.5431 -1.5222
 6627SOL    HW231518   3.481   1.505   8.200  1.2118  2.4863 -0.9693
 6628SOL     OW31519   1.351   0.898   7.611  0.3032  0.3183  0.3947
 6628SOL    HW131520   1.270   0.931   7.573  1.1691  0.7962 -1.0187
 6628SOL    HW231521   1.405   0.976   7.621  1.1221 -0.2935  0.8062
 6629SOL     OW31522   0.429   1.238   5.813 -0.1631  0.7260  0.2377
 6629SOL    HW131523   0.471   1.254   5.898  0.1622 -0.1030  0.2297
 6629SOL    HW231524   0.473   1.160   5.781 -0.8415  0.0629  0.9190
 6630SOL     OW31525   0.195   0.850  13.739  0.1260  0.1954  0.4695
 6630SOL    HW131526   0.189   0.868  13.833 -0.1333  0.2914  0.4366
 6630SOL    HW231527   0.133   0.917  13.709  0.0711  0.3203  0.8634
 6631SOL     OW31528   4.645   0.690   4.112 -0.6276  0.8909 -0.6265
 6631SOL    HW131529   4.577   0.632   4.077 -0.8337  0.7497 -0.0003
 6631SOL    HW231530   4.705   0.708   4.040 -0.9259 -1.7270 -1.5243
 6632SOL     OW31531   0.907   4.520   4.914 -0.2450 -0.2382 -0.2541
 6632SOL    HW131532   0.922   4.515   4.819  1.9311  1.0163  0.0427
 6632SOL    HW231533   0.926   4.611   4.938  2.4119 -1.0918  0.7695
 6633SOL     OW31534   4.018   3.862  16.453 -0.1780  0.5111 -0.1823
 6633SOL    HW131535   3.946   3.804  16.427 -0.2211  0.6754 -0.4205
 6633SOL    HW231536   3.982   3.888  16.538  0.7508  0.6132  0.1794
 6634SOL     OW31537   3.191   1.626  15.086 -0.3416  0.2321 -0.5024
 6634SOL    HW131538   3.226   1.715  15.091  0.3238 -0.0476 -0.1499
 6634SOL    HW231539   3.217   1.612  14.995  3.5764  0.8234  0.5178
 6635SOL     OW31540   3.772   1.890   5.678 -0.3004  0.4207 -0.7360
 6635SOL    HW131541   3.753   1.831   5.606  1.4180 -1.0722  0.0201
 6635SOL    HW231542   3.750   1.979   5.650 -2.1071  0.2837  0.2478
 6636SOL     OW31543   4.563   3.078   1.277  0.4339 -0.0462  1.1768
 6636SOL    HW131544   4.646   3.126   1.276  1.1660 -1.3313  0.5051
 6636SOL    HW231545   4.502   3.150   1.261  1.1331  0.1332 -0.6076
 6637SOL     OW31546   0.537   1.619   7.751 -0.5311 -0.0278  0.3256
 6637SOL    HW131547   0.565   1.710   7.758  0.7086 -0.4597  1.0856
 6637SOL    HW231548   0.566   1.602   7.661 -0.8241 -1.6612  0.5262
 6638SOL     OW31549   2.266   0.361  10.094 -0.5323 -0.2227  0.5155
 6638SOL    HW131550   2.233   0.357  10.004  0.6696 -0.4137  0.0757
 6638SOL    HW231551   2.358   0.342  10.074 -0.5018 -2.0540  2.4793
 6639SOL     OW31552   1.690   2.282   2.650  0.8815 -0.1949  0.2515
 6639SOL    HW131553   1.749   2.281   2.726 -0.3189 -1.7434  1.1546
 6639SOL    HW231554   1.652   2.198   2.674  0.8240  0.3691  2.1180
 6640SOL     OW31555   2.058   3.137  11.404  0.5782 -0.4886  0.4827
 6640SOL    HW131556   1.998   3.063  11.416  1.3730 -1.3862 -0.9842
 6640SOL    HW231557   2.141   3.092  11.384  0.8833 -0.4544  1.7093
 6641SOL     OW31558   3.720   0.873   8.529  0.3316  0.5535  0.2560
 6641SOL    HW131559   3.712   0.873   8.434 -1.3642 -0.0676  0.3967
 6641SOL    HW231560   3.744   0.782   8.546  0.9755  0.6803  0.0308
 6642SOL     OW31561   4.458   2.429  12.899  0.2309  0.6013 -0.2343
 6642SOL    HW131562   4.514   2.359  12.931 -0.2133  0.7408  0.8905
 6642SOL    HW231563   4.510   2.469  12.829  0.5203  1.2758  0.3616
 6643SOL     OW31564   0.829   1.557  13.711 -0.4287  0.1373  0.3088
 6643SOL    HW131565   0.821   1.611  13.632 -2.0241  0.3907  0.6328
 6643SOL    HW231566   0.745   1.511  13.709 -0.0186 -0.4197 -3.7761
 6644SOL     OW31567   1.149   0.818   4.744  0.0405 -0.5392  0.1919
 6644SOL    HW131568   1.182   0.863   4.822  2.3879 -0.1044 -1.0749
 6644SOL    HW231569   1.086   0.757   4.782 -0.1427  1.6483  3.4701
 6645SOL     OW31570   4.017   2.695   6.288 -0.0617  0.3495  0.0979
 6645SOL    HW131571   4.085   2.645   6.244 -2.1907 -3.4371  1.0914
 6645SOL    HW231572   4.076   2.766   6.312  0.6972 -0.6284  1.1237
 6646SOL     OW31573   1.560   3.386  10.706 -0.1751  0.3733  0.2467
 6646SOL    HW131574   1.488   3.414  10.762 -1.1267 -3.3528  0.8326
 6646SOL    HW231575   1.503   3.353  10.636 -2.5171 -0.6273  2.6284
 6647SOL     OW31576   4.734   2.756   3.434 -0.3877 -0.0281 -0.3423
 6647SOL    HW131577   0.083   2.795   3.462  0.3819 -1.1843 -1.0104
 6647SOL    HW231578   4.689   2.821   3.380  0.5843  0.2513 -0.8207
 6648SOL     OW31579   2.792   0.717   8.485 -0.3698 -0.7139 -0.0205
 6648SOL    HW131580   2.702   0.742   8.465  0.3499  1.8872  0.0138
 6648SOL    HW231581   2.816   0.795   8.536  1.2795 -0.4200 -1.2743
 6649SOL     OW31582   2.033   3.487   5.645  0.1040  0.7544 -0.3690
 6649SOL    HW131583   1.969   3.516   5.710 -2.6588 -2.3028 -1.7242
 6649SOL    HW231584   1.980   3.425   5.594 -1.7813  0.9541  1.3515
 6650SOL     OW31585   2.467   1.324   7.496  0.2733  0.1961  0.9410
 6650SOL    HW131586   2.411   1.377   7.553 -0.7867 -2.0349  1.9633
 6650SOL    HW231587   2.405   1.254   7.473  0.7851 -0.3640  1.2817
 6651SOL     OW31588   1.673   4.425   9.997  0.1288 -0.0106  0.0659
 6651SOL    HW131589   1.700   4.494  10.057  1.0402 -0.5154  0.2296
 6651SOL    HW231590   1.755   4.376   9.999  0.4319  0.4576 -0.6001
 6652SOL     OW31591   1.427   4.703   9.064  0.1823  0.2700 -0.4471
 6652SOL    HW131592   1.335   4.715   9.039 -0.4603  1.5035  2.5479
 6652SOL    HW231593   1.435   0.027   9.139 -1.4883 -0.6747  0.4626
 6653SOL     OW31594   0.451   3.446   7.511  0.0145  0.2983  0.0403
 6653SOL    HW131595   0.435   3.540   7.502 -0.0186  0.4380  1.7047
 6653SOL    HW231596   0.528   3.440   7.567 -0.3421 -1.3409  0.3460
 6654SOL     OW31597   1.226   0.001  13.543 -0.4340 -0.5982 -0.6315
 6654SOL    HW131598   1.232   0.054  13.463 -1.4391  0.6486  0.1223
 6654SOL    HW231599   1.307   0.025  13.589 -1.2776  1.2888 -0.1320
 6655SOL     OW31600   1.024   2.347   9.901  0.2938  0.6792  0.5040
 6655SOL    HW131601   0.966   2.423   9.899 -1.0622 -0.3052  2.6075
 6655SOL    HW231602   1.110   2.371   9.866  0.0699 -1.4431 -1.5189
 6656SOL     OW31603   3.486   4.062   7.547  0.0008  0.5321  0.3512
 6656SOL    HW131604   3.570   4.099   7.522 -0.9094  2.2181 -0.2560
 6656SOL    HW231605   3.513   3.986   7.598 -3.1039 -0.1309  1.0167
 6657SOL     OW31606   0.150   2.580  17.323  0.0135 -0.2042  0.0329
 6657SOL    HW131607   0.167   2.646  17.256 -1.6172 -0.6154 -0.7739
 6657SOL    HW231608   0.055   2.590  17.329  0.1122 -0.3201  1.7073
 6658SOL     OW31609   4.043   0.993  15.784 -0.2722  0.6497  0.2710
 6658SOL    HW131610   4.076   0.946  15.708 -0.8141  0.6713  0.0246
 6658SOL    HW231611   3.955   0.959  15.797 -0.8048  1.3487 -1.6014
 6659SOL     OW31612   2.009   3.381  14.086 -0.6489  0.0519 -0.3299
 6659SOL    HW131613   2.000   3.476  14.096  0.1026 -0.0722  1.3771
 6659SOL    HW231614   1.946   3.335  14.141 -0.2924  0.5882  0.5247
 6660SOL     OW31615   1.958   0.009   3.238  0.6664  0.3804 -0.2058
 6660SOL    HW131616   1.970   0.088   3.186  0.6193  0.7911  0.4037
 6660SOL    HW231617   2.047   4.716   3.260  0.6870 -0.8602 -1.8252
 6661SOL     OW31618   0.005   1.535   4.251 -0.5469  0.3536  0.0980
 6661SOL    HW131619   0.060   1.538   4.173 -1.2146 -2.0658 -0.4736
 6661SOL    HW231620   4.677   1.473   4.215  0.9954 -1.6953  0.9453
 6662SOL     OW31621   0.509   2.392  11.723  0.4937 -0.4335 -0.2826
 6662SOL    HW131622   0.562   2.401  11.644  0.0556  1.1483 -0.4021
 6662SOL    HW231623   0.580   2.387  11.786 -0.2417  1.4709  0.6971
 6663SOL     OW31624   3.440   2.444   1.102 -0.1519 -0.3392 -0.2330
 6663SOL    HW131625   3.363   2.486   1.141 -0.3407 -0.3382 -0.6051
 6663SOL    HW231626   3.457   2.502   1.028 -0.9256 -1.1362 -1.0396
 6664SOL     OW31627   3.844   1.999  14.473 -0.4465 -0.2731 -0.3140
 6664SOL    HW131628   3.856   2.069  14.409 -2.9699 -0.0613 -0.5533
 6664SOL    HW231629   3.864   2.044  14.555  2.0150 -0.1035 -1.0216
 6665SOL     OW31630   2.929   2.981   4.124  0.2185 -0.1771  0.1841
 6665SOL    HW131631   2.899   3.065   4.157 -1.0830 -0.7241  0.3835
 6665SOL    HW231632   2.874   2.976   4.046  0.3413  2.2087 -0.0552
 6666SOL     OW31633   1.551   1.562   2.144  0.6177  0.4670  0.4148
 6666SOL    HW131634   1.464   1.601   2.153  0.4318 -0.0361  0.8165
 6666SOL    HW231635   1.567   1.545   2.236  1.0257  2.0178  0.6313
 6667SOL     OW31636   0.859   0.179   4.320 -0.0365 -1.1567  0.2032
 6667SOL    HW131637   0.829   0.184   4.230 -0.0359 -0.5890  0.2323
 6667SOL    HW231638   0.934   0.239   4.319  0.0694 -1.2926  0.0454
 6668SOL     OW31639   4.709   3.315  15.319  0.4936  0.0544 -0.2271
 6668SOL    HW131640   4.680   3.230  15.353 -0.1927  0.7902  1.0574
 6668SOL    HW231641   4.649   3.345  15.250 -2.4063 -0.5111  2.0134
 6669SOL     OW31642   0.019   4.533   0.338  0.9207  0.1925  0.0849
 6669SOL    HW131643   0.102   4.554   0.294  0.2736  0.6135 -0.9369
 6669SOL    HW231644   0.002   4.607   0.397 -0.4536  1.0078 -1.3440
 6670SOL     OW31645   2.730   4.445  12.367  0.7134  0.0660  0.1559
 6670SOL    HW131646   2.783   4.403  12.299 -1.2574 -0.0619 -1.3053
 6670SOL    HW231647   2.798   4.499  12.408  1.0107  0.8997 -1.3912
 6671SOL     OW31648   0.691   0.427   8.255  0.0456 -0.1611 -0.5737
 6671SOL    HW131649   0.599   0.450   8.250  0.1803  0.1320 -1.6857
 6671SOL    HW231650   0.721   0.517   8.266 -0.0976 -0.0010 -1.5021
 6672SOL     OW31651   2.975   4.294   7.888  0.0357 -0.1387 -0.2854
 6672SOL    HW131652   2.950   4.293   7.795  2.3849  1.1952 -0.9307
 6672SOL    HW231653   2.945   4.379   7.917  0.2613  0.0826 -0.6960
 6673SOL     OW31654   0.588   0.321   3.929  0.1051  0.0392  0.5793
 6673SOL    HW131655   0.538   0.314   3.848 -1.3255 -0.8484  1.5308
 6673SOL    HW231656   0.657   0.370   3.885 -0.9851 -0.0928 -1.2892
 6674SOL     OW31657   0.590   3.433   8.177 -0.0606  0.8893  0.3108
 6674SOL    HW131658   0.537   3.354   8.172  0.0456  0.7935  0.7238
 6674SOL    HW231659   0.520   3.488   8.211  0.0510 -0.8354  3.3240
 6675SOL     OW31660   2.777   0.765   7.965 -0.6798  0.0905  0.1141
 6675SOL    HW131661   2.830   0.696   8.004 -0.0353 -0.6177 -2.0171
 6675SOL    HW231662   2.792   0.839   8.023 -1.4619 -0.5010  1.0735
 6676SOL     OW31663   1.934   0.986  14.266 -0.3611 -0.1818 -0.0120
 6676SOL    HW131664   1.855   1.040  14.270  0.5740  1.0362  2.0460
 6676SOL    HW231665   1.908   0.916  14.326  1.3218  0.0289  0.9676
 6677SOL     OW31666   3.372   1.407  12.292  0.0772 -0.0923  0.2742
 6677SOL    HW131667   3.285   1.441  12.313  0.2290  2.2944 -3.1458
 6677SOL    HW231668   3.354   1.370  12.206  3.6086  0.1032 -0.5497
 6678SOL     OW31669   3.033   2.451   0.534  0.2906  0.2778  0.1202
 6678SOL    HW131670   2.979   2.471   0.457  0.3799  0.6709  0.1583
 6678SOL    HW231671   3.048   2.361   0.504  0.0541  0.4910 -0.6561
 6679SOL     OW31672   1.772   2.810  11.382  0.5615 -0.1125 -0.8802
 6679SOL    HW131673   1.758   2.903  11.401 -1.3119 -0.7517  0.8427
 6679SOL    HW231674   1.864   2.792  11.403 -0.3137 -1.7881  1.5056
 6680SOL     OW31675   0.815   1.537   9.521  0.0254  0.2642 -0.3936
 6680SOL    HW131676   0.882   1.499   9.464  0.1612  0.5146 -0.3995
 6680SOL    HW231677   0.761   1.459   9.534 -1.6909  1.6468  0.7660
 6681SOL     OW31678   0.031   1.175   4.721 -0.5024 -0.4070  0.1025
 6681SOL    HW131679   4.724   1.225   4.650  0.2881 -0.2837 -0.2718
 6681SOL    HW231680   0.046   1.094   4.672  0.4806 -0.6537  0.8244
 6682SOL     OW31681   4.730   1.712  14.632  0.0783  0.0085  0.3328
 6682SOL    HW131682   0.016   1.778  14.566  1.1989  0.2382  0.9078
 6682SOL    HW231683   0.030   1.748  14.714 -1.2491 -0.6612  1.1933
 6683SOL     OW31684   1.086   0.297   5.049  0.4359 -0.4911  0.0401
 6683SOL    HW131685   1.090   0.300   4.954 -0.3552 -1.4589 -0.0250
 6683SOL    HW231686   1.142   0.371   5.070  1.6767 -1.4793  0.2124
 6684SOL     OW31687   0.398   0.581   7.056  0.3234 -0.3100 -0.0769
 6684SOL    HW131688   0.396   0.502   7.001  1.3278 -0.5114  0.1663
 6684SOL    HW231689   0.305   0.602   7.057  0.0584 -1.5317  0.4554
 6685SOL     OW31690   4.121   0.433   3.670 -0.1131 -0.6041 -0.1312
 6685SOL    HW131691   4.056   0.439   3.741 -1.6340  1.8096 -1.7290
 6685SOL    HW231692   4.149   0.343   3.687  0.6404 -0.5790 -1.2482
 6686SOL     OW31693   1.315   0.155  10.705 -0.6068 -0.3814  0.7030
 6686SOL    HW131694   1.364   0.146  10.788 -0.1707  3.5560  0.8473
 6686SOL    HW231695   1.390   0.149  10.646 -1.3909  0.4685 -0.3718
 6687SOL     OW31696   4.676   2.663   7.195 -0.2243  0.5920  0.8157
 6687SOL    HW131697   0.026   2.672   7.239  1.2438 -1.8229 -1.5114
 6687SOL    HW231698   4.621   2.670   7.273  0.4824  1.3087  1.2413
 6688SOL     OW31699   3.152   2.664   8.156  0.9916  0.3515 -0.3772
 6688SOL    HW131700   3.167   2.723   8.082  0.1478  1.6564  0.4968
 6688SOL    HW231701   3.203   2.711   8.222 -2.2270  1.5940  1.2309
 6689SOL     OW31702   2.272   1.378   9.541  0.5819 -0.1146 -0.2573
 6689SOL    HW131703   2.273   1.421   9.627  3.8812  0.0757 -0.3640
 6689SOL    HW231704   2.249   1.286   9.550  3.6697 -0.9208 -0.4567
 6690SOL     OW31705   4.583   1.311   3.091  0.2260  0.6420 -0.5664
 6690SOL    HW131706   4.568   1.267   3.175 -0.3935 -0.5504 -1.2885
 6690SOL    HW231707   4.587   1.404   3.111  1.0568  0.2121  1.3108
 6691SOL     OW31708   2.353   1.013   0.940 -0.5795 -0.1092  0.6734
 6691SOL    HW131709   2.299   0.941   0.909  2.1026 -2.3981  1.3538
 6691SOL    HW231710   2.295   1.088   0.927 -0.2948  0.3901  2.2320
 6692SOL     OW31711   2.701   0.321   5.851 -0.3794 -0.2863 -0.2330
 6692SOL    HW131712   2.635   0.319   5.782 -0.8976  2.3412  0.1977
 6692SOL    HW231713   2.681   0.236   5.889  2.3035  0.2434  2.3773
 6693SOL     OW31714   4.647   2.232  16.053  0.0079  0.2867 -0.3617
 6693SOL    HW131715   4.612   2.170  16.117  1.3570 -0.6922 -0.5772
 6693SOL    HW231716   4.584   2.222  15.981  2.0918 -2.1658 -1.8200
 6694SOL     OW31717   0.693   0.904   7.299  0.1441 -0.6732  0.5929
 6694SOL    HW131718   0.691   0.906   7.203  1.0488 -0.5954  0.5700
 6694SOL    HW231719   0.706   0.810   7.287 -4.1355 -1.4328  2.0419
 6695SOL     OW31720   1.683   1.006   2.901 -0.4407  0.6474 -0.6752
 6695SOL    HW131721   1.737   1.074   2.941 -0.9788  1.0457 -0.6163
 6695SOL    HW231722   1.750   0.959   2.851  0.7649  2.1958 -0.5040
 6696SOL     OW31723   1.115   1.197   2.595 -0.5498 -0.5506  0.7197
 6696SOL    HW131724   1.057   1.239   2.532  2.7848  1.5194 -0.9476
 6696SOL    HW231725   1.067   1.226   2.672  0.4041  1.8556  0.4083
 6697SOL     OW31726   2.344   1.099   9.901  0.5523 -0.5218 -0.1414
 6697SOL    HW131727   2.401   1.023   9.893 -2.0138 -2.4533  0.0139
 6697SOL    HW231728   2.287   1.096   9.824  0.8546 -0.5934 -0.3629
 6698SOL     OW31729   1.044   2.538   7.302  0.2731 -0.6604 -0.4328
 6698SOL    HW131730   0.964   2.491   7.277 -1.3396  0.5257  2.5945
 6698SOL    HW231731   1.048   2.510   7.393 -0.8570  1.6526  0.3283
 6699SOL     OW31732   4.302   2.088  16.897  0.0211 -0.1358 -0.1233
 6699SOL    HW131733   4.312   2.160  16.834 -1.1170 -0.3486 -0.5591
 6699SOL    HW231734   4.384   2.040  16.893  0.7578  1.0967  0.4601
 6700SOL     OW31735   2.425   1.848   8.375  0.0144 -0.4513 -0.0573
 6700SOL    HW131736   2.459   1.826   8.461  1.7308  0.4372 -0.5206
 6700SOL    HW231737   2.338   1.806   8.369 -0.3781  0.5524 -1.4963
 6701SOL     OW31738   0.842   0.925   5.079 -0.3474 -0.7995 -0.4078
 6701SOL    HW131739   0.834   0.831   5.063  0.0959 -0.9375  0.1670
 6701SOL    HW231740   0.799   0.964   5.003  1.8330  0.4153 -1.0357
 6702SOL     OW31741   3.937   0.847   3.445  0.4481  0.2028  0.2128
 6702SOL    HW131742   3.866   0.789   3.472 -0.1190  0.4189 -0.7988
 6702SOL    HW231743   3.951   0.805   3.360  0.0066  0.2546  0.1132
 6703SOL     OW31744   0.419   2.020   2.433 -0.5203 -0.0691 -0.1539
 6703SOL    HW131745   0.357   1.948   2.447  0.8087 -0.6659  2.6932
 6703SOL    HW231746   0.376   2.076   2.369  1.1216  0.1008 -1.1154
 6704SOL     OW31747   0.015   4.259   1.987  0.3570  0.3157  0.1836
 6704SOL    HW131748   0.076   4.186   1.991 -1.6008 -1.4677 -2.6181
 6704SOL    HW231749   4.734   4.259   2.082  0.6702 -1.7656  0.2222
 6705SOL     OW31750   0.807   1.850  10.515 -0.3661 -0.0788 -0.3994
 6705SOL    HW131751   0.829   1.770  10.468 -0.9688 -0.1046 -0.6338
 6705SOL    HW231752   0.840   1.912  10.450 -0.5971  0.6093  0.1380
 6706SOL     OW31753   4.579   3.288  12.776 -0.3721 -0.1477  0.2937
 6706SOL    HW131754   4.619   3.313  12.693  1.4936 -0.1217  1.2117
 6706SOL    HW231755   4.660   3.274  12.825  0.5525 -2.8184 -1.9855
 6707SOL     OW31756   2.123   3.683   8.712 -0.3720  0.2166 -0.1488
 6707SOL    HW131757   2.105   3.595   8.680  0.0783  0.2152 -0.3987
 6707SOL    HW231758   2.215   3.665   8.730 -0.9931 -2.5158  0.2253
 6708SOL     OW31759   4.550   4.634   7.581  0.2221  0.5934  0.5532
 6708SOL    HW131760   4.515   4.624   7.670 -0.8643 -4.3801 -0.4498
 6708SOL    HW231761   4.627   4.577   7.585 -1.9573 -2.2477  2.3046
 6709SOL     OW31762   0.841   1.026  10.915 -0.1031 -0.1465  0.4447
 6709SOL    HW131763   0.798   0.966  10.977  1.1676  1.7689  3.2060
 6709SOL    HW231764   0.763   1.070  10.881  0.5587  1.3187  0.8174
 6710SOL     OW31765   4.734   4.188   6.821 -0.3070 -0.6116 -0.1807
 6710SOL    HW131766   4.689   4.104   6.834  0.9491 -1.2527 -0.0046
 6710SOL    HW231767   0.056   4.197   6.897 -1.2645 -1.3480  0.6227
 6711SOL     OW31768   1.539   4.014  17.057 -0.2332 -0.0317 -0.0169
 6711SOL    HW131769   1.585   4.059  17.127 -0.1818  0.7822 -0.5746
 6711SOL    HW231770   1.447   4.037  17.073  0.2158  0.6213  1.5876
 6712SOL     OW31771   3.173   4.076  15.041  0.4931 -0.5484 -0.3247
 6712SOL    HW131772   3.248   4.060  15.098 -0.7356 -2.3425  0.7603
 6712SOL    HW231773   3.096   4.040  15.085  0.7376 -0.0522  0.5145
 6713SOL     OW31774   0.083   4.514   5.835 -0.0303 -0.7860 -0.4327
 6713SOL    HW131775   0.028   4.438   5.817 -1.8672 -0.2708  3.0936
 6713SOL    HW231776   0.035   4.544   5.912  1.1445  0.7965 -0.3294
 6714SOL     OW31777   4.467   2.921   4.495 -0.2242  0.3644  0.1063
 6714SOL    HW131778   4.412   2.958   4.426 -1.7703 -1.2648  0.4417
 6714SOL    HW231779   4.402   2.921   4.565  2.8038  0.7359  2.8661
 6715SOL     OW31780   2.911   3.333   3.933 -0.6002  0.4038  0.6778
 6715SOL    HW131781   2.887   3.289   4.014  0.0481 -1.6892 -0.2764
 6715SOL    HW231782   2.852   3.294   3.869 -2.2963  0.8605  1.9651
 6716SOL     OW31783   4.472   2.648   0.491  0.0275 -0.5367 -0.4039
 6716SOL    HW131784   4.520   2.573   0.456 -0.3026 -0.4741 -0.9925
 6716SOL    HW231785   4.383   2.616   0.505 -0.0913  0.0399  0.1673
 6717SOL     OW31786   2.857   3.474  17.720  0.4973 -0.1630 -0.1896
 6717SOL    HW131787   2.948   3.470   0.012 -0.3108  0.4528  2.3856
 6717SOL    HW231788   2.826   3.555   0.023 -0.7423 -1.9000  2.3592
 6718SOL     OW31789   2.368   1.952   9.798  0.0569  0.2456  0.0316
 6718SOL    HW131790   2.350   1.920   9.710 -1.9808 -0.0119  0.5321
 6718SOL    HW231791   2.358   2.047   9.788 -0.6020  0.4520  2.6649
 6719SOL     OW31792   2.471   2.308  16.470  0.0785  0.1892  0.0004
 6719SOL    HW131793   2.387   2.354  16.466 -0.6568 -1.1583 -0.1941
 6719SOL    HW231794   2.443   2.217  16.472  0.1365  0.2442  3.0946
 6720SOL     OW31795   1.083   4.385   3.721 -0.2318 -0.0827 -0.1059
 6720SOL    HW131796   1.105   4.357   3.632 -1.8008  2.9228 -1.4202
 6720SOL    HW231797   1.172   4.406   3.750  0.2013 -0.4299 -1.1859
 6721SOL     OW31798   1.650   3.475   7.121 -0.1670  0.0576  0.2801
 6721SOL    HW131799   1.700   3.479   7.202 -0.0347 -0.7552  0.2390
 6721SOL    HW231800   1.625   3.567   7.117 -0.4646 -0.1517 -3.1200
 6722SOL     OW31801   1.087   2.032   5.828 -0.0381  0.1482 -0.4447
 6722SOL    HW131802   1.147   1.957   5.831  1.6042  1.4297 -1.5846
 6722SOL    HW231803   1.060   2.023   5.920 -1.0337  0.8759 -0.6671
 6723SOL     OW31804   3.546   3.017   1.134  0.1697  0.1888  0.1403
 6723SOL    HW131805   3.622   2.964   1.158 -0.8774 -1.2695  0.2750
 6723SOL    HW231806   3.514   3.041   1.221 -1.4958  1.2801 -0.7626
 6724SOL     OW31807   2.790   1.111  10.320 -0.5465 -0.0431 -0.2779
 6724SOL    HW131808   2.843   1.079  10.393 -1.4537 -0.0989  0.3493
 6724SOL    HW231809   2.720   1.153  10.370 -1.4555 -0.1047 -1.5176
 6725SOL     OW31810   0.422   0.578   7.506  0.5641  0.1960  1.0123
 6725SOL    HW131811   0.416   0.484   7.489  3.3489 -0.0152  1.0933
 6725SOL    HW231812   0.491   0.597   7.442  0.3697 -0.6584  0.5494
 6726SOL     OW31813   0.630   0.443  12.551 -0.5583  0.4750  0.5054
 6726SOL    HW131814   0.575   0.478  12.621  0.0908  1.8523  0.3278
 6726SOL    HW231815   0.683   0.374  12.591 -2.0848 -0.4463  0.9663
 6727SOL     OW31816   0.278   0.700  11.605 -0.4572  0.0705  0.7035
 6727SOL    HW131817   0.289   0.649  11.685  3.2248 -0.1799  0.0294
 6727SOL    HW231818   0.184   0.716  11.611 -0.7367 -1.9394  1.7091
 6728SOL     OW31819   4.282   4.427  13.410  0.0653 -0.2736  0.6052
 6728SOL    HW131820   4.289   4.446  13.504 -0.9414 -4.3205  1.5200
 6728SOL    HW231821   4.189   4.444  13.400 -0.0481  0.2750  2.4817
 6729SOL     OW31822   2.593   1.511   2.142 -0.2702  0.2606  0.3934
 6729SOL    HW131823   2.663   1.544   2.086  0.3212 -0.3788  0.7626
 6729SOL    HW231824   2.551   1.447   2.084  0.5729  1.4360 -1.5353
 6730SOL     OW31825   4.330   0.375  10.873 -0.5830 -0.4314  0.2624
 6730SOL    HW131826   4.255   0.384  10.814 -0.7984 -1.1368  0.4169
 6730SOL    HW231827   4.406   0.393  10.819 -0.1055 -0.3072  0.9852
 6731SOL     OW31828   4.571   2.890   4.963  0.1881 -0.4318  0.6643
 6731SOL    HW131829   4.603   2.906   4.874 -0.1118 -0.3873  0.5648
 6731SOL    HW231830   4.650   2.848   4.999 -0.6516 -1.4453  1.3297
 6732SOL     OW31831   2.597   4.006   3.335  0.0205  0.0939 -0.0464
 6732SOL    HW131832   2.541   4.029   3.261  0.3378 -0.0664 -0.3381
 6732SOL    HW231833   2.592   3.910   3.340 -0.6131 -0.0903 -3.9849
 6733SOL     OW31834   1.598   3.181   9.606 -0.1337  0.2469 -0.1523
 6733SOL    HW131835   1.504   3.199   9.601 -0.6157 -2.8505 -2.4124
 6733SOL    HW231836   1.630   3.270   9.611  2.3124 -0.5357 -2.1504
 6734SOL     OW31837   0.813   1.634   2.304 -0.6215 -0.5949 -0.7961
 6734SOL    HW131838   0.791   1.648   2.396  2.0077  1.0864 -0.4164
 6734SOL    HW231839   0.723   1.620   2.273 -0.8094  0.5733 -0.7957
 6735SOL     OW31840   0.152   3.238  13.509  0.5838  0.2341  0.2213
 6735SOL    HW131841   0.069   3.192  13.524  0.3047  0.9658  0.9361
 6735SOL    HW231842   0.199   3.236  13.593  1.6999  1.4604 -0.3654
 6736SOL     OW31843   2.640   2.602   6.749 -0.4051  0.4525 -0.1992
 6736SOL    HW131844   2.684   2.608   6.834 -2.2229  0.5418  0.7321
 6736SOL    HW231845   2.682   2.676   6.705  0.5870 -1.1244 -1.8822
 6737SOL     OW31846   2.308   1.599  11.069  0.2389 -0.1451 -0.9420
 6737SOL    HW131847   2.318   1.682  11.116 -1.4152 -0.6689  0.3205
 6737SOL    HW231848   2.234   1.628  11.014  1.2573  3.4371 -0.4177
 6738SOL     OW31849   1.971   2.121   2.348 -0.2262  0.1381 -0.1846
 6738SOL    HW131850   2.050   2.147   2.302  1.3180 -1.4314  1.5796
 6738SOL    HW231851   1.990   2.029   2.368  0.8309  0.1321 -1.2523
 6739SOL     OW31852   0.692   3.434   1.742  0.0343 -0.4452  0.4777
 6739SOL    HW131853   0.686   3.514   1.795  1.0438  0.8126 -1.3254
 6739SOL    HW231854   0.691   3.354   1.795  0.1890 -1.4654 -1.0530
 6740SOL     OW31855   0.073   3.916   7.043  0.1513  0.3309 -0.1101
 6740SOL    HW131856   0.114   3.933   6.958 -0.2898 -0.5008 -0.4863
 6740SOL    HW231857   4.720   3.878   7.033 -0.1211  0.6000  1.2156
 6741SOL     OW31858   2.532   3.112   1.669 -0.2591 -0.0451 -0.1437
 6741SOL    HW131859   2.513   3.205   1.678  2.1043  0.5190 -1.0559
 6741SOL    HW231860   2.628   3.108   1.670 -0.2724 -0.2053  0.5239
 6742SOL     OW31861   3.084   1.597   7.447 -0.2673  0.0138  0.0898
 6742SOL    HW131862   3.036   1.601   7.364  1.4070  2.9948 -0.7414
 6742SOL    HW231863   3.133   1.679   7.434  0.0421 -0.1424  0.2676
 6743SOL     OW31864   4.524   1.074   5.308 -0.2357 -0.3024 -0.1072
 6743SOL    HW131865   4.493   1.148   5.255 -2.3930 -1.9476 -1.1419
 6743SOL    HW231866   4.618   1.087   5.306 -0.1283 -1.0024  0.6003
 6744SOL     OW31867   0.753   4.417  10.753 -0.9847 -0.4346  0.0317
 6744SOL    HW131868   0.792   4.425  10.840  0.7190 -0.1529 -0.7600
 6744SOL    HW231869   0.831   4.439  10.701  0.2365 -0.4367  1.8480
 6745SOL     OW31870   1.853   1.408   7.060 -0.3380 -0.1243  0.4697
 6745SOL    HW131871   1.847   1.490   7.110  0.5199  0.7941 -0.9191
 6745SOL    HW231872   1.767   1.392   7.023  0.6586 -1.5633 -1.1943
 6746SOL     OW31873   4.051   0.161   8.098  0.1384 -0.0772  0.1153
 6746SOL    HW131874   4.005   0.084   8.131 -0.0817  0.8457  1.9429
 6746SOL    HW231875   4.108   0.193   8.168  0.7626 -2.5513  0.7420
 6747SOL     OW31876   3.741   3.470   6.320  0.4874 -0.1278  0.0309
 6747SOL    HW131877   3.669   3.408   6.308 -1.5103  1.8871  1.8983
 6747SOL    HW231878   3.814   3.419   6.283  1.3860  1.2722 -0.1207
 6748SOL     OW31879   1.705   0.608   6.130  0.5979  0.5259 -0.7910
 6748SOL    HW131880   1.692   0.595   6.036 -1.1783  3.0109 -0.8854
 6748SOL    HW231881   1.739   0.521   6.151 -2.4527  0.3126  3.1552
 6749SOL     OW31882   2.571   3.521  14.442 -0.2065  0.2367  0.5207
 6749SOL    HW131883   2.552   3.603  14.488 -1.5605  0.3332 -0.1946
 6749SOL    HW231884   2.491   3.469  14.428 -0.9941  1.4061  0.6603
 6750SOL     OW31885   3.560   2.570   1.305 -0.3301  0.2709 -0.1348
 6750SOL    HW131886   3.633   2.521   1.345 -1.0914  0.5765  1.6377
 6750SOL    HW231887   3.518   2.504   1.251  0.2776  0.8850 -1.3540
 6751SOL     OW31888   3.398   3.437   5.828 -0.0064  0.5987  0.1513
 6751SOL    HW131889   3.491   3.417   5.842 -0.3521 -1.5621 -0.7471
 6751SOL    HW231890   3.402   3.447   5.733 -4.2280 -2.6561 -0.3266
 6752SOL     OW31891   0.049   3.862   6.774 -0.0480 -0.2939 -0.7509
 6752SOL    HW131892   0.101   3.911   6.710  0.7167 -0.8977 -0.5894
 6752SOL    HW231893   4.713   3.835   6.715  0.2098  1.8714 -2.0586
 6753SOL     OW31894   0.685   2.688   7.241 -0.6827 -0.4322 -0.5654
 6753SOL    HW131895   0.738   2.768   7.243 -1.1445 -0.1744  1.3239
 6753SOL    HW231896   0.646   2.707   7.155 -0.7519 -1.4004 -0.7453
 6754SOL     OW31897   2.961   4.041   6.068 -0.3894  0.8756 -1.1365
 6754SOL    HW131898   3.053   4.016   6.068 -0.8730 -0.9216 -0.4799
 6754SOL    HW231899   2.930   3.973   6.129 -2.6279  0.5123 -2.6676
 6755SOL     OW31900   0.233   2.956   7.793 -0.6566  0.3605  0.6578
 6755SOL    HW131901   0.310   2.900   7.804 -0.4140  0.6003  0.1652
 6755SOL    HW231902   0.235   2.995   7.881  0.7533  0.3202  0.6478
 6756SOL     OW31903   0.320   0.100   7.296 -0.0755 -0.5169  0.4408
 6756SOL    HW131904   0.317   0.041   7.221 -0.7932  1.2611 -0.9362
 6756SOL    HW231905   0.282   0.038   7.358  2.1058 -1.0481  1.2604
 6757SOL     OW31906   1.633   3.053   6.327  0.4896 -0.0328  0.0873
 6757SOL    HW131907   1.712   3.017   6.289 -0.3055  0.2440 -1.8103
 6757SOL    HW231908   1.597   3.091   6.247 -0.1319 -3.7391 -1.3728
 6758SOL     OW31909   4.268   2.543  14.874 -0.0988 -0.0228 -0.2433
 6758SOL    HW131910   4.333   2.501  14.930 -2.7075 -1.3056  1.8287
 6758SOL    HW231911   4.233   2.471  14.822 -0.4341  1.3638 -1.9470
 6759SOL     OW31912   0.192   3.177   4.538  0.1602  0.1024 -0.2240
 6759SOL    HW131913   0.201   3.082   4.532  0.3443  0.0814  0.3757
 6759SOL    HW231914   0.205   3.177   4.633  0.2737 -0.6433 -0.2404
 6760SOL     OW31915   1.728   2.544   4.810  0.5953 -0.4382 -0.2690
 6760SOL    HW131916   1.679   2.587   4.740 -0.6861  0.1694  1.0088
 6760SOL    HW231917   1.661   2.528   4.876  1.3714 -0.0919  0.5962
 6761SOL     OW31918   1.398   2.521   6.856 -0.2297  0.1008 -0.5810
 6761SOL    HW131919   1.333   2.573   6.903 -1.2591 -1.7083  0.0393
 6761SOL    HW231920   1.348   2.440   6.844  0.2785 -0.3267  0.1526
 6762SOL     OW31921   1.360   3.371   6.397  0.4302  0.5534  0.3685
 6762SOL    HW131922   1.301   3.441   6.424 -0.6632 -0.1103 -0.2902
 6762SOL    HW231923   1.402   3.414   6.322  0.1010 -1.2122 -0.8380
 6763SOL     OW31924   1.476   2.703   9.159  0.1702 -0.0637  0.0632
 6763SOL    HW131925   1.424   2.715   9.239  2.7028  0.8504  1.5684
 6763SOL    HW231926   1.556   2.750   9.182 -0.7679  2.2613 -1.4451
 6764SOL     OW31927   1.712   3.334   8.560  1.0968 -0.1897  0.1181
 6764SOL    HW131928   1.649   3.297   8.499  2.1932  0.9778 -1.7413
 6764SOL    HW231929   1.652   3.386   8.614 -1.9430 -2.8472 -0.7286
 6765SOL     OW31930   4.644   2.880   2.543 -0.1391  0.0256  0.6282
 6765SOL    HW131931   4.562   2.860   2.588 -0.7556  1.7717  0.3110
 6765SOL    HW231932   4.678   2.795   2.517  1.1827  0.7558 -0.0358
 6766SOL     OW31933   1.414   3.948   2.269  0.2239 -0.6198  0.7597
 6766SOL    HW131934   1.458   3.922   2.188  0.3698 -0.0584  0.6624
 6766SOL    HW231935   1.444   4.036   2.291  2.8453 -0.9476 -1.5513
 6767SOL     OW31936   3.620   0.446   3.902  0.0445 -0.5733 -0.5238
 6767SOL    HW131937   3.655   0.410   3.983  0.6403  0.0211 -0.5189
 6767SOL    HW231938   3.612   0.370   3.844  0.2702 -1.4685  0.6329
 6768SOL     OW31939   2.229   3.816   3.529 -0.4435  0.1812 -0.1703
 6768SOL    HW131940   2.237   3.724   3.553 -1.6375 -0.4435 -2.0863
 6768SOL    HW231941   2.278   3.818   3.446  1.8341 -1.0857  1.1736
 6769SOL     OW31942   0.167   3.245   1.783  1.0339 -0.8963  0.0408
 6769SOL    HW131943   0.114   3.303   1.728 -0.5256 -1.6402  0.7709
 6769SOL    HW231944   0.235   3.303   1.819  0.7411 -0.3350 -0.3002
 6770SOL     OW31945   2.853   1.072   6.986  0.1638  0.1277 -0.8841
 6770SOL    HW131946   2.800   1.140   6.945 -0.5000 -0.9654 -1.8404
 6770SOL    HW231947   2.861   1.117   7.070  0.0360  0.3383 -0.9855
 6771SOL     OW31948   1.638   3.599   3.513  0.3134 -0.2065  0.5304
 6771SOL    HW131949   1.570   3.667   3.507 -0.3315 -0.7989  1.0249
 6771SOL    HW231950   1.660   3.581   3.422  0.9303  2.1295  0.2226
 6772SOL     OW31951   2.258   2.920   7.267  0.3160  0.5232  0.3724
 6772SOL    HW131952   2.329   2.855   7.269  0.0343  0.1879 -0.8469
 6772SOL    HW231953   2.209   2.874   7.199  1.6122 -0.7468  0.3000
 6773SOL     OW31954   4.637   0.331   1.722 -0.2614  0.0294  0.1145
 6773SOL    HW131955   4.676   0.309   1.807  0.3407 -0.5047 -0.2983
 6773SOL    HW231956   4.577   0.403   1.743  0.3061  0.1637  1.2815
 6774SOL     OW31957   4.174   0.486   2.147 -0.3679 -0.4362 -0.4393
 6774SOL    HW131958   4.098   0.544   2.154 -1.2971 -1.6424 -0.6355
 6774SOL    HW231959   4.191   0.476   2.241 -0.4758 -1.5831 -0.5417
 6775SOL     OW31960   0.175   0.116   2.975  0.2475 -0.0511  0.4473
 6775SOL    HW131961   0.083   0.101   2.954  0.5684 -2.1130  0.5607
 6775SOL    HW231962   0.217   0.052   2.918  0.4591  0.7410 -0.2873
 6776SOL     OW31963   3.070   0.796   7.953  0.3115 -0.1487 -0.2310
 6776SOL    HW131964   3.163   0.816   7.950 -0.1164  1.8764 -0.1579
 6776SOL    HW231965   3.045   0.843   8.033  1.0993  0.8901 -0.5980
 6777SOL     OW31966   3.755   2.543  17.259 -0.3715 -0.0667  0.0928
 6777SOL    HW131967   3.685   2.517  17.199  0.2757  1.6993 -1.4298
 6777SOL    HW231968   3.782   2.625  17.217  0.5302  0.1125  1.0399
 6778SOL     OW31969   3.796   0.926   9.100 -0.2699 -0.1335  0.2703
 6778SOL    HW131970   3.805   0.831   9.088  0.2981  0.1837 -1.9308
 6778SOL    HW231971   3.701   0.928   9.107 -0.5350 -2.7823 -2.5353
 6779SOL     OW31972   0.116   2.279  12.531  0.2352  0.7776  0.0940
 6779SOL    HW131973   0.178   2.208  12.517  0.9253  1.1711  1.0993
 6779SOL    HW231974   0.177   2.352  12.546 -0.8770  1.4800  1.1736
 6780SOL     OW31975   2.860   2.267   7.102  0.4923  0.5331  0.0211
 6780SOL    HW131976   2.771   2.262   7.136  1.1368  0.0381  1.6250
 6780SOL    HW231977   2.904   2.255   7.186  2.0260 -2.3429 -1.1693
 6781SOL     OW31978   1.915   3.916  14.177  0.0222 -0.2939 -0.0744
 6781SOL    HW131979   1.836   3.967  14.194 -0.0961 -0.5019  0.0036
 6781SOL    HW231980   1.926   3.879  14.265  0.8443 -0.8159 -0.3988
 6782SOL     OW31981   0.428   2.893  14.099  0.0671  0.0230  0.5076
 6782SOL    HW131982   0.358   2.955  14.078  0.4016 -0.0505 -0.8200
 6782SOL    HW231983   0.387   2.858  14.178  0.3866  1.0250  1.1126
 6783SOL     OW31984   0.023   2.199  15.241  0.0873 -0.3114  0.2197
 6783SOL    HW131985   0.015   2.277  15.187 -0.5966 -1.8204 -1.8924
 6783SOL    HW231986   0.046   2.240  15.324 -0.8159  1.4633 -0.4067
 6784SOL     OW31987   2.238   3.504  11.343  0.4974 -0.3086  0.0970
 6784SOL    HW131988   2.303   3.456  11.293 -0.7500 -1.6050 -0.2777
 6784SOL    HW231989   2.284   3.585  11.367  2.0157 -0.3866 -2.5208
 6785SOL     OW31990   3.929   4.047   6.415  0.6849  0.1993 -0.2708
 6785SOL    HW131991   3.874   4.124   6.396 -0.5588 -0.7263 -0.4233
 6785SOL    HW231992   3.924   4.001   6.331 -0.2384 -2.3158  1.1540
 6786SOL     OW31993   3.746   0.387   4.457  0.3795 -0.2611  0.3771
 6786SOL    HW131994   3.741   0.321   4.527  0.2659 -0.7650 -0.1052
 6786SOL    HW231995   3.698   0.461   4.494  0.0843 -0.2680 -0.0000
 6787SOL     OW31996   2.638   4.169  10.276  0.2484 -0.3246 -0.1208
 6787SOL    HW131997   2.721   4.199  10.315 -0.3149 -0.5416  1.2415
 6787SOL    HW231998   2.644   4.201  10.186 -2.9579 -0.6809 -0.4387
 6788SOL     OW31999   0.776   4.315   1.751 -0.6313  0.6193  0.6014
 6788SOL    HW132000   0.862   4.325   1.791 -0.4565  1.1278  0.1063
 6788SOL    HW232001   0.797   4.299   1.659 -0.2007 -1.5063  1.0786
 6789SOL     OW32002   2.152   2.409   2.905  0.6348 -0.3313 -0.3268
 6789SOL    HW132003   2.247   2.408   2.892  0.7414 -0.4478  0.4318
 6789SOL    HW232004   2.136   2.441   2.816 -0.4343 -1.0781 -0.4048
 6790SOL     OW32005   3.091   4.471   3.433 -0.4805  0.5728 -0.1988
 6790SOL    HW132006   3.159   4.457   3.367 -0.1002  2.9732 -0.2989
 6790SOL    HW232007   3.015   4.460   3.376 -1.6310  0.3512  1.3525
 6791SOL     OW32008   2.723   0.029   4.704 -0.1132  0.8458 -0.2332
 6791SOL    HW132009   2.799   4.707   4.718 -0.3718  0.9273  1.4875
 6791SOL    HW232010   2.712   0.025   4.609  0.3128  1.8210 -0.3213
 6792SOL     OW32011   2.432   2.875   1.827 -0.3771 -0.3241 -0.0355
 6792SOL    HW132012   2.448   2.912   1.741  0.4599  0.0857  0.3008
 6792SOL    HW232013   2.521   2.843   1.842 -1.2264 -2.1725  1.0847
 6793SOL     OW32014   3.128   4.586   8.498  0.1305  0.3092 -0.0785
 6793SOL    HW132015   3.080   4.632   8.567  1.6906  0.1650  1.1143
 6793SOL    HW232016   3.213   4.628   8.508  1.3077 -2.3869  1.2036
 6794SOL     OW32017   1.789   3.119   9.214  0.0577 -0.7220 -0.2258
 6794SOL    HW132018   1.711   3.128   9.160  0.4893 -0.7862 -0.8715
 6794SOL    HW232019   1.791   3.212   9.235 -0.5870 -0.7918  0.1363
 6795SOL     OW32020   0.011   3.314  13.287 -0.0479 -0.3844 -0.7032
 6795SOL    HW132021   0.085   3.305  13.348 -0.2517 -0.7769 -0.5111
 6795SOL    HW232022   4.688   3.250  13.330 -0.8213  1.8076  1.5088
 6796SOL     OW32023   3.976   3.777   3.427  0.1155  1.2739  0.2369
 6796SOL    HW132024   4.004   3.778   3.336  0.5479  1.7987  0.3781
 6796SOL    HW232025   3.970   3.682   3.437  3.0929  0.9135 -1.4065
 6797SOL     OW32026   0.570   3.801   2.450  0.4466 -0.0126 -0.5338
 6797SOL    HW132027   0.580   3.877   2.394  2.4766 -0.1769 -0.3883
 6797SOL    HW232028   0.478   3.781   2.431  0.7060 -1.8778  0.1505
 6798SOL     OW32029   4.644   2.950   8.978  0.2190  0.2634  0.0026
 6798SOL    HW132030   4.652   2.867   9.026 -0.4929  0.1245 -0.1123
 6798SOL    HW232031   4.733   2.968   8.948  0.4640 -1.3150 -0.2347
 6799SOL     OW32032   1.236   3.876  14.015  0.0194 -0.0962 -0.0335
 6799SOL    HW132033   1.161   3.935  14.025  1.6366  2.1511 -1.1988
 6799SOL    HW232034   1.309   3.936  14.028  0.7373 -0.7117 -1.2640
 6800SOL     OW32035   0.048   3.057   2.690 -0.1820  0.1088 -0.3581
 6800SOL    HW132036   0.011   2.995   2.627 -3.2934  0.3540  1.2471
 6800SOL    HW232037   0.143   3.056   2.677 -0.0552 -0.9581  0.6173
 6801SOL     OW32038   4.350   2.908   6.654  0.4661 -0.0464 -0.4209
 6801SOL    HW132039   4.391   2.861   6.726 -0.3680  0.8708  0.6508
 6801SOL    HW232040   4.295   2.841   6.612 -1.1001  2.5357 -2.5006
 6802SOL     OW32041   3.324   2.797   1.161 -0.2350  0.5675  0.4748
 6802SOL    HW132042   3.402   2.809   1.214  0.1555  1.7816 -0.3876
 6802SOL    HW232043   3.291   2.711   1.186  1.8162  0.0693  1.4400
 6803SOL     OW32044   0.942   4.122  12.792  0.2419  0.2390  0.0672
 6803SOL    HW132045   0.876   4.072  12.839  0.8049  0.0922  0.7077
 6803SOL    HW232046   0.949   4.083  12.705 -0.7300  0.5156 -0.1302
 6804SOL     OW32047   1.297   0.130   6.659  0.0504  0.3678  0.4059
 6804SOL    HW132048   1.243   0.064   6.702  0.4046  0.5701  1.1493
 6804SOL    HW232049   1.323   0.090   6.575  1.1307  1.4555  0.2198
 6805SOL     OW32050   1.721   0.097   7.687  0.1707  0.0720  0.7944
 6805SOL    HW132051   1.653   0.094   7.755 -1.3144 -2.5448 -0.7890
 6805SOL    HW232052   1.780   0.023   7.701 -0.8143 -0.4483  2.2078
 6806SOL     OW32053   2.113   0.141   5.244 -0.1869 -0.2327  0.0703
 6806SOL    HW132054   2.032   0.191   5.245 -0.5116 -0.7645  0.6280
 6806SOL    HW232055   2.173   0.208   5.210 -0.8998  0.9327  1.0782
 6807SOL     OW32056   2.984   4.353   5.563  0.2574 -0.1734  0.4562
 6807SOL    HW132057   3.045   4.320   5.629  2.5565  2.3987 -0.3639
 6807SOL    HW232058   2.918   4.391   5.621 -1.3261 -0.3694 -1.2200
 6808SOL     OW32059   2.362   3.914   2.218 -0.4384 -0.3993 -0.3750
 6808SOL    HW132060   2.454   3.927   2.193 -0.0245 -3.6071 -0.5389
 6808SOL    HW232061   2.319   3.984   2.169  0.5696 -0.9174 -1.9950
 6809SOL     OW32062   2.735   2.700   5.509  0.4238  0.3396 -0.3864
 6809SOL    HW132063   2.705   2.764   5.574 -0.5215 -1.1768  0.6694
 6809SOL    HW232064   2.678   2.713   5.434 -0.4750 -0.4534  0.1549
 6810SOL     OW32065   2.061   1.338   1.665 -0.0437 -0.4952  0.2199
 6810SOL    HW132066   1.973   1.336   1.627  0.2394 -1.1113 -0.4036
 6810SOL    HW232067   2.048   1.402   1.736  1.2164  0.0166 -0.0146
 6811SOL     OW32068   3.375   4.106  13.502 -0.2797  0.0102  0.4617
 6811SOL    HW132069   3.358   4.013  13.489 -0.3892 -0.5046  4.2960
 6811SOL    HW232070   3.326   4.121  13.583 -1.7185  1.3795 -0.6562
 6812SOL     OW32071   3.188   3.513   4.184  0.2444 -0.4709  0.3159
 6812SOL    HW132072   3.101   3.491   4.218 -0.2693 -1.9222 -1.9352
 6812SOL    HW232073   3.241   3.441   4.219  1.2320  0.7098  1.2297
 6813SOL     OW32074   1.827   1.273   7.309  0.3715 -0.4288 -0.1794
 6813SOL    HW132075   1.839   1.290   7.215 -0.4690  0.5600 -0.1109
 6813SOL    HW232076   1.769   1.197   7.314  2.5457 -2.1489 -0.8101
 6814SOL     OW32077   2.846   3.351   1.932  0.5474 -0.2121 -0.3723
 6814SOL    HW132078   2.908   3.396   1.990 -0.0252  0.1332 -0.0230
 6814SOL    HW232079   2.856   3.409   1.857 -2.1409 -0.8103 -1.1952
 6815SOL     OW32080   4.534   3.263   0.429 -0.0560  0.1043  0.2989
 6815SOL    HW132081   4.551   3.357   0.426 -2.2755  0.5479  1.8780
 6815SOL    HW232082   4.451   3.249   0.384  0.1232 -0.1447  0.0415
 6816SOL     OW32083   2.031   0.089   0.380  0.0811 -0.1103  0.0215
 6816SOL    HW132084   2.051   0.180   0.403 -0.8731 -0.1660  1.0715
 6816SOL    HW232085   1.965   0.071   0.446  0.2250 -0.0977  0.1713
 6817SOL     OW32086   1.372   1.015   6.137  0.2469 -0.5492  0.2751
 6817SOL    HW132087   1.437   1.044   6.200 -0.5198  1.4509  0.1562
 6817SOL    HW232088   1.307   0.979   6.198  1.1847 -3.2321 -0.3438
 6818SOL     OW32089   2.324   0.256   7.134  0.2141 -0.3944  0.5717
 6818SOL    HW132090   2.326   0.164   7.107 -0.3867  0.1696 -1.3477
 6818SOL    HW232091   2.378   0.255   7.213 -1.6335  1.2960  1.8664
 6819SOL     OW32092   1.473   3.083   7.640  0.2315  0.6347 -0.8339
 6819SOL    HW132093   1.493   2.991   7.622  0.1672  0.6400 -0.9387
 6819SOL    HW232094   1.438   3.115   7.557  1.2728 -0.2985 -1.6419
 6820SOL     OW32095   1.566   0.708  11.986 -0.2834  0.1793  0.1647
 6820SOL    HW132096   1.621   0.717  12.065 -1.6725 -0.5407  1.2191
 6820SOL    HW232097   1.563   0.613  11.975  3.4273  0.2522 -1.6615
 6821SOL     OW32098   4.312   2.344  16.772 -0.4149 -0.2584 -0.3071
 6821SOL    HW132099   4.382   2.394  16.813 -1.7010  0.8205  0.5621
 6821SOL    HW232100   4.322   2.383  16.685 -2.3173  0.1265 -0.3508
 6822SOL     OW32101   4.251   3.381   7.515 -0.1285 -0.1988 -0.5068
 6822SOL    HW132102   4.214   3.389   7.602  0.1679 -0.2238 -0.3787
 6822SOL    HW232103   4.182   3.428   7.469  0.5792 -0.4550 -1.8479
 6823SOL     OW32104   4.515   1.420   2.082 -0.5221  0.7642 -0.5796
 6823SOL    HW132105   4.445   1.461   2.132  2.0019  1.9167  2.0087
 6823SOL    HW232106   4.593   1.470   2.103  0.2311 -1.6064  2.2473
 6824SOL     OW32107   1.050   2.750   4.954 -0.2048  0.2020  0.1240
 6824SOL    HW132108   1.095   2.750   5.039 -1.3086 -1.4145  0.7204
 6824SOL    HW232109   1.102   2.686   4.906  0.3311 -0.7313  1.9451
 6825SOL     OW32110   2.565   3.246  11.749  0.1116 -0.8231  0.4358
 6825SOL    HW132111   2.578   3.154  11.771  0.0195 -0.9957 -0.2382
 6825SOL    HW232112   2.566   3.293  11.832 -1.3781 -0.4248  0.2373
 6826SOL     OW32113   3.951   2.433   2.656  0.7320  0.0248 -0.0482
 6826SOL    HW132114   3.877   2.392   2.611 -0.0951  0.4358  0.9465
 6826SOL    HW232115   3.915   2.473   2.734  0.5258  0.1583 -0.2124
 6827SOL     OW32116   0.732   4.510   5.543 -0.1178 -0.9558  0.2630
 6827SOL    HW132117   0.708   4.504   5.451  0.1766  0.5653  0.0923
 6827SOL    HW232118   0.706   4.597   5.573  1.7509 -0.6525  1.0171
 6828SOL     OW32119   2.833   0.103   5.721  0.8191  0.0843 -0.3388
 6828SOL    HW132120   2.890   0.154   5.664 -0.3793  1.8607  0.0496
 6828SOL    HW232121   2.791   0.178   5.765  1.1680 -0.9165  1.6957
 6829SOL     OW32122   1.245   0.747  13.946  0.1506 -0.2894 -0.3293
 6829SOL    HW132123   1.231   0.822  14.004 -2.0505 -0.5517 -0.5329
 6829SOL    HW232124   1.207   0.676  13.997  1.0788  0.3376  1.2110
 6830SOL     OW32125   4.629   0.441   8.110 -0.4330 -0.1673 -0.2539
 6830SOL    HW132126   4.557   0.388   8.077 -1.5867  2.7355 -2.3869
 6830SOL    HW232127   4.662   0.484   8.031 -0.9607  0.0840 -0.3378
 6831SOL     OW32128   1.297   0.246   6.347 -0.4702 -0.7857 -0.5402
 6831SOL    HW132129   1.265   0.335   6.343  0.4190 -0.4747 -0.8582
 6831SOL    HW232130   1.374   0.262   6.401 -1.9416  0.1142  1.2770
 6832SOL     OW32131   2.298   4.141  11.304  0.5926  0.6001 -0.2991
 6832SOL    HW132132   2.275   4.089  11.380  0.2722  2.4840  0.9050
 6832SOL    HW232133   2.392   4.125  11.302  0.1257 -2.2509  1.8887
 6833SOL     OW32134   1.760   4.110   3.678 -1.0274  0.2525 -0.6425
 6833SOL    HW132135   1.691   4.068   3.627 -2.0769  1.3929 -0.1787
 6833SOL    HW232136   1.758   4.203   3.656  0.8823  0.2554 -0.7941
 6834SOL     OW32137   3.977   1.461   1.781  0.1133 -0.1003  0.0045
 6834SOL    HW132138   4.000   1.376   1.742 -0.9489 -0.8766  1.0465
 6834SOL    HW232139   3.917   1.495   1.715 -0.5770 -0.1038  0.6330
 6835SOL     OW32140   2.465   0.116   8.142  0.0587  0.0722 -0.1085
 6835SOL    HW132141   2.476   0.209   8.123  1.0172  0.0334  0.2597
 6835SOL    HW232142   2.543   0.100   8.195 -0.1911  0.2752  0.3190
 6836SOL     OW32143   2.411   0.899   9.065 -0.5833 -0.0277  0.0196
 6836SOL    HW132144   2.339   0.856   9.112  2.7503 -2.4685  2.9513
 6836SOL    HW232145   2.383   0.899   8.974 -2.2243 -0.5610  0.5221
 6837SOL     OW32146   4.160   4.182   6.491  0.0962 -0.1655  0.1691
 6837SOL    HW132147   4.195   4.141   6.412 -2.1590  0.2772 -1.0631
 6837SOL    HW232148   4.076   4.136   6.496  0.3253 -0.6516 -0.4551
 6838SOL     OW32149   3.355   0.905   2.845 -0.5354  0.1614  0.2628
 6838SOL    HW132150   3.405   0.841   2.894 -1.5937 -1.3448 -0.6386
 6838SOL    HW232151   3.426   0.949   2.799 -2.2986  1.9125 -0.8148
 6839SOL     OW32152   2.639   0.638   6.401 -0.1915 -0.0986 -0.2544
 6839SOL    HW132153   2.587   0.597   6.331  1.5370 -1.2890 -0.8453
 6839SOL    HW232154   2.725   0.600   6.382 -0.4401 -0.8605  0.1144
 6840SOL     OW32155   3.246   2.641   1.718 -0.0511  0.4197  0.1966
 6840SOL    HW132156   3.230   2.731   1.691 -2.5704  0.1692  0.9594
 6840SOL    HW232157   3.185   2.622   1.788 -0.4665  0.5169 -0.1420
 6841SOL     OW32158   2.767   2.671   0.594  0.1145 -0.0272 -0.2588
 6841SOL    HW132159   2.857   2.642   0.578  0.4741  1.0137 -0.1349
 6841SOL    HW232160   2.727   2.597   0.639 -1.5753  1.2607  0.3575
 6842SOL     OW32161   2.048   0.176   8.731 -0.2473  0.0846 -0.3272
 6842SOL    HW132162   2.040   0.198   8.638 -1.1385 -4.1945 -1.2550
 6842SOL    HW232163   2.023   0.259   8.771  0.2644  0.5070 -0.8700
 6843SOL     OW32164   4.366   4.628  13.253  0.1022  0.0476 -0.2834
 6843SOL    HW132165   4.299   4.610  13.187 -1.8952  0.4403  1.6327
 6843SOL    HW232166   4.353   4.545  13.298 -2.1850 -0.2908 -1.5673
 6844SOL     OW32167   2.467   0.586   8.798  0.5128 -0.8748  0.4388
 6844SOL    HW132168   2.426   0.562   8.714  2.0605 -0.3557 -0.4676
 6844SOL    HW232169   2.502   0.674   8.783 -0.8300 -0.1722  1.3837
 6845SOL     OW32170   1.184   3.289   4.382 -0.0524 -0.1968  0.2541
 6845SOL    HW132171   1.198   3.287   4.477 -2.2459 -1.1837  0.5521
 6845SOL    HW232172   1.093   3.313   4.368 -0.2419 -3.1388 -3.6481
 6846SOL     OW32173   0.783   0.425   7.520 -0.3303  0.1415  0.6663
 6846SOL    HW132174   0.698   0.457   7.491 -0.2334 -0.6439 -0.5152
 6846SOL    HW232175   0.823   0.512   7.526  1.2965 -0.5820  0.3439
 6847SOL     OW32176   1.475   3.339  16.073  0.0248 -0.1925  0.1674
 6847SOL    HW132177   1.532   3.334  16.150  0.0702  1.4666  0.2517
 6847SOL    HW232178   1.434   3.253  16.070 -1.7377  0.6271  0.3326
 6848SOL     OW32179   3.033   0.499   2.961  0.5644  0.3074 -0.0691
 6848SOL    HW132180   2.972   0.520   2.890  2.2375 -0.7276 -1.8074
 6848SOL    HW232181   3.018   0.575   3.018  0.1799  1.1833 -1.3517
 6849SOL     OW32182   1.760   4.397   3.570 -0.1472  0.3119 -0.4102
 6849SOL    HW132183   1.836   4.350   3.604  0.8610  0.7856 -2.0345
 6849SOL    HW232184   1.812   4.457   3.518  0.5842  0.7702  0.8431
 6850SOL     OW32185   1.562   3.847   1.509 -0.3471 -0.0178 -0.0287
 6850SOL    HW132186   1.490   3.851   1.573  0.1836  5.5446  0.1863
 6850SOL    HW232187   1.534   3.775   1.452  1.5168 -1.1918  0.5323
 6851SOL     OW32188   3.347   3.683   1.165  0.1059  0.0507  0.1151
 6851SOL    HW132189   3.308   3.677   1.252  0.5712  1.1396  0.4036
 6851SOL    HW232190   3.442   3.674   1.170  0.2749  1.1853 -1.2345
 6852SOL     OW32191   3.188   3.001   1.338 -0.1817  0.3541 -0.0086
 6852SOL    HW132192   3.211   2.941   1.267  0.5788 -0.3168  0.8084
 6852SOL    HW232193   3.240   3.079   1.316  1.3011 -0.6734 -0.1549
 6853SOL     OW32194   1.417   3.855  16.887  0.7384  0.5929  0.0425
 6853SOL    HW132195   1.481   3.787  16.867  0.2069  0.3622 -0.8507
 6853SOL    HW232196   1.476   3.919  16.927  0.8190 -0.5580  1.7737
 6854SOL     OW32197   3.536   0.719   7.542 -0.0443 -0.2451 -0.2139
 6854SOL    HW132198   3.607   0.709   7.478 -0.4442 -0.7383 -0.5846
 6854SOL    HW232199   3.465   0.750   7.486  0.7562  1.3365 -0.3613
 6855SOL     OW32200   4.370   2.320   2.752 -0.0339  0.0180 -0.0900
 6855SOL    HW132201   4.427   2.245   2.736 -0.3551 -0.4892  1.1563
 6855SOL    HW232202   4.431   2.395   2.752 -1.3725  1.1084 -1.8937
 6856SOL     OW32203   2.019   0.509   4.234 -0.1818  0.0756  0.3132
 6856SOL    HW132204   1.988   0.453   4.162 -0.9954  0.9918 -0.0454
 6856SOL    HW232205   2.033   0.443   4.302 -0.8333 -0.7492 -0.3489
 6857SOL     OW32206   3.708   0.425  16.549 -0.5878  0.2625  0.1465
 6857SOL    HW132207   3.637   0.471  16.594 -1.9484 -0.7866 -0.9350
 6857SOL    HW232208   3.772   0.405  16.617 -1.1301  1.7304  1.0939
 6858SOL     OW32209   1.402   3.042   4.572 -0.2955 -0.2843  0.5922
 6858SOL    HW132210   1.306   3.036   4.578 -0.2729 -2.0310 -0.6862
 6858SOL    HW232211   1.437   3.041   4.660 -0.2771 -2.3086  0.5468
 6859SOL     OW32212   1.429   0.415  14.833 -0.5163  0.0251  0.1085
 6859SOL    HW132213   1.455   0.404  14.924  0.7621 -2.8870 -0.5884
 6859SOL    HW232214   1.405   0.324  14.813  0.3809 -0.0579 -0.5699
 6860SOL     OW32215   2.789   4.260   0.514 -0.4067 -0.3663  0.2303
 6860SOL    HW132216   2.792   4.277   0.609 -0.0040 -3.1274  0.7107
 6860SOL    HW232217   2.696   4.251   0.496 -0.3259  1.9465 -1.3662
 6861SOL     OW32218   0.742   1.829   5.149 -0.2144  0.0724  0.2710
 6861SOL    HW132219   0.721   1.737   5.164  1.5323 -0.2786  0.6315
 6861SOL    HW232220   0.657   1.864   5.121 -0.3949 -0.3181  0.3427
 6862SOL     OW32221   0.560   2.358  11.408 -0.1500  0.6504 -0.0732
 6862SOL    HW132222   0.642   2.406  11.420  1.3682 -2.1285  0.7440
 6862SOL    HW232223   0.570   2.333  11.316  0.8142 -0.8453  0.4280
 6863SOL     OW32224   0.895   1.767   6.851 -0.3149 -0.7048 -0.2579
 6863SOL    HW132225   0.836   1.693   6.869  0.3627 -1.1056  0.3501
 6863SOL    HW232226   0.839   1.844   6.855  1.1363  0.2371  1.5555
 6864SOL     OW32227   1.246   0.508   7.021  0.1650  0.3647 -0.0052
 6864SOL    HW132228   1.204   0.548   6.945 -1.1874  1.5744  1.3825
 6864SOL    HW232229   1.331   0.496   6.980  0.8650  0.8068  1.3000
 6865SOL     OW32230   1.885   3.613   8.061  0.2958 -0.8128 -0.2089
 6865SOL    HW132231   1.843   3.698   8.070 -0.1393 -1.4874  4.1525
 6865SOL    HW232232   1.857   3.572   8.144  0.6445 -3.2582 -1.2991
 6866SOL     OW32233   3.686   3.056   1.393  0.8192 -0.7408 -0.2016
 6866SOL    HW132234   3.679   2.964   1.366  1.5599 -1.1098  0.9113
 6866SOL    HW232235   3.631   3.042   1.470  0.2869  0.2321 -0.4121
 6867SOL     OW32236   1.580   1.808   3.609  0.1954 -0.0601  0.0966
 6867SOL    HW132237   1.623   1.884   3.571  0.0092 -0.6940 -1.3894
 6867SOL    HW232238   1.605   1.822   3.701 -1.1832 -1.7046  0.7241
 6868SOL     OW32239   1.830   2.601  14.078 -0.2921  0.0736  0.3007
 6868SOL    HW132240   1.735   2.601  14.065 -0.5283  0.6403  1.9537
 6868SOL    HW232241   1.852   2.511  14.056 -1.2560  0.4167 -2.0642
 6869SOL     OW32242   1.235   1.921   5.071  0.4420 -0.2812 -0.3051
 6869SOL    HW132243   1.148   1.889   5.094 -0.2906  2.5880  0.8939
 6869SOL    HW232244   1.292   1.920   5.148 -1.1755 -2.4048  0.8638
 6870SOL     OW32245   3.183   2.387   5.899  0.6509 -0.6554  0.6965
 6870SOL    HW132246   3.212   2.453   5.962 -0.1136 -0.9609  1.3653
 6870SOL    HW232247   3.164   2.310   5.951 -2.1774 -0.0884  0.4789
 6871SOL     OW32248   2.086   1.996  11.146 -0.5189 -0.2035  0.2387
 6871SOL    HW132249   2.008   1.979  11.199 -1.4605  0.0858 -1.0771
 6871SOL    HW232250   2.058   2.072  11.095 -0.0478 -0.0526  0.2062
 6872SOL     OW32251   3.722   2.962   4.101 -0.5040 -0.2757 -0.2770
 6872SOL    HW132252   3.642   2.984   4.054 -0.5509 -0.5159 -0.3128
 6872SOL    HW232253   3.666   2.938   4.176 -0.0192 -1.3121 -0.2424
 6873SOL     OW32254   2.530   4.508  12.140  0.0719  0.0022 -0.6982
 6873SOL    HW132255   2.546   4.520  12.046  0.5486 -2.4954 -0.9294
 6873SOL    HW232256   2.612   4.549  12.169 -0.0458  1.0802 -1.8925
 6874SOL     OW32257   0.240   0.066   0.403  0.2767  0.6007  0.2136
 6874SOL    HW132258   0.163   0.107   0.442 -0.4441 -1.5249  1.0049
 6874SOL    HW232259   0.289   0.148   0.393 -1.1469  1.4086 -0.0859
 6875SOL     OW32260   2.932   3.001   5.690 -0.0106  0.3495 -0.4160
 6875SOL    HW132261   3.013   3.051   5.686 -0.7524  1.6933  1.1707
 6875SOL    HW232262   2.961   2.912   5.710  0.9827  1.0213  1.1838
 6876SOL     OW32263   3.551   1.150   4.384  0.2937  0.2546  0.2199
 6876SOL    HW132264   3.508   1.222   4.336  0.7022  0.6450  0.4439
 6876SOL    HW232265   3.642   1.166   4.360 -0.1122  1.8764 -0.2349
 6877SOL     OW32266   3.162   3.815  16.779 -0.9440  0.3568  0.0511
 6877SOL    HW132267   3.077   3.859  16.784 -0.2858  1.5252  1.2598
 6877SOL    HW232268   3.156   3.798  16.685  0.4493 -0.1929  0.0521
 6878SOL     OW32269   2.794   2.662   7.715 -0.1092 -0.1832 -0.8040
 6878SOL    HW132270   2.784   2.700   7.802 -2.8621  1.1848 -1.7279
 6878SOL    HW232271   2.710   2.618   7.707 -0.4731  0.2020  0.9246
 6879SOL     OW32272   1.988   1.882   8.455  0.2400 -0.3990 -0.0633
 6879SOL    HW132273   1.996   1.953   8.519 -2.8869  1.2653 -1.5483
 6879SOL    HW232274   1.898   1.879   8.423  0.6693 -2.2905 -1.0426
 6880SOL     OW32275   2.720   2.726   1.781 -0.3471 -0.3298  0.0869
 6880SOL    HW132276   2.795   2.742   1.838 -0.7337 -3.9329  1.5586
 6880SOL    HW232277   2.720   2.632   1.795 -0.6100  0.0043  2.3269
 6881SOL     OW32278   2.004   2.563   7.352 -0.5189  0.3821  0.0074
 6881SOL    HW132279   1.991   2.635   7.290  0.7817  0.8890  0.3240
 6881SOL    HW232280   1.921   2.518   7.338  0.0195 -0.9484  1.0757
 6882SOL     OW32281   3.509   0.636   2.032  0.1756 -0.0872  0.8245
 6882SOL    HW132282   3.437   0.658   1.972 -1.3359 -0.2948  2.5720
 6882SOL    HW232283   3.567   0.712   2.032  0.1247 -0.0507  1.1865
 6883SOL     OW32284   4.176   0.460  16.044  0.3354 -0.0933  0.2820
 6883SOL    HW132285   4.243   0.400  16.078  0.4937  0.5792  1.1450
 6883SOL    HW232286   4.230   0.509  15.981 -2.6352  0.4398 -1.8193
 6884SOL     OW32287   4.672   1.158   5.009  0.3458 -0.4331  0.0379
 6884SOL    HW132288   4.716   1.144   4.925 -0.6167 -2.2560 -0.1568
 6884SOL    HW232289   4.585   1.126   4.985 -0.5052  1.2707  0.8396
 6885SOL     OW32290   1.959   1.956   1.632 -0.1231 -0.1465  0.1459
 6885SOL    HW132291   2.027   1.898   1.599 -1.6886 -2.1085  0.3213
 6885SOL    HW232292   1.926   1.922   1.716 -0.2498  0.6218  0.4063
 6886SOL     OW32293   1.035   1.503  10.947  0.1330 -0.0086 -0.0892
 6886SOL    HW132294   1.058   1.481  10.857 -0.6668 -0.6739 -0.1283
 6886SOL    HW232295   0.984   1.425  10.972 -1.1598  1.0616  0.6335
 6887SOL     OW32296   3.269   1.405   7.456  0.1140 -0.2141  0.8111
 6887SOL    HW132297   3.223   1.324   7.433  0.3090  0.2751 -1.2340
 6887SOL    HW232298   3.195   1.464   7.473 -1.0234 -0.7291 -2.4672
 6888SOL     OW32299   1.498   3.357   4.037 -0.3825 -0.2060 -0.2767
 6888SOL    HW132300   1.473   3.379   3.948 -3.2568  1.4881  0.9462
 6888SOL    HW232301   1.424   3.398   4.081  0.9962  2.1453 -0.1587
 6889SOL     OW32302   1.840   0.497   9.147 -0.4567 -0.9454 -0.0380
 6889SOL    HW132303   1.854   0.582   9.106 -1.2036 -0.9228 -0.2486
 6889SOL    HW232304   1.750   0.489   9.115 -0.2639 -0.3963 -0.7090
 6890SOL     OW32305   3.259   3.228   8.223  0.2245  0.1496 -0.0180
 6890SOL    HW132306   3.173   3.206   8.189  0.9436 -0.9012 -1.1359
 6890SOL    HW232307   3.234   3.317   8.250  2.0183  0.1361  1.6898
 6891SOL     OW32308   2.448   3.987   9.200 -0.1003  0.1798 -0.1921
 6891SOL    HW132309   2.451   4.055   9.268 -0.3148 -0.5392  0.5360
 6891SOL    HW232310   2.404   4.028   9.126 -0.6224 -1.2010 -0.6486
 6892SOL     OW32311   4.047   4.504   4.973 -0.7557 -0.1912  0.1354
 6892SOL    HW132312   3.969   4.560   4.972  0.5252  1.6028  1.0610
 6892SOL    HW232313   4.057   4.503   4.877  1.9970 -1.7684  0.4562
 6893SOL     OW32314   3.803   1.836   6.106 -0.1272  0.2961  0.0274
 6893SOL    HW132315   3.739   1.821   6.037  1.5786 -0.7915 -1.3362
 6893SOL    HW232316   3.755   1.870   6.182  0.8989  1.5260  0.1388
 6894SOL     OW32317   2.341   3.161   7.175 -0.1300  0.2401  0.3076
 6894SOL    HW132318   2.335   3.082   7.229  0.1804  0.5664  0.8076
 6894SOL    HW232319   2.435   3.173   7.171 -0.1177 -0.6719 -2.5329
 6895SOL     OW32320   0.295   3.708   4.451  0.0617  0.2119  0.2749
 6895SOL    HW132321   0.354   3.676   4.383 -2.2083 -1.7334 -0.7992
 6895SOL    HW232322   0.352   3.772   4.494 -0.6232  0.3455  0.9829
 6896SOL     OW32323   3.419   2.535   7.207  0.1022  0.1637  0.3151
 6896SOL    HW132324   3.349   2.596   7.232 -0.6725  0.3475 -2.3605
 6896SOL    HW232325   3.382   2.498   7.127 -1.4235 -0.2520  1.2114
 6897SOL     OW32326   3.299   3.455   2.565  0.4745 -0.3387  0.2805
 6897SOL    HW132327   3.361   3.423   2.630  1.0222 -0.0311 -0.0919
 6897SOL    HW232328   3.220   3.417   2.603  1.0743 -1.6716  0.1797
 6898SOL     OW32329   2.538   1.967  10.760  0.6940  0.7169  0.5108
 6898SOL    HW132330   2.545   1.877  10.791 -0.5365  0.9558  1.4920
 6898SOL    HW232331   2.509   1.947  10.671 -0.9326  0.5673  1.0665
 6899SOL     OW32332   1.239   1.620   4.684  0.7647 -0.4601 -0.0828
 6899SOL    HW132333   1.285   1.611   4.600 -0.3122 -0.4321 -0.6707
 6899SOL    HW232334   1.198   1.534   4.676  0.6740 -0.2926 -1.4034
 6900SOL     OW32335   3.962   1.385  10.991  0.0927  0.4121 -0.0320
 6900SOL    HW132336   3.970   1.473  11.029  1.0627  0.5809 -0.6502
 6900SOL    HW232337   3.942   1.408  10.900 -2.5283 -1.9780 -0.0686
 6901SOL     OW32338   1.743   4.316  13.551 -0.6241  0.3067 -0.5660
 6901SOL    HW132339   1.773   4.292  13.638 -0.3869 -2.0364 -1.2858
 6901SOL    HW232340   1.800   4.261  13.497  0.7339  0.9344  0.2308
 6902SOL     OW32341   4.011   0.628  15.226 -0.1408 -0.2236 -0.4110
 6902SOL    HW132342   3.989   0.673  15.144  0.7322  0.2676 -0.3717
 6902SOL    HW232343   3.986   0.542  15.193 -1.9591 -0.1814  0.8245
 6903SOL     OW32344   1.404   2.733  12.302 -0.2049  0.3693  0.0434
 6903SOL    HW132345   1.413   2.639  12.285  1.1729  0.2229  1.6612
 6903SOL    HW232346   1.360   2.728  12.387 -1.6123 -0.7454 -0.7424
 6904SOL     OW32347   2.770   4.135   4.484 -0.2238  0.6213  0.2374
 6904SOL    HW132348   2.685   4.093   4.468 -0.9881  1.9312  0.9058
 6904SOL    HW232349   2.789   4.168   4.396 -0.3321 -0.3190 -0.1456
 6905SOL     OW32350   2.050   3.504   9.829  0.3353  0.2175 -0.3497
 6905SOL    HW132351   2.084   3.414   9.828 -0.3907 -0.0523 -0.8551
 6905SOL    HW232352   2.113   3.542   9.891  0.9953 -1.3687 -0.0408
 6906SOL     OW32353   3.947   4.531   1.495  0.2557 -0.0203  0.4779
 6906SOL    HW132354   4.014   4.473   1.532  0.4828  1.3872  2.2503
 6906SOL    HW232355   4.000   4.608   1.475 -0.2824  0.3705  0.5579
 6907SOL     OW32356   3.143   0.349   8.113  0.2348 -0.3181 -0.1319
 6907SOL    HW132357   3.191   0.376   8.192  1.1233  1.4639 -1.2789
 6907SOL    HW232358   3.215   0.333   8.052  0.4959  0.9945 -0.1712
 6908SOL     OW32359   1.402   2.928  12.086 -0.2099  0.4064  0.1391
 6908SOL    HW132360   1.433   2.853  12.137  1.7104  1.3709  0.3978
 6908SOL    HW232361   1.483   2.964  12.049 -0.2634  1.4616  1.0422
 6909SOL     OW32362   3.230   4.011   0.908  0.1031 -0.0085  0.1451
 6909SOL    HW132363   3.174   3.934   0.918  1.6374 -0.9478  1.5749
 6909SOL    HW232364   3.306   3.969   0.870  0.1914 -1.7570  2.2725
 6910SOL     OW32365   1.097   1.790   6.569 -0.0514  0.5181  0.2872
 6910SOL    HW132366   1.030   1.722   6.564 -0.1068  0.5524  0.5917
 6910SOL    HW232367   1.148   1.766   6.646 -0.8141  2.3702  1.3945
 6911SOL     OW32368   2.648   0.750   2.222 -0.1753 -0.0404 -0.6296
 6911SOL    HW132369   2.741   0.733   2.210 -0.7164 -1.4307 -2.9469
 6911SOL    HW232370   2.638   0.799   2.140  1.3526  1.2920 -0.0268
 6912SOL     OW32371   0.043   4.703   5.626  0.0992  0.4854 -0.1978
 6912SOL    HW132372   0.111   4.683   5.562  0.2591  0.7970 -0.1267
 6912SOL    HW232373   0.082   4.672   5.708  1.8986 -0.5337 -1.4160
 6913SOL     OW32374   4.535   3.421   4.271  0.4573  0.0337 -0.1960
 6913SOL    HW132375   4.527   3.440   4.178 -2.5447  0.0578  0.0893
 6913SOL    HW232376   4.610   3.362   4.264 -0.1961 -0.8407  0.1852
 6914SOL     OW32377   4.685   2.364   7.911 -0.1822 -0.3911 -0.7768
 6914SOL    HW132378   4.597   2.341   7.881 -0.2343 -1.0742 -0.1025
 6914SOL    HW232379   4.716   2.274   7.924  0.4340  0.1799  1.7093
 6915SOL     OW32380   3.793   3.733   4.686  0.0430 -0.5141 -0.9567
 6915SOL    HW132381   3.837   3.648   4.690 -0.0837 -0.5505 -0.3106
 6915SOL    HW232382   3.819   3.769   4.601 -2.9010  2.9891 -0.3514
 6916SOL     OW32383   0.349   0.032   9.439 -0.3288  0.1439  0.3265
 6916SOL    HW132384   0.368   4.711   9.514  1.1101  0.2965  0.0690
 6916SOL    HW232385   0.376   4.696   9.379  0.4427  2.0413 -1.5597
 6917SOL     OW32386   0.070   3.044   0.697  0.0518 -0.2344 -0.3085
 6917SOL    HW132387   0.008   3.019   0.629  0.1179  0.8060 -0.7436
 6917SOL    HW232388   0.092   3.136   0.688  0.5922 -0.0602  2.5636
 6918SOL     OW32389   2.166   3.628   1.160 -0.0420  0.4136  0.0622
 6918SOL    HW132390   2.172   3.651   1.067  1.6582  1.5955  0.4886
 6918SOL    HW232391   2.241   3.569   1.169 -0.8107 -0.8178 -1.5672
 6919SOL     OW32392   3.962   2.517  15.640  0.4044  0.0035 -0.1904
 6919SOL    HW132393   4.011   2.447  15.597  2.2062  0.3267  1.3157
 6919SOL    HW232394   3.871   2.492  15.624  0.2605  1.2334 -1.2659
 6920SOL     OW32395   2.582   2.143  15.772 -0.6199 -0.3624 -0.1975
 6920SOL    HW132396   2.501   2.181  15.805  1.3263  2.1277  1.6943
 6920SOL    HW232397   2.635   2.223  15.767 -1.0328 -0.1667 -1.2853
 6921SOL     OW32398   2.080   4.414   9.462  0.5406 -0.0770  0.0692
 6921SOL    HW132399   1.988   4.396   9.444  0.1298  3.0642 -1.0788
 6921SOL    HW232400   2.114   4.448   9.379  1.0356  2.3067  1.2497
 6922SOL     OW32401   2.999   0.537   6.860  0.6211  0.0340 -0.1220
 6922SOL    HW132402   3.014   0.457   6.810  0.6099  0.6645 -1.1306
 6922SOL    HW232403   2.933   0.577   6.804 -0.9197 -1.8878  0.3632
 6923SOL     OW32404   4.363   4.545   6.098 -0.2429  0.0984  0.0472
 6923SOL    HW132405   4.439   4.493   6.071 -0.1477 -0.1634  0.8135
 6923SOL    HW232406   4.397   4.582   6.179 -0.7878 -1.0101  0.7706
 6924SOL     OW32407   2.539   2.973  11.766 -0.4545 -0.3978 -0.5350
 6924SOL    HW132408   2.503   2.937  11.847  0.1367  0.8050  0.2801
 6924SOL    HW232409   2.543   2.893  11.715 -0.8969 -1.3728  0.9581
 6925SOL     OW32410   0.878   0.975   5.467  0.3810  0.8177 -0.2219
 6925SOL    HW132411   0.931   1.051   5.490  3.3491 -1.3812  0.2064
 6925SOL    HW232412   0.792   1.008   5.492 -0.4866 -2.0784  0.5998
 6926SOL     OW32413   2.713   1.658   7.544  0.3683  0.4554 -0.3466
 6926SOL    HW132414   2.683   1.583   7.491 -0.3212  1.4827 -1.3984
 6926SOL    HW232415   2.635   1.672   7.599 -0.6183 -1.5581 -1.2073
 6927SOL     OW32416   3.082   2.216   6.902 -0.4009  0.0181  0.2347
 6927SOL    HW132417   3.165   2.194   6.943  1.1807  0.7394 -2.5479
 6927SOL    HW232418   3.023   2.221   6.977 -0.7910 -1.4046  0.0280
 6928SOL     OW32419   3.138   2.587  16.817 -0.5044  0.3679  0.0649
 6928SOL    HW132420   3.116   2.533  16.741  1.8476  0.7340 -0.8785
 6928SOL    HW232421   3.054   2.591  16.862 -0.5574  0.0657 -0.0107
 6929SOL     OW32422   0.377   2.179   8.514 -0.0388  0.2971  0.5418
 6929SOL    HW132423   0.310   2.238   8.479  0.7368  0.3691 -0.7870
 6929SOL    HW232424   0.449   2.212   8.460 -0.5245  1.0321  0.3415
 6930SOL     OW32425   3.069   0.267   6.673  0.2019 -0.0347 -0.2899
 6930SOL    HW132426   3.125   0.230   6.741 -1.6915 -2.0211  0.1992
 6930SOL    HW232427   3.125   0.277   6.596 -1.1217 -1.6273 -1.4627
 6931SOL     OW32428   1.339   0.077   1.635 -0.0166 -0.5908  0.2718
 6931SOL    HW132429   1.326   0.160   1.682 -0.6734 -0.8567  0.5595
 6931SOL    HW232430   1.248   0.048   1.623  0.1942 -2.1975  2.5646
 6932SOL     OW32431   1.757   1.720   5.303 -0.2506 -0.5513 -0.3645
 6932SOL    HW132432   1.815   1.652   5.339 -1.5650 -2.3955 -1.7067
 6932SOL    HW232433   1.791   1.719   5.213  0.2865  2.3860 -0.1893
 6933SOL     OW32434   0.790   3.162  11.968  0.0752 -0.2816  0.0357
 6933SOL    HW132435   0.861   3.223  11.944  0.1062  0.0810  1.0462
 6933SOL    HW232436   0.739   3.156  11.887  1.1956 -1.0059 -0.6149
 6934SOL     OW32437   0.956   0.961   4.629 -0.1433  0.1051 -0.5630
 6934SOL    HW132438   0.969   1.056   4.622  2.3214 -0.1813 -0.0065
 6934SOL    HW232439   1.040   0.925   4.656 -0.0866  0.9098  0.3376
 6935SOL     OW32440   3.087   2.004   6.346 -0.0761 -0.4419 -0.1166
 6935SOL    HW132441   3.073   2.097   6.365  0.5166 -0.2067 -0.8331
 6935SOL    HW232442   3.087   1.966   6.434  0.3589  0.5520  0.3117
 6936SOL     OW32443   1.246   1.160   3.241  0.1483 -0.3787  0.0381
 6936SOL    HW132444   1.214   1.250   3.235 -0.1086 -0.2620  3.5595
 6936SOL    HW232445   1.340   1.172   3.228 -0.1495 -1.0882 -2.8744
 6937SOL     OW32446   1.935   2.908  10.292  0.4614  0.3815  0.2144
 6937SOL    HW132447   1.864   2.879  10.350  0.0359 -1.0892 -1.0590
 6937SOL    HW232448   2.002   2.848  10.327  0.0222 -0.3861 -0.2591
 6938SOL     OW32449   1.849   2.211   5.368 -0.2527  0.8971  0.5003
 6938SOL    HW132450   1.912   2.247   5.430 -1.4600 -0.4477  2.5001
 6938SOL    HW232451   1.908   2.147   5.328 -1.0449 -0.0060  0.7686
 6939SOL     OW32452   1.037   4.042   9.023 -0.0396 -0.2025 -0.3886
 6939SOL    HW132453   1.024   4.124   8.975  0.4871 -0.6361 -1.2747
 6939SOL    HW232454   0.951   4.021   9.059  0.2984  1.6623  1.4959
 6940SOL     OW32455   1.639   3.291   1.782 -0.5725  0.0259  0.0443
 6940SOL    HW132456   1.662   3.256   1.696 -0.7339  0.6645 -0.2569
 6940SOL    HW232457   1.544   3.282   1.780 -0.9715  4.5435 -0.2359
 6941SOL     OW32458   3.633   0.776   7.102  0.0531 -0.6341 -0.2820
 6941SOL    HW132459   3.682   0.828   7.039  1.7346 -0.0460  1.5169
 6941SOL    HW232460   3.603   0.704   7.046  0.4341 -0.9848 -0.0360
 6942SOL     OW32461   4.489   2.529   3.813  0.2804 -0.7481  0.4829
 6942SOL    HW132462   4.572   2.510   3.770  0.2711  1.0277 -0.3080
 6942SOL    HW232463   4.440   2.450   3.789  1.1224 -1.2410  0.3847
 6943SOL     OW32464   3.176   0.601   7.474 -0.3309 -0.8473  0.0244
 6943SOL    HW132465   3.214   0.559   7.397 -1.5132 -0.4132 -0.7893
 6943SOL    HW232466   3.170   0.695   7.455 -1.9856 -0.5535  1.9663
 6944SOL     OW32467   0.682   0.932  10.390  0.9884  0.2965 -0.1756
 6944SOL    HW132468   0.730   0.963  10.467  0.2939 -1.0886  0.8176
 6944SOL    HW232469   0.643   0.854  10.430 -2.6176  1.1726 -1.9697
 6945SOL     OW32470   2.127   3.277   0.444 -0.5604  0.0080  0.0963
 6945SOL    HW132471   2.185   3.203   0.431 -0.4588  0.2961 -1.1313
 6945SOL    HW232472   2.040   3.243   0.423 -0.7583 -0.0852  1.0950
 6946SOL     OW32473   1.548   3.968   7.587  0.2905  0.0956  0.1847
 6946SOL    HW132474   1.620   4.000   7.642 -0.3413  1.6150  0.1210
 6946SOL    HW232475   1.465   3.961   7.634 -1.5298  1.5974 -2.8801
 6947SOL     OW32476   4.296   1.207   9.675 -0.7575  0.2188  0.3485
 6947SOL    HW132477   4.235   1.133   9.673 -0.0462 -0.3960  2.8124
 6947SOL    HW232478   4.343   1.192   9.593 -1.0830  1.8336 -0.1353
 6948SOL     OW32479   0.527   1.045   6.500 -0.1769 -0.3687  0.0830
 6948SOL    HW132480   0.519   1.039   6.405  1.1878 -0.8647  0.0001
 6948SOL    HW232481   0.456   0.987   6.529 -0.8733 -0.6758 -2.2716
 6949SOL     OW32482   0.714   0.518   6.184 -0.1283  0.3850  0.2556
 6949SOL    HW132483   0.687   0.609   6.174  0.8019  0.7988  1.4471
 6949SOL    HW232484   0.631   0.471   6.180  0.7874 -1.4153  2.5566
 6950SOL     OW32485   0.437   0.379   8.694 -0.1015 -0.2914 -0.0978
 6950SOL    HW132486   0.421   0.474   8.697 -1.8299 -0.6043  0.7088
 6950SOL    HW232487   0.349   0.343   8.679  0.0357 -0.6509 -0.0307
 6951SOL     OW32488   3.336   2.172   7.001  0.1416  0.6137 -0.1158
 6951SOL    HW132489   3.387   2.172   7.082 -1.6716  0.7578  1.0449
 6951SOL    HW232490   3.317   2.266   7.003  2.0066  0.9660  1.1530
 6952SOL     OW32491   4.178   3.303   3.279 -0.1081 -0.0165 -0.0053
 6952SOL    HW132492   4.204   3.303   3.187  2.3463  0.9281  0.6736
 6952SOL    HW232493   4.115   3.231   3.286  0.8235 -0.5208  3.0013
 6953SOL     OW32494   3.846   2.826   5.679 -0.3398 -0.2984  0.6386
 6953SOL    HW132495   3.928   2.817   5.727 -0.6820 -0.7028  1.1692
 6953SOL    HW232496   3.782   2.829   5.750 -1.4729 -2.6481 -0.2625
 6954SOL     OW32497   4.513   1.433   2.613  0.1087  0.1720 -0.2646
 6954SOL    HW132498   4.501   1.493   2.687 -0.2134 -0.0874 -0.1072
 6954SOL    HW232499   4.559   1.365   2.663  1.8929  1.5383 -0.0182
 6955SOL     OW32500   2.627   0.987  16.630 -0.2951  0.3287  0.1011
 6955SOL    HW132501   2.580   1.013  16.709 -0.6187 -1.2145  0.4163
 6955SOL    HW232502   2.589   1.038  16.559 -1.0128  0.9362  0.9220
 6956SOL     OW32503   3.619   0.546  16.301  0.3348  0.1946  0.6501
 6956SOL    HW132504   3.674   0.503  16.236  0.3767 -0.7193  1.2737
 6956SOL    HW232505   3.656   0.512  16.383  0.7149  0.4916  0.5964
 6957SOL     OW32506   3.918   2.721   7.185  0.7039 -0.1309 -0.0885
 6957SOL    HW132507   3.927   2.673   7.102 -0.7063  1.9515 -1.4370
 6957SOL    HW232508   3.829   2.696   7.209  0.6037 -0.1840 -0.5073
 6958SOL     OW32509   4.235   0.088   3.082 -0.2090  0.0834  0.4203
 6958SOL    HW132510   4.289   0.071   3.159 -1.0504  1.4866  1.3055
 6958SOL    HW232511   4.173   0.146   3.124  1.4295  2.2622 -0.1842
 6959SOL     OW32512   0.162   3.529   2.284 -0.2654 -0.2904 -0.2108
 6959SOL    HW132513   0.100   3.505   2.216  0.1195 -0.4605 -0.5012
 6959SOL    HW232514   0.212   3.448   2.293 -0.6889 -0.4147  1.0282
 6960SOL     OW32515   3.553   3.652   4.108 -0.1361 -0.3462  0.3895
 6960SOL    HW132516   3.560   3.690   4.195 -2.3672  1.7739 -0.3346
 6960SOL    HW232517   3.641   3.616   4.097 -1.4254 -3.7779  1.2176
 6961SOL     OW32518   4.190   1.471   8.973  0.4413 -0.2875  0.2718
 6961SOL    HW132519   4.146   1.476   9.059  1.1961  0.5432  0.6069
 6961SOL    HW232520   4.194   1.562   8.944 -0.1605 -0.9498 -1.8417
 6962SOL     OW32521   2.236   4.444   4.975  0.1266 -0.3663  0.6988
 6962SOL    HW132522   2.224   4.519   5.033 -0.6690  0.6592 -0.8026
 6962SOL    HW232523   2.215   4.492   4.895  0.9255  1.3006  1.4867
 6963SOL     OW32524   4.722   3.938  16.206  0.0906 -0.0391  0.5529
 6963SOL    HW132525   0.025   4.004  16.148 -0.8123 -1.5676 -1.7714
 6963SOL    HW232526   4.653   3.912  16.145 -1.2043 -1.5253  2.6035
 6964SOL     OW32527   1.344   1.661   6.630  0.4262  0.1939 -0.0495
 6964SOL    HW132528   1.433   1.635   6.656  0.4151 -0.0942 -0.2938
 6964SOL    HW232529   1.302   1.645   6.715  0.2540  1.0778  0.0256
 6965SOL     OW32530   3.024   3.154  12.263  0.0459  0.1743 -0.4813
 6965SOL    HW132531   3.043   3.069  12.304  1.9620  0.7569 -0.1318
 6965SOL    HW232532   3.106   3.192  12.296 -0.5662  1.4520 -0.4565
 6966SOL     OW32533   3.707   0.132   5.376  0.1407 -0.1544  0.3024
 6966SOL    HW132534   3.627   0.082   5.396 -0.8440 -0.1209 -3.5076
 6966SOL    HW232535   3.745   0.159   5.459  2.7039  1.0033 -1.2411
 6967SOL     OW32536   2.859   1.011   7.351  0.4156  0.1912 -0.2340
 6967SOL    HW132537   2.823   1.041   7.434 -1.4672 -1.7620 -0.3274
 6967SOL    HW232538   2.879   1.086   7.296  0.6041  0.9915  0.9220
 6968SOL     OW32539   1.682   1.001  13.123 -0.4894 -0.6292  0.0178
 6968SOL    HW132540   1.746   0.931  13.113 -0.3519 -0.4395 -0.4223
 6968SOL    HW232541   1.709   1.054  13.198  0.1821 -0.5036 -0.3150
 6969SOL     OW32542   3.279   1.323   9.827  0.1727 -0.1176 -0.0333
 6969SOL    HW132543   3.259   1.306   9.919  1.1874  1.1364  0.4207
 6969SOL    HW232544   3.304   1.415   9.838 -1.3714  0.1111  1.6409
 6970SOL     OW32545   3.079   0.868   4.113 -0.6613  0.2277 -0.6213
 6970SOL    HW132546   3.161   0.849   4.157  0.5050  0.9461 -2.4961
 6970SOL    HW232547   3.057   0.956   4.141 -1.2264  0.1940 -0.9426
 6971SOL     OW32548   3.446   1.387  13.803  0.1900 -0.3323 -0.6018
 6971SOL    HW132549   3.437   1.309  13.858  0.6391  1.3541  1.9027
 6971SOL    HW232550   3.473   1.346  13.722 -0.5907 -0.3205 -0.8707
 6972SOL     OW32551   0.064   1.972  12.085 -0.1776  0.0466 -0.4610
 6972SOL    HW132552   0.111   1.889  12.092 -0.5462  0.0032  1.5727
 6972SOL    HW232553   0.065   1.974  11.989  0.2966  0.6706 -0.4467
 6973SOL     OW32554   2.544   4.536   2.441 -0.1200  0.1421 -0.4355
 6973SOL    HW132555   2.623   4.487   2.460  0.0681  0.4144 -0.5170
 6973SOL    HW232556   2.483   4.464   2.423 -0.6687  0.1919  1.1762
 6974SOL     OW32557   0.368   1.440   5.634 -0.1864  0.1317  0.1441
 6974SOL    HW132558   0.442   1.499   5.627 -0.4898  0.6426  1.1758
 6974SOL    HW232559   0.396   1.388   5.709  0.8592  0.9255  0.2888
 6975SOL     OW32560   3.666   1.365  11.986 -0.4898  0.4402  0.2769
 6975SOL    HW132561   3.708   1.377  12.072 -1.0415 -0.5625  0.6792
 6975SOL    HW232562   3.616   1.285  12.001  2.0849 -0.8585  1.9822
 6976SOL     OW32563   3.539   2.273   6.165  0.1941 -0.6075 -0.7331
 6976SOL    HW132564   3.528   2.187   6.125 -0.4938 -1.5156  1.3951
 6976SOL    HW232565   3.489   2.327   6.104  0.7551  0.5346 -0.1811
 6977SOL     OW32566   4.559   3.416   3.021 -0.0747  0.2227  0.2347
 6977SOL    HW132567   4.615   3.477   3.067  0.2304 -0.4748  0.7923
 6977SOL    HW232568   4.518   3.358   3.084  0.9886 -2.5238 -1.5603
 6978SOL     OW32569   1.444   4.073   9.349 -0.5780 -0.0864 -0.1854
 6978SOL    HW132570   1.537   4.049   9.345  0.0527  2.3738 -0.6576
 6978SOL    HW232571   1.401   3.989   9.335  0.1521 -0.4064 -0.5342
 6979SOL     OW32572   1.347   0.869  12.868  0.8882  0.6858  0.7767
 6979SOL    HW132573   1.376   0.959  12.883  1.0629  0.0669  4.0256
 6979SOL    HW232574   1.260   0.871  12.908  0.1753  0.0685 -0.7171
 6980SOL     OW32575   3.317   0.542  11.616  0.5619 -0.5212  0.3152
 6980SOL    HW132576   3.403   0.582  11.630 -1.1382  3.8095 -1.5019
 6980SOL    HW232577   3.315   0.485  11.692  1.6757  0.3700  1.0092
 6981SOL     OW32578   0.835   0.072   7.654  0.6424  0.7206  0.1782
 6981SOL    HW132579   0.901   0.004   7.645 -1.1147 -0.8522 -0.7352
 6981SOL    HW232580   0.765   0.039   7.598 -0.8051  2.2881  1.0547
 6982SOL     OW32581   0.782   1.299   3.766 -0.1935  0.2055 -0.1617
 6982SOL    HW132582   0.819   1.334   3.685 -0.4585  0.9743  0.0481
 6982SOL    HW232583   0.802   1.206   3.765  0.7882  0.4309 -1.0102
 6983SOL     OW32584   1.963   1.484   5.342 -0.6304 -0.2053 -0.2602
 6983SOL    HW132585   2.040   1.540   5.347 -0.8222  0.0457 -0.0614
 6983SOL    HW232586   1.975   1.441   5.427 -1.5872  2.0948  1.0629
 6984SOL     OW32587   4.686   2.680   9.124  0.3631  0.1655  0.7564
 6984SOL    HW132588   4.626   2.632   9.067  1.8391 -0.9521  0.1612
 6984SOL    HW232589   4.649   2.660   9.210  1.0478 -0.0223  1.0065
 6985SOL     OW32590   4.372   2.414   9.256  0.1089  0.3276  1.2561
 6985SOL    HW132591   4.429   2.354   9.209 -0.8550 -1.3830  2.3038
 6985SOL    HW232592   4.404   2.495   9.216  1.7799 -0.8404  0.2401
 6986SOL     OW32593   3.815   2.904   2.161 -0.2864  0.3113 -0.4495
 6986SOL    HW132594   3.808   2.994   2.193 -0.8354  0.1448 -0.0898
 6986SOL    HW232595   3.734   2.875   2.204  0.1346 -0.5872 -0.2706
 6987SOL     OW32596   0.034   0.054   9.003 -0.4693 -0.0720  0.1665
 6987SOL    HW132597   0.065   0.072   9.092 -2.0075 -3.0002  1.3115
 6987SOL    HW232598   0.050   0.141   8.968 -0.2659  0.1168  0.7198
 6988SOL     OW32599   0.091   1.577   5.981  0.1626  0.6972  0.3482
 6988SOL    HW132600   0.107   1.563   5.887 -2.8923 -0.0265 -0.0640
 6988SOL    HW232601   0.082   1.487   6.013 -0.6210  0.3136 -0.9448
 6989SOL     OW32602   4.204   0.118  10.856  0.1676  0.3190  0.6346
 6989SOL    HW132603   4.284   0.093  10.810 -1.0906 -2.1320 -0.2096
 6989SOL    HW232604   4.236   0.204  10.884 -2.4346  1.4390  0.1575
 6990SOL     OW32605   4.488   4.163  10.780 -0.2336  0.3947  0.0117
 6990SOL    HW132606   4.436   4.243  10.775 -1.6553 -0.5413 -0.0618
 6990SOL    HW232607   4.572   4.200  10.752  0.7561 -1.4675  0.4963
 6991SOL     OW32608   2.992   3.505  12.035 -0.2663  0.2797 -0.2010
 6991SOL    HW132609   2.929   3.434  12.027 -0.9505  0.6899  1.5684
 6991SOL    HW232610   3.017   3.517  11.943 -0.9416 -2.3480 -0.7320
 6992SOL     OW32611   1.362   3.523  10.181 -0.2261  0.2399 -0.1743
 6992SOL    HW132612   1.457   3.506  10.177 -0.4412 -1.0011 -0.0141
 6992SOL    HW232613   1.356   3.543  10.274 -2.2732  0.2547 -0.3150
 6993SOL     OW32614   0.598   3.354   6.703 -0.0874  0.4166 -0.2904
 6993SOL    HW132615   0.595   3.398   6.789 -2.7371  0.5706 -0.4397
 6993SOL    HW232616   0.535   3.402   6.649 -2.5151 -1.3271  1.0178
 6994SOL     OW32617   4.053   0.652   0.749  0.5800  0.1647 -0.6642
 6994SOL    HW132618   4.144   0.645   0.720  0.4912  1.7175 -1.2979
 6994SOL    HW232619   4.021   0.562   0.753  5.0570 -1.3300  1.4002
 6995SOL     OW32620   2.930   4.264  12.507 -0.5602 -0.6673 -0.0142
 6995SOL    HW132621   3.009   4.279  12.558 -1.3919  0.0552  1.0742
 6995SOL    HW232622   2.966   4.204  12.441  1.2975  0.5503 -0.0962
 6996SOL     OW32623   2.771   1.974   2.791 -0.6070 -0.6325 -0.4092
 6996SOL    HW132624   2.817   1.985   2.708  0.7000 -0.5532  0.3287
 6996SOL    HW232625   2.729   2.060   2.796  1.1426  0.2031 -0.1002
 6997SOL     OW32626   1.802   0.824   5.691 -0.2776 -0.1930 -0.0033
 6997SOL    HW132627   1.849   0.820   5.774 -0.6119 -2.5598  0.0785
 6997SOL    HW232628   1.824   0.913   5.661 -3.2566  0.9796  1.2965
 6998SOL     OW32629   3.487   4.489   4.590 -0.0654 -0.5542 -0.1067
 6998SOL    HW132630   3.444   4.546   4.525  0.6070 -1.3689 -1.2626
 6998SOL    HW232631   3.407   4.459   4.633 -0.9418 -0.2472 -1.5231
 6999SOL     OW32632   0.765   1.412   2.657  0.6405 -0.5839 -0.2657
 6999SOL    HW132633   0.722   1.372   2.732 -1.8957  0.4362 -1.1659
 6999SOL    HW232634   0.793   1.497   2.690 -2.7066  0.0270  0.9684
 7000SOL     OW32635   3.994   1.952   3.502 -0.5390  0.2232 -0.4803
 7000SOL    HW132636   3.925   1.989   3.447  0.3416  1.2839 -0.8615
 7000SOL    HW232637   4.002   1.864   3.465 -2.0372 -0.2712  0.3533
 7001SOL     OW32638   1.907   0.346   1.957 -0.2298  0.1354 -0.2795
 7001SOL    HW132639   1.811   0.348   1.959 -0.2994 -2.9827 -0.5199
 7001SOL    HW232640   1.939   0.414   2.016  2.7505 -0.2858 -1.4403
 7002SOL     OW32641   0.382   0.813  10.620  0.0325 -0.1690 -0.6864
 7002SOL    HW132642   0.304   0.793  10.569 -0.7448 -0.8903  0.7838
 7002SOL    HW232643   0.457   0.773  10.574 -1.5137 -2.9192 -0.8292
 7003SOL     OW32644   0.755   3.672   6.790 -0.2445  0.1519 -0.0217
 7003SOL    HW132645   0.682   3.697   6.847  0.8543 -0.7896  1.8214
 7003SOL    HW232646   0.746   3.578   6.801  0.2603 -0.0770 -1.6434
 7004SOL     OW32647   0.249   0.868   5.906 -0.4129  0.2625 -0.1346
 7004SOL    HW132648   0.210   0.781   5.919 -0.7034  0.3322 -0.5275
 7004SOL    HW232649   0.307   0.851   5.832  0.8176  1.7564  0.4956
 7005SOL     OW32650   4.572   1.701   8.103 -0.4875 -0.4426  0.1344
 7005SOL    HW132651   4.586   1.654   8.186 -3.1844 -0.5140  0.5618
 7005SOL    HW232652   4.478   1.720   8.105 -0.6374 -0.7933 -4.1682
 7006SOL     OW32653   3.550   0.869   4.031  0.3624  0.0065  0.4792
 7006SOL    HW132654   3.482   0.817   4.072  0.9081 -2.4593 -1.6987
 7006SOL    HW232655   3.557   0.822   3.948 -2.0143  0.9746 -0.2518
 7007SOL     OW32656   3.488   0.179   7.562  0.7727  0.3847  0.5172
 7007SOL    HW132657   3.402   0.219   7.551  0.7682  0.1371 -0.2992
 7007SOL    HW232658   3.545   0.223   7.500 -1.0957  0.8596 -0.8618
 7008SOL     OW32659   0.732   2.087   3.184  0.7753 -0.4334 -0.3619
 7008SOL    HW132660   0.693   2.173   3.197  0.0534 -0.5609 -1.7679
 7008SOL    HW232661   0.820   2.109   3.154 -0.1220 -0.9836 -3.3328
 7009SOL     OW32662   2.272   1.028   4.234 -0.2038  0.1162  0.0510
 7009SOL    HW132663   2.228   1.111   4.250  0.2242 -0.1245  2.3716
 7009SOL    HW232664   2.203   0.964   4.250  0.9712 -0.7348  1.6964
 7010SOL     OW32665   0.385   0.838   8.383 -0.5398 -0.7602  0.4222
 7010SOL    HW132666   0.480   0.848   8.379 -0.7422  0.5081 -1.2449
 7010SOL    HW232667   0.373   0.761   8.327 -0.7192 -0.9710  0.7465
 7011SOL     OW32668   2.821   4.551   3.573  0.0266  0.4807  0.3141
 7011SOL    HW132669   2.777   4.635   3.557 -0.2684 -0.1193 -2.0296
 7011SOL    HW232670   2.892   4.559   3.510 -0.9952 -0.5028 -0.9343
 7012SOL     OW32671   1.561   3.313   2.887 -0.4450 -0.1809 -0.2062
 7012SOL    HW132672   1.582   3.333   2.796  0.9175 -2.2433 -0.3355
 7012SOL    HW232673   1.600   3.392   2.924  0.7002 -1.3521  1.1233
 7013SOL     OW32674   2.146   2.203   5.444 -0.2856  0.1137 -0.5723
 7013SOL    HW132675   2.158   2.297   5.456  0.2889  0.0298 -0.4556
 7013SOL    HW232676   2.217   2.190   5.381  0.0175  0.1443 -0.2386
 7014SOL     OW32677   3.538   3.906   4.014 -0.4582 -0.6412 -0.2505
 7014SOL    HW132678   3.587   3.927   3.935 -1.2469  1.6599 -0.1358
 7014SOL    HW232679   3.544   3.811   4.014  2.3147 -0.4621 -0.3771
 7015SOL     OW32680   0.618   3.141  12.176  0.6927  0.5160  0.2862
 7015SOL    HW132681   0.680   3.130  12.104  1.3745  2.3977  0.5966
 7015SOL    HW232682   0.658   3.221  12.210  1.5130  0.1800  0.1164
 7016SOL     OW32683   0.125   0.132   5.881  0.9150 -0.5200  0.6046
 7016SOL    HW132684   0.136   0.054   5.936 -1.6263 -2.2018 -1.2631
 7016SOL    HW232685   0.037   0.163   5.902  0.9669 -1.2556  1.9213
 7017SOL     OW32686   4.346   1.851   4.664  0.2939 -0.3735 -0.2297
 7017SOL    HW132687   4.354   1.899   4.746 -1.1531  0.5480 -0.6194
 7017SOL    HW232688   4.430   1.879   4.626  0.5587 -0.8193  0.0286
 7018SOL     OW32689   2.204   1.411   2.168 -0.6143  0.2763  0.3190
 7018SOL    HW132690   2.227   1.335   2.222  0.4615  1.4804  1.5552
 7018SOL    HW232691   2.135   1.385   2.107  0.0778 -0.6082 -0.0895
 7019SOL     OW32692   0.825   2.031  10.293 -0.5170  0.1729 -0.3433
 7019SOL    HW132693   0.743   2.059  10.252 -0.7037  0.1570  0.0168
 7019SOL    HW232694   0.861   1.982  10.220 -0.8674 -0.6275  0.0245
 7020SOL     OW32695   1.334   1.732   7.763 -0.3434  0.2466 -0.0040
 7020SOL    HW132696   1.371   1.690   7.840  0.1694  0.9525  0.1256
 7020SOL    HW232697   1.292   1.811   7.798 -0.5564 -0.7332  1.9697
 7021SOL     OW32698   3.116   1.349   8.683  0.4198 -0.2933 -0.1102
 7021SOL    HW132699   3.058   1.354   8.760  1.2901  1.9532  0.4102
 7021SOL    HW232700   3.152   1.262   8.695 -0.3611 -0.6912 -0.6641
 7022SOL     OW32701   0.275   3.213   4.792  0.1810 -0.2516 -0.7874
 7022SOL    HW132702   0.360   3.231   4.752  1.1971  0.2737  1.6214
 7022SOL    HW232703   0.259   3.297   4.836 -3.5436 -0.7625 -1.1527
 7023SOL     OW32704   2.897   3.646  12.596  0.2012 -0.2964 -0.0069
 7023SOL    HW132705   2.844   3.635  12.675  1.4091 -0.1421  0.8359
 7023SOL    HW232706   2.933   3.557  12.594  0.7796 -0.0733  0.4829
 7024SOL     OW32707   1.686   2.198   4.749  0.0289 -0.2658  0.2132
 7024SOL    HW132708   1.687   2.293   4.758  0.2168 -0.1951 -0.5583
 7024SOL    HW232709   1.600   2.186   4.708  0.4614 -0.7961 -0.5523
 7025SOL     OW32710   4.607   0.221   7.784 -0.0215  0.3040  0.3579
 7025SOL    HW132711   4.627   0.128   7.790 -0.6164  0.1265 -0.3147
 7025SOL    HW232712   4.562   0.234   7.867 -0.4930  0.4289  0.0877
 7026SOL     OW32713   1.625   2.436  13.940 -0.1336  0.3126  0.2216
 7026SOL    HW132714   1.557   2.503  13.946  0.5985  1.2484 -1.7563
 7026SOL    HW232715   1.618   2.403  13.850 -0.4865 -1.8167  1.0403
 7027SOL     OW32716   3.379   3.164   1.757 -0.7201  0.4146  0.2912
 7027SOL    HW132717   3.445   3.204   1.813 -0.9144  0.9426  0.1381
 7027SOL    HW232718   3.334   3.105   1.818  0.4179  0.5357  1.2310
 7028SOL     OW32719   4.502   1.703   9.089  0.1943  0.4006 -0.5877
 7028SOL    HW132720   4.511   1.611   9.114 -0.7379  0.8411  1.3603
 7028SOL    HW232721   4.425   1.699   9.033 -0.5704  0.0228  0.5005
 7029SOL     OW32722   3.462   1.287  17.358 -0.2370 -0.3061  0.2763
 7029SOL    HW132723   3.405   1.330  17.294  0.1886 -0.3245 -0.1228
 7029SOL    HW232724   3.548   1.308  17.320  0.1674  0.3343  1.5619
 7030SOL     OW32725   1.127   2.148   2.732 -0.3053 -0.2564  0.4175
 7030SOL    HW132726   1.218   2.175   2.721 -0.7329  1.5486  1.2826
 7030SOL    HW232727   1.093   2.233   2.706 -1.5373 -0.5860  0.9676
 7031SOL     OW32728   0.630   4.046   8.247  0.4757  0.6601  0.0789
 7031SOL    HW132729   0.602   4.067   8.158  0.9116  0.2097 -0.1704
 7031SOL    HW232730   0.705   3.993   8.220  0.1990 -0.7738  2.0956
 7032SOL     OW32731   2.515   3.277   5.573 -0.0859  0.1126 -0.3496
 7032SOL    HW132732   2.474   3.335   5.509 -1.1513  0.2176  0.4353
 7032SOL    HW232733   2.542   3.208   5.512  1.1078  0.7090 -0.5019
 7033SOL     OW32734   1.484   2.688   4.130  0.4784  0.0606  0.1013
 7033SOL    HW132735   1.401   2.736   4.133 -0.3607 -1.3694 -0.1117
 7033SOL    HW232736   1.545   2.757   4.105 -1.9330  1.4398 -1.9233
 7034SOL     OW32737   2.907   0.604   6.280 -0.7336  0.1782 -0.0184
 7034SOL    HW132738   2.922   0.691   6.245 -3.9137  1.5842  2.1725
 7034SOL    HW232739   2.920   0.552   6.200  0.4519 -1.6874  1.3590
 7035SOL     OW32740   3.195   3.577   6.535 -0.1087  0.0872 -0.4749
 7035SOL    HW132741   3.227   3.621   6.613 -1.2392  0.3082 -0.1270
 7035SOL    HW232742   3.115   3.628   6.521 -0.9781 -1.1124  0.1497
 7036SOL     OW32743   0.928   2.116   2.935  0.0287 -0.0636 -0.0372
 7036SOL    HW132744   1.004   2.089   2.987  1.0214  0.3650 -1.2616
 7036SOL    HW232745   0.973   2.118   2.850 -0.4954  0.4189 -0.3027
 7037SOL     OW32746   3.010   0.864   1.955  0.5451 -0.7900  0.0475
 7037SOL    HW132747   2.969   0.806   2.019  0.5679 -1.0743 -0.2010
 7037SOL    HW232748   3.012   0.948   2.002  0.8270  0.0459 -1.4672
 7038SOL     OW32749   1.792   4.027  11.781 -0.5388 -0.0754  0.3626
 7038SOL    HW132750   1.735   3.960  11.818 -1.2551 -0.0776 -0.7317
 7038SOL    HW232751   1.853   3.978  11.727  0.0631  0.4944  0.5288
 7039SOL     OW32752   1.408   3.003   2.706 -0.1089 -0.2947 -0.4701
 7039SOL    HW132753   1.420   3.039   2.617 -0.8631 -0.4793 -0.6449
 7039SOL    HW232754   1.475   2.935   2.706  0.8364  0.6269 -0.8118
 7040SOL     OW32755   2.921   2.203   8.257  0.2261 -1.1346 -0.6423
 7040SOL    HW132756   3.001   2.236   8.297 -0.9493 -0.7585  1.3876
 7040SOL    HW232757   2.880   2.281   8.220  0.8521 -0.0225  0.9784
 7041SOL     OW32758   0.368   3.960   7.248  0.5954 -0.1425  0.2222
 7041SOL    HW132759   0.316   3.973   7.169  0.0510 -0.0635  0.5962
 7041SOL    HW232760   0.307   3.980   7.319  2.4370 -0.0169  1.7831
 7042SOL     OW32761   0.479   2.053   4.234  0.0878  0.6327  0.2045
 7042SOL    HW132762   0.476   2.017   4.322  3.3950  1.0884  0.5151
 7042SOL    HW232763   0.434   2.136   4.248 -1.8160  0.4334 -4.8280
 7043SOL     OW32764   0.727   1.239   9.959  0.1657  0.0364  0.0745
 7043SOL    HW132765   0.700   1.181  10.029  1.6380 -1.3151 -0.4843
 7043SOL    HW232766   0.686   1.315  10.001 -1.3189 -0.9511  0.3842
 7044SOL     OW32767   4.655   0.318   4.135  0.1500  0.1284 -0.5644
 7044SOL    HW132768   4.723   0.320   4.068 -0.1069 -0.3973 -0.8355
 7044SOL    HW232769   4.705   0.265   4.197 -0.6792  1.5980  1.3978
 7045SOL     OW32770   4.163   2.298   9.842 -0.2436 -0.0517  0.4011
 7045SOL    HW132771   4.231   2.251   9.794 -0.6277  1.6326 -1.7667
 7045SOL    HW232772   4.094   2.280   9.778 -0.2248  0.1637  0.3207
 7046SOL     OW32773   3.781   4.550   4.933  0.0932  0.6819  0.3170
 7046SOL    HW132774   3.699   4.592   4.959 -1.1759 -1.5015 -0.1487
 7046SOL    HW232775   3.763   4.532   4.841  0.2830  0.0727  0.4002
 7047SOL     OW32776   2.693   4.028  13.019 -0.0491  0.3066 -0.2413
 7047SOL    HW132777   2.730   4.112  12.991  1.5562 -0.9077 -1.7788
 7047SOL    HW232778   2.762   3.966  12.995  0.8450  1.4628 -0.6260
 7048SOL     OW32779   1.720   1.657   9.128 -0.2919  0.1965  0.1010
 7048SOL    HW132780   1.814   1.676   9.130 -0.1688 -0.3768 -0.5532
 7048SOL    HW232781   1.696   1.713   9.053 -4.3497 -1.9983 -0.2549
 7049SOL     OW32782   0.611   2.269   2.579 -0.0726  0.9102 -0.0164
 7049SOL    HW132783   0.550   2.205   2.542  0.6126  0.0643  0.3104
 7049SOL    HW232784   0.660   2.222   2.647 -0.5782  0.7992  0.2719
 7050SOL     OW32785   2.450   4.366   9.199 -0.2774  0.4389  0.4837
 7050SOL    HW132786   2.459   4.345   9.106  2.5424 -0.4668  0.9629
 7050SOL    HW232787   2.538   4.402   9.205  0.5100 -1.4997  0.4988
 7051SOL     OW32788   2.156   0.031   9.408 -0.0778  0.1702  0.2404
 7051SOL    HW132789   2.174   4.701   9.340 -0.7405 -0.5045  0.7115
 7051SOL    HW232790   2.223   0.012   9.473  0.4631 -1.7707 -0.8601
 7052SOL     OW32791   2.698   3.951   8.093  0.3944 -0.5710 -0.2314
 7052SOL    HW132792   2.658   3.985   8.173 -0.8279 -0.9298 -0.7045
 7052SOL    HW232793   2.688   3.856   8.097  0.5689 -0.6030 -0.5441
 7053SOL     OW32794   3.963   2.438   4.811 -0.2137 -0.4015 -0.0090
 7053SOL    HW132795   3.927   2.441   4.723 -0.3795  1.1084  0.1079
 7053SOL    HW232796   4.058   2.441   4.799 -0.3434  2.2128 -0.4213
 7054SOL     OW32797   0.211   0.536  13.874  0.1666  0.4554  0.3025
 7054SOL    HW132798   0.143   0.601  13.888 -0.4410  0.2262 -1.6793
 7054SOL    HW232799   0.261   0.592  13.815 -0.9655 -0.4026 -1.4295
 7055SOL     OW32800   0.581   0.289   7.987 -0.1625  0.2529 -0.3355
 7055SOL    HW132801   0.545   0.206   7.957  1.1776  0.1850 -1.7996
 7055SOL    HW232802   0.621   0.316   7.904 -0.0523 -0.6518 -0.5734
 7056SOL     OW32803   4.194   2.889   8.877  0.0378  0.0914 -0.1778
 7056SOL    HW132804   4.205   2.795   8.861 -1.5793  0.1261 -1.5208
 7056SOL    HW232805   4.106   2.903   8.841 -0.3326  1.0981  1.1254
 7057SOL     OW32806   0.081   0.125  14.756  0.3932 -0.4409 -0.3227
 7057SOL    HW132807   0.099   0.202  14.810  0.3441 -1.6755  1.4813
 7057SOL    HW232808   0.021   0.174  14.701  1.1945  1.7589  0.7312
 7058SOL     OW32809   3.499   1.248  13.153 -0.1223 -0.0833  0.4776
 7058SOL    HW132810   3.431   1.313  13.139  0.6900  0.9043  1.1223
 7058SOL    HW232811   3.566   1.269  13.088 -1.1970  0.1071 -0.5613
 7059SOL     OW32812   2.473   1.819   6.338 -0.4096 -0.2524 -0.5188
 7059SOL    HW132813   2.514   1.890   6.387 -1.1290 -0.8406  0.9603
 7059SOL    HW232814   2.439   1.770   6.413  3.6987 -2.1078  0.0904
 7060SOL     OW32815   1.775   4.606  10.161  0.2419 -0.9855  0.2670
 7060SOL    HW132816   1.840   4.624  10.229  1.4494  1.3267 -1.4848
 7060SOL    HW232817   1.691   4.635  10.198 -0.1937 -2.5853  0.5263
 7061SOL     OW32818   1.821   0.619   8.438 -0.0668  0.1662 -0.1780
 7061SOL    HW132819   1.905   0.609   8.483  0.0473  2.3858  0.1302
 7061SOL    HW232820   1.798   0.527   8.431  0.3025  0.2610 -2.5243
 7062SOL     OW32821   2.491   3.147  14.203  0.3865 -0.3029  0.3149
 7062SOL    HW132822   2.560   3.172  14.265  2.0680  0.8808 -2.0522
 7062SOL    HW232823   2.485   3.228  14.152  0.4365 -0.1286  0.5838
 7063SOL     OW32824   2.625   3.736   7.810 -0.0687 -0.6062  0.4768
 7063SOL    HW132825   2.700   3.711   7.864  1.4259  1.3314 -0.7173
 7063SOL    HW232826   2.580   3.652   7.795 -0.4771 -0.1924 -0.6747
 7064SOL     OW32827   3.272   3.204  13.161 -0.0105  0.0469 -0.6777
 7064SOL    HW132828   3.249   3.238  13.075  0.5257  0.6389 -0.5865
 7064SOL    HW232829   3.246   3.112  13.162  1.1523 -0.2983 -1.6588
 7065SOL     OW32830   0.307   2.148   7.129 -0.2633 -0.2136  0.8214
 7065SOL    HW132831   0.335   2.177   7.042 -2.8119  0.0755  0.1177
 7065SOL    HW232832   0.245   2.215   7.157  1.5608  1.9228 -0.1755
 7066SOL     OW32833   4.415   3.151  11.319 -0.5037  0.8100  0.1590
 7066SOL    HW132834   4.502   3.179  11.349  0.6709 -2.4199 -0.2616
 7066SOL    HW232835   4.431   3.121  11.230 -0.0618 -1.5327  1.0236
 7067SOL     OW32836   0.455   4.113  13.341 -0.1902  0.1609  0.3858
 7067SOL    HW132837   0.492   4.172  13.276  0.0355 -1.1269 -0.6605
 7067SOL    HW232838   0.473   4.149  13.428 -0.4680  0.8277  0.1652
 7068SOL     OW32839   2.388   2.969   8.759  0.4277 -0.4583 -0.0047
 7068SOL    HW132840   2.317   2.983   8.821 -0.7532 -0.9733 -1.2456
 7068SOL    HW232841   2.377   3.049   8.707  1.2721  0.1290  0.7232
 7069SOL     OW32842   3.811   4.298   0.556  0.1407  0.2443  0.4717
 7069SOL    HW132843   3.752   4.335   0.491  0.4978  0.3945  0.2341
 7069SOL    HW232844   3.748   4.285   0.627  2.5964 -1.5434  2.3398
 7070SOL     OW32845   0.184   2.361   6.191  0.2289  0.2689 -0.3738
 7070SOL    HW132846   0.259   2.320   6.146 -0.1503 -0.9842  0.1566
 7070SOL    HW232847   0.141   2.283   6.225  0.7095  0.2328  0.1430
 7071SOL     OW32848   0.464   2.080   3.062 -0.2275 -0.1858 -0.0046
 7071SOL    HW132849   0.524   2.007   3.073  3.9039  3.3685  1.2025
 7071SOL    HW232850   0.527   2.153   3.067  1.1072 -1.3153 -0.5421
 7072SOL     OW32851   0.612   1.879   3.732 -0.2637  0.1377 -0.3014
 7072SOL    HW132852   0.576   1.943   3.671 -1.0711  1.1840  1.2680
 7072SOL    HW232853   0.550   1.808   3.719 -0.2211  0.3057 -1.4090
 7073SOL     OW32854   0.257   2.561   5.151 -0.0587 -0.4804  0.0645
 7073SOL    HW132855   0.278   2.640   5.200 -0.3493 -0.9301  0.9218
 7073SOL    HW232856   0.206   2.510   5.214 -0.3137  1.2886  1.3004
 7074SOL     OW32857   1.437   4.629   0.813 -0.3821 -0.4553  0.4795
 7074SOL    HW132858   1.424   4.681   0.892  0.4780 -0.5842  0.7028
 7074SOL    HW232859   1.427   4.542   0.850 -1.8434 -0.9424 -1.0439
 7075SOL     OW32860   1.722   2.357   7.778  0.0081  0.4330  0.0377
 7075SOL    HW132861   1.764   2.365   7.693 -2.2328 -0.3394 -1.1348
 7075SOL    HW232862   1.683   2.444   7.790 -0.8508  0.2845 -1.7633
 7076SOL     OW32863   2.163   1.776   6.803  0.0142 -0.4408  0.0637
 7076SOL    HW132864   2.071   1.753   6.815  0.0101  0.5246  1.8967
 7076SOL    HW232865   2.206   1.692   6.790 -0.0422 -0.1395 -2.0962
 7077SOL     OW32866   2.633   3.045   4.365 -0.2808 -0.4135 -0.3755
 7077SOL    HW132867   2.670   3.087   4.288 -1.0185  0.1665 -0.4125
 7077SOL    HW232868   2.578   3.115   4.398 -1.5054 -1.4761 -0.1479
 7078SOL     OW32869   3.001   0.146   7.086 -0.3594  0.3304  0.6359
 7078SOL    HW132870   3.051   0.156   7.167  0.3128 -1.5214  0.4597
 7078SOL    HW232871   3.008   0.237   7.059  1.9321  0.0803  0.3669
 7079SOL     OW32872   0.976   3.047  13.096 -0.4238  0.0701  0.2593
 7079SOL    HW132873   0.892   3.031  13.139  0.6375 -1.0897  1.9111
 7079SOL    HW232874   0.982   2.971  13.040  0.0572 -0.3934  0.9381
 7080SOL     OW32875   0.896   0.989  15.571 -0.3739  0.6794 -0.2980
 7080SOL    HW132876   0.889   1.003  15.666 -0.7381 -1.4471 -0.0137
 7080SOL    HW232877   0.988   0.962  15.574 -0.8819 -1.1650 -1.5930
 7081SOL     OW32878   2.266   3.483   3.357  0.6190 -0.2473 -0.4755
 7081SOL    HW132879   2.257   3.554   3.293 -0.3484 -0.3954 -0.5083
 7081SOL    HW232880   2.240   3.406   3.307 -1.4471 -0.4767  0.9570
 7082SOL     OW32881   2.700   1.130   6.297  0.5815  0.1641 -0.0716
 7082SOL    HW132882   2.721   1.039   6.318  0.2918  0.6996  2.5697
 7082SOL    HW232883   2.729   1.131   6.206 -0.5998 -0.2210 -0.4492
 7083SOL     OW32884   3.250   1.031   5.458 -0.0637 -0.6492 -0.2565
 7083SOL    HW132885   3.241   1.051   5.364  0.0495 -2.6631 -0.6844
 7083SOL    HW232886   3.222   0.940   5.453  0.1088 -0.7787  1.3111
 7084SOL     OW32887   1.108   2.886  13.433 -0.1300 -0.5311 -0.2041
 7084SOL    HW132888   1.142   2.827  13.500  3.8866  0.9492 -0.8974
 7084SOL    HW232889   1.047   2.825  13.393 -1.5677  0.0906  1.0495
 7085SOL     OW32890   0.681   2.273  10.161 -0.0556  0.8203 -0.5072
 7085SOL    HW132891   0.684   2.199  10.100  0.2434  1.5433 -1.3834
 7085SOL    HW232892   0.611   2.329  10.129 -0.0562  0.6619 -0.7825
 7086SOL     OW32893   2.717   3.688  10.699  0.2022  0.0847 -0.3104
 7086SOL    HW132894   2.658   3.618  10.726 -0.0508 -0.0408 -1.1739
 7086SOL    HW232895   2.720   3.748  10.774  2.7068 -1.1298  0.5479
 7087SOL     OW32896   0.175   0.920   2.611 -0.2639 -0.0185  0.1823
 7087SOL    HW132897   0.090   0.890   2.578  0.1211 -1.2863  0.3434
 7087SOL    HW232898   0.161   1.015   2.605  0.4077  0.0271 -0.8003
 7088SOL     OW32899   3.670   4.597   6.376 -0.0957  0.7779  0.1365
 7088SOL    HW132900   3.629   4.581   6.461 -1.4777 -1.0066 -0.8698
 7088SOL    HW232901   3.753   4.641   6.395  1.0024 -1.0107 -0.4915
 7089SOL     OW32902   4.103   3.374   9.947  0.2021 -0.5314  0.2648
 7089SOL    HW132903   4.132   3.452   9.995 -1.0486  0.1002  0.0236
 7089SOL    HW232904   4.184   3.324   9.947  0.9873  0.7499 -0.7317
 7090SOL     OW32905   0.759   0.507   8.889  0.4130  0.3474 -0.1745
 7090SOL    HW132906   0.791   0.416   8.886 -0.2305  0.1872 -2.1773
 7090SOL    HW232907   0.801   0.544   8.811 -2.5216 -0.1669 -1.9921
 7091SOL     OW32908   1.814   4.415   7.312  0.6098 -0.2197 -0.0104
 7091SOL    HW132909   1.852   4.481   7.369  3.4772  1.0796 -3.4061
 7091SOL    HW232910   1.792   4.456   7.228  1.2270 -0.4278 -0.2743
 7092SOL     OW32911   3.652   3.982   2.350 -0.1969  1.0605 -0.1357
 7092SOL    HW132912   3.568   3.998   2.306  0.4345  1.6054 -1.1445
 7092SOL    HW232913   3.635   3.903   2.402  0.0559 -0.4545 -2.3423
 7093SOL     OW32914   3.960   2.995   1.923  0.3093  0.8547  0.1578
 7093SOL    HW132915   3.929   2.972   2.011 -1.9699 -0.6946 -1.0354
 7093SOL    HW232916   4.011   3.076   1.935  1.1799  0.0135  2.0975
 7094SOL     OW32917   1.877   2.950   0.880  0.3757 -0.3969 -1.1300
 7094SOL    HW132918   1.818   2.882   0.909  0.8624  1.0482  3.2173
 7094SOL    HW232919   1.917   2.955   0.967 -1.1933  0.2068 -0.4564
 7095SOL     OW32920   3.470   3.756  14.357 -0.0904  0.3340  0.0278
 7095SOL    HW132921   3.490   3.847  14.375 -0.6546  0.4307  0.1931
 7095SOL    HW232922   3.381   3.757  14.393 -1.0042  0.0682 -2.2325
 7096SOL     OW32923   0.732   3.765  11.283 -0.1540 -0.0712 -0.8034
 7096SOL    HW132924   0.702   3.851  11.254  1.1169  0.1185 -1.5357
 7096SOL    HW232925   0.721   3.784  11.376  3.0491  2.1244 -0.8389
 7097SOL     OW32926   0.287   3.313   3.692 -0.2641 -0.2718 -0.2843
 7097SOL    HW132927   0.275   3.324   3.598 -0.1995  0.7582 -0.1623
 7097SOL    HW232928   0.211   3.361   3.725 -2.7992 -3.5263 -1.3125
 7098SOL     OW32929   2.617   3.548   9.577 -0.2079 -0.1830 -0.2929
 7098SOL    HW132930   2.660   3.633   9.575  1.2031 -0.8340  1.9451
 7098SOL    HW232931   2.530   3.557   9.614 -0.5905 -0.2986 -1.1594
 7099SOL     OW32932   0.058   1.297   2.327 -0.2609  0.2565 -0.2545
 7099SOL    HW132933   4.727   1.229   2.343  1.5174 -1.3819  0.0811
 7099SOL    HW232934   0.053   1.308   2.232  2.1014 -0.6262 -0.4766
 7100SOL     OW32935   4.173   0.664   7.328 -0.0186 -0.1346 -0.3028
 7100SOL    HW132936   4.257   0.673   7.373 -0.2354 -2.0035  0.4537
 7100SOL    HW232937   4.157   0.572   7.312 -1.3584 -0.2682  1.7822
 7101SOL     OW32938   4.656   3.101   1.575 -0.1886  0.2184 -0.0186
 7101SOL    HW132939   0.004   3.075   1.617  1.2078  0.5450 -2.6069
 7101SOL    HW232940   4.674   3.180   1.525 -0.2400  0.5915  0.5596
 7102SOL     OW32941   4.534   3.426   4.004  0.8024  0.3247 -0.1199
 7102SOL    HW132942   4.624   3.402   3.983 -0.0572 -1.7108 -1.4733
 7102SOL    HW232943   4.493   3.401   3.921 -2.6707 -1.2315  2.0736
 7103SOL     OW32944   3.350   3.434   2.302  0.3272 -0.5643 -0.9886
 7103SOL    HW132945   3.331   3.445   2.395  0.0262  0.0667 -1.1279
 7103SOL    HW232946   3.360   3.524   2.273  1.6054 -0.8572 -1.4847
 7104SOL     OW32947   2.364   3.769  16.738  0.3390 -0.2198  0.2507
 7104SOL    HW132948   2.336   3.820  16.814  0.0753  0.9573 -0.6215
 7104SOL    HW232949   2.429   3.706  16.769  0.3192 -1.0963 -1.4544
 7105SOL     OW32950   4.535   1.735   6.397 -0.6696  0.2190 -0.2274
 7105SOL    HW132951   4.526   1.676   6.322  0.3129 -0.8590  0.4918
 7105SOL    HW232952   4.493   1.681   6.463  2.0893 -0.6679  0.8318
 7106SOL     OW32953   2.971   1.295   7.995 -0.3448 -0.3269  0.5860
 7106SOL    HW132954   3.055   1.310   7.952 -1.1771 -0.4085 -1.0650
 7106SOL    HW232955   2.936   1.384   7.992 -0.0374 -0.2627 -1.4027
 7107SOL     OW32956   2.644   1.928  12.266 -0.0587 -0.2565 -0.2616
 7107SOL    HW132957   2.584   1.920  12.192 -2.3468 -1.7727  1.7432
 7107SOL    HW232958   2.723   1.966  12.227 -0.3581  1.6707  1.0297
 7108SOL     OW32959   3.124   3.608  17.215  0.3069 -0.2276 -0.4459
 7108SOL    HW132960   3.036   3.581  17.186  0.5225 -0.2261 -1.0985
 7108SOL    HW232961   3.144   3.531  17.268  0.0938  1.3925  1.9941
 7109SOL     OW32962   1.148   0.078   5.559  0.1287  0.4211  0.1992
 7109SOL    HW132963   1.218   0.080   5.625  0.6856 -2.4631 -0.3049
 7109SOL    HW232964   1.196   0.121   5.488 -1.7146  1.2751 -0.5359
 7110SOL     OW32965   0.762   1.050  16.366  0.1445  0.1734 -0.7348
 7110SOL    HW132966   0.739   1.114  16.298 -2.2565 -0.0576 -0.1605
 7110SOL    HW232967   0.709   0.980  16.328  1.4815 -1.8092  1.0595
 7111SOL     OW32968   1.443   3.033   6.509 -0.0745 -0.5172 -0.4554
 7111SOL    HW132969   1.513   3.057   6.448 -1.6027 -0.4907 -2.1907
 7111SOL    HW232970   1.444   2.937   6.507 -0.4330 -0.5319  0.1060
 7112SOL     OW32971   1.446   2.044   4.623  0.2663  0.5356 -0.5490
 7112SOL    HW132972   1.429   1.969   4.681  1.0343  0.1543 -0.8275
 7112SOL    HW232973   1.384   2.104   4.665  0.2549  0.5391 -0.5710
 7113SOL     OW32974   2.763   3.578  12.847 -0.3036  0.2542  0.1720
 7113SOL    HW132975   2.681   3.549  12.807  0.6995 -2.8945  0.3361
 7113SOL    HW232976   2.765   3.522  12.925 -1.1630  1.4808  1.0705
 7114SOL     OW32977   1.010   0.654   3.054  0.1059  0.0200 -0.1596
 7114SOL    HW132978   1.082   0.666   2.992 -1.5456 -1.8223 -2.4478
 7114SOL    HW232979   1.038   0.571   3.093  0.4204 -1.4816 -3.5392
 7115SOL     OW32980   2.797   3.801  17.200  0.1427  0.4121  0.0685
 7115SOL    HW132981   2.831   3.716  17.170 -1.0970 -0.2338  0.5178
 7115SOL    HW232982   2.872   3.850  17.164  0.3303  0.7628  0.9505
 7116SOL     OW32983   2.980   0.799   7.198 -0.1239  0.1751  0.2483
 7116SOL    HW132984   2.944   0.874   7.244 -0.4009  0.9987 -1.3188
 7116SOL    HW232985   2.900   0.746   7.191 -0.4431  0.9369 -1.6649
 7117SOL     OW32986   4.479   4.280   8.615 -0.3577  0.4530  0.5649
 7117SOL    HW132987   4.410   4.283   8.681  1.1520  0.3203  2.1217
 7117SOL    HW232988   4.558   4.300   8.665  0.6282 -0.2343 -0.7152
 7118SOL     OW32989   3.393   0.508   4.216  0.1291 -0.2998 -0.4673
 7118SOL    HW132990   3.486   0.485   4.214  0.5626  1.4504 -0.3887
 7118SOL    HW232991   3.354   0.422   4.231  2.2512 -0.8505  1.9036
 7119SOL     OW32992   0.927   3.043   4.225 -0.0142 -0.3700 -0.1182
 7119SOL    HW132993   0.895   2.953   4.232  3.0048 -1.2044  2.5329
 7119SOL    HW232994   0.854   3.083   4.176  0.3755  1.5219  0.8611
 7120SOL     OW32995   1.412   4.686   7.625  0.3031 -0.7333  0.2372
 7120SOL    HW132996   1.348   0.021   7.642  1.0590  0.4250 -1.7138
 7120SOL    HW232997   1.461   4.677   7.707 -0.1539 -2.2665  0.3542
 7121SOL     OW32998   2.056   3.590   4.542  0.3259 -0.1320  0.7365
 7121SOL    HW132999   2.024   3.552   4.460  2.4444 -1.5332  0.5695
 7121SOL    HW233000   2.093   3.673   4.511  0.9210 -0.7898 -0.3446
 7122SOL     OW33001   4.423   1.002   9.942  0.1236  0.4334 -0.1629
 7122SOL    HW133002   4.432   0.976  10.033  1.7864 -3.6476 -1.5019
 7122SOL    HW233003   4.477   1.081   9.946  1.1976 -0.4756  3.1411
 7123SOL     OW33004   3.958   2.314   4.529 -0.2680  0.0206 -0.2179
 7123SOL    HW133005   3.995   2.225   4.525  0.4805  0.4320 -2.7887
 7123SOL    HW233006   3.961   2.345   4.438  1.9211  0.3483 -0.0403
 7124SOL     OW33007   4.556   3.026   0.548 -0.2664  0.3321  0.1797
 7124SOL    HW133008   4.533   3.118   0.530 -1.7866 -0.2856 -0.9863
 7124SOL    HW233009   4.473   2.988   0.577 -0.6476 -1.1554 -2.8591
 7125SOL     OW33010   3.779   0.228   3.271  0.5277 -1.0511  0.1466
 7125SOL    HW133011   3.689   0.200   3.288 -0.1364  1.1950  0.3838
 7125SOL    HW233012   3.816   0.149   3.309  1.1637 -1.5604 -1.5733
 7126SOL     OW33013   3.103   4.144  16.888  0.0871 -0.1777  0.2562
 7126SOL    HW133014   3.163   4.215  16.863  2.2394 -1.9472  0.4804
 7126SOL    HW233015   3.078   4.115  16.800 -2.8420 -0.8572  1.3276
 7127SOL     OW33016   4.479   3.317   4.706  0.8636 -0.4978 -0.5049
 7127SOL    HW133017   4.565   3.350   4.733  0.9250  0.4984 -1.8967
 7127SOL    HW233018   4.464   3.244   4.766 -0.6074 -1.5898 -2.2567
 7128SOL     OW33019   0.670   2.666   8.345  0.1976 -0.0062  0.0064
 7128SOL    HW133020   0.747   2.698   8.296 -0.4001 -0.2471 -1.0883
 7128SOL    HW233021   0.685   2.710   8.428  0.6534  0.0664 -0.1120
 7129SOL     OW33022   4.260   3.818   7.165  0.4925  0.0013  0.4219
 7129SOL    HW133023   4.201   3.852   7.098  0.6309  3.1498  1.8923
 7129SOL    HW233024   4.267   3.891   7.228  1.9931 -0.4879  0.8406
 7130SOL     OW33025   1.656   0.083  11.672  0.2292  0.0048  0.0130
 7130SOL    HW133026   1.665   0.063  11.765  0.0073 -0.2661 -0.0262
 7130SOL    HW233027   1.632   0.173  11.695 -1.0044 -0.5671  0.9735
 7131SOL     OW33028   0.951   1.460   6.718  0.8615  0.1371 -0.1090
 7131SOL    HW133029   0.888   1.412   6.773 -0.9101  1.1740 -1.2238
 7131SOL    HW233030   1.017   1.475   6.786 -1.2530 -2.0403  2.4407
 7132SOL     OW33031   2.080   2.052   5.178 -0.3757 -0.3396 -0.8113
 7132SOL    HW133032   2.150   2.107   5.212 -1.3396  0.3889 -0.0053
 7132SOL    HW233033   2.062   2.070   5.085  0.6293 -0.0688 -0.9480
 7133SOL     OW33034   0.342   0.226  15.033  0.0704  0.0783  0.0763
 7133SOL    HW133035   0.269   0.279  14.999  1.0102  2.0238  1.0801
 7133SOL    HW233036   0.411   0.275  14.989 -1.1320 -0.3004 -2.2177
 7134SOL     OW33037   2.673   3.006  17.546 -0.4449  0.0493 -0.2487
 7134SOL    HW133038   2.680   3.090  17.592  1.0164 -0.3979  0.3413
 7134SOL    HW233039   2.593   3.019  17.495  0.7734 -0.6739 -2.3389
 7135SOL     OW33040   4.405   1.643   7.781  0.1386 -0.2421 -0.1720
 7135SOL    HW133041   4.367   1.665   7.866  1.7942 -0.8176  0.7250
 7135SOL    HW233042   4.341   1.677   7.718  0.2289 -0.3274 -0.3097
 7136SOL     OW33043   0.731   0.979   3.270  0.2616  0.2988 -0.8724
 7136SOL    HW133044   0.779   1.027   3.337 -1.1659  1.2249 -0.5160
 7136SOL    HW233045   0.754   0.890   3.294 -0.1282  0.9024  1.6833
 7137SOL     OW33046   0.913   1.859   9.144  0.6993 -0.4238 -0.2335
 7137SOL    HW133047   0.851   1.900   9.204 -0.4712  0.1427 -1.8289
 7137SOL    HW233048   0.966   1.938   9.140  0.1625  0.2086  4.4516
 7138SOL     OW33049   0.658   0.056   4.967  0.1145  0.2528  0.2363
 7138SOL    HW133050   0.631   0.136   4.923  1.4859  0.9523  0.6682
 7138SOL    HW233051   0.753   0.066   4.972  0.1669 -0.6632  1.0323
 7139SOL     OW33052   2.974   1.942   1.765 -0.3098  0.6164 -0.6874
 7139SOL    HW133053   2.894   1.937   1.713 -1.3675  0.3816  0.9654
 7139SOL    HW233054   3.013   2.020   1.726 -3.2158  2.1846 -0.3702
 7140SOL     OW33055   3.867   0.506   7.077 -0.4399 -0.1850  0.1224
 7140SOL    HW133056   3.918   0.455   7.140  0.4590  0.5519 -0.0174
 7140SOL    HW233057   3.777   0.496   7.109 -0.3308 -1.5664 -0.0046
 7141SOL     OW33058   1.554   0.859   8.683 -0.2280 -0.0770  0.2637
 7141SOL    HW133059   1.515   0.928   8.737 -0.4420 -0.1778  0.2383
 7141SOL    HW233060   1.582   0.906   8.605  1.8896 -1.2620  0.3055
 7142SOL     OW33061   3.262   3.265   7.228  0.0576  0.2162 -0.3661
 7142SOL    HW133062   3.284   3.351   7.193 -3.0378  1.4181  0.6208
 7142SOL    HW233063   3.338   3.216   7.200 -1.6448 -2.1731 -0.8253
 7143SOL     OW33064   0.238   0.541   5.833  0.5482 -0.1919  0.3474
 7143SOL    HW133065   0.330   0.558   5.816  0.6343 -0.6421  0.3584
 7143SOL    HW233066   0.246   0.494   5.916 -1.2813 -1.8148 -0.3771
 7144SOL     OW33067   3.932   1.347  13.034 -0.2502  0.1653  0.0318
 7144SOL    HW133068   3.994   1.419  13.043 -2.1320  1.8346 -0.3304
 7144SOL    HW233069   3.993   1.278  13.010  2.1569  2.7889 -1.3029
 7145SOL     OW33070   1.982   3.434  12.493  0.4309 -0.2059  0.1545
 7145SOL    HW133071   2.063   3.447  12.445  0.8665 -1.0743  0.6600
 7145SOL    HW233072   2.004   3.486  12.571 -0.6504 -0.1032  0.3931
 7146SOL     OW33073   1.776   1.090   8.799 -0.4646 -0.6648 -0.0057
 7146SOL    HW133074   1.821   1.112   8.881 -1.0490  1.1385 -0.1627
 7146SOL    HW233075   1.702   1.034   8.823 -1.0255  0.1443  0.1302
 7147SOL     OW33076   1.810   0.085   4.472 -0.1735 -0.5799 -0.1157
 7147SOL    HW133077   1.728   0.055   4.512  0.0381 -2.4206 -1.0588
 7147SOL    HW233078   1.781   0.091   4.381  0.4291  0.1895 -0.2556
 7148SOL     OW33079   4.585   4.603   8.993  0.5535  0.0576 -0.4701
 7148SOL    HW133080   4.580   4.618   9.088 -0.6166  5.0859 -1.3222
 7148SOL    HW233081   4.655   4.666   8.974  2.1855 -1.7999 -0.5596
 7149SOL     OW33082   3.766   0.338   2.222 -0.0965 -0.3851 -0.0801
 7149SOL    HW133083   3.828   0.382   2.164  0.7919  1.8646  2.5548
 7149SOL    HW233084   3.799   0.358   2.310  1.6245  1.7940 -1.2249
 7150SOL     OW33085   4.679   0.527  14.204 -0.4659  0.5049 -0.4281
 7150SOL    HW133086   4.674   0.621  14.223  1.7759  0.0346  2.4795
 7150SOL    HW233087   4.615   0.514  14.134  0.6654 -1.5159 -1.0811
 7151SOL     OW33088   1.706   3.540   3.276  0.3320 -0.9140 -0.2600
 7151SOL    HW133089   1.645   3.480   3.235 -0.5644  0.0958 -0.4069
 7151SOL    HW233090   1.786   3.523   3.226  0.9832  2.7466 -0.4883
 7152SOL     OW33091   2.530   3.431   8.341 -0.2824  0.3218 -0.0601
 7152SOL    HW133092   2.482   3.385   8.272 -0.7643  0.0892  0.4347
 7152SOL    HW233093   2.471   3.505   8.360  0.2104  0.6543  0.1707
 7153SOL     OW33094   2.684   0.711   4.242 -0.2474 -0.1620 -0.3981
 7153SOL    HW133095   2.671   0.794   4.197  0.3789 -0.1893 -0.6308
 7153SOL    HW233096   2.769   0.726   4.284 -1.6077  0.8226  1.9575
 7154SOL     OW33097   1.596   4.442   6.171 -0.0830 -0.3311  0.1554
 7154SOL    HW133098   1.568   4.454   6.080  0.4842  0.4791  0.0873
 7154SOL    HW233099   1.532   4.377   6.201  0.9577  0.0518  3.1804
 7155SOL     OW33100   3.826   4.015   7.834  0.3689 -0.0722  0.0892
 7155SOL    HW133101   3.822   3.920   7.849 -2.6044  0.0356  0.0563
 7155SOL    HW233102   3.745   4.040   7.879 -1.0752 -0.1806 -2.4524
 7156SOL     OW33103   0.952   2.797   7.030  0.0973  0.1275  0.2568
 7156SOL    HW133104   0.984   2.880   6.994  0.0820 -0.5908 -1.4122
 7156SOL    HW233105   0.884   2.765   6.971 -0.4319  1.9697 -0.1359
 7157SOL     OW33106   2.143   1.751   1.911 -0.0745  0.1830  0.1444
 7157SOL    HW133107   2.119   1.832   1.956  0.3599 -0.2069  1.1015
 7157SOL    HW233108   2.144   1.778   1.820  0.1804  0.9680  0.3778
 7158SOL     OW33109   4.225   4.507   7.385 -0.4544  0.5025  0.4813
 7158SOL    HW133110   4.243   4.465   7.469  0.0667 -1.5231 -0.6540
 7158SOL    HW233111   4.137   4.470   7.379  0.1587 -0.9610  0.5760
 7159SOL     OW33112   2.897   2.912  14.989  0.0808  0.2660 -0.3727
 7159SOL    HW133113   2.931   2.829  15.023  0.0481 -0.6893 -2.6869
 7159SOL    HW233114   2.969   2.974  14.995  0.7123 -0.3816 -1.3014
 7160SOL     OW33115   3.663   3.351   7.059  0.3349  0.3697  0.3528
 7160SOL    HW133116   3.746   3.386   7.027  1.2618 -0.5360  1.7683
 7160SOL    HW233117   3.676   3.256   7.060 -0.8792  0.2187  1.7343
 7161SOL     OW33118   1.765   3.534   6.168  0.2921 -0.2672  0.4956
 7161SOL    HW133119   1.807   3.618   6.190  0.3280  0.3123 -1.8297
 7161SOL    HW233120   1.835   3.469   6.167 -0.0554 -0.5560 -2.6433
 7162SOL     OW33121   3.749   0.715   4.746  0.5529 -0.6013 -0.4161
 7162SOL    HW133122   3.751   0.639   4.805  0.3469 -0.7984 -0.6602
 7162SOL    HW233123   3.694   0.680   4.676 -1.2129  0.5240  0.4156
 7163SOL     OW33124   4.321   2.869   4.070 -0.3181  0.1829  0.8607
 7163SOL    HW133125   4.357   2.939   4.125 -0.8874  0.5914  0.7014
 7163SOL    HW233126   4.391   2.851   4.007  0.5436 -0.9699  2.1336
 7164SOL     OW33127   1.406   0.060   8.667  0.0094 -0.8174  0.0610
 7164SOL    HW133128   1.335   0.007   8.703 -0.7091 -0.0250 -0.1786
 7164SOL    HW233129   1.417   0.117   8.743 -1.3534  0.7027 -0.8884
 7165SOL     OW33130   3.468   4.233   3.301  0.2313  0.3054 -0.4606
 7165SOL    HW133131   3.417   4.187   3.234 -1.0646  1.2272 -0.1171
 7165SOL    HW233132   3.411   4.301   3.338  1.2481  0.1489  1.3569
 7166SOL     OW33133   3.481   3.031   2.825  0.4246  0.2956 -0.1885
 7166SOL    HW133134   3.512   3.097   2.763 -0.5057 -1.1676 -2.1897
 7166SOL    HW233135   3.434   3.087   2.887 -0.1317  0.1532 -0.4849
 7167SOL     OW33136   0.603   2.335   6.724  0.6568 -0.1647 -0.3783
 7167SOL    HW133137   0.585   2.270   6.655  0.8126  0.1148 -0.6788
 7167SOL    HW233138   0.522   2.320   6.772  0.0532  2.1566 -0.6667
 7168SOL     OW33139   3.511   0.327   2.869  0.1601  1.0917  0.0207
 7168SOL    HW133140   3.431   0.356   2.911 -0.0443 -0.8146  0.9253
 7168SOL    HW233141   3.564   0.301   2.945  1.2368 -2.3436 -1.8801
 7169SOL     OW33142   0.564   4.143   7.179  0.2319 -0.0505  0.0975
 7169SOL    HW133143   0.492   4.088   7.209  0.9095 -0.3550  1.1583
 7169SOL    HW233144   0.533   4.218   7.230  0.9518  0.7074 -0.5798
 7170SOL     OW33145   2.649   3.266  12.742 -0.2923  0.7901  0.2686
 7170SOL    HW133146   2.614   3.317  12.670 -1.6484  0.7791  0.9310
 7170SOL    HW233147   2.613   3.178  12.735 -1.3934  1.2497  0.2148
 7171SOL     OW33148   4.074   3.157   3.734  0.3813  0.0697 -0.0131
 7171SOL    HW133149   4.128   3.109   3.798 -2.0424 -0.8004  1.3897
 7171SOL    HW233150   3.993   3.110   3.753 -0.3001  1.9519  1.7891
 7172SOL     OW33151   2.298   2.767   4.231  0.4504 -0.1238 -0.1443
 7172SOL    HW133152   2.276   2.842   4.175  1.6280  0.3612  0.0455
 7172SOL    HW233153   2.255   2.799   4.310  1.1764 -0.2918  0.3217
 7173SOL     OW33154   3.116   1.681   1.572 -0.9169  0.5024 -0.0511
 7173SOL    HW133155   3.152   1.654   1.488 -0.0303  1.3709  0.0484
 7173SOL    HW233156   3.151   1.768   1.592 -0.0932 -0.5311  2.9643
 7174SOL     OW33157   4.273   0.712   8.519 -0.2870  0.4631  0.3461
 7174SOL    HW133158   4.244   0.689   8.607 -3.5507 -0.0925 -0.8708
 7174SOL    HW233159   4.215   0.656   8.467  1.4213 -2.6576  1.7853
 7175SOL     OW33160   2.624   3.353  11.011 -0.4182  0.3352 -0.0300
 7175SOL    HW133161   2.669   3.360  11.095  0.8437 -2.2139 -0.4992
 7175SOL    HW233162   2.622   3.258  11.002  0.1361  0.4853 -1.7437
 7176SOL     OW33163   1.900   1.430   3.026 -0.4110  0.0504 -0.6035
 7176SOL    HW133164   1.968   1.416   3.092 -1.5333  0.7548  0.6888
 7176SOL    HW233165   1.904   1.525   3.014  0.4127 -0.3704 -3.5686
 7177SOL     OW33166   0.948   0.078   4.976 -0.3072  0.5444 -0.0993
 7177SOL    HW133167   1.037   0.058   4.946 -1.2347 -0.7052 -2.0382
 7177SOL    HW233168   0.966   0.147   5.039  0.6751  0.3589 -0.1670
 7178SOL     OW33169   4.642   1.552  15.175 -0.4316  0.0130 -0.0117
 7178SOL    HW133170   4.699   1.475  15.178  0.0599  0.3862  0.3731
 7178SOL    HW233171   4.606   1.552  15.087  2.0590 -0.5455 -1.0276
 7179SOL     OW33172   1.479   2.052   7.940 -0.1070  0.0095 -0.1901
 7179SOL    HW133173   1.486   2.074   7.847  1.2734 -1.1180 -0.3467
 7179SOL    HW233174   1.389   2.020   7.940  0.3686 -1.3087  0.1143
 7180SOL     OW33175   0.161   1.230  17.315  0.3406  0.4408 -0.0668
 7180SOL    HW133176   0.154   1.144  17.273  1.2455 -0.1411  0.9772
 7180SOL    HW233177   0.069   1.253  17.314  0.0014 -0.7966  3.5722
 7181SOL     OW33178   3.254   2.568   7.552 -0.1338 -0.1320  0.2154
 7181SOL    HW133179   3.181   2.589   7.493 -1.9270 -0.3516  2.3170
 7181SOL    HW233180   3.320   2.630   7.522  0.7017 -1.0308  0.2141
 7182SOL     OW33181   3.200   1.738   2.743 -0.1579 -0.1817  0.2858
 7182SOL    HW133182   3.201   1.831   2.766  0.4398 -0.2986  0.7410
 7182SOL    HW233183   3.149   1.754   2.664 -0.1323 -0.1232  0.2810
 7183SOL     OW33184   3.516   1.141  14.666 -0.1646 -0.1895 -0.0585
 7183SOL    HW133185   3.447   1.203  14.642  1.2963  1.7053  0.7768
 7183SOL    HW233186   3.476   1.097  14.741  1.3117  0.2476  0.9794
 7184SOL     OW33187   1.825   0.177   7.428 -0.0180 -0.6469 -0.4447
 7184SOL    HW133188   1.891   0.247   7.432  0.4597 -1.1153 -0.0710
 7184SOL    HW233189   1.819   0.153   7.520  0.0915 -0.4343 -0.3815
 7185SOL     OW33190   4.192   3.594  11.484  0.5742  0.0713  0.3169
 7185SOL    HW133191   4.216   3.618  11.394  0.8683 -2.1689 -0.2045
 7185SOL    HW233192   4.244   3.514  11.491 -0.3514 -0.5770 -0.1383
 7186SOL     OW33193   0.596   3.985   7.998 -0.4774  0.4135  0.0682
 7186SOL    HW133194   0.633   3.897   7.995  1.7902  1.3205  2.1681
 7186SOL    HW233195   0.508   3.951   7.980 -0.3171 -0.2809  0.5864
 7187SOL     OW33196   2.811   0.792  13.215  0.2422  0.3752 -0.1053
 7187SOL    HW133197   2.787   0.796  13.122 -4.3200 -2.3369  0.9672
 7187SOL    HW233198   2.790   0.881  13.243 -0.9680  0.6438 -1.7962
 7188SOL     OW33199   0.388   1.719  11.649 -0.1429  0.1492  0.4266
 7188SOL    HW133200   0.385   1.741  11.556  1.0355  0.7244  0.5238
 7188SOL    HW233201   0.345   1.634  11.654  1.7159 -0.7256  1.2256
 7189SOL     OW33202   0.112   0.456   3.594 -0.0213  0.0711 -0.8480
 7189SOL    HW133203   0.107   0.362   3.576  1.0347  0.2838 -2.2202
 7189SOL    HW233204   0.024   0.469   3.630  1.3771  2.9321  1.5513
 7190SOL     OW33205   1.763   0.332   8.509  0.0907 -0.0064  0.1343
 7190SOL    HW133206   1.686   0.312   8.456 -0.2793  2.3129 -0.2047
 7190SOL    HW233207   1.823   0.259   8.491  1.0555  1.1673 -1.4200
 7191SOL     OW33208   1.343   0.853  11.945 -0.6954 -0.1580  0.0233
 7191SOL    HW133209   1.277   0.812  12.001 -0.9579 -2.7363 -2.1395
 7191SOL    HW233210   1.421   0.804  11.972 -0.7014 -0.5314 -0.6155
 7192SOL     OW33211   1.790   1.230   2.582  0.3157  0.2556 -0.0623
 7192SOL    HW133212   1.835   1.262   2.660  1.0540  0.6399 -0.6394
 7192SOL    HW233213   1.868   1.206   2.531 -0.0079 -1.2691  0.1513
 7193SOL     OW33214   1.148   4.481  13.529 -0.3167  0.1810  0.7091
 7193SOL    HW133215   1.192   4.566  13.517  0.7728 -0.7823 -1.9075
 7193SOL    HW233216   1.068   4.503  13.482  0.8712  1.4498 -0.7515
 7194SOL     OW33217   1.320   4.502   4.877  0.3145 -0.2862  0.3208
 7194SOL    HW133218   1.305   4.411   4.852 -3.2328  0.5103 -0.3782
 7194SOL    HW233219   1.373   4.536   4.806 -0.3483 -0.6472 -0.3414
 7195SOL     OW33220   3.770   4.576   8.604  0.0677  0.0419 -0.3453
 7195SOL    HW133221   3.784   4.558   8.697 -2.3783 -0.4638 -0.0800
 7195SOL    HW233222   3.860   4.597   8.582  0.1487 -0.1551 -0.2036
 7196SOL     OW33223   1.885   3.191   2.182 -0.5924  0.6919 -0.8101
 7196SOL    HW133224   1.799   3.174   2.143 -0.4035  1.4490 -1.5623
 7196SOL    HW233225   1.872   3.285   2.169 -1.0996  0.8242  0.6794
 7197SOL     OW33226   4.378   3.419   3.769 -0.2660 -0.0103  0.0099
 7197SOL    HW133227   4.354   3.492   3.712  0.4538 -0.0605 -0.3586
 7197SOL    HW233228   4.355   3.343   3.715  0.3877  0.8805 -1.5143
 7198SOL     OW33229   2.605   2.744   3.390  0.0640  0.2188 -0.1567
 7198SOL    HW133230   2.669   2.799   3.435 -0.7984  1.8931 -0.9872
 7198SOL    HW233231   2.578   2.683   3.458  1.1828  0.1579  0.2352
 7199SOL     OW33232   4.681   0.541   8.999 -0.0439 -0.1073  0.0581
 7199SOL    HW133233   0.031   0.559   9.038  0.0951 -1.1282  0.2267
 7199SOL    HW233234   4.657   0.452   9.026  1.0615 -1.0751 -2.1497
 7200SOL     OW33235   1.925   0.664   0.325  0.1452 -0.3763  0.3996
 7200SOL    HW133236   2.007   0.625   0.354 -0.7661 -3.6189 -1.3896
 7200SOL    HW233237   1.865   0.621   0.387 -0.6597 -0.7409 -0.6411
 7201SOL     OW33238   2.642   3.604   6.025 -0.0544  0.5463 -0.0489
 7201SOL    HW133239   2.632   3.513   6.054  0.4835  0.4669 -0.1039
 7201SOL    HW233240   2.550   3.628   6.017 -0.1373  0.3853  0.4433
 7202SOL     OW33241   0.732   2.728   2.802 -0.7507  0.4219  0.1017
 7202SOL    HW133242   0.780   2.677   2.737 -2.1207 -0.1053 -0.4876
 7202SOL    HW233243   0.650   2.755   2.760 -1.0370 -2.2654 -1.0414
 7203SOL     OW33244   2.734   3.416  13.811 -0.3009  0.3094 -0.2817
 7203SOL    HW133245   2.699   3.387  13.727  0.8633 -0.8798 -0.3734
 7203SOL    HW233246   2.692   3.365  13.881  0.6519 -1.6419 -1.1188
 7204SOL     OW33247   0.758   2.295  15.782 -0.0979 -0.1500 -0.2271
 7204SOL    HW133248   0.826   2.271  15.846  1.6212  2.2965 -1.1312
 7204SOL    HW233249   0.804   2.350  15.719  3.2938 -1.0804  1.3815
 7205SOL     OW33250   1.238   0.972  14.120  0.1600 -0.6291  0.2890
 7205SOL    HW133251   1.318   1.008  14.157 -0.9874  2.7842 -0.5429
 7205SOL    HW233252   1.187   1.042  14.081 -0.4320 -1.9504 -1.3144
 7206SOL     OW33253   0.314   4.442   7.676  0.2887  0.5529 -0.0322
 7206SOL    HW133254   0.302   4.508   7.744 -0.9625  1.0316 -0.7202
 7206SOL    HW233255   0.343   4.368   7.729  0.7756  1.7689  1.4287
 7207SOL     OW33256   2.013   0.600   9.832  0.4966 -0.4594 -0.2168
 7207SOL    HW133257   1.974   0.548   9.902 -0.6649  1.7305  0.7912
 7207SOL    HW233258   2.023   0.535   9.763  0.5738  0.2513 -0.8694
 7208SOL     OW33259   0.967   1.292   2.808  0.0241 -0.0995  0.0936
 7208SOL    HW133260   1.034   1.277   2.875  2.0514 -2.1781 -2.3887
 7208SOL    HW233261   0.883   1.311   2.849  0.1069 -0.8115  0.5971
 7209SOL     OW33262   3.039   1.213   4.782  0.9025  0.5958  0.1503
 7209SOL    HW133263   3.085   1.249   4.858  1.5659  1.2282 -0.5510
 7209SOL    HW233264   3.105   1.155   4.742 -2.0770 -2.1118 -0.8620
 7210SOL     OW33265   0.539   3.472   2.216  0.2381 -0.1409  0.4869
 7210SOL    HW133266   0.619   3.432   2.184 -0.5829  0.0949 -1.8200
 7210SOL    HW233267   0.565   3.553   2.260 -0.8089  1.2559 -1.4991
 7211SOL     OW33268   1.636   4.325   0.550 -0.2727 -0.0105 -0.5693
 7211SOL    HW133269   1.720   4.285   0.572 -0.5498  0.4531  1.2530
 7211SOL    HW233270   1.670   4.387   0.484  1.3944 -0.0847  0.2115
 7212SOL     OW33271   2.389   0.824  12.241  0.2544 -0.4896  0.1157
 7212SOL    HW133272   2.422   0.807  12.153 -0.4305 -0.8215 -0.0719
 7212SOL    HW233273   2.381   0.919  12.252  1.4584 -0.5301  1.4356
 7213SOL     OW33274   2.709   0.037   3.190  0.6099 -0.2420 -0.0685
 7213SOL    HW133275   2.731   0.129   3.179  0.3123 -0.0508  1.0066
 7213SOL    HW233276   2.629   0.025   3.138  0.6076  0.4039 -0.2041
 7214SOL     OW33277   3.976   1.385   5.868 -0.4188  0.1164  0.3619
 7214SOL    HW133278   4.011   1.320   5.806 -0.5370  0.9310 -0.5581
 7214SOL    HW233279   4.042   1.453   5.871  0.9866 -1.0937 -2.4872
 7215SOL     OW33280   4.684   4.249   5.177 -0.1926  0.0192  0.2528
 7215SOL    HW133281   4.592   4.235   5.197  0.2868 -1.0708  1.6901
 7215SOL    HW233282   4.716   4.161   5.157  1.3545  0.4258  0.9590
 7216SOL     OW33283   3.836   0.868   2.246 -0.0917  0.3165 -0.0168
 7216SOL    HW133284   3.874   0.941   2.197  0.3053 -0.3917 -0.7579
 7216SOL    HW233285   3.759   0.850   2.192  0.5698 -1.5921 -0.3053
 7217SOL     OW33286   0.924   1.247   1.932 -0.2879 -0.2061  0.2378
 7217SOL    HW133287   0.914   1.162   1.975 -1.2165 -1.6994 -2.9825
 7217SOL    HW233288   0.845   1.296   1.954  1.5883  2.8612  0.1644
 7218SOL     OW33289   2.121   2.960   0.638  0.0421  0.0050  0.0286
 7218SOL    HW133290   2.183   3.033   0.635 -0.3364  0.3269 -0.1116
 7218SOL    HW233291   2.111   2.932   0.547 -0.3929 -0.2939  0.1679
 7219SOL     OW33292   3.736   3.377  10.760 -0.4935  0.2412 -0.1737
 7219SOL    HW133293   3.680   3.394  10.836 -0.1681 -0.0704  0.1362
 7219SOL    HW233294   3.707   3.450  10.706  1.5863  0.3021 -1.2056
 7220SOL     OW33295   1.706   4.545   4.291  0.1684 -0.3080 -0.5966
 7220SOL    HW133296   1.649   4.478   4.328  2.7057 -1.2284  1.5939
 7220SOL    HW233297   1.792   4.521   4.325  0.0654 -0.6083 -0.5478
 7221SOL     OW33298   2.000   0.564   6.165 -0.2290  0.7072  0.2854
 7221SOL    HW133299   1.983   0.542   6.257 -0.1407 -0.6200 -0.0140
 7221SOL    HW233300   1.994   0.482   6.115  1.7039  0.0704  1.0894
 7222SOL     OW33301   1.211   4.429   6.145  0.2030 -0.0719  0.2662
 7222SOL    HW133302   1.150   4.495   6.178 -2.7878 -2.7187  0.0171
 7222SOL    HW233303   1.258   4.404   6.225  1.1378  0.3908 -0.1400
 7223SOL     OW33304   3.636   3.890   3.742  0.3814 -0.3890  0.1835
 7223SOL    HW133305   3.682   3.948   3.681 -1.6388 -0.7764 -1.6933
 7223SOL    HW233306   3.594   3.823   3.687  1.3046 -1.5796  0.9098
 7224SOL     OW33307   0.815   3.354  13.877 -0.9006 -0.1266  0.3570
 7224SOL    HW133308   0.735   3.354  13.826  0.6960  1.9956 -2.1495
 7224SOL    HW233309   0.804   3.263  13.904  2.5951 -0.8578 -0.6449
 7225SOL     OW33310   2.775   0.605   7.218 -0.4933  0.7597 -0.2798
 7225SOL    HW133311   2.710   0.562   7.164  1.0870  0.6845 -2.1215
 7225SOL    HW233312   2.733   0.600   7.304 -0.1704  1.9586 -0.0482
 7226SOL     OW33313   0.046   3.089   5.159 -0.1911 -0.1670  0.2357
 7226SOL    HW133314   0.122   3.031   5.165  0.5447  0.8529  0.7419
 7226SOL    HW233315   4.707   3.028   5.172 -0.5260  0.6094  1.9107
 7227SOL     OW33316   2.889   4.331  16.953  0.0812 -0.1908 -0.1818
 7227SOL    HW133317   2.917   4.371  16.871 -2.6045  1.2305 -0.4080
 7227SOL    HW233318   2.956   4.263  16.964  1.0334  0.8387  0.3838
 7228SOL     OW33319   1.453   3.546  11.830  0.4284 -0.5168  0.4396
 7228SOL    HW133320   1.357   3.552  11.833  0.4886 -0.1398  1.7712
 7228SOL    HW233321   1.470   3.640  11.832 -0.7139 -0.2794 -1.1080
 7229SOL     OW33322   1.845   2.986   3.513  0.8500  0.5848 -0.1951
 7229SOL    HW133323   1.846   3.077   3.484 -1.3812  0.4690 -0.6372
 7229SOL    HW233324   1.776   2.982   3.580  0.8594  4.1594  0.0196
 7230SOL     OW33325   4.030   2.521   7.000 -0.0345  0.4424 -0.2378
 7230SOL    HW133326   3.979   2.443   6.978  2.0888 -1.2351  0.8404
 7230SOL    HW233327   4.117   2.481   7.002  0.4893  1.6144  0.3851
 7231SOL     OW33328   2.405   3.690   0.026 -0.2329 -0.0806  0.5976
 7231SOL    HW133329   2.479   3.743   0.057  0.5923 -1.3742  0.8254
 7231SOL    HW233330   2.338   3.742   0.070 -2.0409 -0.0616 -2.1873
 7232SOL     OW33331   2.441   0.363   5.291  0.3578  0.2975  0.7658
 7232SOL    HW133332   2.442   0.358   5.195 -0.6484 -1.9223  0.8839
 7232SOL    HW233333   2.434   0.269   5.305  0.1834  0.4808  1.8602
 7233SOL     OW33334   4.137   1.628  10.893 -0.4487 -0.4982 -0.3112
 7233SOL    HW133335   4.120   1.718  10.865  0.0317  0.4147  2.3571
 7233SOL    HW233336   4.190   1.641  10.971  0.9918  2.0427 -1.6881
 7234SOL     OW33337   4.605   1.092  13.155  0.3983 -0.2120  0.3988
 7234SOL    HW133338   4.690   1.051  13.137  0.6085 -0.1288  1.2230
 7234SOL    HW233339   4.566   1.089  13.068 -0.1363  1.2832  0.5854
 7235SOL     OW33340   4.619   0.142   9.336 -0.6276 -0.1471 -0.3985
 7235SOL    HW133341   4.700   0.157   9.287 -0.2404  1.4614  0.7347
 7235SOL    HW233342   4.595   0.228   9.370 -1.1248 -0.4302 -0.0384
 7236SOL     OW33343   3.821   0.870  15.645 -0.0685 -0.1777 -0.0824
 7236SOL    HW133344   3.746   0.893  15.700  0.6003  2.9269 -0.5024
 7236SOL    HW233345   3.801   0.930  15.574  1.6491  0.4452 -0.0139
 7237SOL     OW33346   1.621   3.724   8.910 -0.1432 -0.1720  0.0085
 7237SOL    HW133347   1.685   3.787   8.878 -1.0424  1.1523  0.8425
 7237SOL    HW233348   1.650   3.705   8.999  0.6024 -1.4227 -0.5013
 7238SOL     OW33349   1.593   2.792   2.787 -0.0427 -0.1154 -0.0585
 7238SOL    HW133350   1.609   2.711   2.738 -0.5970 -0.4987  0.3937
 7238SOL    HW233351   1.659   2.848   2.747 -0.1571  1.2041  1.6060
 7239SOL     OW33352   3.977   0.645   1.726 -0.0315 -0.4320 -0.3007
 7239SOL    HW133353   4.014   0.708   1.665  1.1005 -1.5980 -0.8177
 7239SOL    HW233354   3.884   0.663   1.712 -0.3851 -0.9793  1.3660
 7240SOL     OW33355   4.413   2.510   6.831  0.2592 -0.8545  0.8810
 7240SOL    HW133356   4.435   2.494   6.923  1.4406 -0.2290  0.7061
 7240SOL    HW233357   4.430   2.604   6.829  1.2524 -1.0304  1.2172
 7241SOL     OW33358   1.623   3.744   5.860  0.0010 -0.2192 -0.1882
 7241SOL    HW133359   1.632   3.838   5.873 -2.9381  0.3673 -2.3252
 7241SOL    HW233360   1.528   3.747   5.846  0.0151  1.7428  0.2755
 7242SOL     OW33361   0.658   4.644  14.325  0.2246  0.2729 -0.1715
 7242SOL    HW133362   0.712   4.637  14.246  0.3001  1.3371 -0.2152
 7242SOL    HW233363   0.580   4.602  14.290 -0.3122  1.4123 -0.3570
 7243SOL     OW33364   1.802   4.226   3.284 -0.4560  0.0131  0.4673
 7243SOL    HW133365   1.866   4.224   3.356 -1.1840  2.4667  1.1634
 7243SOL    HW233366   1.779   4.135   3.266  4.2210 -1.3785  1.6426
 7244SOL     OW33367   1.778   1.064  14.962 -0.4011  0.3825  0.4637
 7244SOL    HW133368   1.841   1.124  14.920 -1.4647 -0.2906 -2.1329
 7244SOL    HW233369   1.704   1.079  14.903 -1.7757 -0.6572  1.9556
 7245SOL     OW33370   0.024   2.453   6.564  0.2259  0.1255  0.0411
 7245SOL    HW133371   0.086   2.501   6.510  0.3988  0.2224  0.3235
 7245SOL    HW233372   0.081   2.418   6.633  0.4989 -0.1832 -0.3407
 7246SOL     OW33373   3.427   3.331  14.659  0.0611  0.0939 -0.0575
 7246SOL    HW133374   3.428   3.241  14.627 -1.1027  0.2647 -0.5603
 7246SOL    HW233375   3.504   3.371  14.620  0.0434  0.7742  0.6079
 7247SOL     OW33376   1.558   0.980   5.432 -0.4527 -0.8368  0.1996
 7247SOL    HW133377   1.532   1.006   5.521 -2.1161  1.1627 -0.8847
 7247SOL    HW233378   1.470   0.959   5.400  0.2926 -1.3927 -1.4867
 7248SOL     OW33379   2.917   3.298  16.112  1.0304  0.0998 -0.4230
 7248SOL    HW133380   2.988   3.303  16.048  2.4151  0.2819  1.1581
 7248SOL    HW233381   2.937   3.212  16.149 -1.5946 -0.4838 -0.3340
 7249SOL     OW33382   2.736   1.715   6.237  0.1735 -0.4098  0.8267
 7249SOL    HW133383   2.685   1.750   6.310  0.6378  2.8086 -0.4045
 7249SOL    HW233384   2.663   1.705   6.176  0.4888  0.4443  0.3086
 7250SOL     OW33385   3.842   1.440   0.306  0.4443  0.2782 -0.3721
 7250SOL    HW133386   3.828   1.394   0.388 -0.1050 -1.8300 -1.6512
 7250SOL    HW233387   3.768   1.501   0.308 -0.2985 -0.5881 -1.4310
 7251SOL     OW33388   4.040   4.716   7.860  0.2590 -0.6281 -0.0271
 7251SOL    HW133389   3.992   4.697   7.940 -0.6785  1.0464 -0.1786
 7251SOL    HW233390   4.045   4.631   7.817  2.1798 -0.0436 -0.9587
 7252SOL     OW33391   2.268   4.249   8.453  0.4019  0.0004  0.7339
 7252SOL    HW133392   2.229   4.307   8.388  2.1992  1.2760  0.8076
 7252SOL    HW233393   2.360   4.272   8.449  0.7802 -1.3009  1.9391
 7253SOL     OW33394   0.443   0.650   8.632  0.0416 -0.6511  0.1248
 7253SOL    HW133395   0.518   0.703   8.606  0.0462 -0.1410  1.1491
 7253SOL    HW233396   0.381   0.681   8.567 -0.6828 -1.0797  0.6097
 7254SOL     OW33397   3.764   4.029   9.145  0.1780 -0.6061 -0.0693
 7254SOL    HW133398   3.791   4.023   9.054 -0.6044 -0.7168 -0.2927
 7254SOL    HW233399   3.837   4.082   9.178  2.0099 -2.1719 -1.5937
 7255SOL     OW33400   0.844   4.294   5.620  0.8498  0.2476 -0.3589
 7255SOL    HW133401   0.874   4.295   5.529  0.7573 -0.6764 -0.3970
 7255SOL    HW233402   0.792   4.374   5.620  0.7715  0.1951  1.4581
 7256SOL     OW33403   2.996   2.859   9.758 -0.2623  0.1542  0.4237
 7256SOL    HW133404   3.047   2.916   9.815  1.5347 -0.0151 -1.0092
 7256SOL    HW233405   2.910   2.885   9.790  0.9017  2.7531  1.4621
 7257SOL     OW33406   4.192   0.792   9.288  0.5302  0.3629  0.7731
 7257SOL    HW133407   4.210   0.751   9.203 -1.4073 -0.6271  0.8381
 7257SOL    HW233408   4.100   0.817   9.272  0.3600 -1.4062 -1.0037
 7258SOL     OW33409   0.165   1.158  13.292 -0.4895 -0.5774  0.0210
 7258SOL    HW133410   0.234   1.222  13.309 -1.8671  0.4071  1.8207
 7258SOL    HW233411   0.211   1.086  13.249  0.6348 -0.1318  0.4663
 7259SOL     OW33412   3.930   2.972  11.732  0.6910 -0.0438  0.1614
 7259SOL    HW133413   3.872   2.986  11.807  0.5102 -0.0341  0.0174
 7259SOL    HW233414   3.901   3.047  11.680  1.5973 -1.0833 -1.8289
 7260SOL     OW33415   3.202   4.352   8.404  0.3286  0.7902 -0.2854
 7260SOL    HW133416   3.208   4.373   8.311  0.2651  0.7814 -0.2914
 7260SOL    HW233417   3.172   4.434   8.443 -0.7571 -0.4898  1.5655
 7261SOL     OW33418   3.784   0.629  14.028 -0.0332 -0.2694  0.1440
 7261SOL    HW133419   3.784   0.723  14.011 -2.5222 -0.1455  0.8997
 7261SOL    HW233420   3.795   0.627  14.123 -0.1542 -1.1140  0.1371
 7262SOL     OW33421   2.295   2.986   3.016 -0.3444  0.1355  0.2343
 7262SOL    HW133422   2.209   2.944   3.026 -1.4971  1.5968 -3.2392
 7262SOL    HW233423   2.351   2.942   3.079  2.9628  2.1553 -1.2677
 7263SOL     OW33424   0.060   1.841  16.646 -0.3593  0.1930  0.9810
 7263SOL    HW133425   4.727   1.821  16.582 -0.6695  0.1181  1.3307
 7263SOL    HW233426   0.107   1.901  16.588 -0.6559  0.1730  0.7196
 7264SOL     OW33427   0.775   2.427   8.002  1.0673 -0.5068  0.2673
 7264SOL    HW133428   0.713   2.405   7.932  0.5955  1.4027  0.0926
 7264SOL    HW233429   0.715   2.468   8.064 -0.0280 -0.0506 -1.0851
 7265SOL     OW33430   2.160   1.873   5.428 -0.0480  0.0885 -0.5254
 7265SOL    HW133431   2.218   1.934   5.381  0.3399 -0.1179 -0.3107
 7265SOL    HW233432   2.086   1.919   5.389 -2.0002 -1.2438  1.6276
 7266SOL     OW33433   1.490   2.356   2.016 -0.1907 -0.0444  0.4631
 7266SOL    HW133434   1.483   2.294   1.944 -1.1724  2.6721 -1.8072
 7266SOL    HW233435   1.411   2.409   2.007 -0.1156 -0.2796 -1.4120
 7267SOL     OW33436   1.410   2.973   9.507  0.5988  0.5012  0.0401
 7267SOL    HW133437   1.489   2.993   9.557  0.9874 -0.2338 -0.2780
 7267SOL    HW233438   1.352   2.947   9.579  0.5738  2.5241  0.7513
 7268SOL     OW33439   0.345   1.619  13.355 -0.1665  0.1000  0.1521
 7268SOL    HW133440   0.345   1.538  13.405  0.9876  1.2312  1.9802
 7268SOL    HW233441   0.375   1.684  13.418  4.7413 -1.0361 -1.0273
 7269SOL     OW33442   1.701   3.119   5.285  0.0892 -0.5474 -0.0383
 7269SOL    HW133443   1.725   3.145   5.195 -2.7932 -0.8460 -0.8785
 7269SOL    HW233444   1.752   3.175   5.344 -0.8422  1.6206 -1.3109
 7270SOL     OW33445   3.679   1.732   9.434  0.6242 -0.2366  0.0574
 7270SOL    HW133446   3.602   1.676   9.423  1.7182 -1.6531 -0.5081
 7270SOL    HW233447   3.753   1.701   9.382 -0.7452 -2.8396 -0.3538
 7271SOL     OW33448   3.345   1.231   2.954 -0.2985  0.0597 -0.1319
 7271SOL    HW133449   3.279   1.295   2.981 -1.5400 -1.0522 -0.5321
 7271SOL    HW233450   3.292   1.152   2.944 -0.5590  0.3270 -0.8689
 7272SOL     OW33451   2.026   2.057  11.484 -0.2281  0.0866  0.3269
 7272SOL    HW133452   2.037   1.963  11.471 -0.4912  0.5310 -3.0784
 7272SOL    HW233453   2.040   2.052  11.579 -1.2710 -0.2675  0.4612
 7273SOL     OW33454   3.804   1.412  12.223  0.3832 -0.4874  0.4650
 7273SOL    HW133455   3.743   1.437  12.293 -3.0805 -1.6583 -2.1794
 7273SOL    HW233456   3.885   1.435  12.269  0.3713  0.9836 -0.2532
 7274SOL     OW33457   0.053   2.410   9.118  0.0423  0.0510  0.1842
 7274SOL    HW133458   0.061   2.498   9.156 -1.3773 -0.1530  0.9593
 7274SOL    HW233459   0.105   2.419   9.038 -0.1574  2.1856  0.2813
 7275SOL     OW33460   3.236   4.641   5.612 -0.4424  0.7077 -0.2105
 7275SOL    HW133461   3.150   4.652   5.653 -0.0325  2.1513  0.2698
 7275SOL    HW233462   3.264   4.560   5.655  2.0235  1.0967 -1.0672
 7276SOL     OW33463   3.668   2.849  17.678 -0.4030 -0.9079  0.6759
 7276SOL    HW133464   3.648   2.940  17.701  0.5123 -0.8469  1.1954
 7276SOL    HW233465   3.690   2.859  17.585  0.6853  0.4003  1.0805
 7277SOL     OW33466   2.556   0.158   6.234  0.2868 -0.1979  0.3187
 7277SOL    HW133467   2.463   0.157   6.211  0.8151 -0.8794 -1.7787
 7277SOL    HW233468   2.555   0.089   6.300  0.3055 -1.6199 -1.1641
 7278SOL     OW33469   2.433   2.254  12.626  0.1275  0.1574  0.3562
 7278SOL    HW133470   2.464   2.335  12.665  1.4137 -0.1129 -0.1072
 7278SOL    HW233471   2.411   2.285  12.539  2.4895 -0.3348 -0.4203
 7279SOL     OW33472   2.819   0.285   8.904  0.1087 -0.0250 -0.5288
 7279SOL    HW133473   2.725   0.296   8.914 -0.0057 -3.0479  1.7014
 7279SOL    HW233474   2.850   0.227   8.974 -0.9245  0.3553  0.2488
 7280SOL     OW33475   1.955   0.918  15.511  0.3534 -0.2718 -0.1056
 7280SOL    HW133476   2.019   0.915  15.582 -1.6421  1.0159  1.7755
 7280SOL    HW233477   1.896   0.844  15.530 -1.4891  0.8594 -1.3623
 7281SOL     OW33478   2.661   2.421   0.684  0.5512  0.4161  0.4485
 7281SOL    HW133479   2.627   2.361   0.751 -2.3722  0.9459 -0.5595
 7281SOL    HW233480   2.585   2.421   0.626  2.5529 -0.6956 -2.1206
 7282SOL     OW33481   1.615   3.385   5.272 -0.2691 -0.1900 -0.3373
 7282SOL    HW133482   1.548   3.351   5.332 -1.5020  0.6532 -1.2364
 7282SOL    HW233483   1.656   3.449   5.329 -0.4971  0.0791 -0.4726
 7283SOL     OW33484   2.574   1.425  11.115  0.1915 -0.3530 -0.7167
 7283SOL    HW133485   2.644   1.482  11.145 -0.1017 -0.6449  0.5238
 7283SOL    HW233486   2.498   1.464  11.158  1.3386  1.0588  0.0002
 7284SOL     OW33487   4.003   2.911  14.056 -0.8567 -0.2061  0.1836
 7284SOL    HW133488   4.013   2.998  14.093  0.7229  0.3664 -1.5775
 7284SOL    HW233489   4.076   2.902  13.994 -0.3887  0.7966  0.5965
 7285SOL     OW33490   1.869   3.764  11.086 -0.3455 -0.2355  1.2788
 7285SOL    HW133491   1.901   3.819  11.015 -1.8255  0.6124  1.2569
 7285SOL    HW233492   1.933   3.693  11.085 -0.9492 -0.7428 -0.8889
 7286SOL     OW33493   3.183   3.640  11.107  0.0235  0.2077 -0.4350
 7286SOL    HW133494   3.177   3.622  11.014 -0.0488 -1.7815 -0.0305
 7286SOL    HW233495   3.230   3.560  11.128  0.1215 -0.0109 -1.5227
 7287SOL     OW33496   2.156   3.179   5.268 -0.4951 -0.1002  0.1481
 7287SOL    HW133497   2.179   3.271   5.253  0.7470 -0.7175 -1.6758
 7287SOL    HW233498   2.153   3.158   5.175  2.6416  1.5296 -0.3344
 7288SOL     OW33499   3.860   0.680  14.272  0.6738  0.1031  0.0816
 7288SOL    HW133500   3.840   0.707  14.362  2.1204  0.5867  0.2665
 7288SOL    HW233501   3.950   0.654  14.289  1.1550  2.4629  1.1891
 7289SOL     OW33502   2.846   3.555   7.299 -0.0203  0.4234 -0.0803
 7289SOL    HW133503   2.875   3.610   7.226 -0.9718 -0.0431 -0.8212
 7289SOL    HW233504   2.852   3.465   7.268  2.0462  0.1223  1.2520
 7290SOL     OW33505   4.564   4.140   5.457 -0.6513 -0.2240  0.5346
 7290SOL    HW133506   4.543   4.155   5.365  1.4639 -0.5828  0.0023
 7290SOL    HW233507   4.480   4.170   5.493  0.4478  0.3534  2.6289
 7291SOL     OW33508   0.467   2.647   0.657 -0.4623  0.8266 -0.1531
 7291SOL    HW133509   0.395   2.698   0.693 -0.5124  0.6249  0.0319
 7291SOL    HW233510   0.511   2.619   0.737  1.5850  0.2661 -1.4739
 7292SOL     OW33511   1.187   0.869   9.373 -0.0211  0.3507  0.0210
 7292SOL    HW133512   1.261   0.930   9.359 -0.3520 -0.0430 -3.4741
 7292SOL    HW233513   1.122   0.913   9.318  2.4762  0.1523 -3.1458
 7293SOL     OW33514   0.098   1.937   8.747 -0.3107 -0.4570  0.0595
 7293SOL    HW133515   0.030   1.871   8.763 -0.1806 -0.3924  0.8924
 7293SOL    HW233516   0.060   1.976   8.668  2.8443 -0.4522 -1.4451
 7294SOL     OW33517   0.652   0.216   8.644 -0.1774  0.4433  0.0927
 7294SOL    HW133518   0.587   0.280   8.675  0.1669  1.1724 -0.6839
 7294SOL    HW233519   0.695   0.268   8.576 -0.6539 -1.1382 -1.4338
 7295SOL     OW33520   3.590   1.965   3.533  0.5228  0.1896  0.1728
 7295SOL    HW133521   3.498   1.981   3.510  1.1631  1.9871 -1.2373
 7295SOL    HW233522   3.621   1.919   3.455  0.0612 -0.2283  0.2335
 7296SOL     OW33523   3.761   3.497   1.364 -0.5486 -0.6189 -0.5271
 7296SOL    HW133524   3.790   3.495   1.273  1.3015 -0.4165  0.0698
 7296SOL    HW233525   3.800   3.413   1.390 -0.0411  0.0161  0.7682
 7297SOL     OW33526   1.150   0.263   7.342 -0.1340  0.1500 -0.6127
 7297SOL    HW133527   1.224   0.324   7.348  0.9694 -1.2043 -0.3683
 7297SOL    HW233528   1.129   0.254   7.434  1.7244  0.0295 -0.1984
 7298SOL     OW33529   3.463   1.610  13.164 -0.3873  0.2335 -0.3487
 7298SOL    HW133530   3.432   1.673  13.099 -1.9697  0.7990  0.9441
 7298SOL    HW233531   3.469   1.529  13.114  0.4969 -1.9384  3.2605
 7299SOL     OW33532   4.327   3.752   6.180  0.0666 -0.1795  0.4775
 7299SOL    HW133533   4.372   3.732   6.098 -0.0717 -2.0426  0.8698
 7299SOL    HW233534   4.245   3.706   6.163 -1.3504  1.7266  2.1658
 7300SOL     OW33535   2.627   3.326  13.297  0.0987  0.3543  0.6055
 7300SOL    HW133536   2.684   3.351  13.370 -1.3181  0.0375  1.8128
 7300SOL    HW233537   2.571   3.403  13.287 -1.4659 -0.9636 -0.7328
 7301SOL     OW33538   3.586   1.273   7.822  0.5691 -0.3293  0.2166
 7301SOL    HW133539   3.576   1.314   7.735  3.9923  0.6262  0.2849
 7301SOL    HW233540   3.526   1.199   7.814 -3.7037  3.2926 -1.3894
 7302SOL     OW33541   0.624   3.052   5.464  0.0669  0.2595  0.2954
 7302SOL    HW133542   0.563   3.121   5.490 -2.1017 -1.2939 -0.6320
 7302SOL    HW233543   0.578   2.979   5.507  1.4369 -0.0976  1.1479
 7303SOL     OW33544   0.477   0.152  14.738 -0.6269 -0.1415  0.5891
 7303SOL    HW133545   0.454   0.062  14.759 -2.4233 -0.4098 -2.3850
 7303SOL    HW233546   0.548   0.135  14.677 -1.5770 -3.0401  0.2922
 7304SOL     OW33547   0.041   3.789   5.723 -0.3394 -0.1861 -0.5518
 7304SOL    HW133548   4.718   3.822   5.792  1.1038 -1.3149  1.1920
 7304SOL    HW233549   0.128   3.805   5.760  0.2325  0.4646 -2.1871
 7305SOL     OW33550   1.919   1.498  12.644 -0.7251 -0.7455  0.1264
 7305SOL    HW133551   1.887   1.537  12.726  1.4851 -0.6234  0.9385
 7305SOL    HW233552   1.992   1.453  12.687  0.9051  2.1396  0.3805
 7306SOL     OW33553   4.222   1.065   2.299  0.1023 -0.0203 -0.4678
 7306SOL    HW133554   4.273   1.061   2.380  0.7703 -3.2716 -1.0715
 7306SOL    HW233555   4.140   1.097   2.336  0.3423 -0.2248  0.2333
 7307SOL     OW33556   2.113   2.605  14.605  0.0337 -0.3171  0.1179
 7307SOL    HW133557   2.118   2.633  14.696  0.5908  3.4625 -1.0779
 7307SOL    HW233558   2.206   2.589  14.588  0.8588  2.5619  2.0235
 7308SOL     OW33559   0.289   3.031   3.724  0.0818 -0.1074  0.7846
 7308SOL    HW133560   0.362   3.023   3.785  0.4567 -0.1536  0.3311
 7308SOL    HW233561   0.271   3.125   3.730 -0.5404 -0.2407  1.0090
 7309SOL     OW33562   0.411   0.086   5.462 -0.4454 -0.1230  0.0413
 7309SOL    HW133563   0.335   0.132   5.498 -0.1290  1.9058 -1.8455
 7309SOL    HW233564   0.377   0.004   5.427  0.8824 -0.8491  0.4442
 7310SOL     OW33565   0.167   0.296   8.563  0.0138  0.3344 -0.2032
 7310SOL    HW133566   0.148   0.389   8.561  1.9648  0.7577  0.8834
 7310SOL    HW233567   0.100   0.270   8.499  1.1383 -1.0067 -0.8404
 7311SOL     OW33568   3.791   3.841   2.956 -0.4429  0.4363  0.6105
 7311SOL    HW133569   3.722   3.869   3.015 -0.0417  3.7461 -0.4607
 7311SOL    HW233570   3.746   3.771   2.910 -0.1241  0.3115  0.4839
 7312SOL     OW33571   3.003   3.010  11.012 -0.3540  0.0284  0.3975
 7312SOL    HW133572   3.049   2.961  10.945 -1.5732 -0.6331  0.0315
 7312SOL    HW233573   2.983   3.096  10.976 -0.9701  0.5005  1.8497
 7313SOL     OW33574   4.334   3.183  16.350  0.3999 -0.2943 -0.2277
 7313SOL    HW133575   4.310   3.258  16.295  3.2307  0.8477  0.0903
 7313SOL    HW233576   4.322   3.106  16.294 -0.1603 -1.8864  2.1178
 7314SOL     OW33577   1.033   1.522  13.902  0.0609 -0.1049 -0.4028
 7314SOL    HW133578   0.970   1.520  13.831  0.2864  0.1786 -0.6104
 7314SOL    HW233579   1.110   1.521  13.844  1.1814  0.5309  1.0560
 7315SOL     OW33580   2.822   2.443  14.767 -0.4840  0.2270  0.1094
 7315SOL    HW133581   2.904   2.395  14.773 -0.6673 -0.2410 -1.2155
 7315SOL    HW233582   2.866   2.520  14.732 -0.7058  0.4891  0.3963
 7316SOL     OW33583   4.200   0.474   2.414  0.0839  0.4799  0.2100
 7316SOL    HW133584   4.222   0.548   2.470 -0.6657  1.5635 -0.9269
 7316SOL    HW233585   4.145   0.425   2.474  2.0260  2.3439  3.5370
 7317SOL     OW33586   4.629   4.014  11.084 -0.1614  0.2120 -0.6101
 7317SOL    HW133587   4.623   3.991  11.177  1.2810  1.0878 -0.3026
 7317SOL    HW233588   4.613   4.108  11.076  0.0712  0.4021  1.1410
 7318SOL     OW33589   1.998   3.177  13.151  0.4291  0.0905 -0.5656
 7318SOL    HW133590   2.084   3.183  13.191  1.0713  0.7760 -2.0450
 7318SOL    HW233591   2.018   3.205  13.061  1.1469  2.2654  0.2567
 7319SOL     OW33592   0.723   0.362   3.465  0.2841 -0.1947 -0.7046
 7319SOL    HW133593   0.720   0.456   3.484 -2.2025 -0.0814 -1.7037
 7319SOL    HW233594   0.640   0.349   3.419 -0.1252  1.5356 -0.4642
 7320SOL     OW33595   3.645   2.002   9.454  0.2475  0.0738  0.3381
 7320SOL    HW133596   3.669   1.909   9.454  1.7427  0.4638  0.0675
 7320SOL    HW233597   3.627   2.014   9.547 -0.3314 -1.2809  0.3936
 7321SOL     OW33598   2.179   0.230  11.024 -0.3484 -0.4718 -0.0846
 7321SOL    HW133599   2.117   0.298  10.997 -0.6536 -1.0215 -0.7607
 7321SOL    HW233600   2.164   0.173  10.949 -1.7991 -0.4772  0.2181
 7322SOL     OW33601   0.562   1.554   7.452  0.2289  0.0252  0.0963
 7322SOL    HW133602   0.538   1.461   7.452 -1.1711  0.3847 -0.6039
 7322SOL    HW233603   0.656   1.537   7.449  0.5115  1.6008  0.1889
 7323SOL     OW33604   0.858   1.020   2.762  0.1056 -0.0860  0.0405
 7323SOL    HW133605   0.900   1.105   2.751 -1.5894  0.5108 -1.9502
 7323SOL    HW233606   0.902   0.983   2.838  1.0523 -1.6270 -1.2649
 7324SOL     OW33607   1.099   2.889   0.600 -0.2404  0.2897 -0.5009
 7324SOL    HW133608   1.068   2.928   0.682  1.2044 -1.4081  0.8235
 7324SOL    HW233609   1.068   2.800   0.615 -2.1364  1.0556  0.1650
 7325SOL     OW33610   1.948   0.254   0.591 -0.1676  0.2970 -0.5888
 7325SOL    HW133611   1.926   0.207   0.672 -0.5777 -2.3488 -2.2648
 7325SOL    HW233612   2.042   0.259   0.607  0.1761 -1.8182 -2.0542
 7326SOL     OW33613   4.249   2.648  17.720  0.3347 -0.3839  0.4608
 7326SOL    HW133614   4.165   2.693  17.713  2.4161  3.3061 -1.0609
 7326SOL    HW233615   4.239   2.599   0.065 -1.9395 -0.2735  0.2328
 7327SOL     OW33616   2.208   2.663  12.183  0.3429 -0.1071 -0.3253
 7327SOL    HW133617   2.230   2.573  12.162  0.6714 -0.0252 -0.3354
 7327SOL    HW233618   2.296   2.696  12.203  0.8302  0.1533 -2.9358
 7328SOL     OW33619   3.138   1.373   7.744  0.0745 -0.2448  0.1095
 7328SOL    HW133620   3.051   1.349   7.715 -0.2425  1.9043 -0.7064
 7328SOL    HW233621   3.186   1.298   7.709 -1.4940 -0.8969 -0.6059
 7329SOL     OW33622   2.117   2.060   4.918 -0.1665  0.0333  0.3640
 7329SOL    HW133623   2.117   1.976   4.871  0.4581  0.7860 -0.9860
 7329SOL    HW233624   2.209   2.059   4.942 -0.2249  1.8137  0.6217
 7330SOL     OW33625   1.269   4.551   0.047 -0.4706  0.2430 -0.8578
 7330SOL    HW133626   1.198   4.571   0.107  0.8185 -2.0240  1.4329
 7330SOL    HW233627   1.241   4.484  17.721  1.9640 -0.5304 -1.1286
 7331SOL     OW33628   2.239   1.274   1.146 -0.2842 -0.5868 -0.2824
 7331SOL    HW133629   2.210   1.266   1.055 -0.4323  0.7593 -0.3475
 7331SOL    HW233630   2.151   1.264   1.183 -0.2134  0.2214  0.0887
 7332SOL     OW33631   2.365   1.617   3.504 -0.5415 -0.1396 -0.4192
 7332SOL    HW133632   2.297   1.635   3.569 -0.6415  1.0881 -0.8663
 7332SOL    HW233633   2.354   1.522   3.505  1.0852 -0.3112  1.4892
 7333SOL     OW33634   0.981   3.991   6.173  0.3439  0.0707  0.1362
 7333SOL    HW133635   0.973   3.907   6.219  1.1469  1.1673  2.2844
 7333SOL    HW233636   1.046   4.028   6.233  1.3177 -3.0232  0.9850
 7334SOL     OW33637   0.830   1.485  14.587 -0.1389 -0.6650 -0.0114
 7334SOL    HW133638   0.737   1.465  14.588 -0.4522  0.7661 -1.2309
 7334SOL    HW233639   0.828   1.573  14.551  1.6721 -1.0101 -0.9690
 7335SOL     OW33640   3.558   2.272  16.098 -0.1692 -0.1697  0.0519
 7335SOL    HW133641   3.584   2.260  16.190 -1.5650 -0.0395  0.4628
 7335SOL    HW233642   3.469   2.296  16.123 -0.9281 -2.2285 -0.6734
 7336SOL     OW33643   2.984   2.593   6.582 -0.0343 -0.6712 -0.0308
 7336SOL    HW133644   3.020   2.504   6.589  1.1601 -0.0658  1.4074
 7336SOL    HW233645   3.048   2.642   6.633 -0.0800 -1.1493  0.4835
 7337SOL     OW33646   4.626   3.194  17.431 -0.2846  0.2504 -0.3271
 7337SOL    HW133647   4.633   3.101  17.451  1.3732  0.2315 -0.9401
 7337SOL    HW233648   4.678   3.203  17.351  0.3328  3.0954  0.4002
 7338SOL     OW33649   1.916   2.839   7.036  0.2493 -0.1899 -0.4206
 7338SOL    HW133650   1.989   2.899   7.051 -1.3849  1.7036  0.0411
 7338SOL    HW233651   1.888   2.874   6.951 -1.5663  0.0252  0.2769
 7339SOL     OW33652   4.581   3.345   5.508 -0.2523  0.5163  0.2059
 7339SOL    HW133653   4.676   3.346   5.513 -0.3125 -0.5777  1.6637
 7339SOL    HW233654   4.565   3.276   5.572  1.2650 -0.3179 -0.3294
 7340SOL     OW33655   1.855   2.063   7.434  0.2024  0.0151  0.0858
 7340SOL    HW133656   1.845   2.142   7.487  0.9930 -0.4909  0.9716
 7340SOL    HW233657   1.930   2.021   7.476  0.5728  3.3426  2.7651
 7341SOL     OW33658   4.164   3.809  15.197  0.1861  0.4864  0.2116
 7341SOL    HW133659   4.218   3.732  15.215  0.8161  1.1022  0.9254
 7341SOL    HW233660   4.073   3.780  15.198  0.2406  0.4385  2.3179
 7342SOL     OW33661   0.085   2.463   7.028  0.1155  0.3519  0.2860
 7342SOL    HW133662   0.007   2.519   7.034 -0.3498 -0.6367  3.3365
 7342SOL    HW233663   0.095   2.436   7.120 -2.0192 -0.4151  0.2784
 7343SOL     OW33664   0.610   0.961   7.560 -0.3792 -0.0272 -0.3611
 7343SOL    HW133665   0.636   0.923   7.476 -1.0948  3.3444 -2.0981
 7343SOL    HW233666   0.579   1.046   7.530  1.9003  0.2715 -1.8255
 7344SOL     OW33667   0.390   2.227  13.903  0.9416 -0.0655 -0.4659
 7344SOL    HW133668   0.295   2.214  13.902  1.0432 -0.8930  0.9507
 7344SOL    HW233669   0.393   2.309  13.953  2.8908  0.0734 -0.8209
 7345SOL     OW33670   4.379   3.781  11.273  0.2441 -0.6686 -0.9518
 7345SOL    HW133671   4.395   3.687  11.257 -2.5249 -1.1171 -1.0408
 7345SOL    HW233672   4.468   3.814  11.284 -0.3369  1.0520 -1.3602
 7346SOL     OW33673   2.369   3.269  11.222  0.1308  0.1762 -0.0959
 7346SOL    HW133674   2.390   3.181  11.192  1.9430  1.1678 -1.7832
 7346SOL    HW233675   2.436   3.271  11.290  0.1706 -0.8562 -0.1066
 7347SOL     OW33676   0.349   4.721   2.349 -0.2332 -0.0822  0.3756
 7347SOL    HW133677   0.382   0.076   2.348  1.4713 -0.7217  0.4960
 7347SOL    HW233678   0.266   0.000   2.395 -0.3307 -2.0789  0.7984
 7348SOL     OW33679   3.540   4.636   5.009 -0.6492  0.1460 -0.0083
 7348SOL    HW133680   3.476   4.679   4.952  0.9958 -0.1026 -2.0793
 7348SOL    HW233681   3.505   4.667   5.092  0.9511  1.0788  0.3293
 7349SOL     OW33682   2.823   1.093   8.452  0.1393 -0.4774 -0.0554
 7349SOL    HW133683   2.871   1.171   8.426 -1.5622  1.2195  1.8810
 7349SOL    HW233684   2.743   1.094   8.399  0.2759 -1.3657 -0.2804
 7350SOL     OW33685   4.129   0.285   8.361 -0.2930 -0.2799 -0.1766
 7350SOL    HW133686   4.147   0.242   8.444 -1.0014  1.4296  0.8646
 7350SOL    HW233687   4.215   0.270   8.320 -0.0082  1.7140 -0.3404
 7351SOL     OW33688   0.166   1.131   0.869  0.2902  0.2730 -0.4355
 7351SOL    HW133689   0.112   1.201   0.905 -0.9268  0.9010 -3.4761
 7351SOL    HW233690   0.223   1.179   0.809  0.9261 -1.0335 -0.8717
 7352SOL     OW33691   4.425   0.611   3.974  0.6802  0.5947 -0.1705
 7352SOL    HW133692   4.348   0.555   3.983  1.3048 -0.2545 -0.1028
 7352SOL    HW233693   4.386   0.691   3.939 -2.1741 -0.1990  1.2477
 7353SOL     OW33694   0.561   3.367  12.864 -0.7367 -0.4939 -0.0260
 7353SOL    HW133695   0.554   3.277  12.896 -0.6415  0.0748  1.5951
 7353SOL    HW233696   0.517   3.419  12.931 -0.2970  1.3504 -1.1580
 7354SOL     OW33697   3.985   2.140   4.244  0.0747 -0.3737  0.1193
 7354SOL    HW133698   4.074   2.103   4.246  0.1423 -0.2801 -2.0352
 7354SOL    HW233699   4.020   2.226   4.220 -3.7938  0.8266 -1.1149
 7355SOL     OW33700   2.662   2.351   3.026  0.1817  0.0076  0.2319
 7355SOL    HW133701   2.716   2.317   2.954  2.0327 -1.4851  2.3664
 7355SOL    HW233702   2.577   2.308   3.018 -0.8630  1.4428  3.7920
 7356SOL     OW33703   4.602   1.394   7.460  0.0290  0.0452 -0.3464
 7356SOL    HW133704   4.695   1.385   7.442  0.3473  1.0450  0.7918
 7356SOL    HW233705   4.596   1.489   7.449 -0.9956  0.0312  0.0963
 7357SOL     OW33706   4.049   0.936  10.773 -0.0792  0.1272  0.4932
 7357SOL    HW133707   4.008   0.991  10.840  1.2229  1.5832  0.1100
 7357SOL    HW233708   4.128   0.986  10.751  0.2051 -1.1542 -1.3294
 7358SOL     OW33709   4.360   2.486   3.518  0.9212  0.5074 -0.1826
 7358SOL    HW133710   4.330   2.475   3.428  1.2665 -3.2055  0.1543
 7358SOL    HW233711   4.351   2.581   3.525  2.6179  0.7912 -2.0475
 7359SOL     OW33712   0.435   3.733   7.493  0.1085  0.9056  0.5368
 7359SOL    HW133713   0.435   3.717   7.399 -1.8172 -0.4057  0.7711
 7359SOL    HW233714   0.492   3.810   7.500 -0.8890  1.5981  0.9731
 7360SOL     OW33715   1.046   4.392  11.403 -0.4729  0.7868 -0.0249
 7360SOL    HW133716   1.067   4.469  11.351 -1.3884  1.1455  0.1372
 7360SOL    HW233717   1.076   4.421  11.490 -2.4953  2.0198  0.2478
 7361SOL     OW33718   0.692   4.357  14.604 -0.1747  0.3889 -0.0567
 7361SOL    HW133719   0.664   4.347  14.514  1.9470  0.0637 -0.6772
 7361SOL    HW233720   0.640   4.296  14.656  0.0779  1.6825  1.7450
 7362SOL     OW33721   2.551   0.508  11.644  0.2340 -0.1208 -0.2121
 7362SOL    HW133722   2.467   0.549  11.667  0.7990  1.9782 -1.8866
 7362SOL    HW233723   2.554   0.424  11.689 -0.0427  0.4367  0.8521
 7363SOL     OW33724   3.814   2.563   6.434 -0.2866 -0.4161 -0.5010
 7363SOL    HW133725   3.889   2.603   6.390  1.2081  0.5252  2.8714
 7363SOL    HW233726   3.804   2.485   6.379 -2.1908 -0.5054 -0.0233
 7364SOL     OW33727   4.352   4.226   8.377  0.1007 -0.3295  0.1778
 7364SOL    HW133728   4.421   4.211   8.312 -1.0658 -3.1519 -0.4327
 7364SOL    HW233729   4.398   4.258   8.455  1.3109 -2.0323  0.1652
 7365SOL     OW33730   2.221   3.267   5.810  0.2071 -0.1578  0.0587
 7365SOL    HW133731   2.268   3.341   5.770  0.0628 -0.2016 -0.1903
 7365SOL    HW233732   2.148   3.310   5.854  0.5524  0.9631 -0.4475
 7366SOL     OW33733   0.029   2.622   7.854  0.3106 -0.2395  0.5989
 7366SOL    HW133734   0.007   2.529   7.852  2.0771 -0.5640 -3.5169
 7366SOL    HW233735   0.022   2.650   7.762 -0.3279 -1.5310  0.2544
 7367SOL     OW33736   3.207   4.250   7.070 -0.6317  0.1855  0.3974
 7367SOL    HW133737   3.122   4.236   7.111 -1.3508  3.5557  0.0395
 7367SOL    HW233738   3.216   4.157   7.051  1.6155  0.5250 -0.2760
 7368SOL     OW33739   0.229   1.431   9.373  0.2912 -0.1044  0.1489
 7368SOL    HW133740   0.268   1.347   9.352 -0.4484 -0.6228  0.8370
 7368SOL    HW233741   0.309   1.478   9.397  0.4681 -0.5054  0.3352
 7369SOL     OW33742   1.430   3.529   6.183  0.2482 -0.2616  0.3361
 7369SOL    HW133743   1.485   3.495   6.112  0.1918 -0.1175  0.2236
 7369SOL    HW233744   1.348   3.532   6.134 -0.2810  0.2878  1.2613
 7370SOL     OW33745   0.859   2.838   2.255 -0.5371  0.8483  0.1000
 7370SOL    HW133746   0.907   2.759   2.278  1.8694  2.0116 -0.8366
 7370SOL    HW233747   0.904   2.859   2.173 -1.4828 -0.4778 -0.7407
 7371SOL     OW33748   4.407   1.322   5.683  0.0705  0.2762  0.1679
 7371SOL    HW133749   4.442   1.400   5.726  2.3580 -0.6606  0.0481
 7371SOL    HW233750   4.454   1.325   5.600 -1.3635  0.4116 -0.6231
 7372SOL     OW33751   3.262   4.364   6.168  0.0067  0.3085  0.2946
 7372SOL    HW133752   3.172   4.334   6.152  0.1095  0.2928 -0.2480
 7372SOL    HW233753   3.312   4.297   6.214  0.5036 -0.0238 -0.7301
 7373SOL     OW33754   3.878   4.554  13.670 -0.1375 -0.2707 -0.3387
 7373SOL    HW133755   3.936   4.545  13.746 -1.7592 -0.6190  0.8751
 7373SOL    HW233756   3.944   4.555  13.602  0.1173  0.1557 -0.0857
 7374SOL     OW33757   4.670   1.305   4.515 -0.5038 -0.1396  0.4883
 7374SOL    HW133758   4.623   1.288   4.433 -1.0928  3.1992  0.1457
 7374SOL    HW233759   4.665   1.399   4.526 -1.2468 -0.0137 -0.8716
 7375SOL     OW33760   3.400   3.571   7.332 -0.1071 -0.0734 -0.4851
 7375SOL    HW133761   3.338   3.551   7.402  0.3428  0.6427  0.1140
 7375SOL    HW233762   3.423   3.663   7.350 -0.4452 -0.2881  1.0379
 7376SOL     OW33763   2.542   4.532   6.097  0.6777  0.1007  0.2554
 7376SOL    HW133764   2.574   4.570   6.179  1.3913 -0.9057  0.4383
 7376SOL    HW233765   2.449   4.534   6.118 -0.1030  0.7875 -3.2837
 7377SOL     OW33766   4.422   0.672   1.723 -0.0820  0.1181  0.2476
 7377SOL    HW133767   4.444   0.709   1.638  1.1585 -0.8566  0.1422
 7377SOL    HW233768   4.359   0.601   1.708  0.5637 -0.2991 -0.5009
 7378SOL     OW33769   3.897   4.112   2.299  0.1408 -0.1311 -0.2368
 7378SOL    HW133770   3.933   4.103   2.388  1.1119  1.9070 -0.4056
 7378SOL    HW233771   3.826   4.048   2.302  0.8013 -0.7698  1.4372
 7379SOL     OW33772   4.370   2.302   4.293 -0.4073  0.0996 -0.2108
 7379SOL    HW133773   4.446   2.347   4.255  0.7549 -1.9620 -0.3906
 7379SOL    HW233774   4.328   2.368   4.347  0.7769  0.0526  0.7666
 7380SOL     OW33775   3.077   2.430   5.656  0.1851  0.7697 -0.1620
 7380SOL    HW133776   3.109   2.394   5.739 -3.5588  1.6490  1.6275
 7380SOL    HW233777   3.024   2.357   5.626  0.4224 -0.3990  2.2995
 7381SOL     OW33778   3.000   1.780   2.534 -0.2805 -0.5800 -0.6280
 7381SOL    HW133779   3.056   1.753   2.461 -1.1702  0.7006 -1.7850
 7381SOL    HW233780   2.947   1.852   2.500  2.1428  1.4197 -0.1437
 7382SOL     OW33781   2.478   4.462   3.343  0.7206  0.2416 -0.3470
 7382SOL    HW133782   2.450   4.501   3.261  1.4067  0.6552 -0.3856
 7382SOL    HW233783   2.560   4.423   3.313  1.0624 -1.2516  2.4429
 7383SOL     OW33784   3.819   3.761   9.378  0.5644  0.2372 -0.0107
 7383SOL    HW133785   3.842   3.741   9.287  2.6329  0.2861  0.4875
 7383SOL    HW233786   3.888   3.707   9.417 -1.9852 -2.8993  0.1386
 7384SOL     OW33787   4.532   2.149   8.876  0.4356  0.0241  0.2300
 7384SOL    HW133788   4.482   2.196   8.809  2.7346 -1.0890 -2.2523
 7384SOL    HW233789   4.518   2.063   8.837 -2.4726  1.1998 -1.3649
 7385SOL     OW33790   1.369   4.043   9.664 -0.6079  0.4299  0.1462
 7385SOL    HW133791   1.366   4.127   9.617  2.1758 -0.0750 -0.9436
 7385SOL    HW233792   1.278   4.021   9.686 -0.6149  1.2369  0.9500
 7386SOL     OW33793   0.223   1.798  11.890  1.0496  0.2820 -0.0578
 7386SOL    HW133794   0.254   1.711  11.866  2.5090  1.2604 -1.6936
 7386SOL    HW233795   0.296   1.859  11.878  1.2461 -0.2676 -1.6424
 7387SOL     OW33796   1.450   0.863  10.106 -0.2267 -0.0334  0.1467
 7387SOL    HW133797   1.493   0.847  10.190 -2.1229 -3.4984  0.4695
 7387SOL    HW233798   1.370   0.810  10.109  1.7141 -2.8816  1.1191
 7388SOL     OW33799   0.217   3.738   3.714 -0.2777 -1.2827 -0.3545
 7388SOL    HW133800   0.259   3.824   3.712 -3.8761  0.5526  2.0068
 7388SOL    HW233801   0.182   3.724   3.626  2.7718 -1.4773 -1.5032
 7389SOL     OW33802   1.727   0.313  17.331  0.5840  0.0162 -0.6235
 7389SOL    HW133803   1.771   0.396  17.351 -1.4353  1.2238 -1.1781
 7389SOL    HW233804   1.706   0.285  17.420 -2.2195  1.5279 -0.8286
 7390SOL     OW33805   1.650   1.337   7.537  0.1944  0.1750 -0.3256
 7390SOL    HW133806   1.713   1.324   7.466 -1.2135 -0.7584 -1.3989
 7390SOL    HW233807   1.617   1.424   7.515  0.8328 -0.3205 -3.1811
 7391SOL     OW33808   4.372   3.069   5.934  0.0584  0.2196 -0.4674
 7391SOL    HW133809   4.386   2.986   5.888  1.4938  0.7426 -0.9655
 7391SOL    HW233810   4.457   3.106   5.958  0.5610 -1.4885  0.3811
 7392SOL     OW33811   0.470   2.961   5.869  0.5840 -0.0882  0.2755
 7392SOL    HW133812   0.493   2.989   5.958 -1.1148 -1.5531  1.1846
 7392SOL    HW233813   0.376   2.940   5.873  0.4134  0.6468  0.1247
 7393SOL     OW33814   1.961   1.063  17.599  0.0010  0.7306 -0.3681
 7393SOL    HW133815   1.998   1.008  17.669 -0.7164  0.4639 -0.2031
 7393SOL    HW233816   1.869   1.059  17.623  0.4726  1.3858  1.5985
 7394SOL     OW33817   2.254   1.379   1.449 -0.6568  0.3405 -0.4297
 7394SOL    HW133818   2.217   1.326   1.520 -1.8909 -1.4524 -2.4010
 7394SOL    HW233819   2.327   1.328   1.413 -2.0925 -1.5484 -0.6969
 7395SOL     OW33820   3.751   2.872  17.418 -0.3705 -0.0485  0.1816
 7395SOL    HW133821   3.732   2.964  17.399 -1.1681 -0.1125  0.6725
 7395SOL    HW233822   3.756   2.831  17.331  0.3799 -1.4656  0.8863
 7396SOL     OW33823   2.218   3.242  14.177  0.8230 -0.3072  0.1892
 7396SOL    HW133824   2.222   3.161  14.127  1.1180  0.0731 -0.4110
 7396SOL    HW233825   2.146   3.277  14.125  1.5824 -1.0360 -1.3550
 7397SOL     OW33826   3.861   2.303  17.332 -0.0670  0.4430 -0.3366
 7397SOL    HW133827   3.949   2.325  17.301  0.3921 -0.8188  0.0547
 7397SOL    HW233828   3.816   2.385  17.311 -1.7299 -0.4295 -0.1897
 7398SOL     OW33829   1.248   3.620  12.409  0.5473  0.1883  0.2704
 7398SOL    HW133830   1.335   3.583  12.395  1.2659  0.9735  2.6050
 7398SOL    HW233831   1.226   3.580  12.493 -0.2463  0.0346 -0.0092
 7399SOL     OW33832   2.036   1.693   3.055  0.2277  0.1489  0.1820
 7399SOL    HW133833   2.068   1.667   3.142  0.1001 -1.3511 -0.2208
 7399SOL    HW233834   2.027   1.788   3.056  0.3075  0.1527  0.5139
 7400SOL     OW33835   2.402   4.173  17.231 -0.6062 -0.0608 -0.3106
 7400SOL    HW133836   2.451   4.090  17.233 -0.8296 -0.1619  1.1129
 7400SOL    HW233837   2.323   4.145  17.278 -0.7497 -2.7301 -2.1123
 7401SOL     OW33838   1.665   3.067  16.078 -0.0821 -0.3764 -0.1684
 7401SOL    HW133839   1.656   3.088  15.985 -3.5023  0.2444  0.3072
 7401SOL    HW233840   1.574   3.062  16.105  0.3619  1.0513  1.5532
 7402SOL     OW33841   1.127   4.605  16.494 -0.3950 -0.3268  0.1928
 7402SOL    HW133842   1.035   4.599  16.520 -0.5107 -2.2227 -0.6774
 7402SOL    HW233843   1.143   4.693  16.529  0.0160 -0.6045  0.6961
 7403SOL     OW33844   3.721   2.358   3.626  0.1714 -0.4706  0.6202
 7403SOL    HW133845   3.740   2.292   3.559 -0.1811  1.4873 -1.3975
 7403SOL    HW233846   3.679   2.305   3.694  0.4777 -1.0495  0.3585
 7404SOL     OW33847   2.964   1.586   3.534  0.3242  0.3146 -0.4890
 7404SOL    HW133848   2.990   1.568   3.624 -1.7795 -0.4901 -0.0329
 7404SOL    HW233849   3.036   1.638   3.499 -1.3202  1.7100 -1.8246
 7405SOL     OW33850   3.717   1.699   6.840 -0.1007 -0.0317 -0.2056
 7405SOL    HW133851   3.753   1.613   6.863  1.1395  0.8081  0.9574
 7405SOL    HW233852   3.652   1.714   6.909 -0.1589 -0.7965 -0.0941
 7406SOL     OW33853   0.377   3.328   7.265  0.1329  0.4225 -0.3438
 7406SOL    HW133854   0.415   3.358   7.347  4.4118 -3.4068 -0.9650
 7406SOL    HW233855   0.308   3.277   7.307  0.4873  1.0985  1.0626
 7407SOL     OW33856   4.431   0.449   3.183  0.2566  0.0873 -0.0625
 7407SOL    HW133857   4.525   0.449   3.201  0.4127  0.5615 -0.8532
 7407SOL    HW233858   4.420   0.396   3.104  0.9613  0.3137 -0.3110
 7408SOL     OW33859   3.388   2.216   4.596 -0.1395  0.5953 -0.0817
 7408SOL    HW133860   3.370   2.224   4.503  0.5407 -0.2244 -0.2765
 7408SOL    HW233861   3.481   2.233   4.609  0.0714  0.2786 -1.1943
 7409SOL     OW33862   3.465   2.486   5.863 -0.6289  0.1483 -0.6065
 7409SOL    HW133863   3.393   2.538   5.828 -1.4843 -0.1763  0.6651
 7409SOL    HW233864   3.486   2.446   5.778  0.9964  2.8903 -1.4867
 7410SOL     OW33865   4.331   1.676   0.963 -0.0452  0.5183  0.4437
 7410SOL    HW133866   4.350   1.604   1.023  1.1704 -0.7492 -1.4354
 7410SOL    HW233867   4.412   1.675   0.911  0.0826 -0.0627  0.6571
 7411SOL     OW33868   1.342   2.513  15.869  0.1960  0.1643  0.2103
 7411SOL    HW133869   1.406   2.581  15.886  0.7687 -0.1927 -0.5642
 7411SOL    HW233870   1.391   2.446  15.822 -1.5191 -0.8504 -0.1374
 7412SOL     OW33871   2.684   2.991   5.819  0.2394 -0.2071 -0.2444
 7412SOL    HW133872   2.710   3.047   5.892 -1.6818  1.1643 -0.6180
 7412SOL    HW233873   2.759   2.973   5.761  0.2275  0.5623 -0.4997
 7413SOL     OW33874   3.525   1.727   4.768  0.6674  0.6164 -0.3879
 7413SOL    HW133875   3.483   1.795   4.715 -2.0751 -1.5328 -0.9302
 7413SOL    HW233876   3.605   1.714   4.717  1.7260 -2.0358  1.9818
 7414SOL     OW33877   0.070   2.042   9.171  0.4267  0.1741 -0.0443
 7414SOL    HW133878   4.713   2.034   9.147 -0.1928 -1.5768  2.8687
 7414SOL    HW233879   0.065   2.099   9.247 -1.9702 -0.0556 -0.0396
 7415SOL     OW33880   1.650   3.719  16.823 -0.0824 -0.2384  0.0341
 7415SOL    HW133881   1.731   3.769  16.810 -0.2539  0.4823  1.7306
 7415SOL    HW233882   1.621   3.705  16.733  0.2082 -1.5451  0.1553
 7416SOL     OW33883   0.740   0.439   2.626  0.1420  0.1071 -0.1535
 7416SOL    HW133884   0.682   0.371   2.590 -1.5587  1.1101  0.7170
 7416SOL    HW233885   0.759   0.410   2.715 -2.4038  1.1413  0.7105
 7417SOL     OW33886   2.617   3.616   9.050  0.1892 -0.2511  0.0329
 7417SOL    HW133887   2.662   3.533   9.065  1.5254  0.2667 -1.1455
 7417SOL    HW233888   2.634   3.631   8.957  0.4108 -0.5844  0.0213
 7418SOL     OW33889   3.852   0.624   6.370 -0.3524 -0.5116 -0.6109
 7418SOL    HW133890   3.897   0.544   6.397  1.0784  0.4796 -0.0934
 7418SOL    HW233891   3.878   0.629   6.277  0.2931  2.5214 -0.2585
 7419SOL     OW33892   1.468   4.312   7.302 -0.3423 -0.4314 -0.3593
 7419SOL    HW133893   1.448   4.370   7.376  1.7445 -0.8476  0.5288
 7419SOL    HW233894   1.544   4.268   7.338 -0.2299  0.2828  0.2796
 7420SOL     OW33895   1.613   1.421   1.226 -0.3188  0.4596 -0.7084
 7420SOL    HW133896   1.592   1.336   1.188  1.8345  0.0474 -1.0238
 7420SOL    HW233897   1.538   1.455   1.275  0.6011  0.3000  0.8284
 7421SOL     OW33898   4.505   1.796   0.499 -0.4420  0.3785  0.7189
 7421SOL    HW133899   4.445   1.844   0.442 -0.5737  1.3716  1.6874
 7421SOL    HW233900   4.567   1.755   0.439 -1.0830 -0.0505  0.3505
 7422SOL     OW33901   1.174   3.986   8.737 -0.3667 -0.1295 -0.0176
 7422SOL    HW133902   1.159   3.987   8.831 -1.7036  1.1380 -0.2450
 7422SOL    HW233903   1.088   4.011   8.703 -0.4917 -1.9908 -1.0424
 7423SOL     OW33904   3.519   3.045   7.381 -0.6774  0.0329  0.4904
 7423SOL    HW133905   3.513   3.055   7.286 -1.5757 -0.0499  0.5361
 7423SOL    HW233906   3.520   3.137   7.408  2.8865 -0.6474  2.6879
 7424SOL     OW33907   2.802   0.311   6.198  0.2310  0.0314 -0.5608
 7424SOL    HW133908   2.721   0.260   6.198 -0.5592  1.3086  0.8046
 7424SOL    HW233909   2.828   0.306   6.290 -1.1838  2.0541 -0.0596
 7425SOL     OW33910   4.130   4.139   5.397  0.0008 -0.3300 -0.0425
 7425SOL    HW133911   4.181   4.093   5.331  1.7312 -0.2846  1.2728
 7425SOL    HW233912   4.044   4.152   5.357  0.5279  1.6513 -0.5070
 7426SOL     OW33913   2.467   1.216   8.865  0.7944 -0.0494  0.0290
 7426SOL    HW133914   2.555   1.239   8.833  1.1038 -2.9118 -1.1805
 7426SOL    HW233915   2.436   1.299   8.900 -2.4904 -0.2279 -2.4347
 7427SOL     OW33916   4.156   4.348  10.553  0.1757  0.7085  0.1931
 7427SOL    HW133917   4.156   4.256  10.580  0.3584  0.4050 -0.8308
 7427SOL    HW233918   4.162   4.350  10.458 -3.1715 -1.3616 -0.0529
 7428SOL     OW33919   0.880   3.568  14.052 -0.1248 -0.0181 -0.2667
 7428SOL    HW133920   0.864   3.618  13.971 -0.0486  0.6481  0.1310
 7428SOL    HW233921   0.870   3.481  14.014  2.7848  0.1772 -1.4740
 7429SOL     OW33922   0.924   3.020   9.132 -0.0605 -0.0712  0.0623
 7429SOL    HW133923   0.955   3.054   9.048 -2.0150 -0.1254 -0.6785
 7429SOL    HW233924   0.882   2.937   9.109  0.4256  0.5935 -3.1785
 7430SOL     OW33925   3.833   4.589   7.413  0.5323 -0.4289 -0.1908
 7430SOL    HW133926   3.895   4.636   7.357 -0.0993  1.1576  0.4747
 7430SOL    HW233927   3.811   4.657   7.476  0.5404 -0.1539 -0.4872
 7431SOL     OW33928   0.941   3.484   0.474  0.7117 -0.2361  0.2967
 7431SOL    HW133929   0.967   3.576   0.484 -1.2011  0.3452 -0.0618
 7431SOL    HW233930   0.972   3.444   0.555  0.6012  0.6015  0.7626
 7432SOL     OW33931   3.020   4.653   5.771 -0.0735 -0.7353 -0.0752
 7432SOL    HW133932   2.943   4.706   5.752  0.6667  0.5106  0.4368
 7432SOL    HW233933   3.059   4.716   5.832 -0.0980 -1.7272  0.9691
 7433SOL     OW33934   3.220   1.083   4.412 -0.1373  0.1246  0.0632
 7433SOL    HW133935   3.250   1.160   4.364 -0.5178 -0.9174 -1.8424
 7433SOL    HW233936   3.130   1.091   4.381 -0.7101 -0.0631  1.6333
 7434SOL     OW33937   4.425   1.797   3.183  0.1792 -0.0721 -0.1701
 7434SOL    HW133938   4.414   1.881   3.228 -3.6583  0.1716 -1.5787
 7434SOL    HW233939   4.371   1.747   3.244 -1.4557  2.2431  0.2768
 7435SOL     OW33940   1.400   1.873   2.445 -0.1274  0.1370  0.4756
 7435SOL    HW133941   1.308   1.896   2.461 -0.3355  1.0306 -2.0154
 7435SOL    HW233942   1.401   1.869   2.349 -1.5607 -0.0646  0.4669
 7436SOL     OW33943   2.700   0.237   7.535  0.6926 -0.1864 -0.0989
 7436SOL    HW133944   2.653   0.171   7.586  0.0160  0.9279  0.7009
 7436SOL    HW233945   2.790   0.223   7.564 -0.1714 -2.5377  1.4590
 7437SOL     OW33946   1.929   2.792   1.493 -0.2401 -0.3987 -0.1933
 7437SOL    HW133947   1.854   2.844   1.463 -1.1275 -0.5937  1.6825
 7437SOL    HW233948   2.006   2.845   1.473  0.8933 -2.1939 -0.6184
 7438SOL     OW33949   2.843   3.465  10.567 -0.2992  0.0543 -0.2998
 7438SOL    HW133950   2.836   3.548  10.613 -1.6009 -0.1814 -0.0803
 7438SOL    HW233951   2.843   3.492  10.475  0.1872 -1.6557 -0.8034
 7439SOL     OW33952   2.870   4.728   0.084 -0.5757  0.0359 -0.5422
 7439SOL    HW133953   2.885   4.673   0.007  1.1080 -0.7381  0.3339
 7439SOL    HW233954   2.785   0.036   0.068 -0.3232  1.1148  0.9270
 7440SOL     OW33955   3.213   2.835   7.945 -0.0710  0.0788 -0.1167
 7440SOL    HW133956   3.187   2.927   7.950  1.0211  0.4403 -1.0053
 7440SOL    HW233957   3.282   2.842   7.878 -1.1993  0.6848 -1.2133
 7441SOL     OW33958   3.675   3.823   2.583  0.3997  0.0343  0.2010
 7441SOL    HW133959   3.694   3.731   2.600 -1.3140  0.0875  2.4422
 7441SOL    HW233960   3.609   3.839   2.650 -0.6406  1.5155 -1.1829
 7442SOL     OW33961   3.215   3.479   7.539 -0.2165  0.0828  0.2973
 7442SOL    HW133962   3.126   3.465   7.509  0.3932  0.8512 -1.8396
 7442SOL    HW233963   3.234   3.397   7.584  0.5784 -0.2395 -0.6372
 7443SOL     OW33964   2.605   3.917   6.650 -0.3833  0.6846  0.2149
 7443SOL    HW133965   2.699   3.929   6.635  0.0054  1.3938  3.1782
 7443SOL    HW233966   2.596   3.946   6.740 -1.0043 -1.4000  0.8173
 7444SOL     OW33967   2.968   2.626   5.356  0.5419  0.1132 -1.2190
 7444SOL    HW133968   2.886   2.625   5.404 -0.3258  0.0520 -2.7118
 7444SOL    HW233969   2.996   2.535   5.365 -1.3357 -0.3539 -0.2382
 7445SOL     OW33970   4.384   3.336   5.843 -0.5776 -0.3678  0.1854
 7445SOL    HW133971   4.443   3.268   5.810 -1.2940 -0.2180 -1.3833
 7445SOL    HW233972   4.308   3.279   5.830 -0.4990 -0.6896  1.1031
 7446SOL     OW33973   4.665   4.232   9.682 -0.0858  0.1573  1.0115
 7446SOL    HW133974   4.599   4.295   9.707 -2.0889 -1.8309  0.7527
 7446SOL    HW233975   4.647   4.173   9.755 -1.9880 -0.2212  0.2213
 7447SOL     OW33976   1.869   1.503   0.603  0.1033 -0.1403  0.2580
 7447SOL    HW133977   1.938   1.563   0.575  0.6447 -0.9898 -0.2671
 7447SOL    HW233978   1.785   1.540   0.575  0.6970  1.6004  0.8245
 7448SOL     OW33979   4.188   3.923  12.081 -0.1176 -0.0123 -0.0948
 7448SOL    HW133980   4.276   3.899  12.111 -0.8192  0.1921  2.1130
 7448SOL    HW233981   4.152   3.835  12.093  2.1527 -1.1676 -1.6353
 7449SOL     OW33982   2.693   3.195   6.307  0.1693 -0.0883  0.2805
 7449SOL    HW133983   2.774   3.221   6.262  0.0817  1.9301  1.3185
 7449SOL    HW233984   2.724   3.107   6.329  0.9686  0.2333  0.4414
 7450SOL     OW33985   0.093   0.672   6.502 -0.0601 -0.0514 -0.3052
 7450SOL    HW133986   0.077   0.718   6.419 -1.7196  1.5507  0.9204
 7450SOL    HW233987   0.018   0.704   6.551 -1.0812 -0.9120 -1.3118
 7451SOL     OW33988   0.402   1.598   9.670  0.2597  0.5027 -0.4414
 7451SOL    HW133989   0.377   1.516   9.714 -1.7589  0.7473 -1.1152
 7451SOL    HW233990   0.419   1.560   9.584 -1.6937  0.7548 -0.9448
 7452SOL     OW33991   1.429   0.312   6.816 -0.5399 -0.9144  0.7181
 7452SOL    HW133992   1.366   0.279   6.752  0.6860 -0.5746 -0.6558
 7452SOL    HW233993   1.399   0.261   6.892 -2.6668  0.8420  1.0848
 7453SOL     OW33994   1.801   3.356   5.833 -0.1110  0.1914  0.2414
 7453SOL    HW133995   1.795   3.451   5.825 -0.4819  0.2081  0.6550
 7453SOL    HW233996   1.873   3.348   5.896 -0.5624 -1.9069  0.5069
 7454SOL     OW33997   0.917   4.668  17.555  0.0719 -0.0703  0.4276
 7454SOL    HW133998   0.857   4.686  17.482 -0.3271  0.7279  0.9621
 7454SOL    HW233999   0.987   4.732  17.544 -1.1201  1.1169 -0.3348
 7455SOL     OW34000   3.093   1.465   6.039 -0.2628 -0.3339  0.1482
 7455SOL    HW134001   3.039   1.481   6.116 -1.5654 -1.6375 -0.4942
 7455SOL    HW234002   3.076   1.533   5.974 -1.2356  2.0354  2.8946
 7456SOL     OW34003   1.216   0.341   8.519  0.2206  0.1697  0.7244
 7456SOL    HW134004   1.254   0.365   8.604 -1.5154  2.7308  0.7859
 7456SOL    HW234005   1.217   0.425   8.473 -0.6309  0.5571  1.4280
 7457SOL     OW34006   1.355   0.293  17.546 -0.0188  0.2167 -0.0687
 7457SOL    HW134007   1.396   0.290  17.460  2.3683 -0.9024  1.1226
 7457SOL    HW234008   1.413   0.359  17.583 -0.8618  0.7649  0.2900
 7458SOL     OW34009   1.162   2.928   9.254 -0.4961  0.1234 -0.3585
 7458SOL    HW134010   1.207   3.012   9.257  2.9801 -1.7828  0.1188
 7458SOL    HW234011   1.072   2.961   9.254 -0.2251  0.9061  0.8229
 7459SOL     OW34012   1.988   2.409   6.792  0.0422 -0.0812 -0.3920
 7459SOL    HW134013   1.954   2.319   6.795  0.3217 -0.1648  0.1540
 7459SOL    HW234014   1.977   2.438   6.883 -1.3854 -0.0627 -0.5577
 7460SOL     OW34015   2.289   1.533   8.710 -0.2748  0.2183  0.1926
 7460SOL    HW134016   2.241   1.615   8.699  0.5056  0.0572 -4.2969
 7460SOL    HW234017   2.375   1.555   8.675  0.1021 -1.8006 -0.1696
 7461SOL     OW34018   1.205   3.294   4.663 -0.0226  0.3265  0.3513
 7461SOL    HW134019   1.130   3.282   4.722 -0.5842  3.5175  0.2798
 7461SOL    HW234020   1.270   3.298   4.734  0.1685 -1.4465  0.2593
 7462SOL     OW34021   0.365   0.825   5.422 -0.1731  0.1026  0.1397
 7462SOL    HW134022   0.447   0.813   5.374  0.0453 -1.8657  1.0048
 7462SOL    HW234023   0.354   0.920   5.431  1.3855  0.3164 -0.2761
 7463SOL     OW34024   1.088   0.151  17.482  0.6377  0.3226 -0.9924
 7463SOL    HW134025   1.049   0.175  17.398  0.7629 -0.5589 -1.3030
 7463SOL    HW234026   1.179   0.178  17.468  0.6862  1.3121  1.2043
 7464SOL     OW34027   2.909   3.367   6.213 -0.7417 -0.4912 -0.2563
 7464SOL    HW134028   2.848   3.439   6.232 -0.2560  0.2915 -1.7187
 7464SOL    HW234029   2.910   3.360   6.118 -0.7981 -0.9486 -0.2232
 7465SOL     OW34030   2.689   3.833   4.813  0.0687 -0.7910 -0.4078
 7465SOL    HW134031   2.649   3.894   4.875  0.4443  0.3071 -1.2546
 7465SOL    HW234032   2.705   3.894   4.741 -0.0828 -1.5921 -1.1115
 7466SOL     OW34033   0.585   2.628   7.502  0.4606 -0.2281 -0.0813
 7466SOL    HW134034   0.656   2.672   7.548 -0.2869 -0.2737  1.1151
 7466SOL    HW234035   0.610   2.636   7.410  1.7245  0.5402  0.3276
 7467SOL     OW34036   0.748   1.052  12.120 -0.1994 -0.0059  0.1254
 7467SOL    HW134037   0.766   1.141  12.151 -1.4362  0.5453 -0.7595
 7467SOL    HW234038   0.718   0.999  12.194 -1.6719  1.1366  0.3642
 7468SOL     OW34039   0.954   1.771  10.189  0.2773  0.0641 -0.1381
 7468SOL    HW134040   1.006   1.813  10.120  0.8268  0.3222  0.4341
 7468SOL    HW234041   1.015   1.699  10.198  2.9019  2.5700  2.0398
 7469SOL     OW34042   0.171   1.546   8.055  0.0730 -0.2233 -0.0614
 7469SOL    HW134043   0.093   1.536   8.000  0.4081  0.2505 -0.6269
 7469SOL    HW234044   0.229   1.477   8.022 -0.3919 -1.1594  1.0949
 7470SOL     OW34045   3.572   2.240  15.070 -0.1918 -0.0832  0.0810
 7470SOL    HW134046   3.633   2.174  15.037  1.2511  1.4524 -0.2846
 7470SOL    HW234047   3.635   2.302  15.105 -0.9188  1.3270 -1.1406
 7471SOL     OW34048   1.662   4.108   7.383 -0.0846  0.0823 -0.1484
 7471SOL    HW134049   1.740   4.078   7.428  0.4207  2.0415  0.2772
 7471SOL    HW234050   1.603   4.068   7.447 -1.3955  0.1828 -1.2689
 7472SOL     OW34051   4.648   0.195   7.016  0.0835 -0.1365 -0.1187
 7472SOL    HW134052   4.684   0.107   7.009 -3.1032 -1.3865 -0.3052
 7472SOL    HW234053   4.628   0.214   7.107 -0.2802  1.9259 -0.6155
 7473SOL     OW34054   1.127   1.123  12.218  0.6322 -0.5366 -0.3314
 7473SOL    HW134055   1.209   1.074  12.219  0.6256 -0.6035 -3.0192
 7473SOL    HW234056   1.065   1.060  12.256  1.2973 -1.9868 -1.6560
 7474SOL     OW34057   1.102   0.331   4.252  0.6723  0.0277 -0.0007
 7474SOL    HW134058   1.092   0.426   4.255  3.0192  0.2717  0.1602
 7474SOL    HW234059   1.197   0.323   4.256  0.6192 -0.9184 -0.8473
 7475SOL     OW34060   3.149   2.351   8.342  0.3629  0.6993 -0.1345
 7475SOL    HW134061   3.205   2.387   8.273  1.4161  1.3454  1.0694
 7475SOL    HW234062   3.177   2.409   8.413  0.0988  0.0305  0.5144
 7476SOL     OW34063   3.082   1.620   2.264 -0.9273 -0.3394 -0.2544
 7476SOL    HW134064   3.006   1.674   2.242 -0.2603  0.9470  0.6096
 7476SOL    HW234065   3.112   1.608   2.174 -1.9987  1.0162 -0.8116
 7477SOL     OW34066   2.163   2.161  17.627 -0.0343 -0.1985  0.2751
 7477SOL    HW134067   2.184   2.253  17.612 -2.8040  0.3588 -0.1543
 7477SOL    HW234068   2.072   2.146  17.603  0.4237 -1.8616 -0.3716
 7478SOL     OW34069   2.744   1.283   6.844 -0.3150 -0.4666  0.0845
 7478SOL    HW134070   2.763   1.294   6.751 -1.0700  2.3200  0.2384
 7478SOL    HW234071   2.755   1.373   6.875  0.7944 -1.1593  1.6758
 7479SOL     OW34072   3.956   1.127   9.009 -0.0734  0.6095  0.1467
 7479SOL    HW134073   3.915   1.065   9.069 -0.4886 -1.5096 -2.3406
 7479SOL    HW234074   4.049   1.116   9.025  0.1395  0.5814 -1.0798
 7480SOL     OW34075   1.865   0.561   5.549  0.5705 -0.2989  0.1272
 7480SOL    HW134076   1.848   0.653   5.566  1.0576 -0.5447  1.9244
 7480SOL    HW234077   1.913   0.534   5.627 -0.6831  1.0071  1.3461
 7481SOL     OW34078   2.691   2.109  12.713 -0.3539  0.1487 -0.2582
 7481SOL    HW134079   2.771   2.160  12.699 -1.2857  2.2070  1.7898
 7481SOL    HW234080   2.621   2.157  12.668 -1.7556 -1.5119  0.1565
 7482SOL     OW34081   1.106   1.127   6.291  0.8138  0.0826 -0.1183
 7482SOL    HW134082   1.020   1.154   6.323  0.2100 -1.3008 -0.5430
 7482SOL    HW234083   1.109   1.047   6.344  1.5198 -0.3327 -0.7719
 7483SOL     OW34084   1.280   2.004  10.156  0.3840 -0.1297 -0.3729
 7483SOL    HW134085   1.208   1.968  10.104 -0.7534 -0.8431  1.7361
 7483SOL    HW234086   1.299   2.081  10.102  1.7724 -1.1489 -1.3689
 7484SOL     OW34087   1.054   4.711   9.698  0.2656 -1.1160  0.2469
 7484SOL    HW134088   1.108   0.041   9.744 -1.9375  0.4393  0.6371
 7484SOL    HW234089   1.066   4.633   9.751  1.8854 -0.4044  0.9271
 7485SOL     OW34090   2.389   1.089   1.525  0.7391 -0.2992  0.4036
 7485SOL    HW134091   2.440   1.008   1.536  1.0253 -0.2171 -0.2924
 7485SOL    HW234092   2.421   1.121   1.440 -1.1218  0.2921 -0.0701
 7486SOL     OW34093   0.584   0.338   9.056 -0.1553 -0.4007 -0.3779
 7486SOL    HW134094   0.671   0.301   9.073  0.5841  1.5945  0.1070
 7486SOL    HW234095   0.600   0.388   8.976  0.7968 -0.9985 -0.5580
 7487SOL     OW34096   4.064   1.254  10.656 -0.0656  0.5434  0.0975
 7487SOL    HW134097   4.133   1.278  10.717 -1.0825 -1.1235  1.8952
 7487SOL    HW234098   3.990   1.294  10.700 -0.4641  0.0651 -0.1348
 7488SOL     OW34099   1.483   2.069   4.343 -0.5984  0.5687 -0.2391
 7488SOL    HW134100   1.389   2.058   4.361 -0.6741  1.2721 -0.1940
 7488SOL    HW234101   1.510   2.085   4.434 -3.0363  0.9928  0.4343
 7489SOL     OW34102   1.833   4.700  15.632  0.7936 -0.8094  0.0934
 7489SOL    HW134103   1.852   4.689  15.725  1.1889  0.5195  0.1740
 7489SOL    HW234104   1.920   4.685  15.594  1.0221 -2.0173  1.1049
 7490SOL     OW34105   4.593   2.515  10.387 -0.0077 -0.5587 -0.0917
 7490SOL    HW134106   4.555   2.481  10.306  1.4190  3.0617 -2.2537
 7490SOL    HW234107   4.660   2.447  10.392 -0.2855 -0.8853 -0.8062
 7491SOL     OW34108   1.599   2.863   9.727  0.9149 -0.2365 -0.5467
 7491SOL    HW134109   1.662   2.908   9.784 -0.9322  0.1927  1.1496
 7491SOL    HW234110   1.592   2.782   9.776 -0.2598  0.3701  0.2848
 7492SOL     OW34111   0.826   4.469  13.865  0.0893 -0.9686 -0.0077
 7492SOL    HW134112   0.809   4.529  13.938 -1.9996 -0.4561 -0.9154
 7492SOL    HW234113   0.891   4.521  13.819  1.0220 -0.9143  1.3919
 7493SOL     OW34114   2.672   1.628   5.245 -0.5681 -0.5168 -0.6046
 7493SOL    HW134115   2.703   1.572   5.173 -1.7011 -1.4092 -0.3905
 7493SOL    HW234116   2.685   1.718   5.216 -0.2110  0.1654  1.6819
 7494SOL     OW34117   4.485   2.264   3.614  0.1277  0.1487  0.0578
 7494SOL    HW134118   4.417   2.332   3.609  1.3560  1.5518  2.2776
 7494SOL    HW234119   4.433   2.188   3.588  0.4255 -0.3425  0.8841
 7495SOL     OW34120   2.607   0.036   8.495 -0.7669  0.0914  0.1491
 7495SOL    HW134121   2.655   0.092   8.555 -1.3509  0.5627  0.1826
 7495SOL    HW234122   2.635   0.067   8.408  2.7669 -3.5642  0.0227
 7496SOL     OW34123   0.401   2.384   1.013  0.0672 -0.4913 -0.2811
 7496SOL    HW134124   0.359   2.435   1.082 -1.5724 -0.5753 -1.2135
 7496SOL    HW234125   0.328   2.358   0.957 -0.1076  0.6669 -0.5913
 7497SOL     OW34126   1.319   4.433   2.306  0.5152 -0.0275  0.5732
 7497SOL    HW134127   1.316   4.518   2.263  0.4897  0.4090  1.4451
 7497SOL    HW234128   1.243   4.391   2.266  0.0187  3.3252 -2.0245
 7498SOL     OW34129   3.595   4.064   6.632  0.2085  0.4139 -0.2577
 7498SOL    HW134130   3.589   4.057   6.537 -2.5131 -0.0932 -0.0575
 7498SOL    HW234131   3.601   4.159   6.638  2.8705  0.3424 -1.8108
 7499SOL     OW34132   3.854   2.418  14.940 -0.2952  0.2770  0.2287
 7499SOL    HW134133   3.877   2.396  15.030  1.0074 -1.3497 -0.5065
 7499SOL    HW234134   3.865   2.333  14.897  3.0514  0.0198  1.5840
 7500SOL     OW34135   0.810   3.438   2.187  0.5054  0.6562  0.4390
 7500SOL    HW134136   0.862   3.390   2.251  0.4016 -0.1421 -0.0661
 7500SOL    HW234137   0.827   3.528   2.213  1.0617  0.8689 -0.6737
 7501SOL     OW34138   0.907   3.918   3.437 -0.2691 -0.0411  0.3869
 7501SOL    HW134139   0.984   3.974   3.430 -0.4491 -0.3139 -3.6183
 7501SOL    HW234140   0.850   3.992   3.460  1.2153  1.3205 -0.3692
 7502SOL     OW34141   0.756   4.413   8.777  0.0163  0.3241 -0.3728
 7502SOL    HW134142   0.674   4.411   8.827 -0.4243  0.3399 -1.1026
 7502SOL    HW234143   0.759   4.505   8.751 -0.9293  0.1469 -1.0991
 7503SOL     OW34144   1.234   2.273   8.704  0.5163 -0.2428  0.0381
 7503SOL    HW134145   1.208   2.354   8.661 -0.2096 -0.3470  0.2674
 7503SOL    HW234146   1.305   2.245   8.647  0.4225  0.2205 -0.3084
 7504SOL     OW34147   0.776   3.120   8.029  0.0991  0.1008 -0.4048
 7504SOL    HW134148   0.708   3.148   7.968 -1.1296 -2.0550 -0.0277
 7504SOL    HW234149   0.848   3.111   7.967 -1.6918 -1.8154 -2.2336
 7505SOL     OW34150   3.702   0.222   4.678 -0.4782 -0.3201  0.2173
 7505SOL    HW134151   3.768   0.172   4.726  0.6378  0.8517 -0.0983
 7505SOL    HW234152   3.623   0.202   4.729  0.5154 -0.1991  1.8316
 7506SOL     OW34153   0.182   3.320   6.233  0.3491  0.0138  0.1374
 7506SOL    HW134154   0.180   3.304   6.138  1.6849  0.7040 -0.0077
 7506SOL    HW234155   0.267   3.362   6.239 -0.6352  1.9844  0.3884
 7507SOL     OW34156   2.055   1.210   8.351  0.0225 -0.6929 -0.3426
 7507SOL    HW134157   2.069   1.251   8.266 -1.5937  0.3805 -0.0837
 7507SOL    HW234158   2.105   1.269   8.407 -0.8125 -0.6518  0.3562
 7508SOL     OW34159   0.772   3.289   0.034 -0.0602  0.6131 -0.9311
 7508SOL    HW134160   0.702   3.308   0.097  0.7487  2.2342 -0.5183
 7508SOL    HW234161   0.737   3.208  17.736 -1.4718  0.6541  0.3633
 7509SOL     OW34162   2.640   1.246   9.314 -0.0510 -0.4607  0.4880
 7509SOL    HW134163   2.639   1.168   9.259  0.3648  0.1618 -0.3971
 7509SOL    HW234164   2.553   1.276   9.291  0.1017  2.6343  3.8493
 7510SOL     OW34165   2.436   0.607  10.319  0.5553 -0.8913  0.1878
 7510SOL    HW134166   2.455   0.546  10.248 -3.4800  0.6578 -2.2152
 7510SOL    HW234167   2.373   0.667  10.280 -0.3471 -1.0093  1.4535
 7511SOL     OW34168   2.899   1.339   5.674  0.1252 -0.9866 -0.9351
 7511SOL    HW134169   2.945   1.399   5.733 -0.7115 -0.7053 -0.5715
 7511SOL    HW234170   2.813   1.382   5.678  0.4748 -0.5806  2.3496
 7512SOL     OW34171   2.436   3.790   1.612  0.3132  0.0467  0.2713
 7512SOL    HW134172   2.529   3.808   1.602  0.2664  0.9488  1.4913
 7512SOL    HW234173   2.412   3.821   1.524  1.8857  2.9138  0.8463
 7513SOL     OW34174   1.766   2.961   7.932  0.5647  0.2678  0.1018
 7513SOL    HW134175   1.714   2.897   7.980  0.8263 -0.2131 -0.2680
 7513SOL    HW234176   1.774   2.913   7.850  0.3552 -2.7604  1.8819
 7514SOL     OW34177   2.672   3.711   1.761  0.1609 -0.1173 -0.2990
 7514SOL    HW134178   2.612   3.659   1.815  2.7623 -2.0665  0.6869
 7514SOL    HW234179   2.716   3.771   1.821 -0.2776  0.7511 -0.8504
 7515SOL     OW34180   2.506   3.057   2.661 -0.2136  0.0535 -0.3107
 7515SOL    HW134181   2.419   3.077   2.696 -1.6085 -2.5008 -2.2695
 7515SOL    HW234182   2.547   3.093   2.739 -3.6373  3.8396 -0.2552
 7516SOL     OW34183   2.139   4.048  10.203  0.2640 -0.8239  0.3102
 7516SOL    HW134184   2.214   4.063  10.145  0.8961 -0.9574  1.0831
 7516SOL    HW234185   2.078   4.002  10.146  0.2231  0.7167 -0.8677
 7517SOL     OW34186   0.973   3.018   8.550  0.3975 -0.0478 -0.8500
 7517SOL    HW134187   1.054   3.015   8.602 -1.3345  1.5798  1.9524
 7517SOL    HW234188   0.976   2.923   8.539 -1.8267 -0.3930  1.4916
 7518SOL     OW34189   2.604   0.746   6.636  0.5908  0.1632  0.0374
 7518SOL    HW134190   2.617   0.666   6.687 -0.8321 -0.2810 -0.3111
 7518SOL    HW234191   2.599   0.715   6.546  0.4430  2.8530 -0.8934
 7519SOL     OW34192   0.522   2.192   4.538  0.4232 -0.4304  0.0812
 7519SOL    HW134193   0.469   2.112   4.535  0.4299 -0.4290 -0.0841
 7519SOL    HW234194   0.455   2.260   4.539  0.4040 -0.4381 -0.4122
 7520SOL     OW34195   0.092   3.065   9.224  0.2459  0.4385 -0.1066
 7520SOL    HW134196   0.128   3.005   9.158  1.8991  0.5850  0.6678
 7520SOL    HW234197   0.041   3.120   9.164  0.0577  1.0059  0.5714
 7521SOL     OW34198   0.020   3.889   7.427 -0.0851  0.4170  0.0486
 7521SOL    HW134199   4.710   3.827   7.371  1.4325 -2.1541  1.7031
 7521SOL    HW234200   4.720   3.966   7.382  0.4868  0.5539 -0.1633
 7522SOL     OW34201   0.360   1.699   8.421  0.6531  0.0952  0.5932
 7522SOL    HW134202   0.424   1.730   8.484 -1.4362  4.3489  0.6282
 7522SOL    HW234203   0.359   1.781   8.371  0.7226 -1.1795 -1.4865
 7523SOL     OW34204   2.050   2.630   1.313 -0.0629 -0.3407  0.5673
 7523SOL    HW134205   1.982   2.663   1.371  0.4281  2.5313 -0.4653
 7523SOL    HW234206   2.083   2.714   1.281  3.1445 -1.5661  0.5668
 7524SOL     OW34207   1.166   0.854   4.147  0.4565  0.6268  0.1625
 7524SOL    HW134208   1.246   0.838   4.097 -0.3749  1.4874 -1.4610
 7524SOL    HW234209   1.102   0.849   4.075  1.4576  2.0043 -0.8270
 7525SOL     OW34210   4.295   2.968  16.171 -0.7317  0.1816 -0.2994
 7525SOL    HW134211   4.238   2.903  16.211  1.0386 -0.8171  0.5914
 7525SOL    HW234212   4.237   2.988  16.097 -2.7567 -0.3909  1.1377
 7526SOL     OW34213   1.907   0.629  11.587 -0.2641  0.0061  0.6129
 7526SOL    HW134214   1.851   0.615  11.511 -0.7143 -0.3484  1.0138
 7526SOL    HW234215   1.865   0.707  11.621  2.5303  1.8599 -0.1948
 7527SOL     OW34216   4.281   2.457   5.800  0.5212  0.6726  0.1035
 7527SOL    HW134217   4.353   2.495   5.851  0.3578  0.5120  0.4510
 7527SOL    HW234218   4.209   2.517   5.818 -0.6180 -0.2430 -1.4372
 7528SOL     OW34219   0.930   1.412   4.064  0.4752 -0.4713 -0.0515
 7528SOL    HW134220   0.924   1.400   3.969  1.8971 -0.0631 -0.1888
 7528SOL    HW234221   0.930   1.324   4.103 -0.5347 -1.6214 -2.6666
 7529SOL     OW34222   1.272   1.824   8.961  0.2312  0.0588  0.2923
 7529SOL    HW134223   1.189   1.799   9.001  0.5177 -1.0213  0.2151
 7529SOL    HW234224   1.326   1.746   8.950  0.1988 -0.1880  1.8226
 7530SOL     OW34225   3.449   1.484   3.148 -0.2589 -0.7764  0.1004
 7530SOL    HW134226   3.476   1.396   3.176  0.7254 -0.5662 -0.1791
 7530SOL    HW234227   3.397   1.528   3.215 -0.1150  0.5274 -0.6502
 7531SOL     OW34228   2.858   2.853   7.201  0.3599  0.6421 -0.7896
 7531SOL    HW134229   2.856   2.934   7.252  0.5972  0.4615 -0.4911
 7531SOL    HW234230   2.951   2.843   7.180  0.4888 -1.6045  0.8170
 7532SOL     OW34231   2.432   0.080   3.087 -0.4756 -0.3289  0.4065
 7532SOL    HW134232   2.418   0.153   3.148  2.9152  0.7652 -0.1328
 7532SOL    HW234233   2.377   0.114   3.016  1.7136 -0.4413 -1.3488
 7533SOL     OW34234   1.011   4.689   4.142  0.7707  0.2964 -0.0377
 7533SOL    HW134235   0.918   4.704   4.122  0.9313  1.1965 -0.0800
 7533SOL    HW234236   1.001   4.639   4.223 -3.2425  0.2203 -0.5493
 7534SOL     OW34237   3.915   2.123   4.899  0.6729 -0.4109  0.1654
 7534SOL    HW134238   3.895   2.196   4.958 -0.3983 -1.1902  0.7474
 7534SOL    HW234239   3.862   2.150   4.824  0.2407  3.3470  1.8283
 7535SOL     OW34240   0.436   0.449  15.310  0.6817 -0.7965  0.4327
 7535SOL    HW134241   0.435   0.514  15.381  0.8348 -0.8006  0.4383
 7535SOL    HW234242   0.454   0.502  15.233  1.0574  0.9612  1.7273
 7536SOL     OW34243   1.445   3.419   7.866 -0.6202 -0.1934 -0.1035
 7536SOL    HW134244   1.532   3.380   7.878  0.5397  1.7588 -2.3514
 7536SOL    HW234245   1.384   3.346   7.871 -0.4473 -0.2818  0.8131
 7537SOL     OW34246   0.531   1.457  13.503  0.0019  0.7387  0.4203
 7537SOL    HW134247   0.566   1.545  13.498  1.5606  0.0207 -1.2982
 7537SOL    HW234248   0.530   1.438  13.597  0.6927 -0.6914  0.1455
 7538SOL     OW34249   0.253   1.448  17.465  0.0161  0.3093  0.0694
 7538SOL    HW134250   0.250   1.379  17.399 -0.6936  0.1882  0.2360
 7538SOL    HW234251   0.231   1.529  17.419 -2.7207 -0.6109 -0.2281
 7539SOL     OW34252   2.099   0.566   8.566 -0.2144 -0.6343 -0.2262
 7539SOL    HW134253   2.194   0.569   8.558 -0.2585 -0.5471 -0.7251
 7539SOL    HW234254   2.075   0.501   8.500 -0.5950 -0.2232 -0.4925
 7540SOL     OW34255   1.972   2.247   6.149 -0.1894  0.2309  0.4339
 7540SOL    HW134256   2.059   2.223   6.116 -0.7480 -1.9550  0.5615
 7540SOL    HW234257   1.939   2.158   6.162  1.6932 -0.6068 -0.5845
 7541SOL     OW34258   4.067   2.904   6.915  0.2134 -0.7489 -0.3231
 7541SOL    HW134259   4.137   2.865   6.968  0.3844  1.2009  0.8841
 7541SOL    HW234260   4.101   2.992   6.901  0.8864 -0.8823  0.4737
 7542SOL     OW34261   3.420   0.498   1.432  0.0859 -0.0118  0.4378
 7542SOL    HW134262   3.473   0.578   1.429  0.9576 -0.6377 -1.0483
 7542SOL    HW234263   3.489   0.439   1.400 -0.5098 -1.7028  2.3201
 7543SOL     OW34264   0.134   2.277   3.534 -0.4478  0.1199  0.2277
 7543SOL    HW134265   0.127   2.356   3.480  1.1793  0.4891  0.5453
 7543SOL    HW234266   0.163   2.208   3.474  0.8075  0.8568 -0.0072
 7544SOL     OW34267   4.475   1.601  10.977 -0.5530 -0.2825 -0.3340
 7544SOL    HW134268   4.559   1.562  11.002 -0.1542  1.4557  1.0161
 7544SOL    HW234269   4.504   1.670  10.917  2.0419 -0.7583  0.3592
 7545SOL     OW34270   0.467   2.558   4.942 -0.4353 -0.4806  0.1629
 7545SOL    HW134271   0.530   2.625   4.968 -1.0867  0.6117 -1.0722
 7545SOL    HW234272   0.389   2.589   4.988  0.6124 -0.2168  1.7502
 7546SOL     OW34273   2.599   2.691   8.564  0.1655 -0.1514 -0.0247
 7546SOL    HW134274   2.692   2.670   8.556  0.7763  1.5307  2.7341
 7546SOL    HW234275   2.570   2.626   8.628 -2.5831  0.7828 -0.2974
 7547SOL     OW34276   2.314   2.088   4.520 -0.6193  0.0254  0.2690
 7547SOL    HW134277   2.240   2.038   4.554 -0.9646  0.8265  0.6957
 7547SOL    HW234278   2.276   2.133   4.445 -0.6725 -2.6532 -1.3342
 7548SOL     OW34279   0.176   1.978   5.986 -0.8884  0.4350  0.2150
 7548SOL    HW134280   0.248   2.026   6.027  0.8623  0.4039 -2.8181
 7548SOL    HW234281   0.159   2.027   5.905  0.1468  0.1257 -0.1919
 7549SOL     OW34282   2.013   0.936   2.362 -0.2377 -0.1444 -0.2044
 7549SOL    HW134283   1.931   0.968   2.325  0.4635  0.1814 -1.4681
 7549SOL    HW234284   2.065   1.007   2.401 -1.3898 -0.1511  1.3449
 7550SOL     OW34285   1.351   2.235   3.632 -0.2697  0.1227  0.1182
 7550SOL    HW134286   1.410   2.300   3.670 -1.4066  2.0431 -1.3970
 7550SOL    HW234287   1.329   2.275   3.548  0.3455  0.7187  0.2476
 7551SOL     OW34288   0.267   0.684   2.769  0.5042 -0.5452  0.3192
 7551SOL    HW134289   0.173   0.693   2.750  0.9452 -0.0331 -1.6450
 7551SOL    HW234290   0.280   0.591   2.791 -0.0578 -0.8670 -0.6743
 7552SOL     OW34291   3.869   2.299   5.094  0.0488 -0.4983  0.0928
 7552SOL    HW134292   3.879   2.385   5.135 -0.2369 -0.7793  0.7527
 7552SOL    HW234293   3.787   2.268   5.133 -0.9825  2.0053 -0.0510
 7553SOL     OW34294   0.038   3.690   2.459 -0.1979 -0.1812  0.1742
 7553SOL    HW134295   4.686   3.651   2.463 -0.4690  0.2230 -1.5968
 7553SOL    HW234296   0.083   3.627   2.403 -0.5521 -0.2318 -0.0504
 7554SOL     OW34297   0.033   0.933  10.703  0.0634 -0.3823 -0.5864
 7554SOL    HW134298   0.029   1.020  10.665  3.2739  0.0079 -0.0700
 7554SOL    HW234299   0.080   0.886  10.634  0.2758  2.2005 -2.1893
 7555SOL     OW34300   3.668   4.388   7.726  0.5840 -0.1208 -0.2303
 7555SOL    HW134301   3.638   4.417   7.640 -0.7103 -2.5711 -0.6093
 7555SOL    HW234302   3.603   4.327   7.761 -1.1364  2.8055  1.5977
 7556SOL     OW34303   2.724   3.254  14.280  0.3524  0.0560 -0.3308
 7556SOL    HW134304   2.767   3.323  14.331 -0.5845  0.3987 -0.0071
 7556SOL    HW234305   2.768   3.252  14.195 -0.0421 -3.3429 -0.4260
 7557SOL     OW34306   1.759   0.478   0.052  0.4095  0.2302 -0.6278
 7557SOL    HW134307   1.831   0.541   0.040  0.1367  0.8988  1.2140
 7557SOL    HW234308   1.761   0.471   0.148 -3.3120 -1.4489 -0.7195
 7558SOL     OW34309   2.731   1.173   6.015 -0.1644  0.4319  0.3128
 7558SOL    HW134310   2.774   1.232   5.954  0.2654  0.7579  0.9357
 7558SOL    HW234311   2.641   1.206   6.013 -0.1497  0.2977 -1.7631
 7559SOL     OW34312   1.792   1.751   3.345 -0.1431  0.0048 -0.3448
 7559SOL    HW134313   1.783   1.834   3.390  2.7629 -0.6695  1.4885
 7559SOL    HW234314   1.887   1.739   3.346 -0.2611 -0.9732 -0.4935
 7560SOL     OW34315   4.573   0.744   8.863  0.2102 -0.0416 -0.7552
 7560SOL    HW134316   4.508   0.781   8.922  0.5955  0.7478 -0.8212
 7560SOL    HW234317   4.617   0.683   8.923  0.7309  1.1260  0.0577
 7561SOL     OW34318   3.664   2.004   8.888  0.1815 -0.0292  0.0992
 7561SOL    HW134319   3.744   1.980   8.936 -0.7005 -1.4043  0.8958
 7561SOL    HW234320   3.710   1.982   8.807 -0.1020 -1.9277  0.4418
 7562SOL     OW34321   3.365   1.454  12.649  0.0215 -0.5308  0.0805
 7562SOL    HW134322   3.304   1.522  12.678  0.3212 -0.7840  1.2891
 7562SOL    HW234323   3.441   1.507  12.627 -0.3685 -0.2081 -0.4996
 7563SOL     OW34324   1.198   0.936   2.778 -0.0784  0.2924 -0.3298
 7563SOL    HW134325   1.260   0.951   2.849 -2.4312  0.7287  1.6373
 7563SOL    HW234326   1.255   0.965   2.707  3.1618  0.5686  2.4014
 7564SOL     OW34327   0.527   1.906   6.093  0.2398 -0.1146  0.6736
 7564SOL    HW134328   0.516   1.865   6.007 -0.7593 -0.4299  0.9472
 7564SOL    HW234329   0.485   1.839   6.148  0.5197 -0.8747 -0.0398
 7565SOL     OW34330   0.435   2.827  17.365 -0.1397  0.1882  0.2087
 7565SOL    HW134331   0.459   2.736  17.348  1.1582  0.2546  1.6510
 7565SOL    HW234332   0.486   2.869  17.297 -2.5839  0.9991 -1.1095
 7566SOL     OW34333   1.406   1.205   8.639  0.0733 -0.1109 -0.0920
 7566SOL    HW134334   1.380   1.295   8.615  0.3231 -0.3830 -1.4227
 7566SOL    HW234335   1.487   1.220   8.687  0.1299 -0.6572 -0.0224
 7567SOL     OW34336   3.985   0.446   7.925 -0.5151 -0.1651  0.5523
 7567SOL    HW134337   4.057   0.505   7.949  1.4220 -2.7061  1.0749
 7567SOL    HW234338   4.036   0.370   7.897 -1.2416 -1.2636  2.2357
 7568SOL     OW34339   4.116   4.504   6.224  0.1166  0.5728 -0.1209
 7568SOL    HW134340   4.192   4.483   6.170  0.2716 -0.9353  0.6664
 7568SOL    HW234341   4.045   4.466   6.173  0.9974  0.2867 -1.1209
 7569SOL     OW34342   2.436   3.269   2.479  0.2129  0.5419  0.4611
 7569SOL    HW134343   2.401   3.201   2.420 -1.8523  1.1874  0.9317
 7569SOL    HW234344   2.480   3.210   2.540  0.3779  0.3579  0.1631
 7570SOL     OW34345   3.515   0.132   7.110 -0.3043  0.7981 -0.7605
 7570SOL    HW134346   3.558   0.090   7.184 -0.8488  6.0557  2.4824
 7570SOL    HW234347   3.422   0.112   7.125 -0.3905  0.4053 -1.8260
 7571SOL     OW34348   0.375   3.797  14.930  0.3521 -0.1206  0.2814
 7571SOL    HW134349   0.437   3.752  14.873 -1.1990 -0.1880 -1.3472
 7571SOL    HW234350   0.427   3.834  15.003  0.2002  1.4740 -0.4151
 7572SOL     OW34351   3.690   4.101   3.323  0.4321 -0.3651 -0.0747
 7572SOL    HW134352   3.606   4.146   3.318 -0.0879 -1.1487  1.7849
 7572SOL    HW234353   3.672   4.035   3.256 -0.1754  1.5276 -1.7407
 7573SOL     OW34354   0.566   3.036   9.585 -0.4123 -0.1696  0.0988
 7573SOL    HW134355   0.590   2.966   9.525  1.7788  1.5503 -1.0401
 7573SOL    HW234356   0.473   3.054   9.569  0.1369  0.3355 -2.5997
 7574SOL     OW34357   1.002   2.831  11.498  0.4863 -0.3784 -0.7632
 7574SOL    HW134358   1.052   2.819  11.578  1.7776  2.1848 -1.1691
 7574SOL    HW234359   0.982   2.921  11.524  0.9239 -0.3345 -0.5782
 7575SOL     OW34360   3.122   1.268   6.647 -0.2931  0.0581 -0.4591
 7575SOL    HW134361   3.145   1.177   6.665 -0.2895  0.3449  0.9369
 7575SOL    HW234362   3.096   1.249   6.557 -1.4395 -2.3320  0.3783
 7576SOL     OW34363   2.546   4.673  17.713 -0.3685 -0.1486  0.1964
 7576SOL    HW134364   2.595   4.626  17.646  0.7790  3.2080 -1.3434
 7576SOL    HW234365   2.566   0.032  17.701 -3.2566  0.5360  0.7948
 7577SOL     OW34366   2.759   2.677   6.464 -0.1359  0.5039  0.3675
 7577SOL    HW134367   2.841   2.639   6.493  0.1814 -0.6568 -2.0080
 7577SOL    HW234368   2.720   2.609   6.409 -0.4529  1.4629 -0.6034
 7578SOL     OW34369   0.713   0.875   8.995 -0.2051  0.4378 -0.3183
 7578SOL    HW134370   0.618   0.880   9.002 -0.4093 -3.2851 -0.1985
 7578SOL    HW234371   0.743   0.801   9.047  0.4190  1.2413  0.4548
 7579SOL     OW34372   2.791   0.754   1.380 -0.2257  0.5949  0.2014
 7579SOL    HW134373   2.756   0.753   1.291 -1.3975  1.2809  0.6504
 7579SOL    HW234374   2.885   0.762   1.360  0.0814 -0.0071  1.4402
 7580SOL     OW34375   2.581   1.568   9.649 -0.0014  0.6284  0.1876
 7580SOL    HW134376   2.614   1.520   9.724 -1.2943  0.4093  0.6230
 7580SOL    HW234377   2.656   1.560   9.591  0.5234 -0.9643  1.1107
 7581SOL     OW34378   3.976   2.493   2.069 -0.1938  0.4508  0.1963
 7581SOL    HW134379   3.916   2.444   2.011 -0.6536  2.5677 -1.1006
 7581SOL    HW234380   4.053   2.492   2.013 -1.0302  0.3071 -0.9724
 7582SOL     OW34381   2.261   4.681   1.531 -0.0869 -0.0063 -0.1193
 7582SOL    HW134382   2.311   4.722   1.602 -1.4983 -0.0412  0.8978
 7582SOL    HW234383   2.292   4.725   1.452 -1.4820 -0.9712 -1.2108
 7583SOL     OW34384   4.322   3.229  15.390 -0.0658 -0.2459 -0.1888
 7583SOL    HW134385   4.412   3.196  15.386 -0.1301 -0.7510  2.1746
 7583SOL    HW234386   4.281   3.146  15.415 -3.4165  1.3021 -0.6344
 7584SOL     OW34387   4.630   0.630   7.879 -0.0536  0.2392 -0.2381
 7584SOL    HW134388   4.557   0.692   7.886 -0.0923  0.1673  0.0003
 7584SOL    HW234389   4.708   0.682   7.859  0.2666 -0.8013 -1.6789
 7585SOL     OW34390   0.539   0.318   3.235  0.1559  0.2680 -0.1797
 7585SOL    HW134391   0.510   0.288   3.149  1.4235  0.3341 -0.6265
 7585SOL    HW234392   0.472   0.283   3.294  1.6150 -0.4070  1.0738
 7586SOL     OW34393   2.337   3.033   3.807 -0.3607  0.1447  0.0876
 7586SOL    HW134394   2.290   3.080   3.738 -1.0571  1.9389  1.7757
 7586SOL    HW234395   2.423   3.075   3.812 -0.0649 -0.6597  1.8022
 7587SOL     OW34396   3.416   4.155   2.505  0.2833  0.3585  0.2427
 7587SOL    HW134397   3.435   4.109   2.423  2.7584  2.9033 -0.5941
 7587SOL    HW234398   3.354   4.212   2.459  0.3250 -0.3124 -0.6633
 7588SOL     OW34399   3.774   1.171   3.926  0.0175 -0.1140  0.0003
 7588SOL    HW134400   3.691   1.206   3.959  0.5051  1.4462 -0.4107
 7588SOL    HW234401   3.828   1.176   4.004  0.4885 -2.8268 -0.1568
 7589SOL     OW34402   3.702   3.646  14.246 -0.1805  0.2690  0.1528
 7589SOL    HW134403   3.622   3.695  14.266 -0.6919 -0.3641 -0.3630
 7589SOL    HW234404   3.718   3.670  14.155  0.1741  3.1408  0.9653
 7590SOL     OW34405   2.211   1.975   6.584 -0.2297 -0.0719  0.5709
 7590SOL    HW134406   2.190   1.911   6.652 -0.6421 -0.1604  0.3571
 7590SOL    HW234407   2.198   1.932   6.500  1.4660 -0.3825  0.4560
 7591SOL     OW34408   0.524   4.133   2.398  0.4175  0.6323 -0.5040
 7591SOL    HW134409   0.494   4.224   2.393  1.3173  0.9714  0.3863
 7591SOL    HW234410   0.573   4.128   2.480 -1.2226  0.4686  0.4634
 7592SOL     OW34411   4.718   1.329   9.407  0.3921  0.3461 -0.4988
 7592SOL    HW134412   0.069   1.363   9.381  1.6919 -3.2681 -0.9048
 7592SOL    HW234413   4.683   1.318   9.319 -1.0863 -1.3404  0.3164
 7593SOL     OW34414   1.880   3.260   5.069  0.2824 -0.1311 -0.4167
 7593SOL    HW134415   1.908   3.320   5.138 -2.5415 -1.3226  1.7842
 7593SOL    HW234416   1.952   3.274   5.008  0.1161  1.8505 -0.1493
 7594SOL     OW34417   0.621   1.121   2.440  0.9845  0.0495 -0.5545
 7594SOL    HW134418   0.575   1.204   2.455 -1.4929 -1.4434  0.0967
 7594SOL    HW234419   0.569   1.075   2.373  1.6865  0.4417 -1.3746
 7595SOL     OW34420   1.227   2.286   1.186 -0.2495  0.3969  0.1414
 7595SOL    HW134421   1.255   2.195   1.194  1.1683  0.7315 -1.0906
 7595SOL    HW234422   1.269   2.302   1.101 -1.2564  0.6781 -0.3100
 7596SOL     OW34423   1.649   3.064   8.878 -0.2283  0.0253  0.0705
 7596SOL    HW134424   1.699   3.107   8.808  1.7153 -1.7680  0.3443
 7596SOL    HW234425   1.697   2.982   8.889  1.5092  0.9801 -0.4380
 7597SOL     OW34426   4.139   3.669   7.992  0.4022  0.2507 -0.0679
 7597SOL    HW134427   4.117   3.608   7.921 -2.2015  3.4622 -1.9707
 7597SOL    HW234428   4.227   3.643   8.020  0.2359  0.0546  0.2765
 7598SOL     OW34429   1.920   1.574   8.391  0.1731  0.4329  0.0229
 7598SOL    HW134430   1.993   1.633   8.404  0.9459 -1.2053  2.9674
 7598SOL    HW234431   1.901   1.595   8.299 -0.2551  1.5774  0.3695
 7599SOL     OW34432   0.292   3.045   9.444 -0.0255 -0.4549  0.3974
 7599SOL    HW134433   0.337   3.114   9.394  1.3325 -1.7622 -0.1896
 7599SOL    HW234434   0.207   3.054   9.401 -0.2430  0.7552  1.0522
 7600SOL     OW34435   3.106   1.623   8.688  0.1104  0.3607 -0.7386
 7600SOL    HW134436   3.175   1.651   8.748 -0.4042  1.9382 -0.8641
 7600SOL    HW234437   3.119   1.528   8.685 -0.7314  0.1814  1.2246
 7601SOL     OW34438   3.613   3.208  15.918 -0.2030  0.3120 -0.2061
 7601SOL    HW134439   3.587   3.276  15.980  0.2517 -1.4420  1.8726
 7601SOL    HW234440   3.653   3.154  15.985 -2.2656  1.1755  1.7489
 7602SOL     OW34441   2.707   2.239  12.208 -0.1906  0.1444 -0.0017
 7602SOL    HW134442   2.763   2.172  12.168  2.1599  0.5839  2.5652
 7602SOL    HW234443   2.714   2.314  12.149  1.4156 -0.8309 -1.0893
 7603SOL     OW34444   2.377   3.781  10.787 -0.1207  0.2301  0.2340
 7603SOL    HW134445   2.351   3.773  10.879 -0.0640  1.7528  0.3837
 7603SOL    HW234446   2.420   3.697  10.771 -0.3849 -0.0201  0.8052
 7604SOL     OW34447   0.047   3.240   1.280 -0.4941 -0.8786 -0.2842
 7604SOL    HW134448   0.108   3.229   1.207  0.0029 -1.2605  0.1823
 7604SOL    HW234449   0.075   3.321   1.322  0.5002 -0.8827 -0.9371
 7605SOL     OW34450   3.077   3.651  11.374 -0.5065  0.2924 -0.0615
 7605SOL    HW134451   3.102   3.740  11.400  2.2627 -0.0335 -1.6224
 7605SOL    HW234452   3.096   3.651  11.280  1.1408 -0.1549  0.2745
 7606SOL     OW34453   2.471   0.923   8.005  0.3197  0.2856  0.4755
 7606SOL    HW134454   2.394   0.951   7.954  1.4933  1.3587 -0.7170
 7606SOL    HW234455   2.497   1.008   8.041  0.1960 -0.1742  1.6505
 7607SOL     OW34456   1.676   2.485   6.853 -0.4712 -0.1808 -0.5951
 7607SOL    HW134457   1.675   2.428   6.777 -1.4816 -1.9026  0.6971
 7607SOL    HW234458   1.582   2.496   6.868 -0.0428  1.2787  1.0016
 7608SOL     OW34459   1.460   0.897   4.951 -0.0327  0.1165 -0.6921
 7608SOL    HW134460   1.528   0.893   5.019 -0.3809 -2.9556 -0.5264
 7608SOL    HW234461   1.384   0.920   5.005 -0.0056 -1.7754  0.1501
 7609SOL     OW34462   3.645   3.429   5.953 -0.6453 -0.3711 -0.3288
 7609SOL    HW134463   3.606   3.404   6.037 -0.6776  0.0260 -0.2298
 7609SOL    HW234464   3.695   3.353   5.920  3.1071  1.0370  2.1492
 7610SOL     OW34465   4.063   4.286  14.287  0.7148 -0.2753  0.6710
 7610SOL    HW134466   4.034   4.294  14.196  0.8876 -2.1565  0.4507
 7610SOL    HW234467   4.130   4.219  14.274  0.2411 -0.7750  0.7867
 7611SOL     OW34468   3.264   4.341   4.047  0.0793  0.1329 -0.4024
 7611SOL    HW134469   3.216   4.271   4.003 -2.0828  0.5845  1.2035
 7611SOL    HW234470   3.316   4.382   3.978 -0.7677  0.6638 -0.7273
 7612SOL     OW34471   1.682   2.581   6.336  0.2043 -0.2793 -0.0980
 7612SOL    HW134472   1.748   2.598   6.269 -1.3456 -0.9017 -1.7931
 7612SOL    HW234473   1.739   2.550   6.406 -1.1605 -3.2061 -0.3043
 7613SOL     OW34474   3.102   3.834   2.067 -0.6743  0.0649 -0.0644
 7613SOL    HW134475   3.170   3.775   2.034 -1.4950 -0.6111 -0.5465
 7613SOL    HW234476   3.120   3.914   2.018  0.7122  1.2582  2.3805
 7614SOL     OW34477   3.163   3.373   9.775 -0.2213 -0.0491 -0.0925
 7614SOL    HW134478   3.113   3.338   9.702 -0.1337  0.4663 -0.4019
 7614SOL    HW234479   3.108   3.369   9.854 -1.4693  1.5996 -0.8798
 7615SOL     OW34480   0.387   3.629   8.258  0.1688  0.0923 -0.2055
 7615SOL    HW134481   0.329   3.610   8.184  2.2439 -1.1382 -1.5120
 7615SOL    HW234482   0.328   3.656   8.328 -0.5507 -0.6716 -0.5187
 7616SOL     OW34483   2.456   1.544   3.037  0.1832  0.2675 -0.7258
 7616SOL    HW134484   2.539   1.511   3.002 -0.3578 -2.4725  0.5965
 7616SOL    HW234485   2.439   1.605   2.965 -0.1370 -1.9279 -2.4979
 7617SOL     OW34486   1.441   3.161  17.094  0.1143 -0.2633 -0.7509
 7617SOL    HW134487   1.435   3.066  17.082  2.6461 -0.7996  2.1054
 7617SOL    HW234488   1.356   3.189  17.061 -0.4427  0.3184  1.1969
 7618SOL     OW34489   0.636   2.835   9.415 -0.1546 -0.1676 -1.0318
 7618SOL    HW134490   0.615   2.796   9.330  1.2480  0.6825 -1.7611
 7618SOL    HW234491   0.728   2.808   9.417 -0.0530  0.2507 -0.2098
 7619SOL     OW34492   3.655   3.424   0.885 -0.2785  0.0642 -0.0070
 7619SOL    HW134493   3.708   3.447   0.809 -1.7012 -0.1105 -1.0561
 7619SOL    HW234494   3.627   3.336   0.859 -0.8055 -0.2231  1.5055
 7620SOL     OW34495   0.462   2.238   4.917  0.5537 -0.1264 -0.3915
 7620SOL    HW134496   0.511   2.198   4.989 -0.9902 -1.9908 -0.3805
 7620SOL    HW234497   0.493   2.328   4.932 -2.4228  0.6819  0.8808
 7621SOL     OW34498   3.195   1.383   1.126  0.0057  0.1025  0.0747
 7621SOL    HW134499   3.272   1.439   1.134  0.4939 -0.4594 -0.7532
 7621SOL    HW234500   3.142   1.424   1.195  0.1701  2.0291 -0.9270
 7622SOL     OW34501   4.498   1.009  16.373  0.1076  0.1980 -0.4172
 7622SOL    HW134502   4.477   0.958  16.294 -0.0736 -2.0060  1.0752
 7622SOL    HW234503   4.588   1.028  16.348  0.4098  0.1367  0.6546
 7623SOL     OW34504   1.302   4.233   8.666  0.5424 -0.3169  0.3342
 7623SOL    HW134505   1.308   4.260   8.758 -1.3783  0.9540  0.0918
 7623SOL    HW234506   1.225   4.176   8.667  0.2681  0.0235 -1.2741
 7624SOL     OW34507   2.401   2.667   4.910 -0.3789  0.4356 -0.1874
 7624SOL    HW134508   2.426   2.716   4.988  1.0680 -1.2574  0.4031
 7624SOL    HW234509   2.309   2.694   4.911 -0.2950  0.7623 -1.5691
 7625SOL     OW34510   1.667   2.558  12.019  0.6886  0.7439  0.4585
 7625SOL    HW134511   1.689   2.613  11.944  1.1236  1.1441  0.8807
 7625SOL    HW234512   1.731   2.578  12.087 -0.1035  0.2589  1.3515
 7626SOL     OW34513   3.747   4.613   5.709  0.4778 -0.7245  0.5364
 7626SOL    HW134514   3.788   4.594   5.793 -1.0672 -0.7254  1.2830
 7626SOL    HW234515   3.693   4.534   5.702  1.9784 -1.7367  0.4412
 7627SOL     OW34516   0.270   3.482   0.531  0.6600 -0.6549 -0.3272
 7627SOL    HW134517   0.196   3.425   0.513  0.1343  0.4344 -1.6755
 7627SOL    HW234518   0.228   3.568   0.526  2.2781  0.1943  0.4560
 7628SOL     OW34519   1.371   2.500   7.963 -0.1012  0.0712 -0.4718
 7628SOL    HW134520   1.310   2.429   7.940  2.7577 -2.0671 -1.5358
 7628SOL    HW234521   1.458   2.461   7.965 -1.2206 -2.3863  0.6558
 7629SOL     OW34522   3.567   3.833   5.143 -0.1692  0.3153 -0.0882
 7629SOL    HW134523   3.609   3.846   5.228  0.3171 -0.3464 -0.2270
 7629SOL    HW234524   3.552   3.922   5.112  1.4610  1.1240  1.4495
 7630SOL     OW34525   2.896   1.517   6.523 -0.5937  0.4691 -0.0154
 7630SOL    HW134526   2.915   1.510   6.616  1.0428  1.8737 -0.2459
 7630SOL    HW234527   2.830   1.449   6.514  2.3525 -2.1490 -1.6474
 7631SOL     OW34528   0.596   0.761   6.264 -0.0908  0.6547  0.1732
 7631SOL    HW134529   0.587   0.729   6.354 -0.3607  2.5619  0.8410
 7631SOL    HW234530   0.517   0.731   6.220 -0.2600 -0.4977  1.2639
 7632SOL     OW34531   0.353   0.104   1.655 -0.0163  0.7449 -0.7239
 7632SOL    HW134532   0.278   0.091   1.713 -0.0437 -0.1096 -0.9613
 7632SOL    HW234533   0.424   0.147   1.704 -0.8100  2.3248 -0.9515
 7633SOL     OW34534   1.223   1.629   9.461 -0.3988 -0.8770  0.0102
 7633SOL    HW134535   1.318   1.639   9.469 -0.3929 -1.4749  0.7210
 7633SOL    HW234536   1.224   1.628   9.366 -1.2070 -2.3118  0.0204
 7634SOL     OW34537   2.919   4.463   4.739  0.0021 -0.7964 -0.1896
 7634SOL    HW134538   2.963   4.499   4.662 -1.9718  0.4251 -0.7416
 7634SOL    HW234539   2.932   4.372   4.714 -0.4124 -0.7619 -0.5328
 7635SOL     OW34540   1.031   4.651   5.826  0.9718  0.3102  0.2394
 7635SOL    HW134541   1.099   4.650   5.759 -0.2095 -1.9598 -0.8995
 7635SOL    HW234542   1.086   4.690   5.895  0.7072 -3.0941  2.3529
 7636SOL     OW34543   2.503   2.802   5.987 -0.0994  0.0140  0.1309
 7636SOL    HW134544   2.588   2.762   6.011  1.2945  2.3848 -0.9007
 7636SOL    HW234545   2.531   2.858   5.915  0.8872 -0.8642 -0.1772
 7637SOL     OW34546   1.081   3.857   7.920 -0.1098  0.1844  0.1257
 7637SOL    HW134547   1.147   3.867   7.988  0.2308  1.8977 -0.4484
 7637SOL    HW234548   1.102   3.770   7.887 -0.0620  0.2725 -0.0764
 7638SOL     OW34549   3.977   0.774   7.962 -0.1084 -0.0961 -0.0688
 7638SOL    HW134550   3.980   0.870   7.954  1.3444  0.0247  2.0204
 7638SOL    HW234551   4.003   0.763   8.054 -0.2349  0.2263  0.0078
 7639SOL     OW34552   4.002   0.532   5.308 -0.6434  0.1061 -0.0709
 7639SOL    HW134553   3.985   0.583   5.388  1.7385 -0.3295  0.7180
 7639SOL    HW234554   4.035   0.593   5.242  0.0529  1.6560  1.7086
 7640SOL     OW34555   1.584   0.122   3.976 -0.0416 -0.0504  0.5960
 7640SOL    HW134556   1.572   0.029   3.991 -2.6146  0.2635  0.4939
 7640SOL    HW234557   1.635   0.156   4.050 -2.0954 -0.0306  2.0136
 7641SOL     OW34558   1.136   1.331  13.476  0.4966 -0.2895  0.3714
 7641SOL    HW134559   1.137   1.236  13.488  0.5073 -0.1277  1.6251
 7641SOL    HW234560   1.228   1.354  13.464  0.5605 -0.6979  0.1043
 7642SOL     OW34561   2.803   3.880   3.028  0.5719 -0.5573 -0.2116
 7642SOL    HW134562   2.782   3.974   3.029  1.7278 -0.2666 -1.4129
 7642SOL    HW234563   2.828   3.867   2.936 -1.3731  2.1142 -1.1142
 7643SOL     OW34564   2.658   1.499  10.156  0.2675  0.4592 -0.3274
 7643SOL    HW134565   2.626   1.414  10.128  1.2664 -0.8319  2.4099
 7643SOL    HW234566   2.620   1.565  10.098  0.9909  1.5678  0.4396
 7644SOL     OW34567   1.253   4.234   9.207 -0.1252  0.6612 -0.4733
 7644SOL    HW134568   1.322   4.203   9.265 -1.1723 -1.6640 -0.4656
 7644SOL    HW234569   1.217   4.145   9.203 -0.4257  0.7306  0.7525
 7645SOL     OW34570   2.834   4.032   6.701  0.0814  0.2376  0.3270
 7645SOL    HW134571   2.912   4.002   6.748  0.2589 -0.5485 -0.4793
 7645SOL    HW234572   2.865   4.114   6.661 -1.1327 -0.0100 -1.1298
 7646SOL     OW34573   4.423   1.185   4.617 -0.9189  0.1463  0.0549
 7646SOL    HW134574   4.471   1.127   4.676 -0.3376  0.8396  0.2709
 7646SOL    HW234575   4.476   1.162   4.541  1.1621  1.6386  1.0477
 7647SOL     OW34576   0.935   0.607   4.492 -0.1408 -0.2153  0.4959
 7647SOL    HW134577   0.872   0.605   4.420 -1.5847  0.6162  1.7420
 7647SOL    HW234578   1.019   0.607   4.446  0.1682 -0.2779  1.0475
 7648SOL     OW34579   1.768   2.122  13.729  0.1492  0.3262  0.0791
 7648SOL    HW134580   1.858   2.123  13.762 -0.6670  2.2259  2.2998
 7648SOL    HW234581   1.764   2.218  13.732  1.9221  0.3344  1.9191
 7649SOL     OW34582   4.423   1.734   5.874 -0.0491 -0.9879  0.3624
 7649SOL    HW134583   4.499   1.676   5.865  0.1906 -0.5496 -0.4580
 7649SOL    HW234584   4.459   1.800   5.932 -4.6608  0.8537  1.1387
 7650SOL     OW34585   1.808   0.956   6.438 -0.1277  0.2072 -0.4858
 7650SOL    HW134586   1.850   0.892   6.380  1.1119  2.0998 -1.6501
 7650SOL    HW234587   1.717   0.967   6.410  0.2464  1.5622 -1.1281
 7651SOL     OW34588   4.045   3.908   5.925 -0.0879  0.0290 -0.2970
 7651SOL    HW134589   3.975   3.858   5.884  1.1509 -2.4383  0.5883
 7651SOL    HW234590   4.116   3.844   5.914  0.7036  0.9772 -0.6799
 7652SOL     OW34591   0.234   2.035   9.629  0.7342 -0.1746 -0.2975
 7652SOL    HW134592   0.222   1.948   9.589 -0.4505  0.5079 -1.4196
 7652SOL    HW234593   0.232   2.091   9.551 -0.2866  1.1999  0.7375
 7653SOL     OW34594   0.939   0.494   6.794  0.2165  0.3901  0.7101
 7653SOL    HW134595   1.023   0.540   6.801  0.3729  0.3101 -0.6226
 7653SOL    HW234596   0.879   0.556   6.753  0.2739 -0.8193 -1.1998
 7654SOL     OW34597   1.555   2.949  14.991 -0.2796 -0.3757  0.3406
 7654SOL    HW134598   1.613   3.024  14.978  1.3304 -1.7224 -0.3112
 7654SOL    HW234599   1.621   2.880  15.001  1.6716  1.5560  0.7733
 7655SOL     OW34600   3.911   3.514   0.668  0.3509 -0.4440  0.3198
 7655SOL    HW134601   3.960   3.504   0.587  0.2754 -1.4415  0.4025
 7655SOL    HW234602   3.821   3.523   0.636 -0.0239  1.2433  1.8228
 7656SOL     OW34603   2.742   4.538   5.904 -0.4248  0.5811  0.5800
 7656SOL    HW134604   2.669   4.530   5.965  1.2497 -1.4405  2.3270
 7656SOL    HW234605   2.777   4.620   5.939  0.4911  0.4929 -0.1210
 7657SOL     OW34606   4.511   2.814   7.624  0.6512  0.0849 -0.0957
 7657SOL    HW134607   4.548   2.726   7.618 -0.8568 -0.4852 -0.8290
 7657SOL    HW234608   4.500   2.843   7.534  1.4282  1.8401  0.3636
 7658SOL     OW34609   0.931   2.957   4.629  0.2910 -0.1937 -0.2806
 7658SOL    HW134610   1.013   2.995   4.662  1.4380 -0.1762 -3.1293
 7658SOL    HW234611   0.886   2.934   4.710  1.0044  1.3728  0.5619
 7659SOL     OW34612   1.188   2.760  17.196 -0.2955 -0.3745 -0.3056
 7659SOL    HW134613   1.109   2.811  17.179  0.1335  0.1314 -0.8152
 7659SOL    HW234614   1.244   2.797  17.126 -2.7335  1.7155 -1.1443
 7660SOL     OW34615   0.399   1.007   2.790 -0.3837 -0.7596 -0.0232
 7660SOL    HW134616   0.344   0.961   2.726 -1.1522  0.8703 -0.5260
 7660SOL    HW234617   0.477   1.017   2.736 -0.2002  0.0321  0.3891
 7661SOL     OW34618   3.507   0.904   3.623 -0.2634 -0.2192 -0.0890
 7661SOL    HW134619   3.449   0.853   3.680  0.0958 -0.9940 -0.4172
 7661SOL    HW234620   3.582   0.929   3.677  0.7658  2.8342 -2.9506
 7662SOL     OW34621   4.066   2.815   4.937  0.2657 -0.5750  0.2740
 7662SOL    HW134622   4.075   2.723   4.960 -1.8770 -1.0807 -0.9076
 7662SOL    HW234623   4.065   2.854   5.025  0.2059  0.3311 -0.1215
 7663SOL     OW34624   3.953   2.222  17.031  0.0907  0.2789  0.5008
 7663SOL    HW134625   3.934   2.146  17.085  2.9816  0.1426  1.3061
 7663SOL    HW234626   4.046   2.228  17.050  0.2834 -1.4057  0.0616
 7664SOL     OW34627   4.593   0.778  13.698 -0.0629  0.4963  0.2966
 7664SOL    HW134628   4.536   0.740  13.632  0.7379 -2.8654  1.5441
 7664SOL    HW234629   4.655   0.829  13.645  0.4871 -1.2621 -0.7591
 7665SOL     OW34630   1.365   2.569  10.726  0.2307 -0.3197  0.1671
 7665SOL    HW134631   1.431   2.587  10.793 -0.6127  0.1787  0.8561
 7665SOL    HW234632   1.417   2.571  10.645  0.5111  0.6140  0.3662
 7666SOL     OW34633   4.077   4.430   5.584 -0.1979  0.5870 -0.3035
 7666SOL    HW134634   4.098   4.377   5.661 -0.1621 -1.0317 -1.4281
 7666SOL    HW234635   4.009   4.384   5.534 -1.2104  1.3471  0.3665
 7667SOL     OW34636   0.675   1.319   9.528  0.0224 -0.0039  0.0625
 7667SOL    HW134637   0.637   1.260   9.463  1.0871 -0.0292 -0.5385
 7667SOL    HW234638   0.694   1.258   9.600 -4.3359 -0.9179  0.4542
 7668SOL     OW34639   3.259   2.671  13.990 -0.6966 -0.1672 -0.0199
 7668SOL    HW134640   3.178   2.706  14.028  0.2957  0.9896  1.0248
 7668SOL    HW234641   3.313   2.748  14.008  2.5948 -2.5612  0.3070
 7669SOL     OW34642   0.641   3.027   7.615 -0.0634  0.2033  0.4377
 7669SOL    HW134643   0.644   3.035   7.519  2.2072  0.0037  0.5055
 7669SOL    HW234644   0.689   2.945   7.618 -0.7859 -0.2952 -1.6187
 7670SOL     OW34645   3.920   0.444   1.986  0.4858 -0.1589  0.2818
 7670SOL    HW134646   3.921   0.508   2.057 -0.4056  0.0509  0.1089
 7670SOL    HW234647   4.007   0.405   1.976  0.8608  0.2563  1.9167
 7671SOL     OW34648   4.349   1.639   4.097  0.0358 -0.6799 -0.1765
 7671SOL    HW134649   4.305   1.724   4.105 -1.7092 -1.6939  1.0817
 7671SOL    HW234650   4.388   1.623   4.183 -1.8704 -1.1709  0.5907
 7672SOL     OW34651   4.649   1.086   8.426 -0.2221 -0.1693 -0.0236
 7672SOL    HW134652   4.658   1.062   8.334  1.8532 -0.4528  0.2454
 7672SOL    HW234653   4.730   1.133   8.448  0.6737 -1.7822  0.0687
 7673SOL     OW34654   4.607   3.955  11.359 -0.1978  0.1702  0.4166
 7673SOL    HW134655   4.603   3.890  11.429  0.3072 -0.7437 -0.4045
 7673SOL    HW234656   4.624   4.037  11.406  1.4076  0.8597 -1.3487
 7674SOL     OW34657   4.316   4.696   7.039  0.5761 -0.4086  0.0501
 7674SOL    HW134658   4.362   4.625   7.083 -0.1168  0.9331  2.9085
 7674SOL    HW234659   4.342   0.034   7.096 -1.5168  0.0812  0.3839
 7675SOL     OW34660   2.100   0.693   4.838 -0.2515  0.1155 -0.5030
 7675SOL    HW134661   2.176   0.637   4.824 -0.1596 -0.1911  1.2792
 7675SOL    HW234662   2.032   0.644   4.791 -0.6735  1.6667 -1.5335
 7676SOL     OW34663   1.594   3.685   2.650  0.4035 -0.1948  0.1126
 7676SOL    HW134664   1.647   3.717   2.577  0.6502 -3.5402 -1.1574
 7676SOL    HW234665   1.517   3.656   2.602  2.3075 -1.6369 -2.0660
 7677SOL     OW34666   3.518   2.403   5.611  0.6377 -0.5402 -0.0125
 7677SOL    HW134667   3.476   2.431   5.529 -1.1265  0.5696  1.2725
 7677SOL    HW234668   3.609   2.405   5.582  1.3629  1.0511  2.4268
 7678SOL     OW34669   3.107   1.297  13.873 -0.9539  0.6000  0.4439
 7678SOL    HW134670   3.053   1.317  13.797 -0.4581 -1.0091 -0.3438
 7678SOL    HW234671   3.117   1.202  13.867  0.3958  0.7871 -0.2476
 7679SOL     OW34672   4.267   3.602   4.014 -0.2253  0.0513  0.8940
 7679SOL    HW134673   4.313   3.519   4.002 -1.6257 -0.5808 -0.1466
 7679SOL    HW234674   4.250   3.604   4.108 -1.0571  0.9883  0.7269
 7680SOL     OW34675   3.018   0.102   7.750 -0.1021 -0.6915 -0.2861
 7680SOL    HW134676   3.112   0.093   7.766 -0.4115 -1.2588  1.1567
 7680SOL    HW234677   2.975   0.017   7.759  1.0195 -1.3682 -1.2559
 7681SOL     OW34678   1.474   3.112   3.502  0.0103 -0.3477  0.3724
 7681SOL    HW134679   1.476   3.157   3.587 -0.5895  1.5729 -0.6348
 7681SOL    HW234680   1.560   3.070   3.502 -0.4187 -1.2167  1.4543
 7682SOL     OW34681   3.950   0.742   6.990 -0.9208  0.0445  0.0500
 7682SOL    HW134682   3.974   0.781   7.073 -0.6742 -1.6470  0.7877
 7682SOL    HW234683   3.926   0.654   7.021 -1.1926 -0.8952 -2.7493
 7683SOL     OW34684   1.820   2.640   5.392 -0.0901 -0.3760 -0.1730
 7683SOL    HW134685   1.825   2.696   5.470  1.5714  0.3391 -0.7953
 7683SOL    HW234686   1.791   2.706   5.329 -0.6159 -2.0512 -1.6832
 7684SOL     OW34687   0.438   2.184   6.127  0.1332 -0.2313 -0.1503
 7684SOL    HW134688   0.497   2.241   6.078  0.6371  0.1870  0.9507
 7684SOL    HW234689   0.472   2.101   6.095  2.3966  0.4159  0.6151
 7685SOL     OW34690   1.349   1.097   4.780  0.4294 -0.0285 -0.6054
 7685SOL    HW134691   1.401   1.035   4.832  0.9696 -1.0161 -2.3037
 7685SOL    HW234692   1.302   1.145   4.848 -0.4117  1.5629 -2.3155
 7686SOL     OW34693   3.380   0.971   6.991 -0.5235  0.1304 -0.7640
 7686SOL    HW134694   3.286   0.987   6.996 -0.9356 -2.3131 -0.3541
 7686SOL    HW234695   3.381   0.908   6.919  1.3499  1.4552 -1.8872
 7687SOL     OW34696   0.631   0.284   7.044  0.0257  0.3681  0.1875
 7687SOL    HW134697   0.690   0.245   6.980  0.1155 -0.7074  0.9145
 7687SOL    HW234698   0.580   0.346   6.992  0.8327  0.8134 -0.0856
 7688SOL     OW34699   1.014   4.049   1.681  0.2268 -0.4571 -0.5286
 7688SOL    HW134700   1.032   4.143   1.682 -0.4665 -0.3218 -0.6233
 7688SOL    HW234701   0.919   4.048   1.674  0.1729  2.7040 -0.2466
 7689SOL     OW34702   3.367   1.897   9.288 -0.3790  0.4778  0.1077
 7689SOL    HW134703   3.381   1.932   9.376  1.9712  1.1983 -0.5538
 7689SOL    HW234704   3.439   1.946   9.249  0.9390 -3.0023 -1.7921
 7690SOL     OW34705   1.183   2.892   8.661 -0.1084  0.2960  0.0043
 7690SOL    HW134706   1.109   2.832   8.668 -1.2574  2.0183  2.1848
 7690SOL    HW234707   1.238   2.822   8.695  2.2807  2.2979  0.3034
 7691SOL     OW34708   2.218   2.600   9.403  0.8366 -0.3029  0.5198
 7691SOL    HW134709   2.277   2.671   9.378 -2.6861  1.6843 -2.0990
 7691SOL    HW234710   2.153   2.610   9.333  1.1737  0.0532  0.2613
 7692SOL     OW34711   1.074   3.114   3.969  0.2750  0.2888 -0.3815
 7692SOL    HW134712   1.065   3.092   4.062  0.4322  0.5953 -0.2921
 7692SOL    HW234713   0.984   3.108   3.936  0.4856  1.7531 -1.1880
 7693SOL     OW34714   1.415   3.793   9.254 -0.0419  0.0280  0.1544
 7693SOL    HW134715   1.361   3.802   9.176  2.8507  1.9166 -1.6364
 7693SOL    HW234716   1.465   3.711   9.249 -0.1541 -0.1937  2.4325
 7694SOL     OW34717   4.449   1.829   5.627  0.2969  0.1598 -0.5849
 7694SOL    HW134718   4.425   1.764   5.692  1.2004  0.5184  0.0941
 7694SOL    HW234719   4.416   1.804   5.540  2.3143  0.3670 -1.3986
 7695SOL     OW34720   1.021   0.986  14.978  0.1015 -0.1402  0.3783
 7695SOL    HW134721   0.976   1.063  15.014 -1.2419  0.6599 -2.9804
 7695SOL    HW234722   1.085   0.961  15.044  1.5790  0.6258 -0.7764
 7696SOL     OW34723   3.043   4.231   9.972  0.3168  0.0967 -0.4066
 7696SOL    HW134724   3.059   4.299   9.908  1.9104  1.4386  1.4440
 7696SOL    HW234725   3.121   4.176   9.971  0.6215  0.5195  0.4510
 7697SOL     OW34726   0.439   2.118  16.035 -0.5102  0.1410  0.5783
 7697SOL    HW134727   0.419   2.144  15.946  1.3064 -0.9299 -0.1461
 7697SOL    HW234728   0.517   2.172  16.050  0.3484 -0.8293 -0.4495
 7698SOL     OW34729   2.449   4.526   3.080 -0.6901  0.1276  0.4999
 7698SOL    HW134730   2.467   4.608   3.034 -0.0265  1.1078  2.5253
 7698SOL    HW234731   2.514   4.463   3.048 -0.1371  0.3842  1.1094
 7699SOL     OW34732   2.038   2.849  11.376  0.1439  0.2961 -0.1631
 7699SOL    HW134733   1.989   2.873  11.297  0.6209  0.5430 -0.3849
 7699SOL    HW234734   2.129   2.876  11.362 -0.0198  0.3500 -1.0866
 7700SOL     OW34735   1.354   1.931   9.825  0.0834 -0.2413 -0.1755
 7700SOL    HW134736   1.378   1.996   9.891  1.8678 -2.2195  1.1205
 7700SOL    HW234737   1.429   1.871   9.825  0.3098  0.0388 -0.0293
 7701SOL     OW34738   3.668   0.094   8.813 -0.0946  0.2506 -0.7107
 7701SOL    HW134739   3.580   0.131   8.818  0.7439  2.2793 -0.9711
 7701SOL    HW234740   3.659   0.006   8.849  1.5515  0.5231  0.3955
 7702SOL     OW34741   1.003   0.687  11.921 -0.1875  0.2814  0.0772
 7702SOL    HW134742   1.057   0.625  11.872  0.4819 -0.2978  1.5538
 7702SOL    HW234743   1.069   0.710  11.987 -0.4807  2.6089 -0.4610
 7703SOL     OW34744   0.939   2.871  14.274 -0.6021 -0.1989  0.1151
 7703SOL    HW134745   0.933   2.849  14.367 -3.0794 -0.3359 -0.0545
 7703SOL    HW234746   0.982   2.794  14.237  2.9785  0.5958  2.6519
 7704SOL     OW34747   2.629   3.388   3.589  0.1236  0.1919  0.2291
 7704SOL    HW134748   2.705   3.337   3.618 -0.8642 -1.7300 -0.6412
 7704SOL    HW234749   2.650   3.475   3.623 -1.8429  0.8982 -0.3601
 7705SOL     OW34750   2.038   0.324   7.480 -0.2218  0.2057 -0.2913
 7705SOL    HW134751   2.059   0.298   7.570 -1.9086 -0.3472 -0.0582
 7705SOL    HW234752   2.122   0.301   7.441 -1.2834  0.0080 -2.4465
 7706SOL     OW34753   1.988   0.294  17.007  0.5126  0.0498  0.9394
 7706SOL    HW134754   1.945   0.364  16.958  1.8543  1.6132  1.9859
 7706SOL    HW234755   1.913   0.235  17.011  1.9475 -1.8359  0.1917
 7707SOL     OW34756   1.471   4.288   2.002 -0.2742  0.5615 -0.0685
 7707SOL    HW134757   1.539   4.348   1.970 -0.9750  0.9904 -0.7545
 7707SOL    HW234758   1.495   4.210   1.952  0.0669 -0.0069  0.9774
 7708SOL     OW34759   0.473   3.211   6.375  0.2148  0.2974 -0.2261
 7708SOL    HW134760   0.456   3.180   6.286 -0.0185 -2.0533  0.6318
 7708SOL    HW234761   0.530   3.140   6.405 -0.0561  0.2154  0.0910
 7709SOL     OW34762   4.029   2.811   1.586  0.7120 -0.5188 -0.2259
 7709SOL    HW134763   3.980   2.797   1.506  0.0585 -2.8248  0.6040
 7709SOL    HW234764   4.119   2.790   1.562 -0.2125 -3.5808 -0.9266
 7710SOL     OW34765   4.071   1.614   9.515 -0.0356  0.0491  0.0406
 7710SOL    HW134766   4.031   1.552   9.454  2.7208 -2.3560  0.6990
 7710SOL    HW234767   4.153   1.570   9.537  0.2045  0.8389  0.7110
 7711SOL     OW34768   2.076   3.935  12.861  0.4840  0.0964  0.1492
 7711SOL    HW134769   2.129   3.963  12.786 -0.1465 -0.2337 -0.4112
 7711SOL    HW234770   2.138   3.869  12.893  2.1441  1.3166 -0.5534
 7712SOL     OW34771   4.047   4.100  15.885 -0.1255 -0.6279  0.1557
 7712SOL    HW134772   3.972   4.058  15.927 -1.3666  0.4020 -1.0111
 7712SOL    HW234773   4.002   4.112  15.801  1.0178 -0.9786 -0.5035
 7713SOL     OW34774   0.267   4.385   4.559 -0.2184  0.1138  0.0773
 7713SOL    HW134775   0.173   4.373   4.548 -0.9796  1.5185  4.8801
 7713SOL    HW234776   0.269   4.467   4.609  2.0082 -0.1277  0.3960
 7714SOL     OW34777   4.506   3.408   5.249  0.0078  0.3216 -0.2479
 7714SOL    HW134778   4.568   3.480   5.258 -0.1403  0.3345  0.6283
 7714SOL    HW234779   4.518   3.376   5.338  2.2875 -0.5838 -0.8820
 7715SOL     OW34780   1.409   3.373  12.101  0.0548 -0.2747  0.1175
 7715SOL    HW134781   1.341   3.436  12.078 -0.8970 -1.7502 -1.0818
 7715SOL    HW234782   1.461   3.376  12.021  1.1103 -1.7239  0.7385
 7716SOL     OW34783   3.995   1.792   6.786  0.0538 -0.1252  0.1277
 7716SOL    HW134784   3.965   1.718   6.732  0.0092 -0.2780  0.3642
 7716SOL    HW234785   3.923   1.811   6.846 -0.5162  0.9811 -0.9076
 7717SOL     OW34786   4.186   3.798   8.324  0.4696 -0.1984 -0.3168
 7717SOL    HW134787   4.119   3.821   8.260 -0.2929 -0.2228  0.4686
 7717SOL    HW234788   4.157   3.707   8.334 -0.1216 -0.2149 -2.2001
 7718SOL     OW34789   2.862   4.202   3.114 -0.3308  0.0476  0.2174
 7718SOL    HW134790   2.902   4.146   3.180  0.6998 -1.1283 -1.4212
 7718SOL    HW234791   2.940   4.257   3.103 -1.5182  1.5274 -0.7013
 7719SOL     OW34792   4.710   2.862  11.246 -0.1667 -0.0566  0.2183
 7719SOL    HW134793   0.025   2.902  11.318 -0.2797  2.0771 -0.9094
 7719SOL    HW234794   4.723   2.771  11.275  2.3516  0.7801  1.7722
 7720SOL     OW34795   3.052   3.038   6.140 -0.2716 -0.7184 -0.2296
 7720SOL    HW134796   3.085   3.016   6.053  1.0344  0.3529  0.0044
 7720SOL    HW234797   3.039   2.945   6.158  0.3935 -0.3247  2.3021
 7721SOL     OW34798   2.710   0.563   9.103  0.5150  0.2714 -0.1776
 7721SOL    HW134799   2.651   0.509   9.156  1.2709  0.5479  0.9467
 7721SOL    HW234800   2.654   0.565   9.025  0.8959  1.8676 -0.4007
 7722SOL     OW34801   4.218   4.240   9.875 -0.4775 -0.3395 -0.2359
 7722SOL    HW134802   4.128   4.215   9.896  0.1111 -2.0422  0.3099
 7722SOL    HW234803   4.209   4.331   9.849 -1.2076  0.1929  1.9580
 7723SOL     OW34804   2.919   3.721   8.687  0.1686 -0.2208 -0.2087
 7723SOL    HW134805   2.914   3.627   8.703 -2.9240 -0.1346 -0.7634
 7723SOL    HW234806   2.962   3.745   8.769  2.0552  1.2706 -1.6227
 7724SOL     OW34807   4.384   1.877  15.650 -0.2262  0.3629 -0.3499
 7724SOL    HW134808   4.322   1.896  15.579 -0.9713  0.9171  0.4435
 7724SOL    HW234809   4.443   1.807  15.622 -0.8377 -0.0961 -0.4878
 7725SOL     OW34810   2.036   3.946   4.058 -0.5473 -0.1178 -0.1111
 7725SOL    HW134811   1.992   4.022   4.094 -0.3161 -1.0703  2.2503
 7725SOL    HW234812   2.020   3.948   3.964  1.4749  0.2769 -0.4661
 7726SOL     OW34813   2.752   2.460   3.694  0.1136 -0.3142 -0.3100
 7726SOL    HW134814   2.679   2.506   3.652  0.7139 -0.1518 -1.1647
 7726SOL    HW234815   2.717   2.441   3.781 -0.1104  3.2929  0.3775
 7727SOL     OW34816   1.474   3.347  11.024 -0.0575 -0.1138  0.6293
 7727SOL    HW134817   1.438   3.405  10.956  1.6937  2.7106  2.1170
 7727SOL    HW234818   1.565   3.347  10.995 -0.1750  1.5785  0.2427
 7728SOL     OW34819   0.058   2.199   4.710 -0.3164  0.2034  0.0416
 7728SOL    HW134820   0.064   2.186   4.805 -0.0057 -0.0641 -0.0123
 7728SOL    HW234821   0.091   2.288   4.701 -0.8244  0.3716 -0.1564
 7729SOL     OW34822   3.844   4.263  17.346 -0.7063 -0.4433  0.4847
 7729SOL    HW134823   3.790   4.323  17.397 -0.3279  1.4348 -1.3032
 7729SOL    HW234824   3.926   4.259  17.394 -0.5655 -0.3496  0.2521
 7730SOL     OW34825   2.285   0.222  13.443  0.1870  0.0177  0.2160
 7730SOL    HW134826   2.277   0.189  13.354  0.2218 -0.7773  0.5089
 7730SOL    HW234827   2.317   0.310  13.426  1.8099 -0.6188  0.0336
 7731SOL     OW34828   1.013   1.413  16.897 -0.2859  0.0091  0.0696
 7731SOL    HW134829   1.098   1.436  16.860  0.4841 -1.0237  1.1571
 7731SOL    HW234830   0.953   1.482  16.871  1.1405  1.1957 -0.1128
 7732SOL     OW34831   1.858   2.051   5.760  0.7618 -0.1016 -0.1973
 7732SOL    HW134832   1.890   2.139   5.742 -0.0263  0.2595  0.1620
 7732SOL    HW234833   1.805   2.041   5.681  0.5719 -0.4713 -0.0267
 7733SOL     OW34834   0.346   0.319   8.297 -0.1080 -0.5028 -0.4038
 7733SOL    HW134835   0.376   0.247   8.352 -0.4864  1.0300  1.8109
 7733SOL    HW234836   0.251   0.307   8.298 -0.1944  0.1119 -1.0132
 7734SOL     OW34837   1.407   0.368   7.335  0.3622  0.0127  0.2049
 7734SOL    HW134838   1.407   0.362   7.430 -3.0047 -1.4198  0.1303
 7734SOL    HW234839   1.489   0.325   7.312  2.1064  2.5988  1.6968
 7735SOL     OW34840   0.246   1.538   4.733  0.1176 -0.2175  0.1347
 7735SOL    HW134841   0.313   1.517   4.668  1.8436  0.3025  1.7610
 7735SOL    HW234842   0.221   1.628   4.713 -0.4188  0.1813  2.5798
 7736SOL     OW34843   0.850   2.983   1.601  0.3323  0.4652  0.0077
 7736SOL    HW134844   0.878   3.000   1.691  1.9010  1.1797 -0.6186
 7736SOL    HW234845   0.800   2.901   1.608 -0.5834  1.0479  0.2405
 7737SOL     OW34846   0.521   2.258   3.397  0.1997  0.4040  0.2575
 7737SOL    HW134847   0.488   2.334   3.350  0.4263  0.4434  0.1599
 7737SOL    HW234848   0.586   2.303   3.451  0.8890  0.2438 -0.4335
 7738SOL     OW34849   0.039   2.137   4.977  0.2290 -0.0587  0.9373
 7738SOL    HW134850   4.700   2.189   5.011  1.9626  0.5111  3.7805
 7738SOL    HW234851   4.734   2.050   4.992 -0.1014 -0.0644  0.0478
 7739SOL     OW34852   4.302   4.255  17.171  0.1675  0.0402 -0.2188
 7739SOL    HW134853   4.333   4.194  17.104  0.9061  0.7336 -0.5123
 7739SOL    HW234854   4.250   4.197  17.226  1.0974 -0.7473 -0.1611
 7740SOL     OW34855   3.437   1.295   0.222 -0.3555  0.1582 -0.9536
 7740SOL    HW134856   3.427   1.361   0.154  1.5180  1.3380 -0.0836
 7740SOL    HW234857   3.485   1.229   0.172  0.6924  1.3516 -1.5066
 7741SOL     OW34858   1.495   2.168   6.058  0.2844 -0.1340 -0.1111
 7741SOL    HW134859   1.586   2.184   6.084  0.0369 -0.5856  1.0179
 7741SOL    HW234860   1.459   2.253   6.031  0.3411 -0.4502 -1.1739
 7742SOL     OW34861   4.590   0.324  17.094  0.3519  0.2809  0.0573
 7742SOL    HW134862   4.588   0.353  17.185  1.6202  1.6126 -0.3255
 7742SOL    HW234863   4.670   0.376  17.080 -0.0940  0.0078 -3.4622
 7743SOL     OW34864   0.565   2.492   4.310  0.0163 -0.1968 -0.2927
 7743SOL    HW134865   0.532   2.494   4.400  1.3212 -0.0049  0.1920
 7743SOL    HW234866   0.660   2.491   4.323 -0.2440  0.9313  1.7974
 7744SOL     OW34867   0.597   1.483   1.457 -0.1870 -0.4016 -0.1741
 7744SOL    HW134868   0.620   1.455   1.546 -1.5750  0.4448  0.4460
 7744SOL    HW234869   0.605   1.578   1.465 -2.2155 -0.2044 -0.6791
 7745SOL     OW34870   3.314   3.704  17.000  0.4477  0.0325 -0.3155
 7745SOL    HW134871   3.242   3.743  16.950  0.9728  1.6234  0.2017
 7745SOL    HW234872   3.272   3.671  17.079 -0.2601  0.6934 -0.4154
 7746SOL     OW34873   2.687   0.418   2.524 -0.3475  0.7654 -0.2672
 7746SOL    HW134874   2.640   0.442   2.444 -0.7769 -1.5979 -0.7135
 7746SOL    HW234875   2.617   0.413   2.588  0.0425  2.3615  0.2999
 7747SOL     OW34876   4.506   2.092  15.157  0.2256  0.3080  0.6760
 7747SOL    HW134877   4.586   2.125  15.198  1.3862 -0.1969 -1.1709
 7747SOL    HW234878   4.535   2.005  15.127  0.6196  0.8121 -0.4129
 7748SOL     OW34879   1.546   2.604   7.756  0.3168  0.2418 -0.1544
 7748SOL    HW134880   1.478   2.566   7.811 -0.4117  1.2113 -0.3786
 7748SOL    HW234881   1.497   2.641   7.683  0.2574  2.5005  1.0225
 7749SOL     OW34882   1.463   4.141  15.358  0.1830 -0.5548  0.5686
 7749SOL    HW134883   1.518   4.071  15.392  0.2540  0.0686  1.7313
 7749SOL    HW234884   1.379   4.112  15.391  0.5125 -1.1352  0.8907
 7750SOL     OW34885   3.400   3.020  12.010 -0.0417 -0.2268  0.1849
 7750SOL    HW134886   3.305   3.015  12.018 -0.0145 -0.2703  0.4769
 7750SOL    HW234887   3.409   3.113  11.988  0.3773 -0.6710 -1.4815
 7751SOL     OW34888   1.484   0.224   9.966 -0.0446 -0.0086 -0.5118
 7751SOL    HW134889   1.544   0.295   9.990 -1.8999  0.8697  1.5566
 7751SOL    HW234890   1.406   0.278   9.953 -0.6115 -0.4434  1.0883
 7752SOL     OW34891   4.470   0.250   6.244  0.4838  0.0037 -0.3940
 7752SOL    HW134892   4.504   0.242   6.155  1.1552 -0.0790 -0.1255
 7752SOL    HW234893   4.526   0.190   6.292 -2.0207 -0.7174  1.6233
 7753SOL     OW34894   2.968   1.826  14.865  0.1681  0.0930  0.3621
 7753SOL    HW134895   2.902   1.894  14.878 -0.7464 -0.7803  0.3545
 7753SOL    HW234896   3.041   1.860  14.917 -0.4885  0.0304  1.3401
 7754SOL     OW34897   2.819   1.712   4.924  0.0540 -0.2772  0.0530
 7754SOL    HW134898   2.815   1.730   4.830  0.3601  0.0276  0.0963
 7754SOL    HW234899   2.726   1.727   4.942  0.7351  1.2335  2.3917
 7755SOL     OW34900   3.347   3.344  11.370  0.2637  0.1368  0.0035
 7755SOL    HW134901   3.268   3.374  11.416 -1.1809 -3.5625 -0.0861
 7755SOL    HW234902   3.337   3.361  11.276 -1.4534 -0.0171  0.1636
 7756SOL     OW34903   3.454   3.317   3.818 -0.0721 -0.4014  0.3259
 7756SOL    HW134904   3.413   3.303   3.733  0.6615 -1.1629  0.0880
 7756SOL    HW234905   3.391   3.377   3.857  0.0574  0.4117 -0.7366
 7757SOL     OW34906   0.984   0.285   6.513  0.6899 -0.1748  0.0478
 7757SOL    HW134907   1.057   0.261   6.569  0.1006 -1.5450  0.2311
 7757SOL    HW234908   1.036   0.316   6.439  0.5284  0.9315  0.3906
 7758SOL     OW34909   1.203   4.059   6.597  0.4368  0.3114 -0.2338
 7758SOL    HW134910   1.285   4.032   6.638  0.2761 -0.6134 -0.5068
 7758SOL    HW234911   1.167   4.127   6.653 -2.6212 -0.0366 -1.7552
 7759SOL     OW34912   1.583   2.326   9.566 -0.6131  0.3801  0.2891
 7759SOL    HW134913   1.538   2.250   9.602  0.6899  0.2432  1.6179
 7759SOL    HW234914   1.596   2.375   9.647  2.0209 -1.3372  0.9141
 7760SOL     OW34915   4.016   0.506   1.448 -0.6106  0.0061  0.4943
 7760SOL    HW134916   3.976   0.456   1.377 -0.6816  2.4159 -1.1552
 7760SOL    HW234917   4.010   0.596   1.418  0.3288 -0.1469 -0.1469
 7761SOL     OW34918   0.130   3.908   6.179  0.0276 -0.5004  0.3553
 7761SOL    HW134919   0.194   3.932   6.112 -0.8108 -1.3101 -0.7616
 7761SOL    HW234920   0.080   3.984   6.207  2.4716  1.3999 -0.4294
 7762SOL     OW34921   2.293   3.102  17.638 -0.0418 -0.0626  0.3375
 7762SOL    HW134922   2.278   3.011  17.663  1.0069 -0.2533  0.2668
 7762SOL    HW234923   2.342   3.080  17.559  0.1031 -2.2760  1.0229
 7763SOL     OW34924   0.435   4.167   4.602  0.4014  0.0775 -0.4248
 7763SOL    HW134925   0.514   4.199   4.646  0.2962 -0.6461  0.2773
 7763SOL    HW234926   0.383   4.247   4.595  0.3952  0.2404  1.6361
 7764SOL     OW34927   4.373   0.356   8.840  0.0775 -0.7553  0.6147
 7764SOL    HW134928   4.459   0.313   8.837  0.0354 -0.7886 -0.1268
 7764SOL    HW234929   4.387   0.423   8.773  2.3163 -1.4284  0.4002
 7765SOL     OW34930   2.544   1.340   8.504  0.2297  0.2492  0.1809
 7765SOL    HW134931   2.517   1.315   8.416  0.6074  0.0772  0.1136
 7765SOL    HW234932   2.604   1.267   8.520  0.2798  0.0395 -0.9705
 7766SOL     OW34933   0.741   4.056  14.945 -0.0588  0.0847 -0.0038
 7766SOL    HW134934   0.694   4.122  14.996  0.6051 -0.8422  1.8135
 7766SOL    HW234935   0.765   3.996  15.016  1.8654  1.3038  0.3811
 7767SOL     OW34936   3.690   0.058   8.262 -0.8483 -0.6336 -0.1343
 7767SOL    HW134937   3.662   0.120   8.329  1.0803 -0.6553  0.6898
 7767SOL    HW234938   3.616   4.732   8.253  0.6096 -2.4337 -0.0991
 7768SOL     OW34939   3.348   3.634  11.972 -0.7971  0.4885  0.3600
 7768SOL    HW134940   3.346   3.558  12.030 -2.0875  1.0186  1.0252
 7768SOL    HW234941   3.259   3.624  11.937 -0.3190 -1.2243 -0.3469
 7769SOL     OW34942   4.145   4.049   8.415 -0.0710 -0.5852  0.3140
 7769SOL    HW134943   4.171   3.960   8.388 -0.4747 -1.4576  2.8009
 7769SOL    HW234944   4.213   4.105   8.378  0.5730 -1.0598  0.7877
 7770SOL     OW34945   1.543   1.680  17.292 -0.2421 -0.3376  0.0989
 7770SOL    HW134946   1.448   1.669  17.294 -0.2580 -0.2485 -0.1276
 7770SOL    HW234947   1.566   1.599  17.337 -1.2333 -0.7178 -0.0767
 7771SOL     OW34948   1.083   3.005   3.696  0.2910  0.0470 -0.2135
 7771SOL    HW134949   1.029   3.074   3.736  0.6836 -0.2845  0.8906
 7771SOL    HW234950   1.108   2.941   3.762 -0.4662 -0.4583 -0.4154
 7772SOL     OW34951   1.300   1.308   6.385  0.3835 -0.2100 -0.6583
 7772SOL    HW134952   1.387   1.293   6.348  1.6401  2.8555  1.0410
 7772SOL    HW234953   1.251   1.231   6.355 -0.8952  0.8024 -1.2013
 7773SOL     OW34954   3.882   1.571   6.176 -0.3176 -0.4344 -0.8661
 7773SOL    HW134955   3.809   1.560   6.237  0.7501 -1.1334  0.2864
 7773SOL    HW234956   3.852   1.651   6.133 -0.8505  0.0216  0.3528
 7774SOL     OW34957   3.423   1.538   0.059  0.4690  0.5362 -0.1689
 7774SOL    HW134958   3.405   1.519  17.704 -1.3324  0.5531  0.1728
 7774SOL    HW234959   3.426   1.634   0.063 -1.2653  0.5617  0.4398
 7775SOL     OW34960   4.415   0.713   3.442  0.4010 -0.1318  0.3897
 7775SOL    HW134961   4.401   0.663   3.522 -0.0920 -1.0214 -0.2455
 7775SOL    HW234962   4.500   0.678   3.412  1.5234  0.7968  2.4739
 7776SOL     OW34963   4.267   4.563   1.460  0.0804 -0.2550  0.0437
 7776SOL    HW134964   4.337   4.551   1.395 -1.3245 -1.1107 -1.3307
 7776SOL    HW234965   4.294   4.497   1.522 -1.0705  0.5539  1.4051
 7777SOL     OW34966   3.655   2.047  15.980  0.7789  0.4153 -0.0053
 7777SOL    HW134967   3.664   2.116  16.045 -3.3509  0.2628  0.7458
 7777SOL    HW234968   3.572   2.068  15.937  1.4782  3.0797 -0.0608
 7778SOL     OW34969   1.757   1.050   6.946  0.2868 -0.2915  0.5841
 7778SOL    HW134970   1.682   1.074   7.000  0.6626  2.3352 -0.0443
 7778SOL    HW234971   1.821   1.031   7.015  0.7753 -2.2101 -0.4109
 7779SOL     OW34972   4.580   0.896   9.195 -0.2559  0.1159  0.0109
 7779SOL    HW134973   4.675   0.899   9.196 -0.3390  1.7505  1.7326
 7779SOL    HW234974   4.569   0.960   9.125  1.8477 -1.5999 -1.8678
 7780SOL     OW34975   1.827   4.228  13.796  0.5052  0.4280  0.3795
 7780SOL    HW134976   1.877   4.148  13.814 -1.0012 -0.7215 -0.5098
 7780SOL    HW234977   1.818   4.260  13.886  0.6891  0.4961  0.3736
 7781SOL     OW34978   0.349   0.314  13.904 -0.2719  0.2555 -0.2570
 7781SOL    HW134979   0.321   0.286  13.817  1.1664 -1.1820 -0.2651
 7781SOL    HW234980   0.298   0.394  13.911  0.2793  0.6090 -0.2831
 7782SOL     OW34981   3.132   4.387   7.447  0.5490 -0.6887  0.8129
 7782SOL    HW134982   3.056   4.411   7.393  0.4321  0.0915  1.3243
 7782SOL    HW234983   3.142   4.294   7.426 -2.7668 -0.6289 -0.9949
 7783SOL     OW34984   0.208   2.214  14.878 -0.1838 -0.4877  0.5553
 7783SOL    HW134985   0.120   2.244  14.858 -0.7865 -2.6509 -0.0651
 7783SOL    HW234986   0.238   2.270  14.950 -0.5471 -1.5361  1.5312
 7784SOL     OW34987   3.269   0.105   2.930 -0.7616  0.2191 -0.0712
 7784SOL    HW134988   3.341   0.146   2.881 -0.5673  0.0941  0.1111
 7784SOL    HW234989   3.188   0.149   2.903 -0.0634  1.6022  0.0851
 7785SOL     OW34990   4.513   1.100  12.898 -0.1218  0.3841 -0.4597
 7785SOL    HW134991   4.462   1.084  12.819 -0.6911 -0.4635  0.0825
 7785SOL    HW234992   4.585   1.143  12.852  0.4739  0.2536  0.3571
 7786SOL     OW34993   4.423   1.945   1.781  0.4806 -0.1590  0.0245
 7786SOL    HW134994   4.371   1.974   1.856  1.6433 -0.4962  0.9636
 7786SOL    HW234995   4.357   1.895   1.734 -0.3465 -0.0575  1.0709
 7787SOL     OW34996   1.354   2.865   3.554 -0.2894  0.0195 -0.0621
 7787SOL    HW134997   1.284   2.840   3.494 -0.6479  0.5928  0.1177
 7787SOL    HW234998   1.339   2.959   3.562  0.4206  0.3075 -2.0239
 7788SOL     OW34999   0.854   0.244   0.440  0.1818 -0.2281  0.4487
 7788SOL    HW135000   0.894   0.191   0.509 -0.2228 -0.8847  0.1789
 7788SOL    HW235001   0.907   0.324   0.446  0.7799 -0.4131 -2.4912
 7789SOL     OW35002   0.621   2.119  10.973  0.4954 -0.2214 -0.0215
 7789SOL    HW135003   0.603   2.032  10.937 -0.1572 -0.7509  1.5809
 7789SOL    HW235004   0.690   2.110  11.039 -2.4351 -0.9148  2.9815
 7790SOL     OW35005   2.846   0.661   3.736  0.3648  0.3628 -0.2150
 7790SOL    HW135006   2.853   0.741   3.787  0.9204  0.4875 -0.4831
 7790SOL    HW235007   2.907   0.606   3.785 -1.5903 -1.2274  0.4283
 7791SOL     OW35008   0.049   2.562   0.860 -0.0051  0.6986 -0.1663
 7791SOL    HW135009   0.103   2.600   0.930  1.7093  1.1803 -1.7283
 7791SOL    HW235010   0.066   2.633   0.798  0.7930  1.6478  1.1300
 7792SOL     OW35011   0.409   0.956   2.310 -0.1564  0.6821  0.4038
 7792SOL    HW135012   0.417   0.884   2.373  0.0728 -0.4061 -0.8590
 7792SOL    HW235013   0.331   0.931   2.259  0.3690  0.0890 -0.1014
 7793SOL     OW35014   3.499   2.548  16.591  0.7026 -0.2640 -0.3843
 7793SOL    HW135015   3.524   2.464  16.631 -0.8456 -1.6403 -2.3828
 7793SOL    HW235016   3.424   2.524  16.538  0.8968  0.3923 -0.9516
 7794SOL     OW35017   1.193   2.123   8.163  0.2644 -0.2918 -0.2410
 7794SOL    HW135018   1.238   2.067   8.226 -1.5310 -1.4389  0.0365
 7794SOL    HW235019   1.103   2.097   8.181 -0.3134  0.5387 -2.0053
 7795SOL     OW35020   4.337   4.382  10.750  0.3107  0.3962 -0.3708
 7795SOL    HW135021   4.263   4.397  10.691  0.0408  0.2697 -0.0604
 7795SOL    HW235022   4.310   4.439  10.821 -0.9665  0.7208 -1.1220
 7796SOL     OW35023   0.560   3.629   5.857  0.1127  0.0918 -1.0306
 7796SOL    HW135024   0.625   3.628   5.927 -0.5560 -1.1711 -0.4307
 7796SOL    HW235025   0.578   3.716   5.821  1.6702 -0.0978 -0.7172
 7797SOL     OW35026   1.891   2.026   2.724 -0.1491  0.2501  0.3159
 7797SOL    HW135027   1.829   2.041   2.796 -0.5437 -1.6295  0.3722
 7797SOL    HW235028   1.919   1.937   2.743  0.0660  0.3907  0.6628
 7798SOL     OW35029   3.677   0.189   5.966  0.3110 -0.1131 -0.4345
 7798SOL    HW135030   3.718   0.264   5.923  3.1755 -2.2831 -1.4619
 7798SOL    HW235031   3.755   0.140   5.988  0.6191  0.2669 -0.6839
 7799SOL     OW35032   3.752   3.051  14.365 -0.0160  0.0970  0.4876
 7799SOL    HW135033   3.730   3.144  14.363 -0.1166  0.0989  1.4703
 7799SOL    HW235034   3.840   3.049  14.403  0.2734 -1.3394 -0.2377
 7800SOL     OW35035   1.579   3.740   7.074 -0.3832 -0.4672 -0.0644
 7800SOL    HW135036   1.564   3.828   7.109 -1.3753 -0.2673 -0.9714
 7800SOL    HW235037   1.662   3.753   7.028 -1.2353 -0.6069 -1.6667
 7801SOL     OW35038   2.433   4.075  13.086 -0.1121  0.7464  0.2017
 7801SOL    HW135039   2.518   4.041  13.057  0.9361  2.6464  1.1143
 7801SOL    HW235040   2.417   4.159  13.045 -0.3725 -0.9368 -3.1618
 7802SOL     OW35041   0.277   2.229   6.555 -0.1605 -0.4178 -0.7795
 7802SOL    HW135042   0.356   2.282   6.548 -0.1330 -0.2134  0.9538
 7802SOL    HW235043   0.212   2.278   6.505 -1.7360 -2.2636 -0.4997
 7803SOL     OW35044   0.255   4.148   5.721 -0.0964 -0.0514 -0.0031
 7803SOL    HW135045   0.176   4.125   5.674  0.2356 -1.5946  0.1890
 7803SOL    HW235046   0.275   4.058   5.749 -0.7779 -0.3363 -0.4360
 7804SOL     OW35047   0.901   3.118   7.299  0.0173 -0.0849  0.4723
 7804SOL    HW135048   0.889   3.155   7.386 -0.5058  0.0989  0.3220
 7804SOL    HW235049   0.899   3.192   7.239  1.0581 -0.1062  0.4041
 7805SOL     OW35050   4.631   4.520  17.384 -0.0357  0.6710  0.0607
 7805SOL    HW135051   4.604   4.431  17.362 -0.2629  1.5992 -3.4172
 7805SOL    HW235052   4.716   4.512  17.341  0.6264 -1.1747  1.6971
 7806SOL     OW35053   4.134   1.552   7.403 -0.1441  0.2530  0.0074
 7806SOL    HW135054   4.168   1.626   7.454 -0.5066 -0.2116  0.9292
 7806SOL    HW235055   4.148   1.579   7.312 -0.6283  0.7054  0.0676
 7807SOL     OW35056   2.503   0.846   1.466 -0.4439 -0.5191  0.4612
 7807SOL    HW135057   2.577   0.820   1.521  0.7310  0.2769 -0.7576
 7807SOL    HW235058   2.538   0.880   1.384  0.0597 -1.0470  0.4566
 7808SOL     OW35059   1.515   4.380  12.215 -0.0675 -0.3025  0.2419
 7808SOL    HW135060   1.552   4.460  12.176  1.8963  0.3780  3.4728
 7808SOL    HW235061   1.436   4.377  12.162  0.0056 -0.2567  0.1310
 7809SOL     OW35062   3.460   0.208  13.255 -0.0971 -0.3264  0.0880
 7809SOL    HW135063   3.403   0.251  13.320 -0.1683 -1.3252  0.6844
 7809SOL    HW235064   3.402   0.173  13.187 -1.7992  0.4336  1.1511
 7810SOL     OW35065   2.808   3.717   5.660  0.3520 -0.0244  0.1525
 7810SOL    HW135066   2.822   3.624   5.639 -1.6237 -0.2922  0.0392
 7810SOL    HW235067   2.721   3.729   5.622 -1.0754 -2.7568  2.5824
 7811SOL     OW35068   2.252   3.848  11.564  0.1187 -0.1195  0.1422
 7811SOL    HW135069   2.176   3.838  11.507  0.6323  0.8837 -0.6996
 7811SOL    HW235070   2.250   3.942  11.579  1.5553  0.2889 -2.2671
 7812SOL     OW35071   0.480   4.416   8.633 -0.4349 -0.5772 -0.1824
 7812SOL    HW135072   0.440   4.500   8.613  0.6575 -0.3029 -1.2011
 7812SOL    HW235073   0.512   4.422   8.723  0.9917 -0.6981 -0.6832
 7813SOL     OW35074   1.967   0.202   4.843 -0.0161  0.3858 -0.1626
 7813SOL    HW135075   1.880   0.200   4.883  0.4566 -0.5467  0.8356
 7813SOL    HW235076   2.001   0.280   4.888 -0.5606 -1.1791  2.9427
 7814SOL     OW35077   2.949   3.922  17.036  0.1315 -0.0252  0.0416
 7814SOL    HW135078   2.898   3.951  16.960  1.2113  0.6905 -0.4086
 7814SOL    HW235079   3.028   3.968  17.008  0.6032 -1.0721 -0.3530
 7815SOL     OW35080   3.363   2.295   2.323 -0.3720  0.2432 -0.2240
 7815SOL    HW135081   3.354   2.252   2.408 -0.0219  0.9867  0.1935
 7815SOL    HW235082   3.277   2.280   2.283 -1.3682  0.4199  1.8358
 7816SOL     OW35083   2.583   4.420   6.939  0.1701  0.3001 -0.0423
 7816SOL    HW135084   2.566   4.496   6.883  1.2926 -0.1931 -1.0534
 7816SOL    HW235085   2.649   4.372   6.889  1.0917 -1.0251  2.4662
 7817SOL     OW35086   4.675   2.466   2.478 -0.1918 -0.0877  0.4485
 7817SOL    HW135087   4.724   2.543   2.449 -2.2474  2.1805  2.9768
 7817SOL    HW235088   4.709   2.466   2.568  0.7352 -1.7256  0.0941
 7818SOL     OW35089   0.976   2.385  12.693  0.2853 -0.0227 -0.3731
 7818SOL    HW135090   0.935   2.382  12.607  1.7307 -1.1375 -1.0236
 7818SOL    HW235091   0.906   2.346  12.745 -0.7295  0.3866 -1.4545
 7819SOL     OW35092   2.373   2.787  10.256 -0.1298  0.0017 -0.3866
 7819SOL    HW135093   2.362   2.882  10.264 -3.4704 -0.5191  1.2263
 7819SOL    HW235094   2.438   2.772  10.325  0.0076  3.3904  0.2242
 7820SOL     OW35095   3.443   4.460   3.870 -0.1898  0.5337  0.6232
 7820SOL    HW135096   3.517   4.420   3.916  1.2428  0.5724 -1.6380
 7820SOL    HW235097   3.480   4.512   3.799  0.4639 -0.3744  0.2958
 7821SOL     OW35098   1.717   3.158   1.545 -0.5787  0.6509 -0.9450
 7821SOL    HW135099   1.804   3.196   1.542 -1.1096  1.9068 -0.2385
 7821SOL    HW235100   1.674   3.211   1.478 -3.0300 -1.5277 -1.1060
 7822SOL     OW35101   1.386   2.022   1.060 -0.3779  0.4121 -0.3428
 7822SOL    HW135102   1.460   2.006   1.002  2.1893 -0.1662  3.0956
 7822SOL    HW235103   1.425   2.053   1.142  1.0538  1.1597 -1.3070
 7823SOL     OW35104   3.376   3.158  15.465 -0.6715  0.0107 -0.2900
 7823SOL    HW135105   3.426   3.143  15.545 -0.7543  1.4971  0.0431
 7823SOL    HW235106   3.445   3.180  15.402 -0.5728 -0.0994 -0.2199
 7824SOL     OW35107   4.104   1.473   4.341  0.6412 -0.2371 -0.0637
 7824SOL    HW135108   4.158   1.455   4.418  0.4418 -1.7701 -0.2758
 7824SOL    HW235109   4.154   1.534   4.287  2.2037 -0.7330  0.8133
 7825SOL     OW35110   4.648   2.956   4.698 -0.1465 -0.0075  0.5577
 7825SOL    HW135111   4.724   2.936   4.643  1.2407 -0.6241  2.7005
 7825SOL    HW235112   4.573   2.963   4.638 -0.1138  1.5726  0.7060
 7826SOL     OW35113   3.406   3.210   4.737 -0.4375 -0.5661 -1.0404
 7826SOL    HW135114   3.491   3.214   4.693  0.8587 -1.5291  1.4064
 7826SOL    HW235115   3.366   3.139   4.686  0.2347 -1.3388 -0.4870
 7827SOL     OW35116   0.320   3.355   2.033 -0.3883  0.2141  0.1574
 7827SOL    HW135117   0.366   3.271   2.040 -0.6843 -0.2424 -3.3915
 7827SOL    HW235118   0.392   3.418   2.044  0.6943 -1.1847  1.0612
 7828SOL     OW35119   1.782   4.144  15.756  0.5431 -0.2679 -0.3807
 7828SOL    HW135120   1.842   4.092  15.703 -1.6483 -2.3909 -0.7458
 7828SOL    HW235121   1.846   4.201  15.799 -0.9209  0.7950  0.3817
 7829SOL     OW35122   1.726   0.999  11.069 -0.3091 -0.2035 -0.1895
 7829SOL    HW135123   1.673   0.943  11.013 -2.0992  1.8773 -0.6010
 7829SOL    HW235124   1.805   0.995  11.016 -0.6686  2.0025 -0.9014
 7830SOL     OW35125   1.664   0.580   4.990  0.0902  0.2663  0.0411
 7830SOL    HW135126   1.747   0.575   4.943  0.7967  0.6269  1.2327
 7830SOL    HW235127   1.608   0.601   4.916 -0.0822 -1.1776 -0.2172
 7831SOL     OW35128   3.741   3.454   8.128 -0.6171 -0.8482  0.3782
 7831SOL    HW135129   3.679   3.483   8.061  3.6036  1.0254 -2.7111
 7831SOL    HW235130   3.681   3.452   8.202  1.0939  0.5303  1.7986
 7832SOL     OW35131   4.448   1.657  12.021 -0.5743  0.5609  0.5691
 7832SOL    HW135132   4.537   1.686  12.002 -0.0124 -0.5187  1.5201
 7832SOL    HW235133   4.409   1.743  12.041 -0.5524  1.3260 -2.7964
 7833SOL     OW35134   3.276   4.111   3.154 -0.0861 -0.0921 -0.4125
 7833SOL    HW135135   3.219   4.049   3.108 -0.7241 -0.0179  0.2761
 7833SOL    HW235136   3.216   4.185   3.141  0.9570  0.8620  0.2411
 7834SOL     OW35137   0.981   3.050   2.463  0.2129 -0.3131  0.0145
 7834SOL    HW135138   0.991   2.972   2.410 -0.8795 -0.7820  0.4993
 7834SOL    HW235139   0.978   3.011   2.551 -2.5416 -1.1904 -0.4856
 7835SOL     OW35140   0.510   1.262   3.623 -0.6344  0.2322  0.1369
 7835SOL    HW135141   0.530   1.169   3.633  1.8130  0.7527 -0.0209
 7835SOL    HW235142   0.535   1.297   3.709 -1.4222  2.4808 -0.5285
 7836SOL     OW35143   3.251   0.739   5.394 -0.5960  0.9136  0.3218
 7836SOL    HW135144   3.174   0.685   5.410  1.1150 -1.0151  2.0395
 7836SOL    HW235145   3.307   0.684   5.339 -0.2302  0.7124  0.8944
 7837SOL     OW35146   0.149   3.230   3.470 -0.3585  0.1119 -0.7138
 7837SOL    HW135147   0.124   3.198   3.384 -0.9329  0.1109 -0.5485
 7837SOL    HW235148   0.244   3.216   3.461 -0.1668  1.0314 -0.1043
 7838SOL     OW35149   0.334   3.705   7.758  0.7800 -0.5169  0.6141
 7838SOL    HW135150   0.304   3.614   7.751 -0.1477 -0.2909  1.5516
 7838SOL    HW235151   0.378   3.717   7.674 -2.6347  0.9620 -0.9295
 7839SOL     OW35152   1.161   3.686   7.574 -0.2361  0.5583  0.2141
 7839SOL    HW135153   1.190   3.624   7.640  1.8359  1.5884  0.2704
 7839SOL    HW235154   1.068   3.664   7.572 -0.0773 -0.1391  0.6377
 7840SOL     OW35155   0.099   2.532   4.459  0.6786  0.1380 -0.1010
 7840SOL    HW135156   0.129   2.547   4.369 -2.0923  1.7419 -0.7603
 7840SOL    HW235157   0.036   2.466   4.431  0.1725  0.6738 -0.2253
 7841SOL     OW35158   3.065   2.155   2.549  0.0170  0.0776 -0.0034
 7841SOL    HW135159   3.058   2.243   2.585 -2.4424  0.3957 -1.2390
 7841SOL    HW235160   3.156   2.147   2.522 -0.0766  1.4558 -0.7322
 7842SOL     OW35161   4.642   1.511  17.102  0.0866  0.1749 -0.3791
 7842SOL    HW135162   4.676   1.575  17.165  1.5307 -0.5083 -0.4744
 7842SOL    HW235163   4.647   1.434  17.158 -1.6971  0.4310  0.1426
 7843SOL     OW35164   4.572   0.564   4.364 -0.0543  0.1206  0.1783
 7843SOL    HW135165   4.535   0.614   4.437  0.8056  0.1721  0.5730
 7843SOL    HW235166   4.575   0.628   4.293 -2.0272  1.3111  1.1271
 7844SOL     OW35167   1.795   3.266   7.027 -0.1078  0.3650 -0.0794
 7844SOL    HW135168   1.855   3.340   7.029  1.2334 -0.7295  0.2326
 7844SOL    HW235169   1.715   3.318   7.020 -0.1820  0.0732 -1.3814
 7845SOL     OW35170   0.277   2.876   6.519  0.5675  0.1763 -0.4674
 7845SOL    HW135171   0.233   2.960   6.503 -2.2096 -1.6060 -2.2055
 7845SOL    HW235172   0.368   2.897   6.499  1.4322 -1.5937  1.6216
 7846SOL     OW35173   0.120   2.991   4.875  0.7309  0.2830  0.2558
 7846SOL    HW135174   0.160   3.077   4.859 -0.3597  0.5701 -0.9509
 7846SOL    HW235175   0.048   2.981   4.813  1.5275  2.9470 -1.1256
 7847SOL     OW35176   3.636   3.151   4.554  0.2988 -0.1263  0.2108
 7847SOL    HW135177   3.698   3.127   4.622  0.5491  1.0010  0.3750
 7847SOL    HW235178   3.635   3.078   4.492  1.8301  0.3820 -0.4059
 7848SOL     OW35179   2.606   3.595  12.123  0.4366  0.1136 -0.6905
 7848SOL    HW135180   2.652   3.622  12.043 -1.1785  1.4742 -1.1445
 7848SOL    HW235181   2.604   3.680  12.166 -0.6669  0.2364 -0.9867
 7849SOL     OW35182   2.188   0.120  11.844  0.5143 -0.2049  0.5665
 7849SOL    HW135183   2.110   0.165  11.813  1.4048  0.3337 -0.8742
 7849SOL    HW235184   2.241   0.190  11.882 -0.3037  0.0429  1.2394
 7850SOL     OW35185   4.707   3.652   6.195  0.7206  0.3882  0.3718
 7850SOL    HW135186   4.656   3.587   6.243  1.6354 -0.3936  0.2922
 7850SOL    HW235187   0.059   3.619   6.220  0.2165  0.8352  2.7210
 7851SOL     OW35188   3.672   1.106   8.847  0.0281 -0.3392  0.4125
 7851SOL    HW135189   3.744   1.054   8.882  0.0105  0.5862  1.8467
 7851SOL    HW235190   3.648   1.163   8.921  1.3970  1.0448 -0.2109
 7852SOL     OW35191   1.721   0.592   1.987  0.1444  0.4593 -0.0558
 7852SOL    HW135192   1.691   0.505   2.011  0.8483 -0.5580 -2.8286
 7852SOL    HW235193   1.710   0.639   2.070 -2.1856 -1.4382  0.7054
 7853SOL     OW35194   3.352   2.508  14.207  0.1908  0.2212  0.1404
 7853SOL    HW135195   3.398   2.554  14.137  0.0629  0.1348 -0.0005
 7853SOL    HW235196   3.262   2.542  14.203 -0.1780 -0.9486 -1.5199
 7854SOL     OW35197   4.540   3.478  16.298  0.3626  0.3156  0.2682
 7854SOL    HW135198   4.533   3.554  16.357 -0.9834  0.8687 -0.6038
 7854SOL    HW235199   4.551   3.524  16.215  3.0714 -1.2060 -0.2059
 7855SOL     OW35200   2.623   3.901   0.043 -0.1189  0.0141 -0.7130
 7855SOL    HW135201   2.712   3.868   0.048  0.9995  3.1462  0.0366
 7855SOL    HW235202   2.602   3.937   0.129 -1.9744  0.5865 -1.4009
 7856SOL     OW35203   4.540   2.104   9.463  0.1307 -0.1441  0.4848
 7856SOL    HW135204   4.488   2.135   9.388  2.9270 -0.6078 -1.6503
 7856SOL    HW235205   4.624   2.134   9.431  0.0758 -0.4791  0.0207
 7857SOL     OW35206   1.686   3.939   2.793  0.2541  0.4373  0.1391
 7857SOL    HW135207   1.741   3.878   2.744 -0.1458 -0.5972  0.9743
 7857SOL    HW235208   1.595   3.923   2.767 -0.0932  2.1084  0.3000
 7858SOL     OW35209   4.205   0.823   2.188 -0.2453  0.0219 -0.0571
 7858SOL    HW135210   4.190   0.913   2.216  0.5263  0.3437 -0.7013
 7858SOL    HW235211   4.168   0.811   2.101 -1.8623  1.3432  0.4303
 7859SOL     OW35212   1.559   2.987   3.138 -0.1470  0.9673 -0.6574
 7859SOL    HW135213   1.509   2.926   3.084 -1.5481  3.1066 -1.7740
 7859SOL    HW235214   1.589   2.923   3.203  2.6747 -0.0025 -2.9314
 7860SOL     OW35215   3.119   4.053   1.870  0.3137 -0.1235 -0.5529
 7860SOL    HW135216   3.099   3.991   1.800  0.7030 -0.4081 -0.4098
 7860SOL    HW235217   3.048   4.113   1.844  0.1933 -0.5517 -1.2065
 7861SOL     OW35218   4.349   3.633  13.749 -0.5465  0.2272  0.5421
 7861SOL    HW135219   4.351   3.722  13.715 -2.2244 -0.5988 -1.7515
 7861SOL    HW235220   4.366   3.645  13.843 -2.6264  0.6393  0.8797
 7862SOL     OW35221   1.527   1.154   3.197  0.5571 -0.2443  0.0811
 7862SOL    HW135222   1.611   1.200   3.194 -0.0273  0.7178 -2.1030
 7862SOL    HW235223   1.545   1.068   3.235  0.4239  0.0142  0.7239
 7863SOL     OW35224   3.981   3.524  14.901 -0.4992 -0.4298 -0.3758
 7863SOL    HW135225   3.906   3.477  14.936 -1.7113  0.6451 -1.5077
 7863SOL    HW235226   3.939   3.588  14.843 -0.5154 -1.3561 -1.3703
 7864SOL     OW35227   2.305   1.109   8.219 -0.3893  0.2147 -0.2422
 7864SOL    HW135228   2.246   1.149   8.155 -0.1095 -0.5519 -0.9849
 7864SOL    HW235229   2.265   1.026   8.245 -1.5261  1.1622  1.0566
 7865SOL     OW35230   2.811   2.857  17.333  0.1369 -0.6501 -0.0053
 7865SOL    HW135231   2.730   2.807  17.320  1.7911 -3.8785  2.1856
 7865SOL    HW235232   2.790   2.906  17.412  0.1277  0.1855 -0.5268
 7866SOL     OW35233   4.359   0.992   7.046  0.3451 -0.1495 -0.0346
 7866SOL    HW135234   4.311   0.956   6.972  0.3852 -0.8153  0.2655
 7866SOL    HW235235   4.452   0.990   7.021  0.3949  0.1064  0.1251
 7867SOL     OW35236   2.139   1.388   6.989  0.1829  0.2749 -0.3098
 7867SOL    HW135237   2.054   1.416   7.022 -1.0391 -0.9892 -2.4022
 7867SOL    HW235238   2.195   1.458   7.023  1.1249 -0.7434  0.2372
 7868SOL     OW35239   1.357   4.644  14.905  0.2348  0.2987 -0.8407
 7868SOL    HW135240   1.386   4.710  14.841 -1.7969  2.1454  0.1526
 7868SOL    HW235241   1.262   4.643  14.907  0.2924  2.0381  2.3612
 7869SOL     OW35242   1.310   4.363   9.811  0.2695 -0.3015  0.2811
 7869SOL    HW135243   1.329   4.311   9.889 -0.0991 -0.5555  0.2027
 7869SOL    HW235244   1.388   4.353   9.757  0.9224  1.3265  0.9312
 7870SOL     OW35245   0.520   3.778   3.526 -0.0916 -0.6583  0.4035
 7870SOL    HW135246   0.480   3.861   3.553 -2.7740 -1.7466 -0.2384
 7870SOL    HW235247   0.522   3.790   3.431  2.2576 -0.8000  0.4354
 7871SOL     OW35248   3.510   0.938   8.670 -0.0307 -0.2437 -0.0253
 7871SOL    HW135249   3.582   0.907   8.614 -0.7453 -2.2000  0.1343
 7871SOL    HW235250   3.564   0.992   8.728  0.5996  0.7418 -1.5289
 7872SOL     OW35251   4.206   4.293  14.676  1.1679  0.5724 -0.6574
 7872SOL    HW135252   4.220   4.277  14.769  0.0438 -0.7929 -0.7210
 7872SOL    HW235253   4.282   4.345  14.650  3.1030 -1.1082  1.6054
 7873SOL     OW35254   0.965   3.412   9.042  0.0035  0.2966 -0.4091
 7873SOL    HW135255   1.041   3.469   9.032 -0.0434  0.4042 -0.1383
 7873SOL    HW235256   0.989   3.383   9.130 -2.5925  0.4389  0.3406
 7874SOL     OW35257   1.258   1.453   5.783 -0.1064 -0.0937 -0.1426
 7874SOL    HW135258   1.347   1.489   5.786  0.9783 -2.8347  0.0850
 7874SOL    HW235259   1.224   1.507   5.855 -1.1650 -0.8648 -0.0716
 7875SOL     OW35260   2.992   4.198  17.358  0.8030 -0.2201  0.0199
 7875SOL    HW135261   2.915   4.218  17.304 -0.3608 -0.9818  1.3869
 7875SOL    HW235262   2.954   4.124  17.405 -0.6919 -0.2865 -1.3112
 7876SOL     OW35263   2.756   0.074   7.005 -0.6181 -0.0838 -0.0956
 7876SOL    HW135264   2.692   0.090   7.074  0.5034 -0.6589  1.0713
 7876SOL    HW235265   2.839   0.105   7.042 -2.0417  1.4046  1.8578
 7877SOL     OW35266   4.181   4.456   6.465 -0.0231 -0.4960 -0.4251
 7877SOL    HW135267   4.204   4.363   6.458  4.1670  0.7435 -2.8421
 7877SOL    HW235268   4.154   4.474   6.375  0.7825  0.6616 -0.4317
 7878SOL     OW35269   4.622   4.099   8.960 -0.2697  0.6313  0.6597
 7878SOL    HW135270   4.673   4.035   9.008 -2.3330 -0.5233  1.3409
 7878SOL    HW235271   4.631   4.067   8.870  0.1855  0.6283  0.7067
 7879SOL     OW35272   3.984   3.501   4.845 -0.0608  0.4504 -0.2369
 7879SOL    HW135273   3.999   3.409   4.868 -1.8268 -0.2671 -2.0124
 7879SOL    HW235274   4.051   3.516   4.778  0.7061  0.0146  0.4305
 7880SOL     OW35275   1.218   1.490   2.607 -0.4682  0.0313  0.3031
 7880SOL    HW135276   1.243   1.409   2.652  1.2770  0.2108 -0.3189
 7880SOL    HW235277   1.145   1.471   2.548  0.9377  0.2888 -1.5195
 7881SOL     OW35278   1.736   3.840   8.012  0.0034 -0.2060  0.2001
 7881SOL    HW135279   1.726   3.923   8.059 -1.9245  1.4289 -3.1458
 7881SOL    HW235280   1.653   3.833   7.965  0.1711 -0.8405 -0.0101
 7882SOL     OW35281   1.047   4.260  13.665  0.1373  0.5473 -0.1572
 7882SOL    HW135282   1.057   4.336  13.607 -3.0416  2.3381  1.6479
 7882SOL    HW235283   1.013   4.191  13.608  3.6097 -0.4679 -1.0105
 7883SOL     OW35284   2.586   0.927   5.825  0.2048 -0.0787  0.3190
 7883SOL    HW135285   2.562   1.002   5.772  2.5934  0.5505  0.1234
 7883SOL    HW235286   2.671   0.947   5.865  0.6975  1.6551 -1.5974
 7884SOL     OW35287   3.533   4.670   2.594 -0.5169  0.4639 -0.7137
 7884SOL    HW135288   3.467   4.719   2.544  0.0433  1.3532 -0.5790
 7884SOL    HW235289   3.550   4.605   2.526  0.7632  0.1043 -0.0279
 7885SOL     OW35290   4.687   1.078   7.381  0.3180 -0.0132 -0.3244
 7885SOL    HW135291   4.670   1.161   7.338 -1.9274 -1.0829 -1.4959
 7885SOL    HW235292   4.679   1.011   7.313 -0.4381 -0.9288  0.6516
 7886SOL     OW35293   4.462   4.686  12.741  0.0072 -0.1044 -0.0465
 7886SOL    HW135294   4.497   4.607  12.782 -0.4288  0.8899  2.2583
 7886SOL    HW235295   4.394   4.714  12.803 -0.3904  1.7159 -1.2942
 7887SOL     OW35296   4.730   2.932  16.853 -0.5936  0.0137 -0.7455
 7887SOL    HW135297   4.710   3.016  16.894  0.6508  0.1265 -0.3819
 7887SOL    HW235298   0.073   2.958  16.803  0.5028  0.8561  1.3791
 7888SOL     OW35299   1.067   4.359   9.536 -0.0887 -0.1195 -0.4054
 7888SOL    HW135300   1.101   4.338   9.623  1.9321  0.3634 -1.0781
 7888SOL    HW235301   1.124   4.313   9.474 -0.7838 -1.6698  0.0943
 7889SOL     OW35302   2.549   0.665   8.090  0.0369 -0.2001  0.0193
 7889SOL    HW135303   2.492   0.736   8.060 -0.3909 -1.8798 -3.2178
 7889SOL    HW235304   2.627   0.689   8.040  0.5877 -0.5911  0.6963
 7890SOL     OW35305   1.346   0.838   3.787 -0.2355 -0.3757 -0.6205
 7890SOL    HW135306   1.380   0.785   3.859  0.2541  1.3880  0.4242
 7890SOL    HW235307   1.348   0.771   3.719 -3.3460 -0.2294 -0.8551
 7891SOL     OW35308   2.250   3.535   5.786 -0.3461  0.3660  0.4695
 7891SOL    HW135309   2.173   3.512   5.734 -0.3687 -3.4706  2.2566
 7891SOL    HW235310   2.290   3.610   5.741 -3.0433  2.0781  0.8869
 7892SOL     OW35311   3.766   4.284  11.778 -1.4712  0.3586  0.3472
 7892SOL    HW135312   3.761   4.348  11.707  2.1918  0.2566  0.0260
 7892SOL    HW235313   3.852   4.248  11.760 -1.7738 -0.6376  0.8976
 7893SOL     OW35314   1.744   2.009   3.488 -0.2751  0.1536 -0.0144
 7893SOL    HW135315   1.779   2.049   3.567  0.8648 -0.2542 -0.3170
 7893SOL    HW235316   1.772   2.075   3.425  0.4064  1.6803  1.9068
 7894SOL     OW35317   1.814   0.549   9.424  0.1291 -0.1300  0.0256
 7894SOL    HW135318   1.785   0.462   9.451  1.2608 -0.3765  0.4426
 7894SOL    HW235319   1.846   0.531   9.336 -0.5064 -1.6989  0.1294
 7895SOL     OW35320   4.352   4.211   5.938 -0.2955  0.1220  0.2452
 7895SOL    HW135321   4.384   4.155   5.868 -0.0369  0.0575  0.4155
 7895SOL    HW235322   4.434   4.227   5.985  0.3274 -0.2024 -0.7334
 7896SOL     OW35323   2.178   3.343   6.892  0.6910 -0.3697 -0.0962
 7896SOL    HW135324   2.223   3.270   6.848  0.8831 -0.4592  0.2505
 7896SOL    HW235325   2.098   3.353   6.840  1.9700 -0.0131 -2.0159
 7897SOL     OW35326   0.808   3.756   2.557 -0.0275 -0.2630 -0.0741
 7897SOL    HW135327   0.722   3.773   2.518  0.7801 -0.0349 -1.7476
 7897SOL    HW235328   0.774   3.693   2.621 -0.4268 -0.8940 -0.9048
 7898SOL     OW35329   0.355   2.869   8.558  0.7726  0.0132  0.6941
 7898SOL    HW135330   0.274   2.852   8.510 -0.4937  2.5313  1.9188
 7898SOL    HW235331   0.314   2.905   8.637 -0.2838  0.1307  0.0959
 7899SOL     OW35332   3.813   1.766   7.379 -0.3041  0.6121  0.3579
 7899SOL    HW135333   3.729   1.733   7.408 -0.6199  1.2880  0.2140
 7899SOL    HW235334   3.863   1.753   7.460  0.0487 -0.4469 -0.0346
 7900SOL     OW35335   1.718   2.903   7.224  0.0781  0.0002  0.0138
 7900SOL    HW135336   1.718   2.836   7.155 -2.3487  0.9429 -0.8973
 7900SOL    HW235337   1.766   2.966   7.169 -2.2115  2.1197  0.4807
 7901SOL     OW35338   0.697   1.752   5.688 -0.1024 -0.6658  0.0669
 7901SOL    HW135339   0.669   1.830   5.641  0.6942  1.1504  2.5919
 7901SOL    HW235340   0.792   1.755   5.677 -0.2401  1.0851 -0.6024
 7902SOL     OW35341   0.548   1.262   6.062  0.0634  0.3492 -0.3177
 7902SOL    HW135342   0.636   1.287   6.034 -0.7225  0.8398 -2.3277
 7902SOL    HW235343   0.559   1.180   6.110  0.4741  0.1860 -0.6893
 7903SOL     OW35344   1.724   1.229   9.068 -0.2079 -0.4245  0.3761
 7903SOL    HW135345   1.768   1.302   9.111  1.2279  0.4196 -2.4660
 7903SOL    HW235346   1.742   1.161   9.132 -1.8331 -1.3371 -0.1178
 7904SOL     OW35347   0.717   3.646   6.141 -0.3172  0.0728  0.4476
 7904SOL    HW135348   0.809   3.669   6.159 -0.3269  0.7988 -0.4061
 7904SOL    HW235349   0.674   3.650   6.227  0.7649  2.3141  0.8915
 7905SOL     OW35350   4.023   1.276   8.605 -0.0276 -0.1330 -0.2045
 7905SOL    HW135351   4.113   1.253   8.629 -0.1552  0.0406  0.4557
 7905SOL    HW235352   3.995   1.196   8.561  1.6981 -1.0378  0.3360
 7906SOL     OW35353   0.364   2.333   2.126  0.4057 -0.5312 -0.2008
 7906SOL    HW135354   0.282   2.313   2.171  0.7522  0.0783  0.6822
 7906SOL    HW235355   0.399   2.244   2.127  0.5261 -0.4622  1.5097
 7907SOL     OW35356   0.348   3.837   7.982 -0.2140 -0.6990  0.6967
 7907SOL    HW135357   0.371   3.788   7.903 -1.2159  0.8633 -0.5566
 7907SOL    HW235358   0.323   3.763   8.035 -0.4284 -1.6230 -0.6926
 7908SOL     OW35359   2.291   1.565   1.224 -0.4622  0.0249  0.4645
 7908SOL    HW135360   2.217   1.607   1.267 -0.6020 -0.0359  0.2829
 7908SOL    HW235361   2.264   1.475   1.206 -0.8360 -0.4100  3.1031
 7909SOL     OW35362   3.125   2.933   1.860  0.2847  0.4177  0.6655
 7909SOL    HW135363   3.211   2.907   1.892  0.8122  2.2260  0.6778
 7909SOL    HW235364   3.115   2.915   1.766 -3.0734  2.2637  0.6691
 7910SOL     OW35365   0.949   2.027   9.530 -0.4029  0.3305 -0.3153
 7910SOL    HW135366   0.939   2.119   9.507 -0.4572  0.2218 -0.7399
 7910SOL    HW235367   1.037   2.005   9.561  0.8516  1.5976 -2.9669
 7911SOL     OW35368   0.452   0.873   6.758  0.2331 -0.2965  0.0925
 7911SOL    HW135369   0.515   0.818   6.804  1.6989  0.7710 -0.6380
 7911SOL    HW235370   0.483   0.959   6.787  2.0517 -0.0919 -2.4999
 7912SOL     OW35371   3.239   0.372   2.618  0.4765 -0.1551  0.3578
 7912SOL    HW135372   3.217   0.406   2.531  1.4943  0.4155  0.3178
 7912SOL    HW235373   3.230   0.453   2.668  0.2056  0.6206 -0.9502
 7913SOL     OW35374   4.067   2.214   2.307 -0.2265 -0.2595 -0.1631
 7913SOL    HW135375   4.072   2.281   2.375 -1.8373  0.4414 -0.7391
 7913SOL    HW235376   4.136   2.230   2.244 -0.7112  1.5479 -0.2213
 7914SOL     OW35377   3.490   2.894   7.830  0.4839 -0.4442  0.0807
 7914SOL    HW135378   3.557   2.847   7.880 -0.4050  0.7953  2.4486
 7914SOL    HW235379   3.531   2.910   7.746  1.4820  1.4463  0.9298
 7915SOL     OW35380   3.678   1.773  14.378 -0.0036  0.0673 -0.1020
 7915SOL    HW135381   3.637   1.832  14.315 -1.5878  0.9317  1.7800
 7915SOL    HW235382   3.744   1.829  14.419 -1.4476  2.4287 -0.9599
 7916SOL     OW35383   0.830   0.250   9.129  0.3642 -0.0483  0.1012
 7916SOL    HW135384   0.841   0.221   9.038  2.1121  0.6399  0.0933
 7916SOL    HW235385   0.908   0.304   9.146 -0.5918  1.2557  0.3489
 7917SOL     OW35386   4.638   1.267   2.810 -0.1903  0.1893 -0.0574
 7917SOL    HW135387   4.729   1.290   2.791 -0.6238  1.9097 -0.0802
 7917SOL    HW235388   4.631   1.271   2.906 -1.1943  1.4580 -0.1895
 7918SOL     OW35389   2.201   2.728  14.873 -0.0324  0.6784  0.0986
 7918SOL    HW135390   2.187   2.821  14.854  0.6935  0.8400  0.3502
 7918SOL    HW235391   2.155   2.713  14.956 -0.3821  2.2733  0.1985
 7919SOL     OW35392   4.289   0.946   0.135  0.6733 -0.0445  0.2926
 7919SOL    HW135393   4.300   0.912   0.046 -0.1581  0.7225 -0.0956
 7919SOL    HW235394   4.217   0.887   0.159  2.2710 -1.7371  0.9559
 7920SOL     OW35395   2.302   2.826  17.703 -0.0905  0.1808  0.6652
 7920SOL    HW135396   2.238   2.779   0.019 -0.4197 -1.0174 -0.7998
 7920SOL    HW235397   2.386   2.784  17.721  1.0035  2.6330  1.3109
 7921SOL     OW35398   1.556   0.614   8.536  0.1016  0.8643  0.0303
 7921SOL    HW135399   1.549   0.631   8.630 -0.9329  0.5746  0.0110
 7921SOL    HW235400   1.648   0.639   8.524  0.6703 -0.9320  0.6754
 7922SOL     OW35401   1.724   0.072   4.208  0.2112 -0.2666 -0.2948
 7922SOL    HW135402   1.687   4.730   4.251 -1.0772  0.7957  0.5186
 7922SOL    HW235403   1.788   0.034   4.148  1.9200  1.3973  0.4796
 7923SOL     OW35404   2.207   4.648   4.780  0.6467 -0.2897  0.0184
 7923SOL    HW135405   2.153   4.671   4.705 -1.7385 -1.4492  1.3522
 7923SOL    HW235406   2.288   4.695   4.762  1.6449 -1.7773  0.5388
 7924SOL     OW35407   1.835   0.203   7.974 -0.0966  0.5020  0.1771
 7924SOL    HW135408   1.908   0.142   7.984 -0.7399 -0.3047  0.0272
 7924SOL    HW235409   1.759   0.148   7.996  1.4346 -1.7186 -0.0428
 7925SOL     OW35410   1.341   1.316   2.862  0.5976 -0.0351  0.0097
 7925SOL    HW135411   1.349   1.221   2.870 -0.4386 -0.2374 -1.4446
 7925SOL    HW235412   1.421   1.349   2.904  0.4446  1.4356 -0.8706
 7926SOL     OW35413   3.636   0.196   4.262  0.2902  0.6770 -0.0472
 7926SOL    HW135414   3.681   0.113   4.279  3.6446  2.4633 -0.2749
 7926SOL    HW235415   3.657   0.254   4.335 -1.8682 -0.0685  1.1839
 7927SOL     OW35416   1.053   0.961   1.616 -0.0640  0.1283  0.5960
 7927SOL    HW135417   0.992   0.979   1.544 -0.4130 -2.0233  0.3705
 7927SOL    HW235418   1.007   0.898   1.671  1.5111 -2.3554 -0.9018
 7928SOL     OW35419   3.436   3.656   3.694  0.6882 -0.0645 -0.2317
 7928SOL    HW135420   3.450   3.562   3.706  0.9697  0.2012  1.6282
 7928SOL    HW235421   3.398   3.659   3.782  0.8738 -0.2418 -0.1445
 7929SOL     OW35422   0.973   1.610  11.185  0.4172  0.5388  0.6200
 7929SOL    HW135423   1.005   1.552  11.253 -0.5505  0.5915  1.1267
 7929SOL    HW235424   0.990   1.570  11.100  2.2361  2.6300 -0.0082
 7930SOL     OW35425   4.620   2.280   3.356 -0.0497 -0.0384  0.2046
 7930SOL    HW135426   4.592   2.286   3.447 -2.9170  2.3254 -0.8265
 7930SOL    HW235427   4.715   2.282   3.365 -0.0931 -0.2144  0.7131
 7931SOL     OW35428   0.304   4.530   7.167  0.2386  0.2077 -0.2816
 7931SOL    HW135429   0.258   4.503   7.088 -2.6618 -1.2558  1.8920
 7931SOL    HW235430   0.384   4.566   7.129  0.8323  1.1528  1.8702
 7932SOL     OW35431   3.945   0.021  10.866 -0.0634 -0.0418 -0.4229
 7932SOL    HW135432   4.023   0.076  10.865 -1.3815  1.8237 -0.4627
 7932SOL    HW235433   3.980   4.677  10.824  0.0996 -0.1572 -0.0621
 7933SOL     OW35434   2.821   2.660  15.868  0.3654 -0.1694 -0.1711
 7933SOL    HW135435   2.846   2.747  15.901 -3.3415  0.6661  0.4577
 7933SOL    HW235436   2.731   2.671  15.839 -0.0278 -2.7220  0.1057
 7934SOL     OW35437   0.650   0.834   0.052 -0.0310 -0.0696  0.0343
 7934SOL    HW135438   0.671   0.751   0.095 -1.4715  0.3112  1.4909
 7934SOL    HW235439   0.563   0.824   0.013 -0.3659 -2.3732  1.3727
 7935SOL     OW35440   3.752   1.069   6.019  0.3737 -0.6575  0.3884
 7935SOL    HW135441   3.690   0.996   6.018  0.9371 -1.1556  1.1677
 7935SOL    HW235442   3.833   1.021   6.002 -0.5936 -1.9040 -0.7122
 7936SOL     OW35443   3.825   1.261   1.545 -0.1023  0.4413  0.3754
 7936SOL    HW135444   3.781   1.176   1.537  2.4084 -0.8379 -0.0646
 7936SOL    HW235445   3.906   1.228   1.584  0.1547  1.7572  0.9412
 7937SOL     OW35446   0.658   2.576  10.379 -0.2250 -0.4566  0.1895
 7937SOL    HW135447   0.736   2.568  10.324  0.5385  1.5624  0.9739
 7937SOL    HW235448   0.602   2.620  10.314  0.3527  2.9560  1.9908
 7938SOL     OW35449   2.355   3.496  11.055  0.4003 -0.5248  0.0353
 7938SOL    HW135450   2.305   3.434  11.108  0.0283  1.7760  2.3776
 7938SOL    HW235451   2.438   3.449  11.045  0.1343 -0.9607 -0.1526
 7939SOL     OW35452   0.712   3.707   4.452  0.2196 -0.6935  0.4263
 7939SOL    HW135453   0.734   3.676   4.365 -1.2103  0.7790 -0.4541
 7939SOL    HW235454   0.786   3.679   4.506 -1.1863  0.2557  2.8894
 7940SOL     OW35455   1.132   0.445   3.159  0.3472 -0.1744  0.0766
 7940SOL    HW135456   1.059   0.391   3.189  0.5296 -1.0824 -1.1430
 7940SOL    HW235457   1.204   0.407   3.210  1.2587  0.8915 -0.4090
 7941SOL     OW35458   0.824   2.051   5.258 -0.3647  1.1695 -0.2914
 7941SOL    HW135459   0.798   1.968   5.219  0.7433  1.3363 -1.4091
 7941SOL    HW235460   0.880   2.011   5.324  0.8747  0.7365 -1.5963
 7942SOL     OW35461   2.573   3.159   3.273 -0.0502 -0.1692  0.0425
 7942SOL    HW135462   2.636   3.121   3.336 -0.4694 -1.1396 -0.1214
 7942SOL    HW235463   2.557   3.247   3.308 -1.4869 -0.7703  0.9127
 7943SOL     OW35464   3.273   3.554   0.447 -0.7798  0.3838 -0.3310
 7943SOL    HW135465   3.199   3.579   0.502  0.2689 -0.2079  1.3633
 7943SOL    HW235466   3.324   3.499   0.506 -1.6527  1.6109  1.5886
 7944SOL     OW35467   0.576   1.850  10.960 -0.1505 -0.0236  0.2166
 7944SOL    HW135468   0.485   1.826  10.945  0.1407 -0.6250 -0.5537
 7944SOL    HW235469   0.602   1.765  10.995 -0.7139  0.2692  1.3392
 7945SOL     OW35470   3.129   3.475   3.534 -0.1698 -0.0806  0.2194
 7945SOL    HW135471   3.065   3.434   3.475 -1.8632  0.7638  1.4690
 7945SOL    HW235472   3.143   3.560   3.491 -0.1415 -0.8535 -1.3236
 7946SOL     OW35473   1.744   0.618   4.472  0.0871 -0.0219 -0.2094
 7946SOL    HW135474   1.795   0.632   4.392  2.6628 -2.0820  1.1112
 7946SOL    HW235475   1.734   0.523   4.473 -1.6646  0.1197 -2.0652
 7947SOL     OW35476   0.668   2.284   6.073  0.2501 -0.1048 -0.2538
 7947SOL    HW135477   0.669   2.203   6.021 -0.2941  0.4531 -1.1278
 7947SOL    HW235478   0.751   2.280   6.120 -0.5703 -2.2640  0.9897
 7948SOL     OW35479   0.022   4.486   4.474 -0.3542  0.2408  0.0701
 7948SOL    HW135480   4.694   4.437   4.422  1.2145 -0.9991 -0.6388
 7948SOL    HW235481   4.732   4.474   4.566  1.6383  1.9698  0.8561
 7949SOL     OW35482   0.890   2.165   6.886  0.1123 -0.3099 -0.1498
 7949SOL    HW135483   0.950   2.234   6.913 -0.3002 -0.3196  0.7920
 7949SOL    HW235484   0.833   2.205   6.821 -0.4316  0.2552  0.6671
 7950SOL     OW35485   3.830   0.006  14.258  0.0210  0.5427 -0.2950
 7950SOL    HW135486   3.856   0.097  14.247  0.0127  0.3521 -1.9218
 7950SOL    HW235487   3.913   4.697  14.236  0.5348  0.3279  2.0510
 7951SOL     OW35488   4.119   2.060   7.681  0.1793  0.5602  0.1719
 7951SOL    HW135489   4.056   2.129   7.701 -0.8204 -0.1966 -0.3587
 7951SOL    HW235490   4.166   2.102   7.610  1.9388  1.1328  1.6891
 7952SOL     OW35491   3.824   1.627   4.394 -0.0477 -0.2790  0.1259
 7952SOL    HW135492   3.908   1.585   4.372  1.8851  3.2237  0.7996
 7952SOL    HW235493   3.768   1.568   4.343  0.9593 -0.2065 -1.0649
 7953SOL     OW35494   3.465   0.903   7.263  0.2776  0.3244  0.2682
 7953SOL    HW135495   3.426   0.965   7.201 -1.7390 -0.5980  0.6416
 7953SOL    HW235496   3.513   0.855   7.195  0.8082  0.9093  0.2224
 7954SOL     OW35497   3.767   1.322   8.021  0.3322  0.0736 -0.1210
 7954SOL    HW135498   3.695   1.305   7.960 -2.2164  1.7317  2.3967
 7954SOL    HW235499   3.832   1.364   7.964 -0.2474  0.4071 -0.5335
 7955SOL     OW35500   0.806   4.460   6.215 -0.4812 -0.1402  0.0739
 7955SOL    HW135501   0.784   4.369   6.199 -2.5543  0.2631  0.6209
 7955SOL    HW235502   0.797   4.500   6.129  1.0848  0.2280  0.0937
 7956SOL     OW35503   0.448   2.124   9.827  0.3571 -0.4132  0.0080
 7956SOL    HW135504   0.530   2.149   9.783 -0.0155 -2.7203 -1.9681
 7956SOL    HW235505   0.406   2.079   9.754  0.0618 -1.6375  0.9388
 7957SOL     OW35506   0.972   0.695   9.773  0.2028  0.0993  0.2332
 7957SOL    HW135507   0.903   0.755   9.799 -0.2240  0.5027 -1.7762
 7957SOL    HW235508   1.031   0.756   9.728  1.3847 -1.2700 -0.1071
 7958SOL     OW35509   4.397   2.794   9.125  0.4002 -0.1948  0.0780
 7958SOL    HW135510   4.310   2.788   9.164  0.3960 -2.1484 -0.2021
 7958SOL    HW235511   4.446   2.833   9.197 -1.6270  2.0102  0.2508
 7959SOL     OW35512   0.125   4.235   3.208 -0.1868 -0.6394  0.1500
 7959SOL    HW135513   0.074   4.310   3.240  0.4548  0.2868 -1.0204
 7959SOL    HW235514   0.214   4.268   3.217 -0.4861  0.7205 -2.1083
 7960SOL     OW35515   1.474   4.603   4.066 -0.3578  0.1554  0.4062
 7960SOL    HW135516   1.466   4.582   4.159  0.6613  0.5719  0.5914
 7960SOL    HW235517   1.382   4.605   4.042  0.0362  0.6084 -1.0450
 7961SOL     OW35518   2.321   4.388  11.757 -0.0789 -0.0565 -0.2225
 7961SOL    HW135519   2.377   4.462  11.781  0.8617 -0.8964  0.2187
 7961SOL    HW235520   2.267   4.408  11.681  0.9916 -2.6991 -1.6730
 7962SOL     OW35521   1.260   4.087  13.128 -0.4158 -0.0482 -0.4372
 7962SOL    HW135522   1.214   4.032  13.065  1.0710 -2.7464  0.8012
 7962SOL    HW235523   1.338   4.108  13.076 -0.2905  1.5653  0.3991
 7963SOL     OW35524   1.913   4.635   5.336  0.3209  1.0062 -0.5087
 7963SOL    HW135525   1.980   4.703   5.324  0.4928  1.2216  1.6176
 7963SOL    HW235526   1.895   4.635   5.430  1.4722  0.3258 -0.2822
 7964SOL     OW35527   3.564   3.281   3.440  0.0895 -0.2413 -0.5394
 7964SOL    HW135528   3.478   3.260   3.477  0.8992 -2.8810 -0.1894
 7964SOL    HW235529   3.613   3.303   3.519 -1.0790 -1.1994  0.4584
 7965SOL     OW35530   3.723   0.485   4.192  0.2463  0.3612 -0.1638
 7965SOL    HW135531   3.718   0.580   4.206  0.2263  0.3033  0.2047
 7965SOL    HW235532   3.752   0.442   4.273 -0.0794 -0.1979 -0.3437
 7966SOL     OW35533   3.979   4.214  15.113 -0.4198 -0.0216  0.0771
 7966SOL    HW135534   3.974   4.168  15.028  1.4024 -1.1369  0.5831
 7966SOL    HW235535   4.008   4.296  15.073 -2.5057  2.3466  3.4504
 7967SOL     OW35536   1.366   3.559  13.793 -0.4450 -0.3139  0.3466
 7967SOL    HW135537   1.387   3.653  13.791 -0.0560 -0.3883  0.9448
 7967SOL    HW235538   1.278   3.572  13.827 -0.3597 -0.3443  0.5795
 7968SOL     OW35539   3.645   0.964  17.047 -0.8691 -0.5010  0.0304
 7968SOL    HW135540   3.611   0.879  17.075  0.7212 -0.1480  3.0011
 7968SOL    HW235541   3.738   0.945  17.036 -1.4287 -1.7442 -2.5313
 7969SOL     OW35542   1.198   3.459   5.335 -0.6714  0.3170  0.1142
 7969SOL    HW135543   1.149   3.376   5.335 -0.3162  0.1068 -0.1167
 7969SOL    HW235544   1.145   3.502   5.402  1.0241  0.2186  1.5288
 7970SOL     OW35545   4.632   4.211  12.890 -0.4633  0.2653 -0.1791
 7970SOL    HW135546   4.723   4.205  12.919 -0.3382  0.2031 -0.5913
 7970SOL    HW235547   4.641   4.186  12.798  0.5818  2.7458 -0.7275
 7971SOL     OW35548   4.373   3.813   3.403 -0.0876 -0.1394  0.2518
 7971SOL    HW135549   4.466   3.798   3.415  0.2717  1.6923 -0.2294
 7971SOL    HW235550   4.356   3.735   3.349  0.9007 -0.0489 -0.1867
 7972SOL     OW35551   0.405   3.193   3.458 -0.5180 -0.2124  0.0584
 7972SOL    HW135552   0.444   3.171   3.373 -1.3214 -0.7067 -0.1796
 7972SOL    HW235553   0.467   3.157   3.522 -0.1185 -0.0450 -0.2331
 7973SOL     OW35554   1.179   3.376  14.987 -0.0136  0.0458  0.3378
 7973SOL    HW135555   1.129   3.423  15.054  1.5633  4.0723 -1.3075
 7973SOL    HW235556   1.211   3.295  15.028  2.0121  0.1888 -0.9761
 7974SOL     OW35557   0.370   3.316   5.878 -0.6239  0.0789 -0.6963
 7974SOL    HW135558   0.379   3.380   5.948  0.1257 -1.6376  0.7822
 7974SOL    HW235559   0.457   3.319   5.838 -0.4182  0.7998 -0.1929
 7975SOL     OW35560   2.849   1.864   1.983  0.5306 -0.2165  0.6117
 7975SOL    HW135561   2.769   1.851   1.932  0.8867 -1.2477  0.3033
 7975SOL    HW235562   2.901   1.912   1.918  2.2834 -2.6935  0.1954
 7976SOL     OW35563   4.473   2.727   2.744  0.2347  0.3342 -0.2276
 7976SOL    HW135564   4.402   2.685   2.696 -0.4561  2.7643 -1.3198
 7976SOL    HW235565   4.507   2.646   2.782 -3.0107 -0.6631  0.5939
 7977SOL     OW35566   3.490   1.717   1.783 -0.1000 -0.5031  0.8809
 7977SOL    HW135567   3.412   1.765   1.809 -0.1868  0.0432 -0.3962
 7977SOL    HW235568   3.535   1.722   1.867 -1.0225  0.3876  1.3169
 7978SOL     OW35569   0.010   1.334   6.868 -0.1816 -0.5408  0.5701
 7978SOL    HW135570   0.092   1.332   6.917  0.5866 -1.6275 -0.7635
 7978SOL    HW235571   0.022   1.261   6.807 -0.8516 -1.0814  1.0842
 7979SOL     OW35572   2.237   2.104   3.017  0.0827  0.4849  0.1492
 7979SOL    HW135573   2.191   2.179   2.980  1.4498  0.7272 -1.0805
 7979SOL    HW235574   2.248   2.050   2.939  2.4501  0.1479  0.7026
 7980SOL     OW35575   2.550   4.557  12.522  0.2709 -0.1125  0.6182
 7980SOL    HW135576   2.607   4.490  12.482 -0.2825  0.0661 -0.4764
 7980SOL    HW235577   2.608   4.633  12.521  1.6051 -1.1227  2.0847
 7981SOL     OW35578   1.625   3.780   3.127  0.4304 -0.6096  0.3659
 7981SOL    HW135579   1.647   3.769   3.220  0.6347  0.4823  0.4559
 7981SOL    HW235580   1.581   3.696   3.118  1.4662 -1.2401  1.1383
 7982SOL     OW35581   3.492   1.719   8.887  0.8219  0.3410  0.2653
 7982SOL    HW135582   3.525   1.714   8.798  3.8043  1.5175  1.3021
 7982SOL    HW235583   3.535   1.796   8.926 -0.6563  1.9013 -1.1878
 7983SOL     OW35584   2.871   4.137   2.118  0.3297 -0.0305  0.2226
 7983SOL    HW135585   2.888   4.044   2.099  0.0506  0.1377 -0.8548
 7983SOL    HW235586   2.957   4.174   2.139  0.0925 -0.0585  1.2658
 7984SOL     OW35587   4.636   0.439   3.329  0.5745  0.2310 -0.0287
 7984SOL    HW135588   4.700   0.368   3.335  2.8336  2.0694 -1.8644
 7984SOL    HW235589   4.692   0.513   3.304  0.6430  1.1708  2.9902
 7985SOL     OW35590   0.233   1.349   5.430  0.0254 -0.0428  0.1659
 7985SOL    HW135591   0.272   1.375   5.514 -0.6951 -0.6047  0.6771
 7985SOL    HW235592   0.230   1.430   5.380 -1.4912  0.2520  0.7119
 7986SOL     OW35593   2.990   3.512   2.368 -0.7849  0.5683 -0.2970
 7986SOL    HW135594   3.035   3.549   2.445  0.1845 -0.6948 -0.2579
 7986SOL    HW235595   2.980   3.422   2.398 -0.8007  0.9050  0.7135
 7987SOL     OW35596   3.930   1.308   2.050 -0.2259  0.0010  0.2907
 7987SOL    HW135597   4.014   1.328   2.093 -0.2607 -2.1479  1.3868
 7987SOL    HW235598   3.923   1.373   1.980 -0.0057  0.9709  1.1658
 7988SOL     OW35599   4.476   1.104   6.262  1.0897  0.0870 -0.1751
 7988SOL    HW135600   4.533   1.135   6.332  0.9234 -0.4471  0.1950
 7988SOL    HW235601   4.401   1.068   6.310  0.5430  1.0425 -0.2981
 7989SOL     OW35602   3.900   2.106   3.901  0.1657  0.4969 -0.2490
 7989SOL    HW135603   3.957   2.176   3.933  3.6324 -3.4576  2.0755
 7989SOL    HW235604   3.960   2.041   3.867 -0.4097  0.2813 -0.8502
 7990SOL     OW35605   0.847   2.740  13.768 -0.3842  0.1860 -0.4152
 7990SOL    HW135606   0.819   2.708  13.854 -0.7207  1.7206  0.0460
 7990SOL    HW235607   0.768   2.786  13.741  0.6600  0.4724 -2.9776
 7991SOL     OW35608   3.262   0.473  10.429 -0.2934 -0.0129 -0.0235
 7991SOL    HW135609   3.175   0.438  10.408 -0.6044  0.3241  0.6914
 7991SOL    HW235610   3.253   0.553  10.481  0.8556  0.7720 -1.0512
 7992SOL     OW35611   1.966   3.393   7.922 -0.1865  0.2945 -0.1812
 7992SOL    HW135612   1.906   3.355   7.985  0.2662 -1.7158 -0.9782
 7992SOL    HW235613   1.974   3.479   7.964 -3.7099 -0.4316  1.9378
 7993SOL     OW35614   4.504   3.283   7.778  0.2906 -0.1850 -0.3553
 7993SOL    HW135615   4.411   3.260   7.782  0.3049 -0.2580 -0.4501
 7993SOL    HW235616   4.532   3.199   7.744  0.0458 -0.0150 -0.9768
 7994SOL     OW35617   0.686   2.864   3.799 -0.1103  0.0679  0.0137
 7994SOL    HW135618   0.734   2.849   3.717 -0.1104  1.6772 -0.2653
 7994SOL    HW235619   0.615   2.800   3.792  1.5931 -1.6921 -1.5181
 7995SOL     OW35620   0.598   2.771  16.532  0.0127  0.2370  0.0262
 7995SOL    HW135621   0.538   2.699  16.512  0.6093 -0.1722 -0.2791
 7995SOL    HW235622   0.546   2.840  16.490 -0.8237  1.2989  2.8107
 7996SOL     OW35623   2.707   0.731   4.878 -0.2098  0.1193 -0.2101
 7996SOL    HW135624   2.720   0.645   4.918  0.7356 -0.1271 -1.0790
 7996SOL    HW235625   2.676   0.699   4.794  0.9590 -0.3718 -0.4533
 7997SOL     OW35626   1.698   0.293   6.280 -0.0861  0.0776  0.3309
 7997SOL    HW135627   1.738   0.211   6.253  0.5547  0.5746 -0.2249
 7997SOL    HW235628   1.636   0.261   6.346 -0.9029 -2.2775 -1.5708
 7998SOL     OW35629   2.210   3.572   9.492 -0.4044 -0.0685  0.1162
 7998SOL    HW135630   2.259   3.613   9.420  0.4837 -1.4769 -0.0945
 7998SOL    HW235631   2.158   3.650   9.511 -0.9991 -0.0736 -1.4852
 7999SOL     OW35632   3.332   1.086   4.007 -0.6750 -0.5583 -0.8728
 7999SOL    HW135633   3.389   1.010   4.014  0.5827  0.4584 -0.0404
 7999SOL    HW235634   3.267   1.056   3.944 -1.6178 -0.1119 -0.1233
 8000SOL     OW35635   2.185   2.848  10.902  0.1190 -0.1950  0.1884
 8000SOL    HW135636   2.256   2.784  10.904  0.8453  0.6216  0.4557
 8000SOL    HW235637   2.150   2.832  10.814 -0.5503 -2.3492  0.8684
 8001SOL     OW35638   3.931   1.573   7.001  0.1070  0.4155 -0.4254
 8001SOL    HW135639   3.961   1.532   6.920 -1.3186 -1.0262 -0.2216
 8001SOL    HW235640   3.893   1.501   7.050  2.3726 -0.8252 -0.5106
 8002SOL     OW35641   0.127   4.326   5.377  0.3441  0.3367 -0.0623
 8002SOL    HW135642   0.073   4.285   5.310  0.2717  1.7798 -0.8842
 8002SOL    HW235643   0.087   4.298   5.460 -1.2377 -0.1369 -0.9987
 8003SOL     OW35644   3.569   2.657  14.028  0.5657  0.0013 -0.5077
 8003SOL    HW135645   3.525   2.740  14.007 -0.3788 -0.4623 -0.3606
 8003SOL    HW235646   3.639   2.707  14.070 -1.0818 -0.2087  2.5136
 8004SOL     OW35647   0.502   2.836   6.810  0.4486 -0.2489 -0.4847
 8004SOL    HW135648   0.414   2.836   6.772  1.4389 -1.4376 -2.7833
 8004SOL    HW235649   0.522   2.927   6.831  1.1239 -0.8657  1.5158
 8005SOL     OW35650   2.448   0.708   5.733  0.0906 -0.3924 -0.2429
 8005SOL    HW135651   2.480   0.785   5.781  1.2558 -0.8988 -0.1879
 8005SOL    HW235652   2.373   0.740   5.685 -1.1425 -2.1729  0.5077
 8006SOL     OW35653   1.349   0.469   4.810  0.1087  0.7320  0.5911
 8006SOL    HW135654   1.300   0.391   4.783  0.7130  0.8496 -0.8511
 8006SOL    HW235655   1.343   0.523   4.731 -1.9709  1.1194  1.0200
 8007SOL     OW35656   2.377   3.809   3.249  0.0284  0.5568  0.0574
 8007SOL    HW135657   2.291   3.784   3.213 -0.2592 -0.9232  1.8050
 8007SOL    HW235658   2.384   3.897   3.212 -0.9380  0.8748  0.6186
 8008SOL     OW35659   1.883   2.764   4.771 -0.2596  1.0370  0.2605
 8008SOL    HW135660   1.856   2.672   4.764 -0.3387  0.9573  1.5772
 8008SOL    HW235661   1.916   2.773   4.682  1.9103 -2.0084  0.7292
 8009SOL     OW35662   1.354   3.702   5.818 -0.1351 -0.0407 -0.2649
 8009SOL    HW135663   1.275   3.736   5.776  0.4142 -0.8800 -2.0291
 8009SOL    HW235664   1.382   3.624   5.769 -0.6366 -0.4722  0.1348
 8010SOL     OW35665   0.381   3.761   5.508  0.3052 -0.6252 -0.9061
 8010SOL    HW135666   0.419   3.696   5.449  0.7092  0.2596 -1.6198
 8010SOL    HW235667   0.368   3.711   5.588 -0.9969  3.2563  1.3052
 8011SOL     OW35668   3.224   4.585   2.541 -0.2805 -0.4524 -0.7991
 8011SOL    HW135669   3.264   4.671   2.525 -0.1800 -0.4389 -0.4845
 8011SOL    HW235670   3.236   4.572   2.635  0.5467 -2.9543 -1.2640
 8012SOL     OW35671   1.420   2.819  11.124 -0.0283  0.3862  0.5923
 8012SOL    HW135672   1.505   2.862  11.116  0.0401 -0.4431 -3.1388
 8012SOL    HW235673   1.447   2.728  11.113  0.2084  0.5658 -0.2932
 8013SOL     OW35674   4.330   1.149  13.610  0.2732  0.0568  0.1685
 8013SOL    HW135675   4.342   1.189  13.524 -1.2777  2.2484  0.9660
 8013SOL    HW235676   4.416   1.162  13.649 -1.1553 -0.0795  3.4092
 8014SOL     OW35677   1.777   0.959   7.591  0.4388 -0.0397  0.4997
 8014SOL    HW135678   1.714   1.002   7.534  0.5198 -1.6547 -0.7959
 8014SOL    HW235679   1.739   0.871   7.595 -1.5039  0.7887  0.2289
 8015SOL     OW35680   0.072   4.108   3.863 -0.1285 -0.1316 -0.2678
 8015SOL    HW135681   0.100   4.091   3.952  2.4930 -1.3724 -1.3467
 8015SOL    HW235682   0.157   4.119   3.821  0.4980 -2.2753  0.4576
 8016SOL     OW35683   0.983   3.727   4.460  0.1038  0.0019 -0.2111
 8016SOL    HW135684   1.056   3.732   4.398 -0.0198  0.5171 -0.3208
 8016SOL    HW235685   1.039   3.701   4.533 -0.6334  2.4662  1.2344
 8017SOL     OW35686   4.693   4.461   7.929  0.1723  1.2839 -0.2158
 8017SOL    HW135687   0.042   4.431   7.962 -0.8094 -0.5706  0.5858
 8017SOL    HW235688   4.640   4.383   7.941  0.8164  1.0015  0.7270
 8018SOL     OW35689   3.771   4.042   7.067 -0.1546 -0.4951  0.5347
 8018SOL    HW135690   3.707   4.005   7.006  0.4035 -0.0428 -0.3310
 8018SOL    HW235691   3.714   4.076   7.136  0.7031  1.1480  0.4461
 8019SOL     OW35692   3.280   2.103  10.412 -0.1198 -0.0186 -0.6788
 8019SOL    HW135693   3.281   2.013  10.379 -2.0577  0.0489 -0.9392
 8019SOL    HW235694   3.351   2.099  10.476 -1.3113  0.1763  0.6697
 8020SOL     OW35695   2.590   3.423   7.068 -0.2510  0.2604  0.3002
 8020SOL    HW135696   2.526   3.351   7.063 -0.3407  0.4289 -0.9728
 8020SOL    HW235697   2.674   3.379   7.080 -0.9150 -0.4782  2.3573
 8021SOL     OW35698   3.508   3.057  15.714  0.1875 -0.1931  0.1081
 8021SOL    HW135699   3.474   3.066  15.803  0.0412  1.8902 -0.1617
 8021SOL    HW235700   3.601   3.078  15.714  0.2034 -0.2688 -0.9444
 8022SOL     OW35701   0.536   0.262   7.326 -0.2360  0.2754 -0.4578
 8022SOL    HW135702   0.462   0.209   7.295  0.4157 -1.4339  0.9573
 8022SOL    HW235703   0.539   0.325   7.253 -2.1339  2.4791  1.3525
 8023SOL     OW35704   0.383   3.949   8.590  0.7490  0.2651 -0.0139
 8023SOL    HW135705   0.398   3.938   8.496  2.0068 -0.4000  0.2626
 8023SOL    HW235706   0.304   4.002   8.603  2.0494  2.0439  0.6204
 8024SOL     OW35707   3.858   1.849   7.130  0.3041 -0.4372  0.0271
 8024SOL    HW135708   3.895   1.767   7.096  1.1147  0.0281 -0.1846
 8024SOL    HW235709   3.838   1.825   7.221 -2.6288  0.4997 -0.3711
 8025SOL     OW35710   3.284   1.567  14.824  0.0672  0.4419 -0.2552
 8025SOL    HW135711   3.266   1.476  14.802 -0.7363 -0.3406  3.7099
 8025SOL    HW235712   3.254   1.608  14.743 -0.2690 -0.3431 -0.5191
 8026SOL     OW35713   1.572   2.626   4.588  0.5003  0.5634 -0.1232
 8026SOL    HW135714   1.638   2.679   4.544  2.8638 -0.9183  1.6499
 8026SOL    HW235715   1.493   2.629   4.534 -0.3592  0.6871  1.1459
 8027SOL     OW35716   0.689   2.385   7.709 -0.4731  0.1970  0.4258
 8027SOL    HW135717   0.694   2.462   7.653 -1.9169 -0.8535 -1.1540
 8027SOL    HW235718   0.606   2.350   7.678 -0.7075  0.7990  0.3842
 8028SOL     OW35719   3.804   0.229   0.663 -0.2682  0.3789 -0.6656
 8028SOL    HW135720   3.850   0.145   0.674  0.7913  0.9613 -0.6845
 8028SOL    HW235721   3.727   0.213   0.717 -1.4519  1.1170 -2.1637
 8029SOL     OW35722   2.378   3.101  16.403 -0.2279  0.1937 -0.1052
 8029SOL    HW135723   2.302   3.126  16.350  0.7674  0.9998 -1.1496
 8029SOL    HW235724   2.450   3.115  16.342  0.7533 -1.5492  0.6468
 8030SOL     OW35725   0.695   4.110   8.502  0.2182 -0.2312 -0.4932
 8030SOL    HW135726   0.711   4.137   8.411 -0.3469  2.6083  0.2439
 8030SOL    HW235727   0.613   4.152   8.527  0.7839  1.0905 -0.8370
 8031SOL     OW35728   0.267   1.691   2.693  0.5041  0.3889  0.8937
 8031SOL    HW135729   0.285   1.674   2.600  1.3548  0.1992  1.0865
 8031SOL    HW235730   0.176   1.718   2.682  0.5080  1.2772  3.1503
 8032SOL     OW35731   1.166   3.813  16.848 -0.0483 -0.5777 -0.4331
 8032SOL    HW135732   1.257   3.843  16.852 -0.5157  0.6279  1.0846
 8032SOL    HW235733   1.180   3.759  16.925 -0.9764  2.4346  1.8335
 8033SOL     OW35734   0.214   0.218   5.618 -0.3758 -0.0369  0.7547
 8033SOL    HW135735   0.230   0.303   5.658 -0.9328  1.1073 -1.4635
 8033SOL    HW235736   0.154   0.168   5.673 -1.3921 -0.4236 -0.7030
 8034SOL     OW35737   4.315   0.147  14.793  0.7079  0.1506 -0.3935
 8034SOL    HW135738   4.291   0.191  14.711 -0.1291  0.5969  0.0933
 8034SOL    HW235739   4.284   0.213  14.855 -1.2630  0.6533 -1.9302
 8035SOL     OW35740   2.671   2.110   3.730  0.0515 -0.2921  0.5153
 8035SOL    HW135741   2.720   2.148   3.803  1.7783 -0.2192 -0.7084
 8035SOL    HW235742   2.671   2.016   3.750  0.2056 -0.3987 -0.0032
 8036SOL     OW35743   1.490   4.230   2.246 -0.1111  0.2938  0.1829
 8036SOL    HW135744   1.432   4.288   2.294 -0.9037 -1.3622  1.1999
 8036SOL    HW235745   1.483   4.272   2.160 -2.5018 -1.4526 -0.4877
 8037SOL     OW35746   0.884   2.340  10.950 -0.1833  0.5440 -0.6372
 8037SOL    HW135747   0.953   2.312  11.010 -2.3667  1.9921  2.6239
 8037SOL    HW235748   0.855   2.424  10.987 -0.4328  0.6817 -1.1442
 8038SOL     OW35749   0.406   3.755   8.828 -0.2681  0.1174 -0.3930
 8038SOL    HW135750   0.360   3.720   8.904 -0.3256  0.5800 -0.2179
 8038SOL    HW235751   0.337   3.800   8.780 -0.6345  0.2877  0.3051
 8039SOL     OW35752   2.496   0.155   3.885  0.0793 -0.0479  0.5588
 8039SOL    HW135753   2.498   0.059   3.885 -0.7599 -0.0599 -0.0678
 8039SOL    HW235754   2.583   0.169   3.923 -0.6978  1.4500  1.8184
 8040SOL     OW35755   0.329   0.094   7.648  0.3029  0.1615  0.1917
 8040SOL    HW135756   0.277   0.108   7.728  1.1219  2.8836  0.2122
 8040SOL    HW235757   0.278   0.018   7.619 -0.6760  0.4464  1.1726
 8041SOL     OW35758   1.358   4.367   6.900  0.4384  0.1264 -0.7981
 8041SOL    HW135759   1.281   4.356   6.844 -1.8952 -0.6248  2.5862
 8041SOL    HW235760   1.395   4.279   6.903  2.8247  1.1482 -0.4381
 8042SOL     OW35761   1.068   2.115  11.900  0.3516  0.0293  0.0759
 8042SOL    HW135762   1.049   2.082  11.812 -0.7698  0.9944 -0.0467
 8042SOL    HW235763   1.147   2.165  11.881  0.3944 -0.3216 -0.6480
 8043SOL     OW35764   3.299   0.021  15.476 -0.3333  0.4679  0.0149
 8043SOL    HW135765   3.207   0.024  15.500  0.0487  1.5593  1.3508
 8043SOL    HW235766   3.288   0.109  15.439 -2.0842 -0.3716 -1.4381
 8044SOL     OW35767   0.104   2.341  12.839  0.1182 -0.3850 -0.0703
 8044SOL    HW135768   0.112   2.330  12.745  0.5140  0.0599 -0.0914
 8044SOL    HW235769   0.197   2.341  12.862  0.1192  1.8423 -0.0321
 8045SOL     OW35770   2.152   1.691   3.675  0.1826 -0.2357  0.9999
 8045SOL    HW135771   2.174   1.654   3.760 -1.7215  1.0287  2.0279
 8045SOL    HW235772   2.177   1.783   3.674  0.2070 -0.2299  2.1761
 8046SOL     OW35773   0.254   2.295   9.496 -0.1388  0.1514  0.4944
 8046SOL    HW135774   0.171   2.257   9.468 -0.5383  1.6458 -0.3305
 8046SOL    HW235775   0.234   2.328   9.584 -0.1597 -0.1569  0.6082
 8047SOL     OW35776   3.774   1.093   3.438  0.1358 -0.2000 -0.5112
 8047SOL    HW135777   3.815   1.008   3.457  0.4318  0.3834  1.4633
 8047SOL    HW235778   3.682   1.074   3.455  0.2419 -0.6901 -0.4867
 8048SOL     OW35779   4.667   0.605   2.941 -0.3077 -0.1661 -0.2508
 8048SOL    HW135780   4.692   0.514   2.955 -0.9387 -0.1848  0.7778
 8048SOL    HW235781   4.682   0.647   3.026  1.0838 -1.2143  0.0060
 8049SOL     OW35782   3.168   3.888   3.044  0.1653 -0.9016 -0.2697
 8049SOL    HW135783   3.254   3.849   3.060 -0.0759 -0.5634  1.7998
 8049SOL    HW235784   3.106   3.847   3.104 -0.2011 -1.6316 -1.1428
 8050SOL     OW35785   2.201   1.105   5.867 -0.1287  0.6404  0.4835
 8050SOL    HW135786   2.223   1.196   5.886  0.6993  0.2887  1.1779
 8050SOL    HW235787   2.191   1.107   5.771 -0.1075 -2.5722  0.3871
 8051SOL     OW35788   1.564   4.298   7.788  0.4776 -0.1872  0.2558
 8051SOL    HW135789   1.526   4.213   7.810 -1.7132  0.3927 -1.3131
 8051SOL    HW235790   1.528   4.305   7.700 -0.8384  1.7912  0.9617
 8052SOL     OW35791   0.427   0.885   4.976 -0.6263  0.1048  0.4516
 8052SOL    HW135792   0.334   0.906   4.983 -0.9111 -0.4945 -1.5656
 8052SOL    HW235793   0.420   0.819   4.906 -1.1487  0.7077 -0.0648
 8053SOL     OW35794   4.027   4.605   8.511 -0.3976  0.2062  0.3290
 8053SOL    HW135795   4.095   4.567   8.454 -1.5188 -1.6057  0.1912
 8053SOL    HW235796   4.067   4.692   8.513  3.2351 -1.4588  2.0196
 8054SOL     OW35797   3.461   3.812  17.597  0.9080  0.2305 -0.3905
 8054SOL    HW135798   3.384   3.828  17.651  0.7980 -1.4329 -0.0649
 8054SOL    HW235799   3.483   3.902  17.571  0.0636  0.0915 -1.5665
 8055SOL     OW35800   4.359   3.960  17.638  0.2877  0.2215  0.4654
 8055SOL    HW135801   4.422   3.958  17.566  1.3467 -0.2971  1.4193
 8055SOL    HW235802   4.294   3.896  17.610  0.3079 -0.6651  2.4447
 8056SOL     OW35803   3.420   1.702  14.119 -0.0003 -0.0077 -0.4884
 8056SOL    HW135804   3.479   1.776  14.108  1.0556 -0.6820  0.7041
 8056SOL    HW235805   3.336   1.746  14.132  1.6805  2.8910  0.4970
 8057SOL     OW35806   0.646   2.758   8.621 -0.3689  0.9175 -0.0694
 8057SOL    HW135807   0.704   2.813   8.675 -0.8477 -0.9596  2.3031
 8057SOL    HW235808   0.576   2.823   8.614 -0.5301  0.9090  1.6354
 8058SOL     OW35809   3.638   2.600  13.428 -0.1576 -0.6402 -0.0059
 8058SOL    HW135810   3.584   2.528  13.460 -0.9745 -0.4045 -0.8395
 8058SOL    HW235811   3.652   2.649  13.509  1.3376 -0.4281 -0.3920
 8059SOL     OW35812   3.880   3.496   3.468  0.2426 -0.2545  0.3591
 8059SOL    HW135813   3.907   3.407   3.445  1.7902  0.1809  0.4790
 8059SOL    HW235814   3.814   3.470   3.532 -0.4596 -2.1221 -1.1174
 8060SOL     OW35815   3.754   3.379   4.906 -0.6679  0.6855 -0.3857
 8060SOL    HW135816   3.822   3.444   4.890 -0.5373  0.3847 -1.0474
 8060SOL    HW235817   3.680   3.440   4.906 -0.6430  0.7158  0.1262
 8061SOL     OW35818   1.164   1.644   7.558  0.1337 -0.2428  0.0099
 8061SOL    HW135819   1.222   1.664   7.632  0.7156 -0.0255 -0.5023
 8061SOL    HW235820   1.119   1.569   7.597  0.5549  0.6296  2.2267
 8062SOL     OW35821   0.423   3.597   4.208 -0.2744  0.9690 -0.0088
 8062SOL    HW135822   0.518   3.601   4.215 -0.2813 -1.2764  1.3647
 8062SOL    HW235823   0.406   3.601   4.114 -1.3132 -0.8643  0.1123
 8063SOL     OW35824   0.132   1.196   3.684 -0.5257  0.8194 -0.5065
 8063SOL    HW135825   0.204   1.240   3.731 -1.6426  0.3987  1.6079
 8063SOL    HW235826   0.184   1.131   3.637 -1.0241 -0.4776  0.7244
 8064SOL     OW35827   3.171   2.572   7.832 -0.4477 -0.5335 -0.0736
 8064SOL    HW135828   3.146   2.664   7.833  0.1479 -0.3825  0.7719
 8064SOL    HW235829   3.182   2.556   7.738  0.1358  4.2167 -0.7782
 8065SOL     OW35830   4.599   2.515   2.850  0.2425  0.3739  0.7146
 8065SOL    HW135831   4.628   2.548   2.936 -2.1881  1.3746  1.1436
 8065SOL    HW235832   4.677   2.530   2.797  0.3788 -0.5182  0.6593
 8066SOL     OW35833   1.014   3.344  17.719 -0.5844 -0.1954 -0.0089
 8066SOL    HW135834   0.925   3.332   0.016 -0.6228 -0.1857 -0.1062
 8066SOL    HW235835   1.006   3.381  17.631 -1.7922 -1.0963 -0.2854
 8067SOL     OW35836   3.377   2.989   6.335  0.3194  0.2379  0.1512
 8067SOL    HW135837   3.372   3.041   6.255  1.1927 -2.5073 -1.6873
 8067SOL    HW235838   3.432   2.919   6.299  1.6732  0.7587  1.1776
 8068SOL     OW35839   4.401   1.875  16.026 -0.2320  0.0343 -0.0544
 8068SOL    HW135840   4.474   1.891  15.966 -0.2233  0.3539  0.0399
 8068SOL    HW235841   4.335   1.865  15.958  2.0623  1.6553 -2.4956
 8069SOL     OW35842   2.963   2.647  11.592 -0.4933  0.4778  0.0002
 8069SOL    HW135843   2.911   2.724  11.568 -0.0098  0.5339 -0.8754
 8069SOL    HW235844   2.988   2.625  11.502  0.1593  0.8524  0.0963
 8070SOL     OW35845   3.638   3.578   8.351  0.1644 -0.1170 -0.0756
 8070SOL    HW135846   3.706   3.646   8.353  1.0927 -1.1358  2.5654
 8070SOL    HW235847   3.655   3.536   8.435  1.1832 -2.0138 -1.2294
 8071SOL     OW35848   2.020   1.778   8.116 -0.0040 -0.0486 -0.3703
 8071SOL    HW135849   1.930   1.772   8.084 -0.1025 -1.8317  0.2366
 8071SOL    HW235850   2.047   1.869   8.103  2.6327 -0.8674 -0.5656
 8072SOL     OW35851   0.825   4.655   8.605  0.1462 -0.0878 -0.0133
 8072SOL    HW135852   0.753   4.643   8.543 -1.7514 -1.3253  2.4411
 8072SOL    HW235853   0.871   4.733   8.572  1.7105 -0.7242  0.6894
 8073SOL     OW35854   1.502   4.234  13.343 -0.5525 -0.2256  0.6950
 8073SOL    HW135855   1.528   4.151  13.302  0.0631  0.6720 -0.7745
 8073SOL    HW235856   1.431   4.206  13.400 -2.1695 -3.4288 -2.8700
 8074SOL     OW35857   2.884   1.175   5.157  0.1457 -0.5362  0.5535
 8074SOL    HW135858   2.922   1.114   5.094  1.3413  1.4530 -0.6453
 8074SOL    HW235859   2.959   1.234   5.167  1.0461 -1.3810 -1.1528
 8075SOL     OW35860   2.763   1.067   4.350 -0.4511 -0.2694  0.0506
 8075SOL    HW135861   2.792   1.014   4.424 -1.2136 -0.3059  0.3204
 8075SOL    HW235862   2.675   1.032   4.339 -0.3640 -0.6427  0.5461
 8076SOL     OW35863   0.936   2.253   6.139  0.2370 -0.6956 -0.2071
 8076SOL    HW135864   0.969   2.317   6.202  0.1778 -1.0050  0.1403
 8076SOL    HW235865   1.013   2.230   6.087  0.8587 -0.0266  0.4101
 8077SOL     OW35866   4.696   1.494   9.834 -0.3717  0.3787  0.3329
 8077SOL    HW135867   0.042   1.490   9.886 -1.9040  0.9954  2.7243
 8077SOL    HW235868   4.664   1.582   9.853  0.8097  1.4481 -2.7033
 8078SOL     OW35869   4.450   3.966   4.352  1.0136  0.3042 -0.6181
 8078SOL    HW135870   4.504   3.974   4.430  0.0705  0.0044  0.0681
 8078SOL    HW235871   4.523   3.951   4.292 -0.8866 -0.9251 -2.6439
 8079SOL     OW35872   3.603   2.622   4.809 -0.3854  0.6071  0.2555
 8079SOL    HW135873   3.608   2.553   4.743 -0.7765 -0.6925  1.5744
 8079SOL    HW235874   3.513   2.618   4.842 -0.6555 -2.2148 -0.8835
 8080SOL     OW35875   1.501   3.769   9.961  0.3099  0.6933 -0.0756
 8080SOL    HW135876   1.437   3.762  10.032 -0.7583 -0.2552 -1.1337
 8080SOL    HW235877   1.553   3.848   9.978 -1.1336  1.9478 -1.5045
 8081SOL     OW35878   2.000   0.981  10.974 -0.1108  0.1808 -0.2688
 8081SOL    HW135879   2.062   1.050  10.951 -1.3320  0.8148 -1.6769
 8081SOL    HW235880   2.065   0.924  11.014 -0.8823 -0.4956  0.0307
 8082SOL     OW35881   2.337   3.369   9.609 -0.1470  0.0073 -0.2202
 8082SOL    HW135882   2.280   3.357   9.686  0.5447  1.6673  0.5624
 8082SOL    HW235883   2.305   3.451   9.571 -0.4035  0.7374  1.5500
 8083SOL     OW35884   2.707   3.537   0.517  1.0764 -0.1144 -0.2676
 8083SOL    HW135885   2.777   3.550   0.454  1.5804 -0.4301  0.2314
 8083SOL    HW235886   2.674   3.458   0.474  0.1880 -0.0588  0.3125
 8084SOL     OW35887   4.347   4.143   3.138 -0.8029  0.0539  0.1595
 8084SOL    HW135888   4.305   4.076   3.085  0.6927 -0.5836 -0.2180
 8084SOL    HW235889   4.437   4.111   3.137 -0.8191  0.0263 -0.5247
 8085SOL     OW35890   3.745   2.712  11.953  0.2438 -0.0669 -0.6594
 8085SOL    HW135891   3.735   2.807  11.961 -1.0610 -0.2174 -0.5399
 8085SOL    HW235892   3.821   2.708  11.894 -0.2328 -0.3106 -1.2610
 8086SOL     OW35893   0.514   3.369   1.028 -0.3462  0.0776  0.1651
 8086SOL    HW135894   0.441   3.351   0.969  0.0614 -2.2824  0.3760
 8086SOL    HW235895   0.577   3.304   0.997 -1.8253 -2.1247  1.7305
 8087SOL     OW35896   3.131   1.323   5.177  0.1796  0.2275 -0.1032
 8087SOL    HW135897   3.100   1.356   5.261 -0.7464 -0.4530 -0.1765
 8087SOL    HW235898   3.147   1.402   5.126 -1.7036  1.5304  1.3589
 8088SOL     OW35899   4.724   1.298  16.710  0.1703 -0.2425  0.2150
 8088SOL    HW135900   0.018   1.344  16.631 -1.5882 -0.0678 -0.3224
 8088SOL    HW235901   4.682   1.365  16.765  0.3390 -0.1999  0.2916
 8089SOL     OW35902   1.651   4.661   8.924 -0.0540 -0.5394  0.1664
 8089SOL    HW135903   1.568   4.667   8.971  0.0753 -0.9367  0.4442
 8089SOL    HW235904   1.676   0.019   8.933  0.1879 -0.6380  0.5352
 8090SOL     OW35905   2.456   3.522   7.702 -0.6014 -0.0701 -0.1010
 8090SOL    HW135906   2.466   3.429   7.720  3.1816  0.8326  2.4352
 8090SOL    HW235907   2.506   3.529   7.620 -0.0589 -1.7666  0.0914
 8091SOL     OW35908   0.634   2.344   3.100  0.2561  0.0276 -0.1740
 8091SOL    HW135909   0.627   2.386   3.015  0.3256  0.3468 -0.0221
 8091SOL    HW235910   0.556   2.380   3.142  0.9349  0.6737  0.5248
 8092SOL     OW35911   3.107   4.290   8.150  0.1841  0.3920 -0.4584
 8092SOL    HW135912   3.036   4.331   8.198  0.3362 -0.0580  0.1468
 8092SOL    HW235913   3.064   4.222   8.097  0.5233  0.0947 -0.3600
 8093SOL     OW35914   2.497   0.241  11.712 -0.4223 -0.3713 -0.2887
 8093SOL    HW135915   2.413   0.267  11.672 -0.5358 -0.2365  0.0425
 8093SOL    HW235916   2.482   0.252  11.805  0.0127 -0.0060 -0.2660
 8094SOL     OW35917   1.196   3.580   6.388  0.2431  0.0064  0.0249
 8094SOL    HW135918   1.150   3.610   6.466 -0.3679  0.0277 -0.3504
 8094SOL    HW235919   1.254   3.656   6.382 -1.4990  1.5423  2.7254
 8095SOL     OW35920   2.516   2.113   8.249 -0.6768  0.0221 -0.5066
 8095SOL    HW135921   2.468   2.038   8.285 -1.6637  0.0015 -1.8810
 8095SOL    HW235922   2.508   2.095   8.156  0.9108 -0.9798 -0.4661
 8096SOL     OW35923   0.180   1.183   9.079  0.0295  0.1755  0.7679
 8096SOL    HW135924   0.145   1.272   9.066 -0.0572 -0.0893 -0.8373
 8096SOL    HW235925   0.272   1.205   9.062 -0.1007 -1.4851 -1.9439
 8097SOL     OW35926   2.891   2.924  15.950  0.0220  0.4382  0.5157
 8097SOL    HW135927   2.855   3.006  15.917  0.0149  0.3353  0.2666
 8097SOL    HW235928   2.974   2.951  15.989  0.8402  2.1911 -2.4707
 8098SOL     OW35929   3.589   0.117   5.662  0.7208  0.0297 -0.0739
 8098SOL    HW135930   3.566   0.178   5.732 -1.2764  0.5531 -1.1988
 8098SOL    HW235931   3.651   0.055   5.701 -1.5383 -2.7160 -0.8517
 8099SOL     OW35932   0.417   2.350  17.666  0.0576 -0.2320 -0.4581
 8099SOL    HW135933   0.368   2.356  17.584  1.4879 -1.3499 -1.3982
 8099SOL    HW235934   0.508   2.359  17.636  1.1576 -1.7810  2.3617
 8100SOL     OW35935   0.421   1.677   4.121  0.7129 -0.4417  0.0540
 8100SOL    HW135936   0.516   1.687   4.127  0.8086 -1.5004  0.4145
 8100SOL    HW235937   0.420   1.581   4.113 -1.3357 -0.4684  0.3965
 8101SOL     OW35938   3.432   4.696   7.708  1.2996 -0.1859 -0.1552
 8101SOL    HW135939   3.519   4.686   7.748  1.0449 -0.3747  0.3462
 8101SOL    HW235940   3.449   0.036   7.650  1.9298 -0.8279 -0.7901
 8102SOL     OW35941   3.906   4.195   5.838  0.5714  0.2266  0.0662
 8102SOL    HW135942   3.832   4.256   5.830 -1.4910 -2.2410  0.3870
 8102SOL    HW235943   3.875   4.121   5.786  2.2565  1.1700 -2.3101
 8103SOL     OW35944   4.079   2.945   0.749 -0.2899  0.1588 -0.4642
 8103SOL    HW135945   4.080   2.851   0.729 -1.5313  0.3776 -1.5583
 8103SOL    HW235946   4.173   2.962   0.757 -0.3083 -1.1335  2.5083
 8104SOL     OW35947   1.340   4.671   2.658 -0.7516 -0.3967  0.1746
 8104SOL    HW135948   1.372   4.586   2.628 -0.8330 -0.1120 -0.7119
 8104SOL    HW235949   1.413   4.700   2.712 -1.4888  2.1613 -0.1968
 8105SOL     OW35950   3.082   1.099   3.557  0.2570 -0.1022  0.2562
 8105SOL    HW135951   2.989   1.111   3.576  0.5825  2.6436  0.0863
 8105SOL    HW235952   3.089   1.133   3.467  0.0041  0.6144  0.5070
 8106SOL     OW35953   1.896   4.723  12.729 -0.0174 -0.5891 -0.5614
 8106SOL    HW135954   1.861   4.634  12.725 -2.3376  0.4919 -3.7682
 8106SOL    HW235955   1.979   4.708  12.774 -0.6349 -2.7353 -0.1049
 8107SOL     OW35956   1.496   4.535   4.663  0.2118  0.8489  0.2524
 8107SOL    HW135957   1.509   4.440   4.662  1.0760  0.9660 -0.5982
 8107SOL    HW235958   1.572   4.567   4.712 -0.4429  1.1669  1.0470
 8108SOL     OW35959   4.192   2.184  13.973  0.2171  0.3713 -0.1118
 8108SOL    HW135960   4.225   2.109  13.925 -1.5012  0.2493 -1.1102
 8108SOL    HW235961   4.195   2.253  13.907 -0.7469 -2.1396 -2.7737
 8109SOL     OW35962   4.245   2.030   2.525 -0.0290  0.1927  0.3768
 8109SOL    HW135963   4.243   2.006   2.433 -0.7004 -0.3519  0.5418
 8109SOL    HW235964   4.227   2.123   2.508 -0.0899 -0.4530 -2.9404
 8110SOL     OW35965   4.397   4.698   4.851 -0.1208 -0.2391  0.4150
 8110SOL    HW135966   4.314   0.009   4.836  0.7531  1.1125 -0.2732
 8110SOL    HW235967   4.363   4.619   4.894  0.8654 -1.1111 -0.4221
 8111SOL     OW35968   2.530   0.592   1.717  0.7211  0.0588  0.0982
 8111SOL    HW135969   2.462   0.615   1.780 -1.6323 -1.7302 -1.7845
 8111SOL    HW235970   2.574   0.668   1.680  0.1355  1.1099  1.5942
 8112SOL     OW35971   3.425   1.947   4.630  1.0385  0.0736  0.3237
 8112SOL    HW135972   3.348   2.003   4.636 -0.3747 -2.0106  1.4495
 8112SOL    HW235973   3.477   1.988   4.561  2.5359 -0.4639  1.1293
 8113SOL     OW35974   0.933   2.483   3.086 -0.6632  0.1537  0.1604
 8113SOL    HW135975   0.969   2.548   3.027  0.1717 -0.7143 -0.2960
 8113SOL    HW235976   0.874   2.535   3.140  1.8695  1.4486  1.6790
 8114SOL     OW35977   3.989   1.320   6.172  0.2980 -0.3431  0.3816
 8114SOL    HW135978   4.008   1.329   6.079  0.1215  0.0575  0.3851
 8114SOL    HW235979   3.922   1.385   6.192 -0.0542 -0.7731  0.6086
 8115SOL     OW35980   3.512   0.665   7.808 -0.1785 -0.6204 -0.1297
 8115SOL    HW135981   3.530   0.692   7.718 -3.2459 -1.8024 -1.1138
 8115SOL    HW235982   3.504   0.571   7.795 -1.9923 -0.3416 -1.1514
 8116SOL     OW35983   4.676   2.171  16.594  0.2915  0.4683  0.2158
 8116SOL    HW135984   4.710   2.258  16.573  1.8341 -1.1528 -3.8888
 8116SOL    HW235985   0.008   2.148  16.659  1.4465 -1.5846 -1.7035
 8117SOL     OW35986   1.568   0.195   5.578 -0.1991  0.4416 -0.2387
 8117SOL    HW135987   1.543   0.196   5.486 -0.4156  1.0672 -0.1762
 8117SOL    HW235988   1.582   0.289   5.592 -3.1692  1.0732 -1.5070
 8118SOL     OW35989   4.194   3.777  17.507 -0.0184  0.3721  0.5121
 8118SOL    HW135990   4.232   3.734  17.430  0.9699 -0.9260  1.7214
 8118SOL    HW235991   4.124   3.715  17.532  0.5877 -0.3380  0.4611
 8119SOL     OW35992   2.974   2.236   6.522 -0.1305 -0.5924 -0.3889
 8119SOL    HW135993   3.061   2.269   6.544 -0.5797 -0.5690  1.3578
 8119SOL    HW235994   2.945   2.214   6.611  0.5301  0.9315  0.2063
 8120SOL     OW35995   0.819   1.560   8.534  0.1429 -0.2574 -0.0187
 8120SOL    HW135996   0.827   1.542   8.628  0.2433  0.6426  0.1520
 8120SOL    HW235997   0.791   1.473   8.506 -0.6492  0.6619 -2.0688
 8121SOL     OW35998   2.890   0.941  11.643 -0.1768  0.1167 -0.2971
 8121SOL    HW135999   2.801   0.909  11.659  0.7468 -2.5865 -0.5343
 8121SOL    HW236000   2.878   1.028  11.681 -0.0893 -0.1732  0.4052
 8122SOL     OW36001   1.096   0.584   8.457  0.1423 -0.2608  0.0255
 8122SOL    HW136002   1.038   0.636   8.401  0.9151  1.8970  1.2469
 8122SOL    HW236003   1.165   0.646   8.480 -0.0391  0.1366 -0.4925
 8123SOL     OW36004   2.063   1.107   6.285 -0.0946  0.4851  0.6572
 8123SOL    HW136005   2.036   1.018   6.262 -0.7846  0.7313  0.4976
 8123SOL    HW236006   2.079   1.097   6.379 -0.8256 -0.9988  0.6197
 8124SOL     OW36007   4.368   2.838   7.855  0.5001 -0.2800  0.4287
 8124SOL    HW136008   4.407   2.810   7.772  0.4475  1.3847 -0.1588
 8124SOL    HW236009   4.344   2.757   7.900 -1.7920  1.1427  1.7560
 8125SOL     OW36010   1.709   2.863   4.991 -0.1992 -0.2246 -0.3509
 8125SOL    HW136011   1.780   2.836   4.933  0.1978  2.0424 -0.9222
 8125SOL    HW236012   1.685   2.949   4.957 -2.3930 -0.9291 -0.6001
 8126SOL     OW36013   2.048   1.862   9.281 -0.2305 -0.3235  0.2479
 8126SOL    HW136014   2.034   1.887   9.372 -0.0220  1.7233 -0.2921
 8126SOL    HW236015   2.093   1.778   9.292  0.1930 -0.1921 -0.4382
 8127SOL     OW36016   3.954   1.362   5.025 -0.3234  0.0851  0.2802
 8127SOL    HW136017   3.922   1.383   4.937 -0.1447 -1.4013 -0.1412
 8127SOL    HW236018   3.892   1.407   5.082 -1.1692  0.9080 -1.2723
 8128SOL     OW36019   1.311   1.683   2.176 -0.3571 -0.1665  1.1528
 8128SOL    HW136020   1.227   1.719   2.203 -0.7018  0.3193 -0.6141
 8128SOL    HW236021   1.333   1.731   2.096 -1.2378 -3.7047 -1.2048
 8129SOL     OW36022   1.860   3.894  16.823  0.0723  0.0877  0.1664
 8129SOL    HW136023   1.895   3.926  16.906  1.0687  0.9783 -0.5966
 8129SOL    HW236024   1.908   3.951  16.762 -1.1753  1.9786  0.9540
 8130SOL     OW36025   3.483   3.512   1.412 -0.1865  0.9038 -0.1547
 8130SOL    HW136026   3.435   3.450   1.357  0.9421 -2.4945  2.7628
 8130SOL    HW236027   3.564   3.516   1.362  1.9266  1.5258  3.3719
 8131SOL     OW36028   3.036   4.139  12.815  0.0317  0.5011 -0.4656
 8131SOL    HW136029   2.947   4.149  12.848 -0.2024 -0.0524 -0.9258
 8131SOL    HW236030   3.040   4.048  12.784 -0.0645  0.8677 -1.5375
 8132SOL     OW36031   2.109   4.386   5.346  0.3564  0.3722 -0.2554
 8132SOL    HW136032   2.116   4.411   5.438  1.4363 -3.6734  0.7196
 8132SOL    HW236033   2.184   4.427   5.303  1.9229  0.6010  2.7181
 8133SOL     OW36034   1.489   4.505   7.085  0.1165  0.4896 -0.4584
 8133SOL    HW136035   1.471   4.456   7.164  1.4307  0.0819 -0.4080
 8133SOL    HW236036   1.461   4.448   7.013  0.9630 -0.6240  0.0969
 8134SOL     OW36037   0.592   4.657   5.191 -0.2914  0.1452  0.3922
 8134SOL    HW136038   0.618   4.708   5.114  1.4436 -0.9044  0.2825
 8134SOL    HW236039   0.505   4.637   5.156 -1.1187  1.2853  1.8499
 8135SOL     OW36040   1.394   4.485   5.144  0.1409  0.2247 -0.3891
 8135SOL    HW136041   1.367   4.498   5.053  2.3078  1.0920 -0.9341
 8135SOL    HW236042   1.451   4.411   5.123 -0.0603  0.1689 -0.7413
 8136SOL     OW36043   2.215   2.389  16.477 -0.8600 -0.9303 -0.8851
 8136SOL    HW136044   2.162   2.364  16.400  0.3860 -1.6857 -1.4901
 8136SOL    HW236045   2.146   2.379  16.542 -0.1477 -0.7437 -0.1146
 8137SOL     OW36046   2.418   2.190   4.142 -0.2791  0.3198 -0.6068
 8137SOL    HW136047   2.339   2.172   4.193 -0.1337  0.7897 -0.2158
 8137SOL    HW236048   2.429   2.284   4.154 -0.5448  0.3561 -0.6590
 8138SOL     OW36049   2.406   0.468  15.801  0.1862  0.4233 -0.4474
 8138SOL    HW136050   2.385   0.457  15.708  0.0723 -1.8289 -0.1444
 8138SOL    HW236051   2.315   0.460  15.829  1.0001  0.5630  2.2075
 8139SOL     OW36052   3.140   1.560   4.189  0.4198  0.6691 -1.0160
 8139SOL    HW136053   3.053   1.527   4.165 -0.0094  0.8352  0.3486
 8139SOL    HW236054   3.188   1.555   4.106 -0.0339  0.1822 -1.2542
 8140SOL     OW36055   0.128   3.039   8.525  0.2915 -0.1501  0.1034
 8140SOL    HW136056   0.053   3.098   8.521 -0.4644 -1.1485 -0.6523
 8140SOL    HW236057   0.086   2.959   8.494 -0.9342  1.1895 -1.6358
 8141SOL     OW36058   0.114   1.139  11.343 -0.1597  0.4447  0.1867
 8141SOL    HW136059   0.109   1.080  11.418 -0.1210  2.3605  1.6931
 8141SOL    HW236060   0.208   1.155  11.341 -0.0188 -0.0624  2.5671
 8142SOL     OW36061   0.649   2.281  16.059  0.2381  0.0773 -0.3480
 8142SOL    HW136062   0.743   2.287  16.076  0.1094 -1.6713  1.0099
 8142SOL    HW236063   0.623   2.365  16.022  0.4047  0.7953  1.1990
 8143SOL     OW36064   3.679   1.478   6.368 -0.0905 -0.5481  0.4482
 8143SOL    HW136065   3.621   1.404   6.384 -2.3082  1.5097  1.9637
 8143SOL    HW236066   3.633   1.545   6.420 -0.8616 -0.0791 -0.8365
 8144SOL     OW36067   2.892   3.236  17.460  0.2406  0.1294  0.0506
 8144SOL    HW136068   2.939   3.154  17.472  0.9244  0.3463 -1.1842
 8144SOL    HW236069   2.845   3.238  17.543 -0.9635  0.2240 -0.6348
 8145SOL     OW36070   4.559   0.456   5.807 -0.3766  0.5533  0.2726
 8145SOL    HW136071   4.565   0.479   5.714  1.3335  0.2951  0.3109
 8145SOL    HW236072   4.476   0.500   5.827 -0.9919  0.0353 -1.1137
 8146SOL     OW36073   1.646   2.943   3.693 -0.3183  0.3494  0.3594
 8146SOL    HW136074   1.598   2.864   3.720 -1.9336  0.7984 -1.2235
 8146SOL    HW236075   1.616   3.000   3.764 -2.2123 -0.5346  0.2686
 8147SOL     OW36076   2.845   3.511  10.306 -0.4136  0.5070  0.1996
 8147SOL    HW136077   2.909   3.555  10.249  2.5662 -1.2466  2.2129
 8147SOL    HW236078   2.785   3.470  10.243  0.6484  0.0965 -0.5510
 8148SOL     OW36079   1.102   1.524   9.851 -0.3070  0.0736  0.1756
 8148SOL    HW136080   1.194   1.541   9.871  0.0709 -1.5245 -0.1580
 8148SOL    HW236081   1.092   1.574   9.770 -1.9980 -1.8903 -0.8550
 8149SOL     OW36082   4.140   0.736   1.935  0.0356 -0.4711 -0.4788
 8149SOL    HW136083   4.110   0.650   1.965  1.6209 -0.5596  0.8511
 8149SOL    HW236084   4.074   0.750   1.867 -0.5653  0.5213  0.2940
 8150SOL     OW36085   1.860   2.555   6.536 -1.0904 -0.2428  0.3778
 8150SOL    HW136086   1.933   2.612   6.514 -0.2108 -0.4002  2.8560
 8150SOL    HW236087   1.856   2.554   6.632  0.3155  1.0087  0.4538
 8151SOL     OW36088   2.901   3.748  15.643  0.4393 -0.1373  0.1803
 8151SOL    HW136089   2.878   3.808  15.572 -1.1562  0.4117  1.1439
 8151SOL    HW236090   2.939   3.675  15.595  0.2318  0.0634 -0.2937
 8152SOL     OW36091   0.478   1.398   4.133  0.5748 -0.1895  0.1940
 8152SOL    HW136092   0.565   1.437   4.139 -0.7574  2.3615  3.3535
 8152SOL    HW236093   0.494   1.305   4.123  3.3165  0.0858  2.0484
 8153SOL     OW36094   1.750   1.998   2.213  0.0354 -0.0918  0.5013
 8153SOL    HW136095   1.814   2.052   2.259  0.3209 -0.2188  0.2525
 8153SOL    HW236096   1.712   1.962   2.293 -2.3556  0.1115 -0.5340
 8154SOL     OW36097   1.941   2.694   0.974 -0.0106  0.1716 -0.1864
 8154SOL    HW136098   1.873   2.708   1.040 -0.7107 -3.8021 -0.0177
 8154SOL    HW236099   1.910   2.621   0.920 -1.2293  0.4009  0.1975
 8155SOL     OW36100   3.320   0.542   1.691  0.1728 -0.0028 -0.3301
 8155SOL    HW136101   3.243   0.589   1.660  0.4833 -0.1233 -1.2859
 8155SOL    HW236102   3.365   0.532   1.607  1.0986 -1.9404  0.4019
 8156SOL     OW36103   4.075   2.443   9.316 -0.3143  0.5994 -0.1015
 8156SOL    HW136104   4.141   2.396   9.367  0.4128 -1.3921 -2.8963
 8156SOL    HW236105   4.120   2.436   9.232  0.4350 -1.1674  0.4578
 8157SOL     OW36106   1.038   1.159   3.036 -0.2392 -0.3172 -0.3809
 8157SOL    HW136107   1.100   1.142   3.107 -0.2529 -1.0909 -0.5590
 8157SOL    HW236108   0.975   1.087   3.037  0.0217 -0.5552 -1.6852
 8158SOL     OW36109   4.361   0.970   7.328 -0.3609 -0.3773 -0.3418
 8158SOL    HW136110   4.371   1.065   7.342  0.3771 -0.3868 -0.7680
 8158SOL    HW236111   4.393   0.961   7.238 -0.0077  0.0344 -0.2615
 8159SOL     OW36112   0.340   3.403  13.936  0.1441 -0.8134 -0.2303
 8159SOL    HW136113   0.383   3.437  14.014  1.7456 -0.2063 -1.3927
 8159SOL    HW236114   0.271   3.469  13.925 -0.8894 -1.4772  2.3178
 8160SOL     OW36115   0.494   4.100   2.924 -0.3725 -0.3659  0.0009
 8160SOL    HW136116   0.495   4.130   3.015 -1.7647 -0.2952 -0.0047
 8160SOL    HW236117   0.422   4.151   2.887  0.1021  0.0331 -0.3807
 8161SOL     OW36118   4.364   0.746   2.397  0.2348  0.2127  0.3954
 8161SOL    HW136119   4.320   0.751   2.313 -1.1769 -0.5014  1.0947
 8161SOL    HW236120   4.294   0.760   2.461 -1.6457  0.8606 -1.8041
 8162SOL     OW36121   1.637   4.506   5.626  0.0058  0.9028 -0.5152
 8162SOL    HW136122   1.595   4.422   5.609  0.6366  0.0775  2.2147
 8162SOL    HW236123   1.629   4.545   5.538 -2.4403 -0.9531 -1.1090
 8163SOL     OW36124   1.576   0.643   2.382 -0.4228  0.2888 -0.5198
 8163SOL    HW136125   1.624   0.657   2.300 -0.4033  1.0945 -0.3719
 8163SOL    HW236126   1.638   0.684   2.443 -0.4363 -0.9132  0.3162
 8164SOL     OW36127   4.465   3.166  16.059  0.0628 -0.2552  0.3668
 8164SOL    HW136128   4.417   3.099  16.107 -1.5305 -0.6891 -1.8326
 8164SOL    HW236129   4.397   3.207  16.006  0.8222 -1.7722 -1.8115
 8165SOL     OW36130   3.315   1.064   6.341 -0.4443 -0.0015 -0.8686
 8165SOL    HW136131   3.277   1.118   6.410  1.5723 -1.5674  1.4524
 8165SOL    HW236132   3.363   1.119   6.278  0.7191  1.6423  1.4303
 8166SOL     OW36133   1.403   2.840  13.303  0.7923  0.1291 -0.3138
 8166SOL    HW136134   1.426   2.932  13.290 -0.3174  0.0542 -2.7905
 8166SOL    HW236135   1.336   2.833  13.235  0.6116 -2.4907  0.1481
 8167SOL     OW36136   3.097   3.992  16.335 -0.1837 -0.0130  0.3157
 8167SOL    HW136137   3.047   4.025  16.410 -0.8188  0.0149 -0.1234
 8167SOL    HW236138   3.059   4.045  16.265 -0.8486 -2.6203 -1.3100
 8168SOL     OW36139   4.225   3.669   4.313 -0.4672  0.7885 -0.2584
 8168SOL    HW136140   4.165   3.732   4.354 -1.5752 -0.6257  0.2901
 8168SOL    HW236141   4.199   3.585   4.349  2.3979  0.1248  0.2145
 8169SOL     OW36142   1.211   1.991   4.131  0.0891  0.3468  0.3704
 8169SOL    HW136143   1.197   2.072   4.181 -1.7162  0.7493 -0.7931
 8169SOL    HW236144   1.177   2.020   4.046 -0.5452 -0.4840  0.3471
 8170SOL     OW36145   3.467   2.271   7.250  0.2037 -0.6325  0.1371
 8170SOL    HW136146   3.534   2.289   7.183 -1.0354 -0.7687 -1.1460
 8170SOL    HW236147   3.432   2.356   7.276  0.8038 -0.6062  0.8591
 8171SOL     OW36148   0.081   3.107  14.721  0.1610  0.0299 -0.0338
 8171SOL    HW136149   0.138   3.062  14.783  0.3596  1.5096  0.8657
 8171SOL    HW236150   0.050   3.178  14.777  0.2531  1.3429 -1.6360
 8172SOL     OW36151   3.554   2.660  12.142  0.2892 -0.1013  0.2860
 8172SOL    HW136152   3.625   2.674  12.080 -0.3088  0.7377 -0.1990
 8172SOL    HW236153   3.615   2.665  12.216 -2.1825 -1.0743  2.3779
 8173SOL     OW36154   0.433   1.255   8.994  0.5324 -0.2613 -0.2728
 8173SOL    HW136155   0.468   1.172   9.027 -0.1447  0.1523  1.4676
 8173SOL    HW236156   0.508   1.315   8.988  0.6417  0.1258  4.7392
 8174SOL     OW36157   2.971   2.596   2.917 -0.3050 -0.2776 -0.0650
 8174SOL    HW136158   2.912   2.602   2.992  0.9002 -1.7340  1.0161
 8174SOL    HW236159   3.012   2.514   2.945  1.1535  0.5337  0.1669
 8175SOL     OW36160   1.602   3.294   6.506 -0.0009  0.3914  0.1351
 8175SOL    HW136161   1.617   3.237   6.431 -1.3658  2.5314 -1.7625
 8175SOL    HW236162   1.510   3.319   6.509  0.0935  1.2793 -4.6016
 8176SOL     OW36163   1.732   3.440   7.610  0.3417  0.0202 -0.2087
 8176SOL    HW136164   1.727   3.510   7.675  0.5712 -0.5011  0.3650
 8176SOL    HW236165   1.741   3.363   7.666 -0.9709  1.2812  1.7447
 8177SOL     OW36166   3.358   1.181   3.563  0.1732  0.7033  0.7677
 8177SOL    HW136167   3.268   1.179   3.594 -0.5148 -0.9984 -1.3588
 8177SOL    HW236168   3.381   1.088   3.557 -1.7593  0.1879  1.3488
 8178SOL     OW36169   3.523   3.318   5.340 -0.3393  0.5832  0.4539
 8178SOL    HW136170   3.454   3.328   5.274  2.2858  0.7972 -2.2126
 8178SOL    HW236171   3.586   3.300   5.270 -0.6235  0.5087  0.2149
 8179SOL     OW36172   1.524   4.399   2.911  0.3126  0.2487 -0.0799
 8179SOL    HW136173   1.487   4.331   2.968 -2.5098  0.8451 -1.2119
 8179SOL    HW236174   1.609   4.362   2.886  0.8755 -0.3126  2.5898
 8180SOL     OW36175   2.723   4.166   8.848  0.3436 -0.5165  0.1529
 8180SOL    HW136176   2.740   4.137   8.938  0.6282 -1.4230 -0.1922
 8180SOL    HW236177   2.778   4.243   8.835 -0.9624  0.2430 -0.8830
 8181SOL     OW36178   0.062   4.030   2.257 -0.4613  0.3408  0.0066
 8181SOL    HW136179   0.143   4.074   2.231 -0.2443  0.1233  0.3183
 8181SOL    HW236180   0.073   3.943   2.220  0.7368  0.3660  0.3124
 8182SOL     OW36181   3.806   1.689   9.168 -0.6195 -0.0741  0.7854
 8182SOL    HW136182   3.756   1.629   9.113 -0.7580 -0.1412  0.9868
 8182SOL    HW236183   3.828   1.757   9.104 -0.6996 -0.7821  0.0093
 8183SOL     OW36184   4.264   3.412  16.214  0.1153 -0.2536  0.0563
 8183SOL    HW136185   4.270   3.460  16.131  0.6395  0.9416  0.7899
 8183SOL    HW236186   4.345   3.451  16.245 -0.1063  1.0387 -0.9487
 8184SOL     OW36187   3.590   2.915   8.244  0.0219  0.5745 -0.3949
 8184SOL    HW136188   3.627   2.850   8.185  2.3456 -1.0695  2.8353
 8184SOL    HW236189   3.645   2.988   8.217  0.0089  0.0812 -1.7470
 8185SOL     OW36190   0.860   0.530  11.174 -0.2489  1.0200  0.0549
 8185SOL    HW136191   0.948   0.560  11.152 -0.2999  0.8442 -0.3746
 8185SOL    HW236192   0.838   0.571  11.258  0.1724  0.7574  0.2978
 8186SOL     OW36193   4.430   2.201   0.333 -0.7471 -0.8623  0.0966
 8186SOL    HW136194   4.442   2.138   0.262 -0.7267  0.4662 -1.0684
 8186SOL    HW236195   4.344   2.168   0.361 -1.3543  2.5471  2.2971
 8187SOL     OW36196   2.993   3.653   7.692  0.6576  0.1856  0.0733
 8187SOL    HW136197   2.904   3.631   7.718  0.6624  0.9968  0.7865
 8187SOL    HW236198   3.001   3.616   7.604 -1.3550  0.6775 -0.3244
 8188SOL     OW36199   1.319   3.172   7.843  0.1715  0.3646 -0.3379
 8188SOL    HW136200   1.254   3.103   7.853  0.6974  0.0375  0.8208
 8188SOL    HW236201   1.379   3.124   7.787  1.5132  0.6529  0.8346
 8189SOL     OW36202   4.316   0.056  13.895  0.1428 -0.3512  0.0294
 8189SOL    HW136203   4.333   0.028  13.805 -0.9002  0.8762 -0.5405
 8189SOL    HW236204   4.338   4.704  13.930 -0.2719 -1.1151 -1.5561
 8190SOL     OW36205   2.892   3.499   0.329 -0.1076  0.5965 -0.4456
 8190SOL    HW136206   2.864   3.560   0.261  2.1587 -0.1296 -1.9963
 8190SOL    HW236207   2.948   3.431   0.293  0.8926  1.3816 -0.3675
 8191SOL     OW36208   3.718   0.704   1.641 -0.4407  0.5542  0.9455
 8191SOL    HW136209   3.671   0.685   1.560  1.2762 -0.3322  0.1588
 8191SOL    HW236210   3.648   0.761   1.672  0.1839  1.7909  0.1071
 8192SOL     OW36211   0.314   2.267  15.224 -0.1494  0.4179  0.0653
 8192SOL    HW136212   0.359   2.202  15.278  1.5404  0.1798 -1.6305
 8192SOL    HW236213   0.231   2.219  15.223  0.2434 -0.2264 -2.4374
 8193SOL     OW36214   0.279   0.057   3.815  0.3373  0.0674 -0.4982
 8193SOL    HW136215   0.304   0.113   3.888 -1.1503  1.9735 -1.4687
 8193SOL    HW236216   0.261   4.708   3.858 -0.2970  0.2043 -0.4987
 8194SOL     OW36217   2.450   2.704  13.968 -0.1653 -0.2720  0.8274
 8194SOL    HW136218   2.447   2.614  13.937 -0.3392 -0.2160  0.6863
 8194SOL    HW236219   2.434   2.687  14.061  1.1320  0.9258  1.2775
 8195SOL     OW36220   0.613   0.338   4.461  0.5540 -0.0988 -0.5021
 8195SOL    HW136221   0.679   0.384   4.410  0.1866  0.0796 -0.8145
 8195SOL    HW236222   0.566   0.419   4.484  0.6004  0.1673 -1.3357
 8196SOL     OW36223   0.644   1.252   2.077 -0.1593  0.0275 -0.1002
 8196SOL    HW136224   0.554   1.236   2.105  0.0034  0.4108  0.6410
 8196SOL    HW236225   0.647   1.170   2.028  1.3981 -2.0685  3.4524
 8197SOL     OW36226   0.202   1.764   9.259  1.0725  0.1312  0.5323
 8197SOL    HW136227   0.189   1.760   9.354 -0.1427  2.8777  0.5017
 8197SOL    HW236228   0.143   1.834   9.228  2.0482  1.4064  1.5544
 8198SOL     OW36229   3.022   1.433   7.045  0.2870 -0.6235 -0.5921
 8198SOL    HW136230   3.099   1.489   7.033 -0.6850  0.4226 -1.9793
 8198SOL    HW236231   2.965   1.492   7.096  1.3015  0.6160 -0.8863
 8199SOL     OW36232   2.810   3.627   7.966  0.2877 -0.0226 -0.0008
 8199SOL    HW136233   2.759   3.653   8.043  2.8775  1.0361  1.3690
 8199SOL    HW236234   2.899   3.649   7.994  0.5817 -1.1501 -0.0800
 8200SOL     OW36235   1.611   2.626   9.537  0.1093 -0.0866  0.0382
 8200SOL    HW136236   1.560   2.556   9.576  2.1486 -1.4388  0.2387
 8200SOL    HW236237   1.544   2.692   9.556 -1.0092 -0.6678 -1.9209
 8201SOL     OW36238   1.044   4.358   7.752  0.0801 -0.0764  0.2261
 8201SOL    HW136239   1.093   4.276   7.761  1.8703  0.9306 -0.5692
 8201SOL    HW236240   1.004   4.358   7.839  2.3463  1.4750  1.2624
 8202SOL     OW36241   0.310   0.356   1.975  0.3460  0.2726  0.2038
 8202SOL    HW136242   0.371   0.414   2.020  1.9846 -0.9376 -0.4557
 8202SOL    HW236243   0.331   0.406   1.896  0.0595  1.3740  0.8234
 8203SOL     OW36244   4.032   2.643   1.104  0.3355  0.2526 -0.5163
 8203SOL    HW136245   4.070   2.564   1.067 -0.2175  0.3993 -1.3923
 8203SOL    HW236246   3.950   2.645   1.055 -0.9330  0.1642  1.6199
 8204SOL     OW36247   3.572   2.990   5.769  0.1056  0.1967 -0.0381
 8204SOL    HW136248   3.517   2.944   5.833  0.5166 -0.0751  0.1208
 8204SOL    HW236249   3.536   2.964   5.684  0.8902  1.6952 -0.8164
 8205SOL     OW36250   2.225   0.139   4.912 -0.3207 -0.3468  0.4545
 8205SOL    HW136251   2.247   0.046   4.912 -0.1321 -0.3029  1.3119
 8205SOL    HW236252   2.129   0.138   4.918 -0.4865 -2.6973 -2.5993
 8206SOL     OW36253   1.656   4.697   8.663 -0.2124  0.4412 -0.2418
 8206SOL    HW136254   1.650   4.687   8.758 -1.3592  1.2316 -0.2326
 8206SOL    HW236255   1.577   0.013   8.643  0.2073  1.0653 -0.3267
 8207SOL     OW36256   4.057   2.707  10.838 -0.1933  0.3309  0.3141
 8207SOL    HW136257   3.990   2.742  10.898  0.9863  1.1539  1.1542
 8207SOL    HW236258   4.068   2.781  10.778  1.6640 -1.9227 -2.0884
 8208SOL     OW36259   0.470   2.760  11.225  0.5014  0.0614 -0.4474
 8208SOL    HW136260   0.478   2.855  11.235  1.6682  0.0417 -1.2464
 8208SOL    HW236261   0.497   2.758  11.133  0.1792  2.4818 -0.6106
 8209SOL     OW36262   1.458   3.470   9.122 -0.5399  0.2321 -0.3727
 8209SOL    HW136263   1.527   3.405   9.117  0.0116  0.8023 -0.1762
 8209SOL    HW236264   1.426   3.484   9.033  1.8346  2.7990 -0.8264
 8210SOL     OW36265   3.166   3.943   2.344  0.0637 -0.5342 -0.2380
 8210SOL    HW136266   3.146   3.903   2.260 -0.1952  0.3968 -0.6254
 8210SOL    HW236267   3.177   3.871   2.405  0.5426 -0.0806  0.2122
 8211SOL     OW36268   0.778   1.317   5.951 -0.5953 -0.2264 -0.2454
 8211SOL    HW136269   0.762   1.410   5.966 -0.1840 -0.2675  0.4621
 8211SOL    HW236270   0.873   1.304   5.953 -0.3880  1.1961 -0.8747
 8212SOL     OW36271   3.472   2.257  14.191  0.4132 -0.3819  0.2973
 8212SOL    HW136272   3.427   2.340  14.203 -3.6142 -2.3776 -1.0353
 8212SOL    HW236273   3.457   2.218  14.277  2.0613 -1.2636  0.1750
 8213SOL     OW36274   2.780   1.464  13.842  0.2548 -0.3792  0.4712
 8213SOL    HW136275   2.799   1.502  13.927  1.7909 -1.9637  0.8359
 8213SOL    HW236276   2.845   1.507  13.786 -0.0907 -0.8671 -0.3105
 8214SOL     OW36277   0.989   1.994   5.500 -0.7176 -0.1369  0.1761
 8214SOL    HW136278   0.987   1.906   5.537 -1.8215 -0.9539 -1.8219
 8214SOL    HW236279   0.965   2.037   5.582  0.9340 -0.5301  0.8594
 8215SOL     OW36280   0.773   3.211   9.621 -0.0207  0.4255  0.1450
 8215SOL    HW136281   0.704   3.147   9.606  1.0120 -0.4109 -1.0801
 8215SOL    HW236282   0.815   3.209   9.534 -1.8559 -2.1800 -0.6727
 8216SOL     OW36283   3.419   3.692  17.295  0.1118  0.5378  0.2465
 8216SOL    HW136284   3.354   3.762  17.290  0.1772  0.7458  2.3933
 8216SOL    HW236285   3.501   3.741  17.296  0.3846  0.1193 -0.8360
 8217SOL     OW36286   3.275   1.640   9.202 -0.2377 -0.4220 -0.1975
 8217SOL    HW136287   3.321   1.723   9.201  1.3779 -1.3020  0.1521
 8217SOL    HW236288   3.347   1.587   9.238 -0.3804  0.4111  1.3026
 8218SOL     OW36289   0.529   3.817   2.963 -0.2669  0.2696 -0.3246
 8218SOL    HW136290   0.532   3.815   2.868  0.3393 -0.4332 -0.2969
 8218SOL    HW236291   0.524   3.912   2.972 -2.7227  0.0829  0.2482
 8219SOL     OW36292   1.757   0.363  11.494 -0.1234  0.0423 -0.4551
 8219SOL    HW136293   1.714   0.286  11.458  3.0444 -2.0474  0.2221
 8219SOL    HW236294   1.710   0.374  11.577 -0.6286  0.4877 -0.8070
 8220SOL     OW36295   4.502   1.186   3.863  0.5833 -0.1345 -0.6511
 8220SOL    HW136296   4.539   1.225   3.784  1.8746  0.2115  0.1282
 8220SOL    HW236297   4.436   1.253   3.882  1.3383 -0.4023  2.9519
 8221SOL     OW36298   0.581   4.574   6.326 -0.8584 -0.0673 -0.3351
 8221SOL    HW136299   0.543   4.630   6.259 -0.8258 -1.0862 -1.2174
 8221SOL    HW236300   0.668   4.557   6.290 -1.0389  0.5959 -1.0894
 8222SOL     OW36301   4.246   0.580   7.961  0.3569  0.3227  0.2735
 8222SOL    HW136302   4.281   0.624   7.883  0.3119  0.1916  0.1802
 8222SOL    HW236303   4.260   0.648   8.028 -1.4739  0.6644  0.3041
 8223SOL     OW36304   4.020   1.982   6.521 -0.0507 -0.0811 -0.1338
 8223SOL    HW136305   3.962   1.933   6.580 -0.9623 -1.2767 -2.0527
 8223SOL    HW236306   4.078   1.906   6.513  0.9572  0.7589 -0.8007
 8224SOL     OW36307   4.527   2.902   5.712 -0.4283 -0.3840 -0.1883
 8224SOL    HW136308   4.519   2.917   5.618 -1.7349  2.9407  0.4667
 8224SOL    HW236309   4.506   2.809   5.719 -1.4878  0.0232  1.9263
 8225SOL     OW36310   2.100   4.629   8.980  0.2046  0.2355  0.2429
 8225SOL    HW136311   2.093   4.546   8.932 -1.7568  2.0140 -2.5111
 8225SOL    HW236312   2.183   4.655   8.940 -1.7090  2.4293 -2.3142
 8226SOL     OW36313   4.234   4.125   0.818  0.3989 -0.2767 -0.0127
 8226SOL    HW136314   4.286   4.048   0.839  1.1793 -0.0263 -1.0793
 8226SOL    HW236315   4.153   4.087   0.784  1.6730 -2.1855 -0.8717
 8227SOL     OW36316   0.137   2.105   5.739  0.5215  0.0883  0.1836
 8227SOL    HW136317   0.061   2.066   5.696 -0.8838  0.6766  2.1633
 8227SOL    HW236318   0.106   2.196   5.745  1.4414  0.3977  0.2084
 8228SOL     OW36319   0.707   1.488   6.362 -0.3023  0.3041 -0.7027
 8228SOL    HW136320   0.694   1.413   6.421  0.8400 -0.4925 -1.4557
 8228SOL    HW236321   0.765   1.541   6.417 -3.3097  1.8533  0.9601
 8229SOL     OW36322   3.708   1.132   7.048 -0.5821 -0.5553 -0.4094
 8229SOL    HW136323   3.731   1.062   6.987  1.5331 -0.6832  0.5519
 8229SOL    HW236324   3.733   1.086   7.128 -1.9806  0.6935  0.7386
 8230SOL     OW36325   3.459   2.815   6.730  0.2471 -0.0029  0.6854
 8230SOL    HW136326   3.453   2.909   6.712 -0.1389 -0.6694 -2.7638
 8230SOL    HW236327   3.497   2.782   6.648  0.8266 -0.9693  1.3461
 8231SOL     OW36328   2.972   3.217   4.829 -0.6144  0.2941 -0.3737
 8231SOL    HW136329   2.889   3.172   4.811  0.0870 -2.2646  2.9195
 8231SOL    HW236330   3.045   3.159   4.809  0.8045  1.6310  0.8964
 8232SOL     OW36331   4.177   2.317   6.769 -0.1257  0.2383 -0.1845
 8232SOL    HW136332   4.244   2.384   6.785  1.5390 -1.1456 -1.3233
 8232SOL    HW236333   4.230   2.274   6.701 -1.8498  1.1431 -2.1003
 8233SOL     OW36334   0.092   2.964  15.108 -0.3023 -0.0145  0.0457
 8233SOL    HW136335   0.125   3.054  15.107  0.2462 -0.1898  1.9280
 8233SOL    HW236336   0.003   2.994  15.092  0.2348  1.4320 -0.2393
 8234SOL     OW36337   4.316   1.690   9.868 -0.3503  0.3783 -0.3051
 8234SOL    HW136338   4.309   1.650   9.781  0.0259  0.0793 -0.1981
 8234SOL    HW236339   4.370   1.629   9.918 -3.1200 -1.5079  0.4039
 8235SOL     OW36340   4.261   2.732   1.464  0.1481  0.3134  0.1829
 8235SOL    HW136341   4.336   2.791   1.460  0.3475  0.0127 -0.5359
 8235SOL    HW236342   4.312   2.651   1.465  0.4404  0.5572  3.3499
 8236SOL     OW36343   2.466   1.743   5.388  0.4695 -0.1847  0.2546
 8236SOL    HW136344   2.466   1.820   5.331 -0.8862 -0.8538 -0.6572
 8236SOL    HW236345   2.531   1.684   5.349 -0.5439 -2.0739  1.3832
 8237SOL     OW36346   4.021   0.944  16.452 -0.1325 -0.1826  0.3292
 8237SOL    HW136347   4.113   0.921  16.442  0.4309  1.2679  2.1127
 8237SOL    HW236348   4.020   1.012  16.385 -0.8158 -1.6164 -1.1265
 8238SOL     OW36349   4.391   4.483   8.849  0.4133 -1.1950  0.3455
 8238SOL    HW136350   4.428   4.546   8.911  1.4842 -1.2565 -0.2326
 8238SOL    HW236351   4.347   4.427   8.913  3.4272 -1.7907  1.9079
 8239SOL     OW36352   1.783   3.508   8.312 -0.0793 -0.3017 -0.6292
 8239SOL    HW136353   1.818   3.432   8.267  0.7294  0.6864 -1.6897
 8239SOL    HW236354   1.782   3.486   8.405  3.6605 -2.0198 -1.0255
 8240SOL     OW36355   2.624   2.228   8.742  0.2301 -0.1816 -0.5203
 8240SOL    HW136356   2.667   2.314   8.733  0.0053 -0.2227 -2.1247
 8240SOL    HW236357   2.657   2.192   8.659 -2.9743  0.3772 -2.0651
 8241SOL     OW36358   3.698   2.761   8.045  0.2901  0.1304 -0.2027
 8241SOL    HW136359   3.793   2.774   8.049  0.3863 -0.2965 -1.2131
 8241SOL    HW236360   3.687   2.671   8.076  0.5627 -0.4399 -1.7853
 8242SOL     OW36361   1.089   0.702   2.359  0.2094  0.1228 -0.0399
 8242SOL    HW136362   1.035   0.757   2.416 -0.9302 -0.7506 -0.2538
 8242SOL    HW236363   1.162   0.762   2.355  0.7786 -0.5228  0.8114
 8243SOL     OW36364   4.721   3.230   6.398 -0.2590 -0.4611  0.3792
 8243SOL    HW136365   4.659   3.297   6.370 -0.3776 -0.6798  0.1174
 8243SOL    HW236366   0.067   3.251   6.352 -0.4956  0.4721  0.3937
 8244SOL     OW36367   0.165   4.456   6.921  0.4465  0.0790  0.4518
 8244SOL    HW136368   0.174   4.365   6.893 -0.2520  0.4872 -1.1474
 8244SOL    HW236369   0.070   4.444   6.929  0.1727  0.5879 -1.7748
 8245SOL     OW36370   4.088   0.119  17.368  0.3784  0.0254 -0.5407
 8245SOL    HW136371   4.178   0.089  17.381  0.0883  0.3925  2.1720
 8245SOL    HW236372   4.055   0.071  17.444  0.5773 -1.2455 -1.2583
 8246SOL     OW36373   4.388   0.337   5.500 -0.7197 -0.7326 -0.5078
 8246SOL    HW136374   4.460   0.399   5.511 -0.9524 -0.6774  0.6960
 8246SOL    HW236375   4.415   0.246   5.494  1.4245  0.0047 -1.7512
 8247SOL     OW36376   4.062   3.807   2.558  0.0043 -0.4253  0.5099
 8247SOL    HW136377   4.158   3.800   2.558  0.0411  0.0818 -1.7541
 8247SOL    HW236378   4.037   3.717   2.538 -1.5878 -0.3411  2.0912
 8248SOL     OW36379   1.179   2.156   4.351 -0.3969  0.3819  0.3380
 8248SOL    HW136380   1.137   2.099   4.416  2.3102  1.8857  3.4453
 8248SOL    HW236381   1.115   2.225   4.334  1.4587  1.6743 -1.4432
 8249SOL     OW36382   3.201   4.076   3.528 -0.1122 -0.0593 -0.1019
 8249SOL    HW136383   3.252   4.002   3.495 -1.2195 -0.0082 -1.9258
 8249SOL    HW236384   3.274   4.133   3.551 -0.9642  0.0552  2.3630
 8250SOL     OW36385   4.419   4.090  16.954 -0.6590 -0.4089 -0.4068
 8250SOL    HW136386   4.414   4.016  17.015  0.8127 -1.2090 -1.2554
 8250SOL    HW236387   4.483   4.065  16.887 -0.2465 -0.9952  0.2057
 8251SOL     OW36388   2.267   1.200   4.587  0.0326  0.1875  0.8629
 8251SOL    HW136389   2.244   1.226   4.676  0.5815  2.4903  0.3182
 8251SOL    HW236390   2.343   1.142   4.598 -0.0663  0.1085  1.1262
 8252SOL     OW36391   0.368   1.040  15.077  0.2769 -0.3152 -0.1000
 8252SOL    HW136392   0.442   0.996  15.035 -0.0307  0.2858 -1.2633
 8252SOL    HW236393   0.381   1.018  15.169 -1.7257 -1.0025  0.0173
 8253SOL     OW36394   4.473   0.003   2.639 -0.2784 -0.6064  0.3403
 8253SOL    HW136395   4.394   0.040   2.680 -0.8503  0.5550 -1.7869
 8253SOL    HW236396   4.450   0.049   2.558  0.6908 -0.9208 -0.1030
 8254SOL     OW36397   3.792   1.792  10.525  0.2414 -0.5579  0.7354
 8254SOL    HW136398   3.887   1.784  10.516 -0.1142  0.4868 -3.9923
 8254SOL    HW236399   3.765   1.813  10.436 -1.4581 -0.8950  1.1799
 8255SOL     OW36400   0.928   2.429   6.611 -0.4664 -0.7120 -0.1017
 8255SOL    HW136401   0.986   2.433   6.535  0.4154  2.0196  0.7099
 8255SOL    HW236402   0.926   2.334   6.625 -0.3960 -1.0318 -2.2434
 8256SOL     OW36403   2.396   3.724   9.314  0.4637 -0.2956  0.0800
 8256SOL    HW136404   2.363   3.812   9.295 -0.1480 -1.1709 -2.8591
 8256SOL    HW236405   2.383   3.678   9.231  3.8894 -0.4649 -0.3959
 8257SOL     OW36406   3.080   2.754  16.539  0.3515 -0.1896  0.1092
 8257SOL    HW136407   3.138   2.678  16.550  1.4699  0.6293 -0.1441
 8257SOL    HW236408   3.008   2.730  16.597 -1.5896 -0.9742 -2.6331
 8258SOL     OW36409   1.368   0.052   5.698 -0.4320 -0.0728 -0.2790
 8258SOL    HW136410   1.391   0.028   5.788  0.5483  0.5924 -0.3556
 8258SOL    HW236411   1.455   0.076   5.665  0.5626 -2.3217  0.7306
 8259SOL     OW36412   3.384   4.003  10.308  0.5046  0.6472  0.5987
 8259SOL    HW136413   3.410   4.066  10.374  0.3625  0.4871  0.8065
 8259SOL    HW236414   3.312   4.059  10.279 -0.7236 -0.2249  1.9684
 8260SOL     OW36415   3.917   1.273   7.759 -0.5084 -0.1570  0.7607
 8260SOL    HW136416   3.892   1.365   7.749  0.5986  0.0416 -0.2062
 8260SOL    HW236417   3.984   1.281   7.690  1.4775 -5.7153  2.0193
 8261SOL     OW36418   0.315   1.812   2.943  0.7327 -0.3889  0.1369
 8261SOL    HW136419   0.335   1.906   2.942 -0.1661 -0.2171 -0.8557
 8261SOL    HW236420   0.281   1.811   2.854  0.6209 -0.7830  0.1853
 8262SOL     OW36421   2.776   1.363   0.250 -0.2704  0.1062 -0.0147
 8262SOL    HW136422   2.835   1.436   0.234 -0.4585  0.0362 -1.0066
 8262SOL    HW236423   2.831   1.284   0.252 -0.9289 -0.2274  3.9066
 8263SOL     OW36424   2.564   4.491   7.758  0.4852 -0.0049  0.4134
 8263SOL    HW136425   2.476   4.510   7.789  0.8745  2.2980  0.0830
 8263SOL    HW236426   2.589   4.424   7.822  2.6502  1.3849  1.0403
 8264SOL     OW36427   4.499   4.651   1.709  0.1582  0.2214 -0.5338
 8264SOL    HW136428   4.519   4.653   1.802  0.2228 -0.9690 -0.5241
 8264SOL    HW236429   4.453   4.567   1.711 -0.4262  0.5913  0.9040
 8265SOL     OW36430   3.317   3.065   6.593  0.0758 -0.0491  0.1226
 8265SOL    HW136431   3.341   3.054   6.501  1.8163  1.8538  0.3387
 8265SOL    HW236432   3.250   3.132   6.584  0.9765  1.2037  2.7617
 8266SOL     OW36433   2.126   1.098   5.596 -0.4489  0.0462  0.4249
 8266SOL    HW136434   2.157   1.169   5.541 -2.7391  2.9670  2.8951
 8266SOL    HW236435   2.036   1.091   5.564  0.2816  1.6240 -1.9056
 8267SOL     OW36436   3.009   0.578   4.137  0.4097 -0.1662 -0.4115
 8267SOL    HW136437   3.064   0.526   4.196  0.3439  0.8922  0.5684
 8267SOL    HW236438   3.006   0.666   4.175 -2.3157  0.7875 -2.8022
 8268SOL     OW36439   3.784   1.702   2.398  0.3148  0.3405 -0.1026
 8268SOL    HW136440   3.806   1.736   2.311 -3.9031  0.5287 -1.0842
 8268SOL    HW236441   3.713   1.758   2.427 -0.4374 -1.3340  1.2969
 8269SOL     OW36442   1.732   0.690   7.491  0.0046 -0.1541  0.2127
 8269SOL    HW136443   1.761   0.648   7.411 -1.8985 -1.3688  0.1684
 8269SOL    HW236444   1.639   0.688   7.467 -0.1738 -0.4595  0.9199
 8270SOL     OW36445   0.239   4.629   7.462  0.1305  0.2265 -0.0411
 8270SOL    HW136446   0.261   4.552   7.516 -1.5620  1.8998  2.9995
 8270SOL    HW236447   0.282   4.595   7.383  0.0526  0.4031 -0.1573
 8271SOL     OW36448   0.414   1.102   3.079 -0.5914 -0.8034 -0.1046
 8271SOL    HW136449   0.380   1.160   3.011  2.0482 -0.1443 -0.8660
 8271SOL    HW236450   0.360   1.025   3.060 -0.5349 -0.6954 -0.7103
 8272SOL     OW36451   0.846   1.259  10.607  0.4784 -0.4520  1.0187
 8272SOL    HW136452   0.759   1.287  10.578  0.5425 -0.3838  0.8935
 8272SOL    HW236453   0.841   1.164  10.594  0.6109 -0.3825  0.4783
 8273SOL     OW36454   1.375   4.462   3.147  0.6692  0.2624  1.0367
 8273SOL    HW136455   1.367   4.366   3.142 -1.2675  0.5429 -1.1486
 8273SOL    HW236456   1.469   4.475   3.138  0.5178  0.7825  0.2403
 8274SOL     OW36457   4.172   3.663   5.354 -0.2231 -0.4524 -0.8217
 8274SOL    HW136458   4.099   3.725   5.365 -0.0890 -1.0056  2.9243
 8274SOL    HW236459   4.203   3.688   5.267  0.7277  1.7071  0.1427
 8275SOL     OW36460   4.393   1.403  14.548  0.2405  0.5300 -0.5089
 8275SOL    HW136461   4.440   1.389  14.466  3.0980 -1.4167  1.4649
 8275SOL    HW236462   4.418   1.492  14.572 -1.1085  0.6327  0.5008
 8276SOL     OW36463   3.611   3.925  15.510  0.2478 -0.4344 -0.3576
 8276SOL    HW136464   3.690   3.877  15.533  0.3930 -0.6152 -1.2415
 8276SOL    HW236465   3.576   3.963  15.590 -0.2831 -1.6925 -0.0038
 8277SOL     OW36466   1.744   0.119   2.316 -0.2797  0.0321  0.3512
 8277SOL    HW136467   1.712   0.193   2.368 -0.6092 -0.0777  0.3051
 8277SOL    HW236468   1.672   0.059   2.334  0.6748 -0.9587  0.8354
 8278SOL     OW36469   3.594   1.765  12.008  0.0025  0.1105  0.4674
 8278SOL    HW136470   3.623   1.793  11.921 -0.9705 -0.0093  0.1084
 8278SOL    HW236471   3.507   1.736  11.983  0.1851 -0.1854  0.1846
 8279SOL     OW36472   0.523   4.248   6.123 -0.0046  0.3009  0.6288
 8279SOL    HW136473   0.611   4.262   6.158  1.0977 -1.2143 -1.5388
 8279SOL    HW236474   0.540   4.262   6.030  1.1234 -1.0686  0.6341
 8280SOL     OW36475   1.110   1.602   8.594 -0.0716 -0.0483  0.3549
 8280SOL    HW136476   1.137   1.687   8.560  2.2680 -0.8248  0.2884
 8280SOL    HW236477   1.019   1.596   8.563 -0.2107 -3.4026  1.4531
 8281SOL     OW36478   2.639   0.495   6.794  0.2289  0.1625 -0.8158
 8281SOL    HW136479   2.720   0.444   6.803 -0.0940 -0.1043  0.6685
 8281SOL    HW236480   2.599   0.448   6.721  0.3858 -0.9371 -0.1976
 8282SOL     OW36481   4.083   1.610   5.394  0.5293  0.0705  0.1680
 8282SOL    HW136482   4.004   1.662   5.379 -1.2297 -1.6551  3.7895
 8282SOL    HW236483   4.035   1.542   5.441  0.1649  0.5577  0.5008
 8283SOL     OW36484   2.438   4.188   4.166  1.0602 -0.5624 -0.0620
 8283SOL    HW136485   2.432   4.123   4.096  0.7877  0.2174 -0.7774
 8283SOL    HW236486   2.506   4.243   4.128  0.7004  1.2222  1.8338
 8284SOL     OW36487   2.958   0.508  16.678 -0.5236  0.3130  0.2594
 8284SOL    HW136488   2.981   0.600  16.661 -1.1658  1.0104  3.1688
 8284SOL    HW236489   2.863   0.498  16.683 -0.9418  2.5235 -3.1730
 8285SOL     OW36490   0.238   4.583   8.922  0.1701 -0.3257 -0.5464
 8285SOL    HW136491   0.176   4.652   8.946 -0.2934 -0.5016 -1.2288
 8285SOL    HW236492   0.321   4.613   8.958  0.5398 -1.4717 -0.4519
 8286SOL     OW36493   1.270   4.067  13.764  0.0326 -0.0150  0.0839
 8286SOL    HW136494   1.307   4.046  13.850 -1.4148 -3.3245 -0.0888
 8286SOL    HW236495   1.187   4.100  13.798  0.2733 -1.8421  2.4555
 8287SOL     OW36496   3.402   3.465   7.076 -0.0659  0.4545  0.0954
 8287SOL    HW136497   3.424   3.524   7.149  2.4902  0.1163 -0.3874
 8287SOL    HW236498   3.485   3.416   7.069  0.2394  0.8056  1.2167
 8288SOL     OW36499   1.839   2.669   8.186  0.1593 -0.4869 -0.3842
 8288SOL    HW136500   1.831   2.690   8.279 -0.3125  1.5732 -0.9032
 8288SOL    HW236501   1.844   2.573   8.194  1.2401 -0.4196 -0.2405
 8289SOL     OW36502   4.209   0.599   8.762  0.0764 -0.0658 -0.4303
 8289SOL    HW136503   4.153   0.526   8.736 -1.5854 -0.3694  4.1036
 8289SOL    HW236504   4.212   0.600   8.858  1.4145  1.0895 -0.4896
 8290SOL     OW36505   1.004   3.721  17.562  0.2880  0.3430  0.1521
 8290SOL    HW136506   0.914   3.714  17.591  0.6093 -0.7513  0.9003
 8290SOL    HW236507   1.039   3.794  17.612  0.5863  0.8988 -0.8513
 8291SOL     OW36508   3.699   1.393   5.494  0.3185  0.0347  0.3637
 8291SOL    HW136509   3.784   1.352   5.479 -0.0503 -1.1882  1.6661
 8291SOL    HW236510   3.651   1.317   5.462  0.6627  0.4181 -1.0765
 8292SOL     OW36511   4.621   4.634   1.939  0.4677 -0.2432 -0.2410
 8292SOL    HW136512   4.683   4.582   1.887  0.7292  0.9930 -1.1649
 8292SOL    HW236513   4.652   4.634   2.029 -2.8386  3.7374  0.9129
 8293SOL     OW36514   1.747   2.387   4.284  0.3610  0.7374 -0.6400
 8293SOL    HW136515   1.699   2.422   4.208  0.3014 -0.0564 -0.9680
 8293SOL    HW236516   1.677   2.353   4.339  1.0387  0.1669 -0.1397
 8294SOL     OW36517   1.633   4.418   8.589 -0.5557  0.3434  0.0885
 8294SOL    HW136518   1.668   4.430   8.500  0.3042  0.3977  0.4367
 8294SOL    HW236519   1.615   4.508   8.618  0.5767  0.8475 -0.7740
 8295SOL     OW36520   3.828   3.965   6.676 -0.5618 -0.3470 -0.0203
 8295SOL    HW136521   3.862   4.008   6.597 -0.6684 -0.7625 -0.2911
 8295SOL    HW236522   3.741   4.003   6.681 -0.6241 -0.4341 -0.4683
 8296SOL     OW36523   1.309   0.900   5.334 -0.0287  1.1608  0.2104
 8296SOL    HW136524   1.260   0.819   5.346  1.8974 -0.4934 -2.7700
 8296SOL    HW236525   1.248   0.970   5.315 -0.6429  0.2300 -1.2899
 8297SOL     OW36526   1.146   1.518  11.661 -0.9068  0.3514  0.2938
 8297SOL    HW136527   1.072   1.571  11.689 -0.0626  0.2639  2.6410
 8297SOL    HW236528   1.195   1.594  11.629 -1.7877  0.6889 -0.2419
 8298SOL     OW36529   0.332   2.004   3.780 -0.3573 -0.3814 -0.3326
 8298SOL    HW136530   0.351   1.977   3.869 -0.2024 -2.6615 -1.0682
 8298SOL    HW236531   0.373   1.934   3.729  1.8190  0.1097  0.7241
 8299SOL     OW36532   2.495   0.478   9.303  0.2582  0.3248  0.7108
 8299SOL    HW136533   2.407   0.458   9.271 -0.2445  1.1846  1.5471
 8299SOL    HW236534   2.506   0.570   9.279 -0.5730  0.1350 -0.3932
 8300SOL     OW36535   0.988   3.350   6.498  0.0532 -0.2095 -0.2812
 8300SOL    HW136536   1.069   3.389   6.467 -0.2037  0.9532  0.5519
 8300SOL    HW236537   0.932   3.427   6.489  0.4270  0.0840 -0.1102
 8301SOL     OW36538   2.048   3.194   4.050  0.5402  0.4892  0.2215
 8301SOL    HW136539   2.114   3.262   4.036  0.4614  0.7863  1.2662
 8301SOL    HW236540   2.014   3.216   4.137  0.3963 -1.2637  0.6128
 8302SOL     OW36541   0.156   0.731   5.264 -0.0062  0.0041 -0.2610
 8302SOL    HW136542   0.218   0.761   5.330 -0.4179  2.7591 -1.1300
 8302SOL    HW236543   0.210   0.713   5.187  0.3150 -0.6015  0.1067
 8303SOL     OW36544   0.057   3.564   1.907  0.3195 -0.0989 -0.2489
 8303SOL    HW136545   0.085   3.480   1.945 -0.4574 -1.8912 -3.6189
 8303SOL    HW236546   4.702   3.554   1.876  0.0684  1.6349 -0.0675
 8304SOL     OW36547   0.989   2.153   3.298 -0.3099 -0.0867 -0.2105
 8304SOL    HW136548   0.943   2.222   3.346 -0.8452 -0.4129 -0.2540
 8304SOL    HW236549   0.935   2.078   3.322  1.0920 -2.0170 -3.0905
 8305SOL     OW36550   3.247   3.277   5.053 -0.2415 -1.0764 -0.1268
 8305SOL    HW136551   3.305   3.206   5.026  0.9377  0.0514 -0.5467
 8305SOL    HW236552   3.295   3.353   5.020  2.7633 -3.0073 -0.1879
 8306SOL     OW36553   1.577   4.209   6.930 -0.4592 -0.2816  0.1222
 8306SOL    HW136554   1.638   4.160   6.875 -0.2726  0.6568 -0.5181
 8306SOL    HW236555   1.590   4.298   6.897 -0.7314 -0.0271  0.6995
 8307SOL     OW36556   0.754   2.936   3.358  0.5076  0.4967  0.4296
 8307SOL    HW136557   0.707   2.979   3.429 -2.3608 -0.3440 -0.9424
 8307SOL    HW236558   0.751   3.008   3.295 -0.0896 -1.1580 -1.4516
 8308SOL     OW36559   0.292   4.718  10.953 -0.5096 -0.0614  0.0484
 8308SOL    HW136560   0.276   4.634  10.909 -2.6398  0.8119 -0.8252
 8308SOL    HW236561   0.373   4.729  10.905  0.3248  0.7404  1.6384
 8309SOL     OW36562   1.978   3.180   2.867 -0.2218  0.0178 -0.6255
 8309SOL    HW136563   1.914   3.171   2.937  0.3057 -1.8447 -0.3759
 8309SOL    HW236564   2.023   3.097   2.886  1.7997  1.6521  1.7819
 8310SOL     OW36565   2.747   0.823  12.514 -0.9832 -0.0899 -0.4631
 8310SOL    HW136566   2.840   0.844  12.526 -1.3262  0.6666  0.8597
 8310SOL    HW236567   2.714   0.871  12.589 -0.9213  0.8874 -1.0624
 8311SOL     OW36568   4.630   1.081   2.324  0.1940  0.1772  0.0705
 8311SOL    HW136569   4.590   1.077   2.410 -0.6107  3.7739 -0.1725
 8311SOL    HW236570   4.602   0.993   2.299  0.4611  0.1973 -0.3008
 8312SOL     OW36571   0.469   1.945  10.248 -0.0238 -0.2048  0.2069
 8312SOL    HW136572   0.431   2.011  10.190  1.4723 -1.3184 -2.0212
 8312SOL    HW236573   0.538   1.897  10.203  2.3241  2.7887  0.6428
 8313SOL     OW36574   3.183   1.513   5.585  0.0064 -0.5183 -0.8213
 8313SOL    HW136575   3.243   1.583   5.614  0.3618 -0.8262 -0.8077
 8313SOL    HW236576   3.205   1.444   5.648 -0.4418  1.0781  1.1090
 8314SOL     OW36577   4.021   1.968   1.634 -0.2307  0.2409 -0.3256
 8314SOL    HW136578   4.003   1.913   1.558  0.6490 -0.3329 -0.1205
 8314SOL    HW236579   4.116   1.957   1.627 -0.1880 -0.1278  0.8483
 8315SOL     OW36580   3.494   3.933   6.968  0.4232 -0.3080 -0.1966
 8315SOL    HW136581   3.524   3.845   6.990  0.2844 -0.2659  0.1548
 8315SOL    HW236582   3.429   3.948   7.037 -0.9343  0.0760 -1.5660
 8316SOL     OW36583   1.560   3.311  11.830  0.1276 -0.0646 -0.7314
 8316SOL    HW136584   1.519   3.397  11.844 -1.3928 -0.7141 -1.2474
 8316SOL    HW236585   1.628   3.333  11.767  2.1460 -0.8781  1.1268
 8317SOL     OW36586   2.382   3.951   4.655 -0.1502 -0.8208 -0.3944
 8317SOL    HW136587   2.438   3.922   4.728 -0.1201 -0.2515 -0.1920
 8317SOL    HW236588   2.302   3.975   4.702  0.4378 -0.2498  0.3084
 8318SOL     OW36589   3.910   1.541   7.776  0.0687 -0.3117 -0.0166
 8318SOL    HW136590   3.985   1.579   7.730 -2.0003  1.4476 -1.9530
 8318SOL    HW236591   3.836   1.559   7.717  0.4779  1.5663  0.0277
 8319SOL     OW36592   2.941   3.579   2.961 -0.3498  0.0699 -0.3933
 8319SOL    HW136593   2.962   3.637   2.888 -1.9989  0.5680 -0.4687
 8319SOL    HW236594   2.846   3.578   2.952 -0.1565  0.7122 -2.3424
 8320SOL     OW36595   1.546   1.539  15.592  0.3822  0.6342  0.8552
 8320SOL    HW136596   1.605   1.611  15.567 -0.4457  0.8339 -0.5393
 8320SOL    HW236597   1.538   1.495  15.508 -0.0742 -0.3759  1.4322
 8321SOL     OW36598   0.148   0.862  11.176 -0.3269 -0.2367  0.0914
 8321SOL    HW136599   0.117   0.820  11.096 -0.5410  0.8538 -0.3995
 8321SOL    HW236600   0.106   0.946  11.157  0.0007  0.0535  0.6516
 8322SOL     OW36601   3.748   4.250   8.238  0.0900 -0.5413  0.2640
 8322SOL    HW136602   3.752   4.308   8.314  0.4982 -0.2271  0.0025
 8322SOL    HW236603   3.730   4.313   8.168  0.3920  2.7064  3.0639
 8323SOL     OW36604   2.562   4.569   1.968  0.1325 -0.5439  0.1312
 8323SOL    HW136605   2.569   4.494   2.026  0.5898 -0.2847  0.4130
 8323SOL    HW236606   2.496   4.628   2.006 -0.6635 -0.1215 -1.9170
 8324SOL     OW36607   2.453   4.258  12.268 -0.3126 -0.1439  0.4217
 8324SOL    HW136608   2.378   4.243  12.211 -0.2663  2.2463 -0.3031
 8324SOL    HW236609   2.469   4.351  12.251 -0.0292 -0.2575  0.0691
 8325SOL     OW36610   2.806   0.211   3.983 -0.4776  0.3979 -0.4155
 8325SOL    HW136611   2.862   0.171   4.049 -0.8683  1.4857  0.5696
 8325SOL    HW236612   2.804   0.302   4.011  1.5728 -0.1921  1.5911
 8326SOL     OW36613   1.921   0.258   6.575  0.3230  0.2462  0.4667
 8326SOL    HW136614   1.934   0.224   6.486 -0.9798 -0.7944  0.6749
 8326SOL    HW236615   1.987   0.327   6.585  1.2422 -0.4948 -0.5090
 8327SOL     OW36616   3.167   3.524   6.910 -0.1936  0.3667  0.1244
 8327SOL    HW136617   3.226   3.460   6.949  0.2249  1.0991  0.7056
 8327SOL    HW236618   3.229   3.571   6.854 -1.8366  0.4452 -1.6216
 8328SOL     OW36619   4.020   0.676  15.638 -0.2685 -0.5380 -0.2571
 8328SOL    HW136620   4.025   0.645  15.729  0.6318  2.4713  0.7305
 8328SOL    HW236621   3.938   0.726  15.636 -0.9486 -1.6658 -0.3608
 8329SOL     OW36622   4.619   4.003  16.748 -0.0474  0.2984 -0.2779
 8329SOL    HW136623   4.697   3.969  16.704 -0.7841  0.8430 -2.0228
 8329SOL    HW236624   4.564   4.015  16.670 -2.1810  2.3486  1.5376
 8330SOL     OW36625   0.651   0.207   1.495 -0.0813  0.1252 -0.1842
 8330SOL    HW136626   0.567   0.187   1.536 -0.8402  1.5198 -1.0280
 8330SOL    HW236627   0.707   0.222   1.571 -0.5773  1.4856 -0.0852
 8331SOL     OW36628   4.430   0.680  15.538 -0.3714  0.0797  0.5468
 8331SOL    HW136629   4.410   0.723  15.621  0.3141  0.6215  0.4284
 8331SOL    HW236630   4.348   0.658  15.494  0.3555  0.0857 -0.8185
 8332SOL     OW36631   4.728   3.143   3.966 -0.1503 -0.7465  0.2224
 8332SOL    HW136632   0.047   3.218   3.992  0.6210 -1.6384  1.1926
 8332SOL    HW236633   4.706   3.162   3.875  1.3716 -0.5108 -0.1058
 8333SOL     OW36634   2.529   3.334   6.539  0.3044  0.0441 -0.2768
 8333SOL    HW136635   2.617   3.331   6.577  0.1701  0.3303  0.0627
 8333SOL    HW236636   2.544   3.290   6.455 -1.3671 -0.0940 -0.5088
 8334SOL     OW36637   4.485   3.666   4.691 -0.3086 -0.4370 -0.3655
 8334SOL    HW136638   4.564   3.701   4.731  0.2315  0.7619 -2.4819
 8334SOL    HW236639   4.508   3.655   4.599  1.2417  3.1803 -0.3889
 8335SOL     OW36640   1.367   3.409   9.623 -0.4822 -0.0117  0.0406
 8335SOL    HW136641   1.410   3.438   9.543 -0.8296  5.5467  1.8908
 8335SOL    HW236642   1.435   3.425   9.689 -0.0735  1.5125 -0.7414
 8336SOL     OW36643   1.102   1.178   7.033  0.4994 -0.3988  0.1543
 8336SOL    HW136644   1.126   1.086   7.047 -0.5740 -0.5053  1.3536
 8336SOL    HW236645   1.019   1.150   6.995 -0.2091  0.5640  0.9838
 8337SOL     OW36646   0.470   2.962  10.221  0.0945  0.2374 -0.0707
 8337SOL    HW136647   0.549   3.014  10.208  1.0731 -0.4270  3.0792
 8337SOL    HW236648   0.407   3.030  10.245 -1.8889 -1.2859 -1.0048
 8338SOL     OW36649   3.698   4.099   4.594  0.5720  0.6043  0.4710
 8338SOL    HW136650   3.735   4.160   4.531  2.5329 -2.2912 -1.2023
 8338SOL    HW236651   3.636   4.051   4.539  1.3800  0.6342 -0.4555
 8339SOL     OW36652   2.030   2.953   7.425 -0.0575 -0.1628 -0.4467
 8339SOL    HW136653   1.973   3.019   7.385  1.1225  0.5110 -1.0069
 8339SOL    HW236654   2.097   2.939   7.357 -1.7034 -3.9695 -1.3165
 8340SOL     OW36655   0.368   0.114   8.477 -0.1321  0.2008 -0.2723
 8340SOL    HW136656   0.448   0.068   8.451 -0.0006  0.2459  0.0475
 8340SOL    HW236657   0.408   0.169   8.544 -1.4733  1.0666 -0.1865
 8341SOL     OW36658   0.053   2.295   2.219 -0.1081  0.3407 -0.4592
 8341SOL    HW136659   0.021   2.303   2.309  3.4575 -2.1244  1.0358
 8341SOL    HW236660   0.058   2.201   2.207 -1.5733  0.2839 -0.5885
 8342SOL     OW36661   1.181   4.496   6.545  0.2724 -0.2163  0.1008
 8342SOL    HW136662   1.102   4.445   6.562 -0.1695  0.6064  0.4948
 8342SOL    HW236663   1.178   4.540   6.630 -0.6258 -1.1513  0.5562
 8343SOL     OW36664   2.940   4.708   3.805 -0.4483  0.7897  0.0955
 8343SOL    HW136665   2.999   0.004   3.736 -0.4474  1.6104  0.4678
 8343SOL    HW236666   2.883   4.656   3.748  2.0020 -0.0169 -1.6460
 8344SOL     OW36667   4.585   0.488   5.530  0.0029 -0.4415  0.0836
 8344SOL    HW136668   4.644   0.450   5.464 -0.9207  0.2113 -1.1116
 8344SOL    HW236669   4.636   0.566   5.551  0.2381 -0.9574  1.4047
 8345SOL     OW36670   4.204   0.752  16.952  0.5136  0.1071  0.2415
 8345SOL    HW136671   4.277   0.723  16.897 -0.7345 -1.2895 -0.6574
 8345SOL    HW236672   4.171   0.828  16.903 -0.6079 -0.9180 -0.5735
 8346SOL     OW36673   4.144   0.767  10.078 -0.1938  0.1934  0.7676
 8346SOL    HW136674   4.112   0.856  10.094 -0.2126  0.3821 -0.2761
 8346SOL    HW236675   4.062   0.721  10.096 -0.2516 -1.6285 -3.9875
 8347SOL     OW36676   4.634   1.378   8.020 -0.8090  0.2566  0.9729
 8347SOL    HW136677   4.583   1.450   8.057 -0.0366  0.8462  0.8915
 8347SOL    HW236678   4.565   1.314   8.006 -0.4717 -0.3467  2.0617
 8348SOL     OW36679   4.460   4.431   4.327  0.1651 -0.6689 -0.0594
 8348SOL    HW136680   4.492   4.348   4.362  0.4347 -0.8479 -0.7250
 8348SOL    HW236681   4.422   4.409   4.242 -0.8009  0.6479  0.0264
 8349SOL     OW36682   0.461   2.144  12.698 -0.4223  0.5454 -0.1068
 8349SOL    HW136683   0.535   2.107  12.746 -2.2634 -0.1301  2.2333
 8349SOL    HW236684   0.413   2.064  12.680 -0.5269 -0.2082  3.3704
 8350SOL     OW36685   1.247   3.105   6.342 -0.7473 -0.0661  0.4062
 8350SOL    HW136686   1.293   3.049   6.405  3.0775  2.7890  0.1832
 8350SOL    HW236687   1.310   3.178   6.336 -0.5025 -0.1445  1.8318
 8351SOL     OW36688   4.380   4.075   2.540  0.0983  0.2511 -0.0852
 8351SOL    HW136689   4.379   4.097   2.447 -1.7612 -0.7710 -0.2964
 8351SOL    HW236690   4.475   4.092   2.543  0.4040 -1.1896 -1.6361
 8352SOL     OW36691   0.893   4.030   8.670  0.4545 -0.0406  0.2903
 8352SOL    HW136692   0.822   4.046   8.608  1.0491 -0.0303 -0.3855
 8352SOL    HW236693   0.855   4.078   8.744  0.0094  0.4758 -0.2755
 8353SOL     OW36694   0.828   1.500  10.336 -0.3947  0.2539 -0.0911
 8353SOL    HW136695   0.749   1.488  10.390 -0.4343  2.3344  0.3267
 8353SOL    HW236696   0.900   1.528  10.393 -1.1293  2.3303 -0.1985
 8354SOL     OW36697   3.296   2.199   1.801 -0.4790  0.1480 -0.3207
 8354SOL    HW136698   3.222   2.186   1.742 -0.1077 -0.8930 -0.5516
 8354SOL    HW236699   3.326   2.286   1.776 -1.1254  0.6522  0.6948
 8355SOL     OW36700   3.531   0.592   2.751 -0.3286 -1.0007 -0.0662
 8355SOL    HW136701   3.539   0.499   2.773  0.7023 -0.4465  1.9253
 8355SOL    HW236702   3.437   0.594   2.769 -0.6067 -0.5439 -1.6106
 8356SOL     OW36703   1.648   3.953   4.278 -0.6378  0.3546 -0.5259
 8356SOL    HW136704   1.732   3.962   4.325  0.1733 -0.1735 -1.8816
 8356SOL    HW236705   1.668   4.005   4.200  0.4256 -0.6326 -0.9116
 8357SOL     OW36706   1.051   1.840  16.456 -1.0181  0.0535 -0.6661
 8357SOL    HW136707   1.002   1.888  16.523  2.2439  0.0049  1.7418
 8357SOL    HW236708   1.054   1.750  16.488  0.4430  0.4548  0.3104
 8358SOL     OW36709   1.936   1.274   4.120  0.2211 -0.0042  0.0213
 8358SOL    HW136710   1.851   1.240   4.092 -0.6010  2.4316 -0.4644
 8358SOL    HW236711   1.993   1.259   4.045 -0.4205 -0.7006 -0.3331
 8359SOL     OW36712   0.627   1.765   1.431 -0.4001  0.3223 -0.1831
 8359SOL    HW136713   0.546   1.814   1.415  0.5871  1.0151 -3.1213
 8359SOL    HW236714   0.657   1.760   1.340 -1.2147 -2.2394 -0.2902
 8360SOL     OW36715   0.233   3.621   3.964 -0.5345  0.6445 -0.4539
 8360SOL    HW136716   0.214   3.703   4.008 -1.7213 -0.3864  0.9334
 8360SOL    HW236717   0.217   3.647   3.873 -1.0893  2.2087  0.1076
 8361SOL     OW36718   0.507   4.258  15.456  0.5271 -0.1471  0.5402
 8361SOL    HW136719   0.459   4.188  15.500  1.6567 -1.3318 -0.1567
 8361SOL    HW236720   0.451   4.279  15.381  0.4988 -0.3070  0.5181
 8362SOL     OW36721   2.090   0.391  15.217  0.1307  0.5463  0.2949
 8362SOL    HW136722   2.110   0.298  15.227  0.9330  0.6779 -0.1095
 8362SOL    HW236723   2.011   0.399  15.271  0.9115 -0.4309  1.5753
 8363SOL     OW36724   2.248   3.478   1.853  0.4608  0.4099 -0.2022
 8363SOL    HW136725   2.273   3.536   1.924  0.8401 -0.8630  0.7076
 8363SOL    HW236726   2.301   3.517   1.784 -0.7267 -1.9635 -2.4728
 8364SOL     OW36727   1.049   0.003   1.601 -0.0578 -0.1850 -0.2409
 8364SOL    HW136728   1.057   0.095   1.577  1.6719 -0.3191 -0.1316
 8364SOL    HW236729   1.012   4.698   1.522  0.8831 -0.0760 -0.7377
 8365SOL     OW36730   1.024   1.669   9.635 -0.0624  0.5905 -0.2183
 8365SOL    HW136731   0.943   1.635   9.596  1.4278 -1.3838 -1.5698
 8365SOL    HW236732   1.089   1.647   9.568  1.0056 -1.3951  1.4782
 8366SOL     OW36733   1.485   3.796   7.892  0.5278 -0.4634  0.6023
 8366SOL    HW136734   1.421   3.751   7.948  1.4535 -2.9137 -0.2939
 8366SOL    HW236735   1.500   3.717   7.839 -0.0815 -0.2068  0.0649
 8367SOL     OW36736   0.448   4.572  14.747 -1.1641  0.0855  0.6716
 8367SOL    HW136737   0.453   4.499  14.685 -2.8727  0.1388  0.4741
 8367SOL    HW236738   0.360   4.557  14.778 -0.7027 -1.6309  1.1088
 8368SOL     OW36739   0.487   3.379   3.190 -0.1999  0.5686 -0.2482
 8368SOL    HW136740   0.503   3.462   3.146 -0.4740  0.5230 -0.4315
 8368SOL    HW236741   0.425   3.412   3.255  0.8905 -1.8763  2.0557
 8369SOL     OW36742   0.279   3.181  13.133 -0.1344  0.0381 -0.0305
 8369SOL    HW136743   0.308   3.168  13.042  3.0033 -0.2209  1.0093
 8369SOL    HW236744   0.275   3.276  13.143  1.3023  0.1870 -0.8226
 8370SOL     OW36745   0.906   4.495   2.847  0.1310 -0.3585  0.2769
 8370SOL    HW136746   0.831   4.453   2.804 -0.2528 -0.1635  0.7587
 8370SOL    HW236747   0.968   4.490   2.775 -0.7001 -1.6069 -0.3515
 8371SOL     OW36748   2.795   3.548   5.066 -0.2420  0.5747 -0.2539
 8371SOL    HW136749   2.702   3.534   5.047 -0.3058 -1.5600  1.6637
 8371SOL    HW236750   2.790   3.621   5.129 -0.5152 -0.3609  0.8073
 8372SOL     OW36751   1.634   1.169  15.462 -0.4362 -0.6115 -0.2238
 8372SOL    HW136752   1.670   1.099  15.408  0.2381 -0.9751  0.7043
 8372SOL    HW236753   1.637   1.124  15.546  0.1313 -0.3218 -0.0950
 8373SOL     OW36754   1.060   2.230  10.312  0.8841 -0.0566 -0.1029
 8373SOL    HW136755   1.061   2.182  10.230 -1.8069  0.3029 -0.3347
 8373SOL    HW236756   0.984   2.284  10.291  0.7240 -0.3328 -0.2357
 8374SOL     OW36757   2.258   3.151   2.810 -0.3256 -0.3018  0.4432
 8374SOL    HW136758   2.172   3.192   2.819 -1.3340 -1.6543 -3.1314
 8374SOL    HW236759   2.261   3.088   2.881  0.1253  0.2936  0.9573
 8375SOL     OW36760   1.260   4.485   5.592  0.2070  0.5449 -0.1179
 8375SOL    HW136761   1.324   4.555   5.579 -0.4900  1.4422  1.2659
 8375SOL    HW236762   1.244   4.457   5.502 -1.6480 -0.0817  0.3930
 8376SOL     OW36763   0.581   1.530   2.190 -0.6692 -0.3306  0.4644
 8376SOL    HW136764   0.577   1.445   2.147 -0.1971 -0.3474  0.4469
 8376SOL    HW236765   0.528   1.518   2.268 -1.0894 -0.2198  0.1973
 8377SOL     OW36766   2.213   2.452   6.641 -0.4452  0.0494 -0.4370
 8377SOL    HW136767   2.209   2.379   6.580 -0.0334  1.1163 -1.7376
 8377SOL    HW236768   2.122   2.453   6.673 -0.0885  0.2406  0.5742
 8378SOL     OW36769   0.424   0.240   4.296  0.0256 -0.6468  0.3488
 8378SOL    HW136770   0.388   0.164   4.342 -1.1987 -0.7774 -0.8176
 8378SOL    HW236771   0.505   0.264   4.340  0.6017 -0.7473 -0.6642
 8379SOL     OW36772   4.323   4.279   3.373  0.7464 -0.0378  0.0366
 8379SOL    HW136773   4.247   4.223   3.385 -1.3677  2.6953 -0.6408
 8379SOL    HW236774   4.359   4.217   3.309  0.3808 -1.7888  1.5289
 8380SOL     OW36775   1.482   3.384   3.183  0.1019  0.5157  0.2406
 8380SOL    HW136776   1.431   3.313   3.221 -0.1521 -0.3719 -1.7607
 8380SOL    HW236777   1.495   3.340   3.099 -1.1542 -1.0590  0.8690
 8381SOL     OW36778   2.411   0.667   7.213  0.1840  0.4031 -0.5212
 8381SOL    HW136779   2.327   0.678   7.168  0.2420  1.7763 -0.2884
 8381SOL    HW236780   2.446   0.605   7.148 -0.7944  0.6184 -1.2519
 8382SOL     OW36781   2.333   3.216   4.976  0.9683 -0.4955  0.2785
 8382SOL    HW136782   2.421   3.252   4.965  1.3093 -1.3059  0.3856
 8382SOL    HW236783   2.279   3.280   4.930 -0.6586 -2.5827 -0.6832
 8383SOL     OW36784   1.237   0.324   2.318  0.4285  0.6599  0.3385
 8383SOL    HW136785   1.325   0.349   2.347  1.2249 -0.5463 -1.0451
 8383SOL    HW236786   1.179   0.385   2.363 -0.0843 -1.7380  2.9099
 8384SOL     OW36787   2.527   4.039   4.395  0.8201  0.1146  0.1112
 8384SOL    HW136788   2.495   4.084   4.317  1.8238  1.0572  0.2569
 8384SOL    HW236789   2.443   4.048   4.441 -1.1450 -1.2737 -3.1669
 8385SOL     OW36790   0.660   3.570   3.101  0.1657 -0.4399  0.6731
 8385SOL    HW136791   0.685   3.611   3.183  0.0578 -1.1040  1.0355
 8385SOL    HW236792   0.646   3.642   3.039  1.3700 -0.5815  0.2252
 8386SOL     OW36793   2.132   3.784   9.654 -1.0886 -0.5534 -0.0872
 8386SOL    HW136794   2.205   3.759   9.712  0.8273  3.6274 -0.7482
 8386SOL    HW236795   2.169   3.866   9.623 -1.3310 -0.4460 -0.0872
 8387SOL     OW36796   3.112   1.585   1.979  0.0061  0.1317 -0.6378
 8387SOL    HW136797   3.181   1.520   1.969 -0.8262 -0.8823  0.1799
 8387SOL    HW236798   3.155   1.648   1.922  0.4073  0.1410 -0.3250
 8388SOL     OW36799   4.588   3.983   7.795  0.1755 -0.3408  0.1058
 8388SOL    HW136800   4.672   3.941   7.775  0.7767  1.0156 -0.2370
 8388SOL    HW236801   4.536   3.927   7.738  2.3991 -0.6026 -1.6600
 8389SOL     OW36802   2.824   3.040  11.216 -0.1744  0.6011 -0.5907
 8389SOL    HW136803   2.740   3.000  11.194 -0.0708  0.1807 -0.2223
 8389SOL    HW236804   2.868   3.016  11.134  0.6718  2.4482 -0.6851
 8390SOL     OW36805   2.147   4.724  15.630  0.6450 -0.0866 -0.1955
 8390SOL    HW136806   2.181   4.636  15.648  1.2663  0.3506  0.7994
 8390SOL    HW236807   2.209   0.045  15.678 -0.7164  0.2372  1.2019
 8391SOL     OW36808   2.542   1.489   3.697 -0.3366  0.5141 -0.6163
 8391SOL    HW136809   2.491   1.448   3.627  0.8940 -0.7807 -0.7416
 8391SOL    HW236810   2.565   1.405   3.737 -0.5450  0.5662 -0.3854
 8392SOL     OW36811   0.738   1.524   1.773  0.1275  0.3362  0.0090
 8392SOL    HW136812   0.781   1.451   1.728 -0.3518  0.7415 -1.1133
 8392SOL    HW236813   0.660   1.473   1.795 -0.0343 -0.1180 -1.5688
 8393SOL     OW36814   0.970   1.775   4.320  0.0770  0.0732  0.3681
 8393SOL    HW136815   1.061   1.767   4.290  0.2951  0.8090  0.8364
 8393SOL    HW236816   0.929   1.814   4.243  0.7596  0.6213  0.2847
 8394SOL     OW36817   0.493   4.107   1.001  0.6214  0.2168 -0.3972
 8394SOL    HW136818   0.424   4.119   0.935  1.5114  2.2611 -0.9601
 8394SOL    HW236819   0.433   4.067   1.064  2.2636  0.9055  1.5935
 8395SOL     OW36820   2.725   2.479   1.874  0.0069 -0.2227  0.3543
 8395SOL    HW136821   2.632   2.499   1.874 -0.0258 -0.3747  0.1788
 8395SOL    HW236822   2.724   2.386   1.898 -1.3534 -0.1803  0.4317
 8396SOL     OW36823   4.108   1.916   8.072  0.0123  0.3795 -0.2017
 8396SOL    HW136824   4.061   1.884   8.149  0.5572  0.4147  0.1436
 8396SOL    HW236825   4.092   1.839   8.017  0.3854  0.8958 -1.0273
 8397SOL     OW36826   2.079   1.863   2.389 -0.2428  0.1176 -1.0093
 8397SOL    HW136827   2.105   1.773   2.369  0.9827  0.1585  0.4891
 8397SOL    HW236828   2.089   1.849   2.483 -0.9893 -2.1115 -1.2475
 8398SOL     OW36829   4.414   0.327   5.148  0.5086  0.0208  0.0428
 8398SOL    HW136830   4.338   0.329   5.206 -0.0676 -1.0391 -0.6832
 8398SOL    HW236831   4.488   0.312   5.207  2.1264  0.2138 -1.9320
 8399SOL     OW36832   0.587   0.194   0.610 -0.0661  0.1831 -0.4406
 8399SOL    HW136833   0.604   0.131   0.540 -2.7626 -0.7879 -0.2072
 8399SOL    HW236834   0.671   0.209   0.654  0.0973  0.7092 -0.9303
 8400SOL     OW36835   2.224   4.470   3.485  0.5183  0.0560  0.2881
 8400SOL    HW136836   2.311   4.447   3.451 -0.9754 -1.1009 -2.7374
 8400SOL    HW236837   2.241   4.509   3.571  0.5747 -0.8963  0.7050
 8401SOL     OW36838   3.114   4.553   9.447 -0.7781 -0.1605  0.4961
 8401SOL    HW136839   3.180   4.622   9.437 -0.4452 -0.2590  2.0746
 8401SOL    HW236840   3.134   4.527   9.537  3.6386  1.4648 -0.0174
 8402SOL     OW36841   4.099   2.422   4.236 -0.1299 -0.1208 -0.1908
 8402SOL    HW136842   4.146   2.496   4.198 -3.1038  0.5459 -2.5902
 8402SOL    HW236843   4.032   2.475   4.280  0.2715 -0.0613  0.3442
 8403SOL     OW36844   3.096   1.756   4.382 -0.4935  0.0991  0.2181
 8403SOL    HW136845   3.183   1.797   4.383 -1.0488  1.2283  1.7005
 8403SOL    HW236846   3.101   1.688   4.315  1.8598 -0.1199  0.6298
 8404SOL     OW36847   1.535   2.249   5.646  0.1270 -0.7526 -0.0834
 8404SOL    HW136848   1.601   2.199   5.599  0.6020  0.0753 -0.2871
 8404SOL    HW236849   1.494   2.295   5.573  1.0405 -0.5143 -0.4470
 8405SOL     OW36850   0.756   2.355   5.580  0.2761  0.2699 -0.7240
 8405SOL    HW136851   0.813   2.431   5.594  0.3218  0.2733 -0.9245
 8405SOL    HW236852   0.816   2.294   5.622 -1.2295 -0.6735  0.0008
 8406SOL     OW36853   4.183   0.171   8.611  0.2577  0.3403  0.0334
 8406SOL    HW136854   4.231   0.089   8.622 -0.8189 -0.2349  0.5260
 8406SOL    HW236855   4.230   0.239   8.659  2.7672 -0.1381 -1.8084
 8407SOL     OW36856   1.724   1.198   8.294 -0.0206  0.7659 -0.2757
 8407SOL    HW136857   1.708   1.274   8.351 -0.3486 -0.9395  1.9260
 8407SOL    HW236858   1.819   1.196   8.285 -0.1550  1.8263 -2.0867
 8408SOL     OW36859   3.386   0.771   6.805 -0.4291  0.4979  0.5714
 8408SOL    HW136860   3.479   0.757   6.789 -0.7687 -0.8978 -0.2068
 8408SOL    HW236861   3.359   0.693   6.854  0.6292 -0.6708 -0.6952
 8409SOL     OW36862   3.930   0.690   9.288  0.5328 -0.0443 -0.0974
 8409SOL    HW136863   3.981   0.639   9.225  0.3244  0.4443 -0.6603
 8409SOL    HW236864   3.879   0.627   9.339 -0.6911 -0.2092 -1.5227
 8410SOL     OW36865   3.458   4.393  16.473  0.0102 -0.2560  0.2987
 8410SOL    HW136866   3.521   4.392  16.400 -1.1455 -2.8613 -0.6792
 8410SOL    HW236867   3.452   4.486  16.491  1.4846 -1.0289  4.6457
 8411SOL     OW36868   1.346   3.165   9.266  0.2661  0.2372  0.1749
 8411SOL    HW136869   1.396   3.118   9.334  0.3729  2.3074  1.5218
 8411SOL    HW236870   1.401   3.185   9.191  1.3150  1.4600  1.2520
 8412SOL     OW36871   4.095   4.405  14.967  0.7226 -0.6123 -0.0978
 8412SOL    HW136872   4.013   4.423  14.920  0.8281 -1.4053 -0.5780
 8412SOL    HW236873   4.153   4.472  14.932 -0.1072 -0.1273 -0.5526
 8413SOL     OW36874   0.262   1.849   4.952 -0.1149 -0.0703  0.0560
 8413SOL    HW136875   0.262   1.917   4.885  0.0978  2.3470  2.5386
 8413SOL    HW236876   0.167   1.844   4.965  0.1184 -1.6616  1.1772
 8414SOL     OW36877   0.025   0.778   8.146 -0.1274 -0.3827 -0.0975
 8414SOL    HW136878   0.028   0.803   8.053  1.4299  1.1808  0.3754
 8414SOL    HW236879   0.071   0.694   8.141 -0.2963 -0.4515 -0.5135
 8415SOL     OW36880   1.218   2.337   3.411 -0.2912 -0.5297  0.0762
 8415SOL    HW136881   1.189   2.315   3.323 -0.2182 -0.5019  0.0452
 8415SOL    HW236882   1.140   2.332   3.466 -0.9854 -1.0986 -0.9774
 8416SOL     OW36883   1.052   0.020   7.322 -0.5521  0.2073  0.4979
 8416SOL    HW136884   1.057   4.704   7.403 -2.6801 -0.5352  0.1446
 8416SOL    HW236885   1.110   0.096   7.332 -0.8814  0.3695  1.1379
 8417SOL     OW36886   1.666   3.958   3.892 -0.3703  0.2896  0.1847
 8417SOL    HW136887   1.716   4.015   3.833 -1.0139 -0.7230 -1.3619
 8417SOL    HW236888   1.634   4.016   3.961 -0.1948  0.1411  0.3902
 8418SOL     OW36889   0.719   0.864   9.520  0.3530 -0.7306  0.2555
 8418SOL    HW136890   0.789   0.919   9.553 -1.5489  0.2759  2.5755
 8418SOL    HW236891   0.767   0.799   9.469  0.2026  0.5443 -1.4988
 8419SOL     OW36892   3.026   4.313   1.530  0.0153  0.0597 -0.1972
 8419SOL    HW136893   3.110   4.327   1.487  1.0215 -0.6591  1.5414
 8419SOL    HW236894   2.972   4.331   1.453  0.2905 -2.6175 -1.0481
 8420SOL     OW36895   1.237   0.239  13.414  0.6971  0.4763 -0.2483
 8420SOL    HW136896   1.233   0.235  13.510  2.5756  0.0741 -0.1849
 8420SOL    HW236897   1.173   0.310  13.411  2.0126  1.6087 -1.1748
 8421SOL     OW36898   0.365   1.365   6.230  0.0542  0.0797 -0.6054
 8421SOL    HW136899   0.420   1.317   6.169 -1.8246 -1.4555 -1.1207
 8421SOL    HW236900   0.296   1.299   6.242  0.6940 -0.5381 -0.3712
 8422SOL     OW36901   2.977   0.086   4.903  0.1592 -0.1620 -0.1555
 8422SOL    HW136902   2.995   4.730   4.929 -2.2207 -0.3517  0.8641
 8422SOL    HW236903   2.888   0.103   4.933  0.9265  0.5181  1.7913
 8423SOL     OW36904   0.809   3.086   3.867 -0.0126  0.1423 -0.2928
 8423SOL    HW136905   0.770   3.100   3.953 -0.6764 -1.8039 -0.2935
 8423SOL    HW236906   0.766   3.004   3.843  0.2848 -0.7826  2.3876
 8424SOL     OW36907   0.867   1.859   4.834 -0.2509  0.0407  0.1700
 8424SOL    HW136908   0.824   1.853   4.748  1.0134 -0.3977 -0.4385
 8424SOL    HW236909   0.831   1.941   4.866  0.0370  0.6629 -1.0684
 8425SOL     OW36910   1.141   4.345  16.312 -0.5997  0.4528 -0.1184
 8425SOL    HW136911   1.175   4.399  16.383 -1.4244 -1.2916  1.6180
 8425SOL    HW236912   1.109   4.268  16.360  1.6842 -0.0059  0.6513
 8426SOL     OW36913   4.453   3.963   4.924  0.0860 -0.2375 -0.0476
 8426SOL    HW136914   4.463   4.031   4.856 -1.2410 -0.2450 -0.2553
 8426SOL    HW236915   4.428   3.883   4.878 -1.3896  0.2894 -0.1517
 8427SOL     OW36916   0.082   1.483   3.593  0.1080  0.2956  0.2838
 8427SOL    HW136917   0.171   1.467   3.562 -0.5116 -1.8834 -0.3933
 8427SOL    HW236918   0.083   1.420   3.665 -0.4906 -0.6976 -0.5893
 8428SOL     OW36919   3.934   0.900  14.118  0.6596  0.2131  0.6090
 8428SOL    HW136920   3.870   0.954  14.164  2.5241  1.9752  1.1571
 8428SOL    HW236921   3.911   0.821  14.167  1.0453 -0.7325 -0.7568
 8429SOL     OW36922   0.333   2.792  16.849  0.3718  0.1213  0.1078
 8429SOL    HW136923   0.339   2.704  16.813 -1.6780 -0.7408  1.8787
 8429SOL    HW236924   0.328   2.836  16.764  0.3504  1.1561  0.6376
 8430SOL     OW36925   2.150   0.101   2.055  0.1650 -0.3151  0.0281
 8430SOL    HW136926   2.064   0.074   2.086  1.4811 -2.8672  1.4778
 8430SOL    HW236927   2.130   0.169   1.991  0.6388 -1.5031 -1.3801
 8431SOL     OW36928   0.276   2.980  12.817  0.0218  0.4069 -0.0908
 8431SOL    HW136929   0.362   2.947  12.791 -0.1159  1.6360 -2.1343
 8431SOL    HW236930   0.235   2.904  12.857  1.0660  0.3370  0.8394
 8432SOL     OW36931   1.005   0.919   2.506 -0.3788 -0.1050 -0.0079
 8432SOL    HW136932   1.065   0.985   2.540  0.6706 -1.8501  1.4955
 8432SOL    HW236933   0.970   0.883   2.587 -1.3823 -0.8190 -0.7524
 8433SOL     OW36934   2.979   4.122   3.357 -0.3618  0.3382 -0.1783
 8433SOL    HW136935   3.064   4.092   3.390 -1.0545  0.8861  2.1587
 8433SOL    HW236936   2.936   4.148   3.439  1.7737 -0.3284  1.1473
 8434SOL     OW36937   3.113   3.236   7.648  0.2252 -0.0185 -0.4936
 8434SOL    HW136938   3.061   3.177   7.702 -2.1564 -0.7895 -3.6801
 8434SOL    HW236939   3.061   3.316   7.653  2.5332  1.5131 -0.4804
 8435SOL     OW36940   2.037   3.010   9.183 -0.0907 -0.0812 -0.1078
 8435SOL    HW136941   1.947   3.042   9.186  0.5016  1.5201  0.4817
 8435SOL    HW236942   2.092   3.084   9.208  3.2373 -1.2445 -3.9490
 8436SOL     OW36943   2.371   1.783   6.092 -0.0186  0.3685  0.3382
 8436SOL    HW136944   2.391   1.798   6.184 -1.6685  2.8331  0.2772
 8436SOL    HW236945   2.450   1.735   6.065 -0.2323  1.6580 -2.5522
 8437SOL     OW36946   2.943   2.646   3.543  0.1661  0.3840  0.0691
 8437SOL    HW136947   2.949   2.662   3.637 -0.0762 -1.0597  0.3338
 8437SOL    HW236948   3.018   2.586   3.544 -1.4461 -1.6054  1.1757
 8438SOL     OW36949   2.223   0.644   6.034 -0.0576  0.1820 -0.5099
 8438SOL    HW136950   2.232   0.717   6.096  0.8323 -1.1838  0.9564
 8438SOL    HW236951   2.149   0.597   6.073 -0.2206  1.5803  0.8777
 8439SOL     OW36952   4.677   2.427   9.578  0.3399 -0.1362  0.5386
 8439SOL    HW136953   4.596   2.414   9.627  0.1283 -2.3937 -0.4269
 8439SOL    HW236954   0.013   2.429   9.642  1.1021 -0.3008 -0.2882
 8440SOL     OW36955   2.411   2.801   2.193  0.3240  0.1120 -0.1893
 8440SOL    HW136956   2.407   2.872   2.129 -1.0358  1.7162  1.6627
 8440SOL    HW236957   2.487   2.754   2.160  0.5268 -2.0519  3.4389
 8441SOL     OW36958   0.493   2.217  15.736  0.4375  0.2750 -0.4087
 8441SOL    HW136959   0.446   2.291  15.773 -0.8394 -0.4784 -0.5362
 8441SOL    HW236960   0.583   2.245  15.751  0.3807 -0.6633  1.6440
 8442SOL     OW36961   0.992   4.396   3.367 -0.4590 -0.3821  0.2180
 8442SOL    HW136962   1.083   4.366   3.373 -0.7780 -1.4502 -0.3240
 8442SOL    HW236963   0.969   4.371   3.278 -1.8947 -0.1286  0.5192
 8443SOL     OW36964   1.124   3.958  12.948 -0.1289  0.3070  0.3334
 8443SOL    HW136965   1.171   3.912  12.879 -1.4416 -2.1155  1.0370
 8443SOL    HW236966   1.105   4.042  12.906  0.1394  0.0106 -0.3949
 8444SOL     OW36967   2.840   3.070   7.343 -0.1376 -0.1612  0.3536
 8444SOL    HW136968   2.905   3.127   7.383 -0.2729  0.7025 -0.6438
 8444SOL    HW236969   2.802   3.041   7.426  2.8112 -0.8268  1.4756
 8445SOL     OW36970   4.275   4.714   6.535 -0.1015 -0.1237  0.0238
 8445SOL    HW136971   4.243   4.624   6.526  2.2324 -0.8896 -0.6360
 8445SOL    HW236972   4.278   0.014   6.446  0.1745  2.1110  0.9134
 8446SOL     OW36973   2.383   4.697   8.785 -0.1354  0.1086 -0.1207
 8446SOL    HW136974   2.435   0.010   8.720  0.2906  2.5235  2.0369
 8446SOL    HW236975   2.424   4.612   8.767  0.3395 -0.2690  2.8249
 8447SOL     OW36976   4.708   3.054   6.783  0.0677 -0.1265  0.0954
 8447SOL    HW136977   4.672   2.997   6.851  0.7438 -0.7440 -0.0586
 8447SOL    HW236978   4.630   3.092   6.741 -0.5742  0.1071  1.4932
 8448SOL     OW36979   1.803   1.263  13.200  0.6972 -0.4155 -0.1964
 8448SOL    HW136980   1.714   1.282  13.170  0.2540  0.8636  1.9229
 8448SOL    HW236981   1.801   1.288  13.292 -1.2075 -0.6468 -0.1852
 8449SOL     OW36982   3.524   0.862   1.750 -0.3429  0.1707 -0.0482
 8449SOL    HW136983   3.429   0.862   1.743 -0.5128 -1.8283  2.4732
 8449SOL    HW236984   3.528   0.915   1.829 -0.5960  0.2259 -0.0719
 8450SOL     OW36985   1.411   3.863  17.367  0.0985 -0.5918  0.1941
 8450SOL    HW136986   1.484   3.818  17.324  0.3221  0.3484 -0.4175
 8450SOL    HW236987   1.433   3.953  17.341  1.0276 -0.8032  0.2205
 8451SOL     OW36988   1.983   3.483   7.047  0.2025 -0.6775  0.2951
 8451SOL    HW136989   1.995   3.480   7.142  1.7599  1.9242  0.1825
 8451SOL    HW236990   2.056   3.440   7.003 -0.3550 -1.4919  0.1716
 8452SOL     OW36991   1.417   1.433   4.070 -0.0314 -0.5984  0.0406
 8452SOL    HW136992   1.334   1.421   4.116 -0.2349 -2.1480 -0.7082
 8452SOL    HW236993   1.461   1.357   4.108 -0.4693 -0.5114  0.7217
 8453SOL     OW36994   1.497   4.269   5.631  0.2701  0.5872  0.8349
 8453SOL    HW136995   1.474   4.181   5.603  0.5162  0.2352  1.7488
 8453SOL    HW236996   1.436   4.285   5.704 -0.4405 -0.2215  0.4097
 8454SOL     OW36997   0.995   2.154   8.538 -0.1158  0.6953  0.9181
 8454SOL    HW136998   1.016   2.134   8.447 -0.7093 -1.5426  1.2717
 8454SOL    HW236999   1.075   2.203   8.560  0.7837 -1.3946  2.3611
 8455SOL     OW37000   1.594   3.309  10.235  0.1561 -0.0129  0.1733
 8455SOL    HW137001   1.665   3.248  10.254  1.6934  1.0967 -2.0415
 8455SOL    HW237002   1.557   3.283  10.150  1.4856 -2.5875  0.3827
 8456SOL     OW37003   2.715   0.062   9.869  0.2451  0.3558 -0.0988
 8456SOL    HW137004   2.744   0.035   9.782  1.2459  2.2552 -0.3680
 8456SOL    HW237005   2.620   0.053   9.858  0.0702  1.1365  0.7328
 8457SOL     OW37006   1.681   0.815   2.194 -0.1249 -0.2755  0.3969
 8457SOL    HW137007   1.712   0.889   2.246  0.6705 -1.5185  1.6839
 8457SOL    HW237008   1.657   0.849   2.107 -1.6692  0.1556  0.9808
 8458SOL     OW37009   1.883   1.116   9.253  0.3950  0.2979  0.2288
 8458SOL    HW137010   1.970   1.132   9.218  0.0538 -1.6780 -1.5556
 8458SOL    HW237011   1.904   1.116   9.346  0.1168 -0.7286  0.2913
 8459SOL     OW37012   0.083   2.197  12.248  0.0580 -0.2298  0.6814
 8459SOL    HW137013   0.151   2.164  12.307 -0.2424 -1.0035  0.5930
 8459SOL    HW237014   0.090   2.136  12.175 -1.1485  1.0847 -0.5347
 8460SOL     OW37015   1.972   1.062  14.595  0.0491 -0.2471 -0.3354
 8460SOL    HW137016   1.964   0.967  14.600 -0.7203 -0.2460 -1.6942
 8460SOL    HW237017   2.003   1.073  14.685 -1.1675  0.7253 -0.0333
 8461SOL     OW37018   0.017   0.322  13.160 -0.4253 -0.0190  0.1062
 8461SOL    HW137019   0.090   0.267  13.190 -1.3163 -1.1368  0.1896
 8461SOL    HW237020   0.026   0.403  13.211 -2.8316  0.8494 -0.8703
 8462SOL     OW37021   3.440   0.762   4.984 -1.4277 -0.0626 -0.3819
 8462SOL    HW137022   3.492   0.832   5.024 -1.9593 -0.1683  0.5106
 8462SOL    HW237023   3.503   0.693   5.006 -1.8581  0.7474  3.4386
 8463SOL     OW37024   1.756   2.485   7.240  0.1509  0.2838 -0.1640
 8463SOL    HW137025   1.795   2.494   7.153  0.7319  1.0999  0.1758
 8463SOL    HW237026   1.663   2.491   7.219  0.9638 -0.8632 -4.1598
 8464SOL     OW37027   3.674   1.640   8.705  0.3527  0.1676 -0.2452
 8464SOL    HW137028   3.770   1.635   8.704  0.4277  1.4445  0.8064
 8464SOL    HW237029   3.659   1.558   8.658 -0.8801 -0.1663  0.7311
 8465SOL     OW37030   1.362   4.022   4.294 -0.1871 -0.2164  0.1062
 8465SOL    HW137031   1.367   4.117   4.290  0.1607 -0.2702 -0.6986
 8465SOL    HW237032   1.453   3.997   4.313  0.2730  0.8804 -0.6817
 8466SOL     OW37033   3.686   0.815   2.471 -0.2079 -0.6888 -0.0467
 8466SOL    HW137034   3.761   0.786   2.420 -1.2133 -0.0311 -1.9075
 8466SOL    HW237035   3.653   0.727   2.490  0.9584 -0.3895  3.3182
 8467SOL     OW37036   0.287   0.934   8.650 -0.2356 -0.7603  0.0965
 8467SOL    HW137037   0.322   0.924   8.562  2.0193  3.4706  0.4870
 8467SOL    HW237038   0.198   0.900   8.644 -0.3576 -0.3677 -0.3238
 8468SOL     OW37039   3.877   3.336   8.367  0.3812  0.3719 -0.3853
 8468SOL    HW137040   3.860   3.365   8.277  0.0781 -2.4149 -1.2201
 8468SOL    HW237041   3.822   3.259   8.357 -0.9199  1.1439  0.7409
 8469SOL     OW37042   3.339   0.099   2.534  0.0291  0.1964 -0.0424
 8469SOL    HW137043   3.373   0.125   2.449 -1.1077  0.4860 -0.4062
 8469SOL    HW237044   3.286   0.175   2.560 -0.0709 -0.4621  1.7180
 8470SOL     OW37045   1.887   2.910  14.841 -0.1292  0.2433 -0.1733
 8470SOL    HW137046   1.877   2.897  14.936 -0.8172  1.9065 -0.0024
 8470SOL    HW237047   1.983   2.915  14.837 -0.0965  0.0703  0.4079
 8471SOL     OW37048   0.435   1.966  11.862 -0.5057 -0.1200  1.0294
 8471SOL    HW137049   0.485   1.966  11.781  0.2457 -1.2303  1.4985
 8471SOL    HW237050   0.364   2.030  11.861 -0.1179  0.2919 -0.4538
 8472SOL     OW37051   1.562   0.289   7.578  0.0227 -0.0608 -0.5542
 8472SOL    HW137052   1.618   0.213   7.593 -1.5402 -1.2097 -0.5781
 8472SOL    HW237053   1.600   0.350   7.641 -1.1768  1.1278 -0.9763
 8473SOL     OW37054   1.614   4.017   7.096  0.0051  0.6876  0.4964
 8473SOL    HW137055   1.611   4.085   7.028  0.1609 -0.0148 -0.2095
 8473SOL    HW237056   1.695   4.046   7.138 -0.2552  2.2941 -0.0809
 8474SOL     OW37057   0.149   0.911   2.161 -0.3278  0.1015 -0.2084
 8474SOL    HW137058   0.089   0.946   2.227  0.0369  0.6948 -0.1919
 8474SOL    HW237059   0.091   0.870   2.097 -0.8921  1.9439 -0.8793
 8475SOL     OW37060   2.924   3.439   8.961 -0.3794 -0.5847 -0.3599
 8475SOL    HW137061   2.847   3.383   8.953 -0.8128  0.0724 -0.7969
 8475SOL    HW237062   2.939   3.454   8.868  0.8961  0.4000  0.0026
 8476SOL     OW37063   0.552   4.602   7.363  0.3853 -0.4827 -0.1852
 8476SOL    HW137064   0.531   4.669   7.428  1.0745 -0.0828 -0.3791
 8476SOL    HW237065   0.620   4.643   7.310  0.6773 -0.5914  0.1053
 8477SOL     OW37066   4.502   1.726  16.770  0.4301 -0.0001  0.5825
 8477SOL    HW137067   4.478   1.815  16.797  1.7453  0.5931 -0.2286
 8477SOL    HW237068   4.533   1.731  16.680 -1.2133  0.2070  0.0301
 8478SOL     OW37069   0.876   0.653   5.048  0.0053 -0.0382 -0.6455
 8478SOL    HW137070   0.842   0.571   5.086  1.9102  0.6969  2.6220
 8478SOL    HW237071   0.908   0.618   4.965 -2.5474 -2.9179 -0.4682
 8479SOL     OW37072   2.000   3.782   4.827 -0.2124  0.1177 -0.1251
 8479SOL    HW137073   2.022   3.816   4.913  2.7686 -2.0186 -0.0375
 8479SOL    HW237074   1.916   3.741   4.851  0.9872 -0.7177  2.5940
 8480SOL     OW37075   2.407   3.888   3.711  0.4455  0.0394  0.1532
 8480SOL    HW137076   2.479   3.870   3.650  1.0761 -1.4803  1.3419
 8480SOL    HW237077   2.332   3.876   3.653 -1.5245  3.4463  2.0014
 8481SOL     OW37078   4.661   2.317   4.395  0.2464 -0.8367 -0.1191
 8481SOL    HW137079   4.683   2.224   4.395 -2.2230 -1.4248  0.2104
 8481SOL    HW237080   4.603   2.312   4.319 -1.0075  2.7589  0.5786
 8482SOL     OW37081   0.202   2.911  13.938  0.0689  0.0543 -0.0980
 8482SOL    HW137082   0.132   2.862  13.895  0.6139  0.6075 -1.6095
 8482SOL    HW237083   0.264   2.922  13.865  1.2886  1.5121  1.1605
 8483SOL     OW37084   3.952   0.404   4.087  0.0257  0.2710  0.1631
 8483SOL    HW137085   3.877   0.449   4.127 -0.5346  1.1364 -1.8048
 8483SOL    HW237086   3.933   0.434   3.998 -0.3595  0.8754  0.4432
 8484SOL     OW37087   3.855   3.738   8.347  0.1811  0.3998 -0.1834
 8484SOL    HW137088   3.857   3.821   8.395  1.4216  0.2875 -0.0533
 8484SOL    HW237089   3.897   3.762   8.264 -0.8603  0.3022 -0.7504
 8485SOL     OW37090   0.995   1.140   4.075  0.1618 -0.0876 -0.0896
 8485SOL    HW137091   1.044   1.133   4.157  1.6933  0.0343 -0.9915
 8485SOL    HW237092   1.077   1.145   4.025 -0.7123  0.3796 -1.4888
 8486SOL     OW37093   1.228   0.134   7.724  0.1851 -0.1994  0.1147
 8486SOL    HW137094   1.183   0.218   7.713 -1.1710 -0.7598  1.3155
 8486SOL    HW237095   1.285   0.158   7.797 -3.5355  1.3956  2.5270
 8487SOL     OW37096   2.802   0.697   7.688  0.4073  0.9154  0.0381
 8487SOL    HW137097   2.784   0.709   7.782  0.1307  0.8619 -0.0100
 8487SOL    HW237098   2.818   0.787   7.660  0.0330  1.5552  1.8403
 8488SOL     OW37099   2.799   0.080   9.114  0.2901 -0.1916 -0.1809
 8488SOL    HW137100   2.735   0.132   9.163  1.1904  1.2443 -0.5243
 8488SOL    HW237101   2.753   4.734   9.091 -2.5766  1.0509  1.2805
 8489SOL     OW37102   3.746   1.970   6.653 -0.1158  0.3407 -0.0557
 8489SOL    HW137103   3.765   1.965   6.747 -1.5387 -0.7646  0.1676
 8489SOL    HW237104   3.697   1.888   6.659 -0.4886  0.6633  1.3328
 8490SOL     OW37105   2.945   2.295   2.002 -0.1904  0.2809  0.3894
 8490SOL    HW137106   2.883   2.345   2.055  0.3220 -1.0448  2.2232
 8490SOL    HW237107   2.880   2.248   1.949 -0.0059 -0.8164  1.1399
 8491SOL     OW37108   0.847   1.542   7.478 -0.0271  0.2093  0.0693
 8491SOL    HW137109   0.933   1.521   7.441 -0.6682 -0.8713 -0.8242
 8491SOL    HW237110   0.865   1.633   7.501 -0.6168 -0.2295  2.2613
 8492SOL     OW37111   1.270   3.030  12.736 -0.2243  0.2542 -0.7182
 8492SOL    HW137112   1.321   3.021  12.816  1.0533  0.9541 -1.4600
 8492SOL    HW237113   1.346   3.044  12.680  0.5258 -1.0242 -0.0248
 8493SOL     OW37114   1.264   2.392   8.247  0.4033 -0.2515 -0.6590
 8493SOL    HW137115   1.193   2.422   8.190 -0.3392  0.2560  0.5538
 8493SOL    HW237116   1.280   2.304   8.213  1.7638  0.6734 -2.4479
 8494SOL     OW37117   4.024   2.686   6.766  0.2218 -0.3646 -0.2349
 8494SOL    HW137118   4.037   2.772   6.806 -1.1713  0.0373 -0.6573
 8494SOL    HW237119   4.002   2.639   6.846  0.5149 -2.0215 -1.1164
 8495SOL     OW37120   3.567   1.214   7.311  0.5071  0.7017 -0.2252
 8495SOL    HW137121   3.510   1.196   7.237 -0.4241 -3.4899  1.5138
 8495SOL    HW237122   3.647   1.177   7.273  0.7582  1.5939 -0.5638
 8496SOL     OW37123   4.125   3.614   5.826  0.1557  0.4627  0.4126
 8496SOL    HW137124   4.058   3.548   5.810 -0.1782  1.7363 -3.4411
 8496SOL    HW237125   4.181   3.610   5.749 -1.5564 -1.0077 -0.7428
 8497SOL     OW37126   2.145   4.029   8.418 -0.9506 -0.4728  0.5811
 8497SOL    HW137127   2.073   4.036   8.481 -0.1486  0.5811  1.3784
 8497SOL    HW237128   2.190   4.112   8.436  0.3989 -0.7001 -1.8581
 8498SOL     OW37129   4.695   1.511   0.761  0.0172  0.0321 -0.1264
 8498SOL    HW137130   4.731   1.478   0.679  0.5971  0.7882 -0.1698
 8498SOL    HW237131   4.714   1.434   0.815  2.4636 -0.3661 -1.5431
 8499SOL     OW37132   1.939   4.436   1.301 -0.9400 -0.3584  0.1012
 8499SOL    HW137133   1.899   4.353   1.323  0.8145 -0.9907  0.8948
 8499SOL    HW237134   1.862   4.493   1.307  0.8203  1.8613  1.4393
 8500SOL     OW37135   2.153   1.173   9.197  0.1747 -0.0428  0.3229
 8500SOL    HW137136   2.211   1.248   9.203  3.0181 -2.0902 -1.6502
 8500SOL    HW237137   2.188   1.119   9.268 -0.4158 -1.2678 -0.2994
 8501SOL     OW37138   1.758   4.458   6.429 -0.5036 -0.6371 -0.0757
 8501SOL    HW137139   1.807   4.379   6.406 -3.4610 -2.9468  1.5517
 8501SOL    HW237140   1.671   4.425   6.408 -0.9872  1.8264 -1.9428
 8502SOL     OW37141   1.981   2.528   4.313  0.1945 -0.5707 -0.1403
 8502SOL    HW137142   1.979   2.565   4.225 -1.6160  0.5359  0.3715
 8502SOL    HW237143   1.908   2.466   4.316 -0.6182  0.3707 -0.4018
 8503SOL     OW37144   1.391   1.609   8.914 -0.4472  0.0178 -0.1139
 8503SOL    HW137145   1.421   1.521   8.934 -0.2777  0.0613 -0.1824
 8503SOL    HW237146   1.467   1.646   8.870 -0.9980  0.7476 -0.4480
 8504SOL     OW37147   2.687   3.661   8.197 -0.0462 -0.8170  0.1829
 8504SOL    HW137148   2.619   3.619   8.249 -1.2931  0.7865 -0.1711
 8504SOL    HW237149   2.758   3.652   8.261 -0.4797 -0.4704  0.7134
 8505SOL     OW37150   0.258   1.721   5.700  0.4708  0.3910  0.4015
 8505SOL    HW137151   0.268   1.630   5.671  2.9670  0.2256  1.8004
 8505SOL    HW237152   0.164   1.727   5.715  0.4118  0.7932 -0.1372
 8506SOL     OW37153   2.318   0.116   4.107 -0.6284 -0.2552  0.2707
 8506SOL    HW137154   2.337   0.022   4.102  1.1811  0.0278  1.9831
 8506SOL    HW237155   2.314   0.152   4.018  1.7355  0.9615  0.6613
 8507SOL     OW37156   1.540   0.250   8.347 -0.6443  0.7017 -0.2788
 8507SOL    HW137157   1.491   0.309   8.290 -1.0491  1.8187  1.2181
 8507SOL    HW237158   1.461   0.203   8.373  0.5861 -1.0660  0.2322
 8508SOL     OW37159   3.889   3.816   4.413  0.0556  0.3373  0.1008
 8508SOL    HW137160   3.844   3.848   4.334  3.9843 -1.3664 -2.8131
 8508SOL    HW237161   3.982   3.837   4.408 -0.2103  1.3142 -0.8355
 8509SOL     OW37162   2.219   0.895   5.369 -0.1369 -0.2703  0.1175
 8509SOL    HW137163   2.209   0.921   5.277 -0.8023 -1.4274 -0.1428
 8509SOL    HW237164   2.286   0.828   5.354  1.1545  1.3693 -1.4766
 8510SOL     OW37165   1.342   2.737   4.772  0.8025  0.2539  0.5536
 8510SOL    HW137166   1.408   2.721   4.704  0.8824 -0.4752  0.8052
 8510SOL    HW237167   1.270   2.710   4.715  0.0352  2.7482  0.3314
 8511SOL     OW37168   2.071   1.808  11.355 -0.1156 -0.3696 -0.6111
 8511SOL    HW137169   2.104   1.718  11.361 -0.6993 -0.5525 -0.2019
 8511SOL    HW237170   1.997   1.810  11.294 -2.2614 -2.9728  1.9061
 8512SOL     OW37171   0.791   0.789   0.861  0.2028  0.5170 -0.2009
 8512SOL    HW137172   0.802   0.883   0.846 -0.4328  0.2687 -2.2309
 8512SOL    HW237173   0.700   0.796   0.892  0.0202  0.7670 -0.7843
 8513SOL     OW37174   2.457   4.456   4.343 -0.3202 -0.0261  0.0058
 8513SOL    HW137175   2.420   4.419   4.422  0.9377 -0.1556  0.5373
 8513SOL    HW237176   2.546   4.469   4.375 -0.6179 -0.0664  0.8452
 8514SOL     OW37177   1.595   4.692  15.476 -0.4311 -0.1884  0.1406
 8514SOL    HW137178   1.551   4.608  15.490 -0.5272 -0.3837 -1.3420
 8514SOL    HW237179   1.679   4.672  15.519 -1.2611  0.2031  1.9441
 8515SOL     OW37180   0.388   2.940   2.760  0.0698 -0.3419  0.3959
 8515SOL    HW137181   0.451   2.967   2.694 -3.1490 -0.8963 -2.9233
 8515SOL    HW237182   0.427   2.986   2.834 -1.2250  1.0997  0.2028
 8516SOL     OW37183   2.702   4.354   2.137 -0.0750  0.1153 -0.2626
 8516SOL    HW137184   2.742   4.270   2.115 -1.9364 -1.3151  1.7995
 8516SOL    HW237185   2.713   4.355   2.232  0.2550  0.5790 -0.3098
 8517SOL     OW37186   3.244   1.652   1.325  0.0928 -0.0024 -0.1523
 8517SOL    HW137187   3.250   1.717   1.255 -0.4259 -0.6073 -0.7614
 8517SOL    HW237188   3.332   1.657   1.363  0.2452 -0.5302 -0.4373
 8518SOL     OW37189   2.635   2.341   4.817  0.1591 -0.0452 -0.8691
 8518SOL    HW137190   2.542   2.362   4.815 -0.3131 -2.0474  0.2558
 8518SOL    HW237191   2.637   2.281   4.743 -0.4167 -2.4864  1.1008
 8519SOL     OW37192   3.040   2.077   8.518  0.5446  0.2465  0.2624
 8519SOL    HW137193   3.051   2.112   8.607  1.4140 -0.4140  0.4210
 8519SOL    HW237194   2.984   2.000   8.531  2.5297 -1.4235 -1.0874
 8520SOL     OW37195   4.690   0.842   1.668 -0.2205  0.0828  0.1813
 8520SOL    HW137196   0.022   0.781   1.634  0.6539  1.1021  0.0696
 8520SOL    HW237197   4.618   0.827   1.606 -0.8169  0.4643  0.7885
 8521SOL     OW37198   2.989   2.456   4.003 -0.0757  0.5219  0.1803
 8521SOL    HW137199   2.970   2.363   4.015 -1.9023  0.9798  0.7198
 8521SOL    HW237200   3.020   2.474   4.093  0.8350  0.7815 -0.1767
 8522SOL     OW37201   1.395   4.674   6.435  0.0474 -0.7280 -0.0473
 8522SOL    HW137202   1.330   4.605   6.452 -0.8407  0.2499  0.5426
 8522SOL    HW237203   1.396   4.675   6.339 -0.6625  2.5531 -0.0346
 8523SOL     OW37204   1.346   1.165   7.343 -0.5297  0.1518 -0.4085
 8523SOL    HW137205   1.425   1.165   7.288  1.1862  0.6576  2.0957
 8523SOL    HW237206   1.303   1.088   7.305  0.4484 -0.4241 -0.3381
 8524SOL     OW37207   2.580   0.569   4.671 -0.0608  0.0471  0.6339
 8524SOL    HW137208   2.487   0.581   4.692 -0.0969  4.5774 -2.1229
 8524SOL    HW237209   2.594   0.482   4.708 -2.1866  0.4063  2.2668
 8525SOL     OW37210   4.464   0.452   6.450  0.3154  0.3098  0.1242
 8525SOL    HW137211   4.438   0.388   6.385 -0.7481  2.4132 -1.5147
 8525SOL    HW237212   4.487   0.530   6.400 -1.6250  0.7679 -0.0509
 8526SOL     OW37213   4.105   2.893   2.511 -1.0075 -0.0693 -0.4066
 8526SOL    HW137214   4.062   2.842   2.443 -1.8223 -2.4639  1.9127
 8526SOL    HW237215   4.049   2.884   2.588 -1.6776 -0.4110 -0.9387
 8527SOL     OW37216   3.752   0.196   7.980 -0.3819  0.3948  0.0436
 8527SOL    HW137217   3.844   0.223   7.989  0.2462 -1.5995 -0.5823
 8527SOL    HW237218   3.743   0.156   8.066 -0.5481  0.8344  0.2311
 8528SOL     OW37219   3.422   3.664  12.588  0.0409 -0.8808  0.4978
 8528SOL    HW137220   3.374   3.610  12.525  0.5682 -0.6614 -0.0853
 8528SOL    HW237221   3.507   3.620  12.592  1.4874  1.9333  0.3510
 8529SOL     OW37222   1.489   4.505   1.182 -0.3410 -0.3903 -0.5124
 8529SOL    HW137223   1.574   4.482   1.219 -0.7931 -1.8138 -0.3811
 8529SOL    HW237224   1.462   4.420   1.147  0.5892 -1.0435  0.3626
 8530SOL     OW37225   3.368   0.036   6.228  0.6102 -0.0455  0.0242
 8530SOL    HW137226   3.436   4.709   6.200  1.2927 -0.1366  1.9194
 8530SOL    HW237227   3.356   0.074   6.141 -3.0677  0.2497  0.6240
 8531SOL     OW37228   2.984   1.796   3.901  0.0453  0.0186 -0.2545
 8531SOL    HW137229   3.071   1.812   3.938 -0.3684  1.5257  0.0687
 8531SOL    HW237230   2.939   1.798   3.986  1.7927  0.0185  0.6718
 8532SOL     OW37231   4.210   0.345  14.573 -0.2527 -0.0137 -0.4951
 8532SOL    HW137232   4.163   0.424  14.599 -0.5696  0.0934 -1.3995
 8532SOL    HW237233   4.255   0.388  14.501  1.4757 -1.5841 -0.3328
 8533SOL     OW37234   1.710   0.022   6.904  0.1240  0.0509 -0.3286
 8533SOL    HW137235   1.798   0.038   6.869 -0.5102  0.9466 -1.5378
 8533SOL    HW237236   1.652   0.044   6.831 -1.0084 -0.1122  0.5378
 8534SOL     OW37237   1.219   2.751   2.828  0.6991  0.3449 -0.5741
 8534SOL    HW137238   1.295   2.797   2.864 -0.5128  1.4472  0.5478
 8534SOL    HW237239   1.264   2.672   2.798 -0.9647 -0.2257 -1.5274
 8535SOL     OW37240   4.271   1.763   3.438 -0.2213  0.3987  0.0685
 8535SOL    HW137241   4.246   1.731   3.524 -0.9042 -0.2085 -0.3558
 8535SOL    HW237242   4.328   1.690   3.414 -0.7671  0.1625 -0.5301
 8536SOL     OW37243   3.686   2.098   1.555  0.6600  0.1117  0.1379
 8536SOL    HW137244   3.599   2.137   1.553  0.3897 -0.5338 -0.9525
 8536SOL    HW237245   3.692   2.068   1.646 -0.1086  0.9036  0.4425
 8537SOL     OW37246   3.081   0.872  11.823 -0.2559 -0.0165  0.0274
 8537SOL    HW137247   3.160   0.840  11.780  0.2040 -0.2778  1.0950
 8537SOL    HW237248   3.024   0.904  11.752 -0.4938  0.5841  0.4850
 8538SOL     OW37249   1.494   1.018   6.380  0.5349  0.1518 -0.3223
 8538SOL    HW137250   1.486   0.928   6.348 -1.7786 -0.1948  1.3060
 8538SOL    HW237251   1.425   1.026   6.445 -0.1441 -0.3495 -0.9900
 8539SOL     OW37252   4.525   3.217   6.597 -0.5428  0.1062  0.6520
 8539SOL    HW137253   4.445   3.189   6.553 -0.7344  1.7717 -0.0576
 8539SOL    HW237254   4.587   3.206   6.526  1.1436 -0.6415  2.2444
 8540SOL     OW37255   0.406   4.196   3.804 -0.2203  0.6994 -0.0153
 8540SOL    HW137256   0.342   4.258   3.770 -2.5835 -0.8146  1.7349
 8540SOL    HW237257   0.409   4.230   3.893  0.5268  0.6040 -0.0008
 8541SOL     OW37258   0.999   0.612   1.532  0.5156  0.2073 -0.3521
 8541SOL    HW137259   1.094   0.619   1.528  0.7730 -2.6225  1.2615
 8541SOL    HW237260   0.974   0.672   1.602 -2.2356  0.5125 -1.5967
 8542SOL     OW37261   3.414   1.096  16.036  0.0648 -0.2851  0.3425
 8542SOL    HW137262   3.473   1.169  16.016 -1.1518  0.1059 -1.7515
 8542SOL    HW237263   3.389   1.129  16.123  0.6430  0.3132  0.2849
 8543SOL     OW37264   4.229   1.684   3.687 -0.3166 -0.4988 -0.4243
 8543SOL    HW137265   4.197   1.621   3.752 -2.4612  1.0193  0.0176
 8543SOL    HW237266   4.307   1.721   3.729 -1.8487  0.6409  1.4266
 8544SOL     OW37267   3.748   3.438   7.404 -0.6368  0.1906 -0.2434
 8544SOL    HW137268   3.744   3.520   7.354 -0.5532 -0.6183 -1.5863
 8544SOL    HW237269   3.810   3.383   7.356  0.4570 -0.9524  2.5077
 8545SOL     OW37270   0.167   3.523  13.543 -0.0272  0.3239  0.5084
 8545SOL    HW137271   0.150   3.432  13.519 -0.0420  0.5886 -0.5181
 8545SOL    HW237272   0.087   3.565  13.513 -1.4441 -2.1646  0.8350
 8546SOL     OW37273   2.255   0.560  10.924 -0.6884 -0.3178  0.2786
 8546SOL    HW137274   2.349   0.552  10.907 -0.6765 -0.0945  0.2404
 8546SOL    HW237275   2.245   0.653  10.941 -2.5271 -0.9424  2.5022
 8547SOL     OW37276   0.915   2.963   8.266  0.4546  0.1023  0.7345
 8547SOL    HW137277   0.878   3.033   8.319  2.1928  1.4045  0.2503
 8547SOL    HW237278   0.995   3.004   8.232  0.2991 -3.0861 -3.6053
 8548SOL     OW37279   1.432   3.953   8.648  0.2908 -0.1084  0.3549
 8548SOL    HW137280   1.353   3.956   8.702 -0.2366  3.4408 -0.6158
 8548SOL    HW237281   1.464   4.044   8.652  0.0928 -0.0596  0.8101
 8549SOL     OW37282   3.696   4.262   5.479 -0.1562  0.7291 -0.2222
 8549SOL    HW137283   3.759   4.319   5.435  0.2703  1.7164  1.6615
 8549SOL    HW237284   3.626   4.322   5.503 -1.7910 -1.1897 -0.1929
 8550SOL     OW37285   2.651   1.043   2.340 -0.0784 -0.2013  0.0568
 8550SOL    HW137286   2.620   1.131   2.320 -0.1989 -0.0540  0.8813
 8550SOL    HW237287   2.576   0.990   2.315  0.0916 -0.3876 -0.0602
 8551SOL     OW37288   3.257   0.742   1.920  0.0948  0.3816  0.2334
 8551SOL    HW137289   3.230   0.689   1.845 -1.0250 -0.5658  1.2966
 8551SOL    HW237290   3.188   0.805   1.942 -0.6503 -1.3464  2.8183
 8552SOL     OW37291   4.178   3.319   6.280  0.0242  0.5674  0.3127
 8552SOL    HW137292   4.206   3.304   6.370  0.8691 -1.1494 -0.2347
 8552SOL    HW237293   4.264   3.334   6.242  0.6640  0.3153  1.6610
 8553SOL     OW37294   2.504   3.036  11.164  0.3176  0.3903  0.6186
 8553SOL    HW137295   2.534   2.945  11.158 -0.2766  0.0489  2.9464
 8553SOL    HW237296   2.560   3.072  11.095  2.1114 -1.8655  0.8866
 8554SOL     OW37297   0.074   4.362   9.247  0.0234  0.0331 -0.0707
 8554SOL    HW137298   0.084   4.345   9.153 -2.4898 -0.3456 -0.2733
 8554SOL    HW237299   0.104   4.281   9.287  1.4772  0.8395  0.4765
 8555SOL     OW37300   0.572   2.638   4.086 -0.9225  0.1476  0.2136
 8555SOL    HW137301   0.550   2.606   4.174  1.6780  1.8459  1.4663
 8555SOL    HW237302   0.663   2.615   4.065 -0.6436  0.5756  0.9865
 8556SOL     OW37303   1.887   1.441   1.184  0.2391  0.3093 -0.4633
 8556SOL    HW137304   1.805   1.429   1.233  1.3211 -2.8024  0.5869
 8556SOL    HW237305   1.841   1.469   1.105  0.6639 -0.9472 -1.1470
 8557SOL     OW37306   2.205   1.378   5.911  0.0050  0.6095  0.1287
 8557SOL    HW137307   2.203   1.377   6.006  0.2805  1.3248  0.1419
 8557SOL    HW237308   2.117   1.415   5.899 -0.1364 -0.5580 -2.4361
 8558SOL     OW37309   3.891   3.441   4.049 -0.2101  0.1259 -0.2143
 8558SOL    HW137310   3.919   3.431   3.958  0.7058  0.2523  0.0496
 8558SOL    HW237311   3.864   3.533   4.047  0.9756  0.4430 -1.7982
 8559SOL     OW37312   0.690   0.783   4.291 -0.5159  0.5156  0.1068
 8559SOL    HW137313   0.706   0.830   4.373  1.6292  0.7077 -0.4084
 8559SOL    HW237314   0.729   0.841   4.226  0.6117 -0.3864 -0.0142
 8560SOL     OW37315   3.376   1.523   6.744  0.4372 -0.1532  1.2626
 8560SOL    HW137316   3.295   1.563   6.776  1.3416  1.9182  0.9879
 8560SOL    HW237317   3.364   1.436   6.783  1.5412 -0.0770  1.7748
 8561SOL     OW37318   3.410   1.267   0.485  0.1310  0.4195  0.0530
 8561SOL    HW137319   3.316   1.282   0.498 -0.1256 -2.0871  1.0973
 8561SOL    HW237320   3.412   1.277   0.390  0.6768  1.6034  0.1970
 8562SOL     OW37321   0.784   3.537   5.385 -0.0459 -0.6647  0.3774
 8562SOL    HW137322   0.733   3.612   5.355  0.1236  0.1612  2.1449
 8562SOL    HW237323   0.767   3.470   5.319  0.9449  0.9638 -1.5030
 8563SOL     OW37324   2.897   4.542   2.050 -0.1265  0.4165 -0.7424
 8563SOL    HW137325   2.952   4.484   2.103 -1.1082  1.5462  1.5222
 8563SOL    HW237326   2.818   4.509   2.092 -0.7561  1.4668 -1.0942
 8564SOL     OW37327   4.448   0.623   6.142  0.5661  0.5112  0.4383
 8564SOL    HW137328   4.498   0.704   6.132  3.7504 -1.5175 -0.1607
 8564SOL    HW237329   4.424   0.613   6.050  2.2234  0.4714  0.0098
 8565SOL     OW37330   0.479   1.620  11.926  0.5189  0.1922  0.7982
 8565SOL    HW137331   0.559   1.598  11.878 -0.9270 -1.2382 -0.9350
 8565SOL    HW237332   0.455   1.704  11.887 -1.0349 -1.0175 -0.8231
 8566SOL     OW37333   2.926   2.579   7.445 -0.0400 -0.2887 -0.2169
 8566SOL    HW137334   2.861   2.514   7.419  2.4964 -2.3865 -1.3203
 8566SOL    HW237335   2.909   2.587   7.539  0.3499 -0.5350 -0.1257
 8567SOL     OW37336   2.054   3.554  11.062 -0.0638  0.0006  0.1319
 8567SOL    HW137337   2.144   3.573  11.035  0.4725 -2.3346  0.3056
 8567SOL    HW237338   2.047   3.475  11.009 -0.5038 -1.1469  1.8809
 8568SOL     OW37339   3.999   0.664   4.241  0.4705  0.6580 -0.2593
 8568SOL    HW137340   3.994   0.740   4.183 -3.5507 -1.0217 -2.1692
 8568SOL    HW237341   3.909   0.670   4.273  0.3856 -1.4431 -0.1448
 8569SOL     OW37342   2.110   4.415  16.521  0.4409  0.0804  0.3282
 8569SOL    HW137343   2.048   4.403  16.594  0.5207 -0.6653  0.2670
 8569SOL    HW237344   2.113   4.324  16.493  1.3076  0.0385  0.5778
 8570SOL     OW37345   3.777   0.500   8.990  0.1370 -0.6460  0.6159
 8570SOL    HW137346   3.779   0.419   9.042  0.9469 -0.7243  0.4556
 8570SOL    HW237347   3.869   0.513   8.967  0.1585 -0.4249  0.8264
 8571SOL     OW37348   3.283   3.985   4.112  0.0405  0.0171 -0.0731
 8571SOL    HW137349   3.361   3.952   4.068 -0.7605 -1.6547 -0.2289
 8571SOL    HW237350   3.250   3.903   4.148  0.6046 -0.4972 -0.7228
 8572SOL     OW37351   4.673   2.660   1.600  0.6208 -0.0021 -0.0146
 8572SOL    HW137352   4.689   2.708   1.519  0.1274 -0.0447 -0.1347
 8572SOL    HW237353   4.583   2.630   1.588  1.1787 -0.3262 -3.1745
 8573SOL     OW37354   1.978   0.383   8.123 -0.3503  0.2292 -0.4203
 8573SOL    HW137355   2.017   0.443   8.060  0.2770 -0.1727 -0.4167
 8573SOL    HW237356   1.926   0.323   8.070  0.3779 -0.7297 -0.0364
 8574SOL     OW37357   1.226   4.650   8.052 -0.2984  0.0227 -0.5737
 8574SOL    HW137358   1.193   4.633   8.140 -2.1629 -0.3912 -1.3542
 8574SOL    HW237359   1.260   4.565   8.025 -0.2806 -0.3321  0.5611
 8575SOL     OW37360   0.727   4.370   2.670 -0.0648 -0.0245  0.3296
 8575SOL    HW137361   0.738   4.402   2.580  2.1542  1.1406  1.0214
 8575SOL    HW237362   0.683   4.285   2.666  2.5403 -1.3375 -0.6081
 8576SOL     OW37363   2.212   2.944   8.963  0.7668 -0.0038  0.1819
 8576SOL    HW137364   2.163   2.941   9.045  0.0858 -1.9538 -0.2959
 8576SOL    HW237365   2.163   2.875   8.917  0.2984  0.0754  0.5704
 8577SOL     OW37366   3.965   4.502   4.265  0.7004  0.3898  0.0799
 8577SOL    HW137367   4.022   4.564   4.220  1.4556 -0.2289  0.1958
 8577SOL    HW237368   3.966   4.435   4.196 -0.2061  0.4264  0.0289
 8578SOL     OW37369   0.019   3.776  16.661  0.3449 -0.1165 -0.0545
 8578SOL    HW137370   0.096   3.776  16.719 -1.3934  0.7386  2.2325
 8578SOL    HW237371   4.727   3.686  16.677 -0.4144 -0.2052 -1.8864
 8579SOL     OW37372   0.953   1.268   0.550  0.2901 -0.3409 -0.2977
 8579SOL    HW137373   0.957   1.172   0.544  1.1911 -0.1975 -1.9759
 8579SOL    HW237374   0.927   1.293   0.462  0.8460  2.2159  0.2745
 8580SOL     OW37375   1.520   0.110   7.915  0.3404  0.0221 -0.0720
 8580SOL    HW137376   1.440   0.150   7.950 -0.2974 -0.5977 -0.8341
 8580SOL    HW237377   1.486   0.021   7.926  1.2449 -0.6085 -2.5546
 8581SOL     OW37378   0.340   2.479  16.257 -0.3651  0.2991 -0.7470
 8581SOL    HW137379   0.369   2.431  16.334  1.2090  1.5535 -0.5599
 8581SOL    HW237380   0.330   2.568  16.292  3.1450  0.8142 -1.0894
 8582SOL     OW37381   3.711   3.303   5.173  0.0658 -0.2251 -0.0813
 8582SOL    HW137382   3.752   3.380   5.212  0.0107  0.0082 -0.4858
 8582SOL    HW237383   3.715   3.323   5.080  0.7490  0.6368  0.1398
 8583SOL     OW37384   4.050   1.520   2.221  0.5262  0.7437 -0.4079
 8583SOL    HW137385   4.026   1.491   2.309  1.9078  0.7870 -0.0155
 8583SOL    HW237386   4.106   1.448   2.191 -1.1471 -0.2361 -1.1488
 8584SOL     OW37387   1.558   3.270   4.485 -0.4311  0.5800  0.3211
 8584SOL    HW137388   1.569   3.250   4.392 -0.6215  1.8497  0.0231
 8584SOL    HW237389   1.504   3.200   4.520  0.4380 -0.8588 -1.2258
 8585SOL     OW37390   1.409   4.262   5.997  0.1771  0.1758  0.0113
 8585SOL    HW137391   1.446   4.347   5.972 -0.5651  0.9292  1.4026
 8585SOL    HW237392   1.332   4.292   6.045  0.1927  0.0171  0.1346
 8586SOL     OW37393   4.679   4.068   5.973 -0.0462  0.0663 -0.5116
 8586SOL    HW137394   4.680   3.977   6.003 -0.9636  0.9337  2.0623
 8586SOL    HW237395   4.614   4.050   5.905 -1.0093  2.6816 -0.2577
 8587SOL     OW37396   2.332   4.537  12.350 -0.0915 -0.2318  0.0919
 8587SOL    HW137397   2.390   4.517  12.276 -0.3217  0.7759 -0.3623
 8587SOL    HW237398   2.396   4.564  12.417  2.2783 -3.1561 -0.9894
 8588SOL     OW37399   0.438   3.053   4.969 -0.2132  0.4790 -0.5784
 8588SOL    HW137400   0.375   3.103   4.917 -1.2521 -1.4747 -1.1872
 8588SOL    HW237401   0.498   3.036   4.897  0.2107 -0.1134 -0.0830
 8589SOL     OW37402   3.922   4.317   4.087  0.4747  0.0215 -0.4985
 8589SOL    HW137403   3.873   4.237   4.068  0.0016 -0.0152  0.8980
 8589SOL    HW237404   3.933   4.349   3.998 -1.6340  1.8661 -0.0858
 8590SOL     OW37405   1.970   3.953   8.614  0.3452 -0.3400  0.0710
 8590SOL    HW137406   2.029   3.880   8.635  0.2199 -0.6718 -0.7442
 8590SOL    HW237407   1.906   3.939   8.684  1.3838  0.2995  1.1645
 8591SOL     OW37408   0.843   3.185  10.428  0.4705 -0.0558  0.0521
 8591SOL    HW137409   0.883   3.224  10.506  0.1373  0.6982 -0.1537
 8591SOL    HW237410   0.844   3.090  10.439 -1.3068 -0.1253 -0.3533
 8592SOL     OW37411   1.003   3.123   8.897  0.2531  0.5056  0.8226
 8592SOL    HW137412   1.007   3.215   8.870 -0.9131 -0.2080 -1.7501
 8592SOL    HW237413   1.096   3.103   8.903 -0.2135 -1.2802  1.9988
 8593SOL     OW37414   1.268   0.670   1.532  0.2254  0.0434  0.1339
 8593SOL    HW137415   1.273   0.760   1.501 -1.4568  0.6370  1.5628
 8593SOL    HW237416   1.320   0.627   1.464 -0.3596 -0.5738  0.0728
 8594SOL     OW37417   4.325   2.571   2.553 -0.4790  0.1896  0.4543
 8594SOL    HW137418   4.263   2.499   2.542  1.1708 -0.9968 -1.0672
 8594SOL    HW237419   4.376   2.568   2.472  0.0297  0.6790  0.7560
 8595SOL     OW37420   0.919   0.298   8.308 -0.2386  0.1398  0.8410
 8595SOL    HW137421   0.849   0.363   8.306  0.4374  0.8307 -0.3262
 8595SOL    HW237422   0.979   0.331   8.241  0.9158 -1.7709  0.9321
 8596SOL     OW37423   3.267   4.680   6.611 -0.5084  0.3577 -0.0578
 8596SOL    HW137424   3.221   4.619   6.553  1.6200 -0.5321 -0.8128
 8596SOL    HW237425   3.243   0.027   6.568 -0.7850 -0.3548 -1.2830
 8597SOL     OW37426   2.135   3.924   9.295  0.2647 -0.2076  0.1937
 8597SOL    HW137427   2.130   4.007   9.248 -0.0217 -0.4937 -0.2944
 8597SOL    HW237428   2.053   3.891   9.255 -0.1083 -0.9352  1.5532
 8598SOL     OW37429   0.061   0.361  12.879 -0.0653 -0.3336 -0.6848
 8598SOL    HW137430   0.016   0.394  12.957  0.3882  0.6910 -0.8601
 8598SOL    HW237431   4.726   0.301  12.852 -0.8223  0.2210  0.0276
 8599SOL     OW37432   0.617   3.492   7.220  0.0695 -0.3996 -0.1576
 8599SOL    HW137433   0.557   3.417   7.213  1.3344 -1.4609  0.2284
 8599SOL    HW237434   0.547   3.555   7.204 -1.0741 -0.8437  3.0490
 8600SOL     OW37435   3.775   3.195  14.814 -0.4958 -0.0696 -0.1104
 8600SOL    HW137436   3.680   3.182  14.817 -0.5754  0.0967 -2.1005
 8600SOL    HW237437   3.795   3.220  14.905  0.4109  1.8197 -0.8281
 8601SOL     OW37438   3.597   2.813   2.358  0.0544 -0.4116  0.2372
 8601SOL    HW137439   3.641   2.745   2.408  1.4637 -0.5532 -1.2077
 8601SOL    HW237440   3.508   2.802   2.392  0.0328 -0.1010  0.2835
 8602SOL     OW37441   2.982   4.467  16.737  0.2944 -0.1795 -0.1276
 8602SOL    HW137442   3.044   4.507  16.676  0.7469 -1.1368 -0.2932
 8602SOL    HW237443   2.903   4.485  16.686  1.3341  3.2070 -0.5655
 8603SOL     OW37444   0.251   2.395   9.735  0.2731  0.2313 -0.4264
 8603SOL    HW137445   0.224   2.413   9.825  2.1782 -0.7365  0.3274
 8603SOL    HW237446   0.345   2.407   9.742  0.1517  0.4300  0.8437
 8604SOL     OW37447   1.341   0.332   5.728  0.1650 -1.0015  0.9044
 8604SOL    HW137448   1.346   0.237   5.730  1.4487 -0.9386  0.7851
 8604SOL    HW237449   1.400   0.349   5.802  1.6641  2.6016 -1.0977
 8605SOL     OW37450   3.436   4.438  16.141  0.1426 -0.2216  0.3697
 8605SOL    HW137451   3.524   4.475  16.148  0.4775 -0.3232 -3.2846
 8605SOL    HW237452   3.401   4.482  16.064 -2.0967  1.2139  2.2055
 8606SOL     OW37453   1.262   0.418  10.029  0.0592 -0.1917 -0.2020
 8606SOL    HW137454   1.308   0.417  10.113 -0.3874 -1.9465  0.0138
 8606SOL    HW237455   1.176   0.453  10.054  1.0056  1.0429  1.3901
 8607SOL     OW37456   1.546   0.462   3.136  0.6932  0.9688  0.3808
 8607SOL    HW137457   1.503   0.380   3.160  0.6147  1.3342  1.5037
 8607SOL    HW237458   1.471   0.521   3.129  1.1501  1.3894 -1.0897
 8608SOL     OW37459   0.903   0.014   8.274  0.0588  0.3335  0.4278
 8608SOL    HW137460   0.934   0.104   8.286  1.4502 -0.0332 -0.3760
 8608SOL    HW237461   0.980   4.704   8.309  0.7211  0.8803 -0.3422
 8609SOL     OW37462   4.187   1.609   7.148 -0.3695  0.5608  0.3446
 8609SOL    HW137463   4.233   1.574   7.072  2.1160 -0.9722  2.5631
 8609SOL    HW237464   4.103   1.575   7.118 -0.1937  1.4830 -1.1570
 8610SOL     OW37465   3.098   2.761  11.110  0.1067 -0.0408  0.0017
 8610SOL    HW137466   3.004   2.762  11.097  0.1388 -0.1010 -0.2413
 8610SOL    HW237467   3.118   2.854  11.098  0.6519 -0.2739 -0.9072
 8611SOL     OW37468   1.143   2.676   8.081 -0.1178 -0.1871 -0.3764
 8611SOL    HW137469   1.163   2.761   8.041  0.9688  0.2733  1.1216
 8611SOL    HW237470   1.221   2.625   8.057 -0.1727 -1.5365  2.2990
 8612SOL     OW37471   1.737   2.251   6.397  0.2651  0.5652  0.1521
 8612SOL    HW137472   1.789   2.309   6.342  0.7581 -0.2013 -0.1929
 8612SOL    HW237473   1.780   2.166   6.391  0.4495  0.8241 -2.3785
 8613SOL     OW37474   0.013   2.018   4.318  0.1618 -0.0632 -0.0504
 8613SOL    HW137475   0.092   2.005   4.371  0.4572 -1.7963 -0.8956
 8613SOL    HW237476   4.688   1.950   4.350 -3.0440  3.3386  1.2357
 8614SOL     OW37477   3.983   3.231  15.548 -0.4971  0.2833 -0.2954
 8614SOL    HW137478   4.075   3.253  15.533  0.2544 -2.1824  0.8740
 8614SOL    HW237479   3.938   3.275  15.475 -1.1577 -4.5069 -2.7380
 8615SOL     OW37480   3.162   3.944  15.443 -0.3201  0.1969  0.0996
 8615SOL    HW137481   3.198   3.939  15.354  0.9685  0.5356  0.5960
 8615SOL    HW237482   3.206   4.022  15.477  1.9329 -0.8001 -0.4924
 8616SOL     OW37483   2.471   2.049   7.030  0.2202  0.0751  0.2355
 8616SOL    HW137484   2.380   2.062   7.056  0.3380  1.5264 -0.0923
 8616SOL    HW237485   2.468   1.954   7.025 -0.8705  0.0679  1.0352
 8617SOL     OW37486   1.431   4.290   8.931 -0.4460  0.2742 -0.4005
 8617SOL    HW137487   1.440   4.333   9.016  1.5656  1.8415 -1.3978
 8617SOL    HW237488   1.434   4.199   8.960  1.8011  0.3586 -0.3803
 8618SOL     OW37489   1.641   1.063  13.427  0.3358  0.1052 -0.4972
 8618SOL    HW137490   1.724   1.056  13.474 -0.6040 -2.2748  0.8034
 8618SOL    HW237491   1.591   0.998  13.477 -0.0991  3.1386  2.9993
 8619SOL     OW37492   4.284   0.572   0.658  0.0991  0.2115 -0.4357
 8619SOL    HW137493   4.343   0.597   0.730  0.4459  1.9294 -1.3034
 8619SOL    HW237494   4.343   0.562   0.584 -0.7612  1.6475 -1.3149
 8620SOL     OW37495   0.922   0.305   3.275 -0.3538  0.1218 -0.6571
 8620SOL    HW137496   0.855   0.310   3.343 -1.4478 -2.0682 -1.5562
 8620SOL    HW237497   0.913   0.212   3.254 -0.5050  0.2228 -1.0383
 8621SOL     OW37498   3.623   4.436   7.468  0.6003  0.0401 -0.3705
 8621SOL    HW137499   3.560   4.467   7.403 -0.2126  0.1214  0.4668
 8621SOL    HW237500   3.695   4.495   7.447  1.2996 -0.7454 -0.2123
 8622SOL     OW37501   2.681   2.210   2.350 -0.0085  0.4517  0.4950
 8622SOL    HW137502   2.635   2.285   2.387 -1.7033 -0.3456  0.0335
 8622SOL    HW237503   2.736   2.261   2.290  0.4010  0.6179  1.0159
 8623SOL     OW37504   3.100   4.402  13.742 -0.2514 -0.3015  0.3615
 8623SOL    HW137505   3.139   4.487  13.758 -2.7040  0.8597  0.1310
 8623SOL    HW237506   3.075   4.415  13.651  0.4677  2.5037  0.5803
 8624SOL     OW37507   1.179   1.492   9.161  0.0811 -0.0550 -0.2104
 8624SOL    HW137508   1.143   1.542   9.088 -0.4729 -0.5352 -0.2670
 8624SOL    HW237509   1.188   1.409   9.113  0.3400  1.3064 -2.4963
 8625SOL     OW37510   4.351   2.708  12.078  0.1827  0.4426 -0.0501
 8625SOL    HW137511   4.266   2.732  12.039 -0.6305 -2.0068  0.1925
 8625SOL    HW237512   4.338   2.613  12.086  0.0574  0.4935  0.3691
 8626SOL     OW37513   0.168   2.060  10.466 -0.2787  1.0224 -0.2891
 8626SOL    HW137514   0.144   2.044  10.375  1.4217  3.0057 -1.0844
 8626SOL    HW237515   0.261   2.037  10.473  0.0998  1.9854 -2.1525
 8627SOL     OW37516   2.562   3.269  11.434 -0.2951  0.7171 -0.2256
 8627SOL    HW137517   2.591   3.181  11.459  3.7345  1.4791 -2.3440
 8627SOL    HW237518   2.532   3.300  11.519  2.0308  1.1733  0.4325
 8628SOL     OW37519   2.541   1.234   7.107 -0.1149 -0.1346  1.2165
 8628SOL    HW137520   2.465   1.198   7.061 -0.4621 -0.0909  1.7647
 8628SOL    HW237521   2.544   1.182   7.187  1.9245 -1.5470  0.2445
 8629SOL     OW37522   2.923   0.937   8.153  0.2224  0.2815  0.2632
 8629SOL    HW137523   2.983   0.899   8.218  0.1306 -1.1552 -0.4869
 8629SOL    HW237524   2.927   1.030   8.172 -1.8732  0.4208  0.0120
 8630SOL     OW37525   1.321   1.640   1.905 -0.0554  0.4457  0.3186
 8630SOL    HW137526   1.321   1.705   1.835 -1.2294  0.7341  0.5795
 8630SOL    HW237527   1.277   1.569   1.858 -1.2742  1.5474 -0.2043
 8631SOL     OW37528   2.340   0.150  15.723 -0.1111 -0.0725  0.3108
 8631SOL    HW137529   2.352   0.235  15.683  0.1740  0.5821  1.7818
 8631SOL    HW237530   2.415   0.137  15.780  0.2893  0.4399 -0.0999
 8632SOL     OW37531   2.494   3.807   9.563 -0.3821  1.5634  0.3295
 8632SOL    HW137532   2.421   3.865   9.542 -0.7944  0.8660 -0.1778
 8632SOL    HW237533   2.502   3.772   9.474 -0.6355 -1.5027  1.4998
 8633SOL     OW37534   0.353   1.609   5.027  0.1784 -0.0953 -0.0304
 8633SOL    HW137535   0.308   1.577   4.950 -1.0508  3.5438 -0.8259
 8633SOL    HW237536   0.335   1.702   5.015 -0.8767 -0.5398 -1.7462
 8634SOL     OW37537   2.958   4.396   5.852 -0.4824 -0.0495  0.0494
 8634SOL    HW137538   3.009   4.471   5.823 -1.4357  0.8839  0.7451
 8634SOL    HW237539   2.885   4.448   5.887 -1.2558 -0.3899 -1.0543
 8635SOL     OW37540   2.373   1.336  15.990 -0.5085  0.1573  0.4939
 8635SOL    HW137541   2.413   1.418  15.961 -0.8384 -0.0821 -0.6659
 8635SOL    HW237542   2.426   1.334  16.070 -1.2383 -0.7392  0.9531
 8636SOL     OW37543   2.395   3.106  14.476  0.6568  0.0058 -0.4570
 8636SOL    HW137544   2.410   3.116  14.382 -0.7002  0.5040 -0.6209
 8636SOL    HW237545   2.301   3.090  14.475  0.6167  0.3529 -1.7737
 8637SOL     OW37546   3.855   3.174   2.170 -0.1969 -0.2123  0.0326
 8637SOL    HW137547   3.784   3.220   2.213 -2.4542  0.1446 -4.0585
 8637SOL    HW237548   3.888   3.238   2.107  2.3002 -0.1230  1.4338
 8638SOL     OW37549   1.505   4.147  15.074  0.2057  0.0049  0.3626
 8638SOL    HW137550   1.473   4.126  15.162  0.3340 -0.7766  0.2281
 8638SOL    HW237551   1.462   4.232  15.066 -0.3089 -0.2604  0.2926
 8639SOL     OW37552   0.903   1.860   9.808  0.2087  0.4272  0.1670
 8639SOL    HW137553   0.836   1.825   9.749 -0.2480 -3.0926  2.7957
 8639SOL    HW237554   0.913   1.948   9.771 -4.9125  0.3875 -1.2026
 8640SOL     OW37555   0.224   4.592   3.124  1.0305 -0.3421 -0.6411
 8640SOL    HW137556   0.270   4.676   3.127 -0.3807  0.4055  0.4883
 8640SOL    HW237557   0.250   4.557   3.039  2.1084 -0.1471 -0.3885
 8641SOL     OW37558   4.482   3.859   5.304  0.2964 -0.1938  0.0795
 8641SOL    HW137559   4.458   3.860   5.397 -1.8394 -1.1462 -0.4715
 8641SOL    HW237560   4.397   3.857   5.259 -1.6649  0.4927  3.7316
 8642SOL     OW37561   2.844   3.306   5.710 -0.0217 -0.7058  0.5422
 8642SOL    HW137562   2.782   3.234   5.721  1.5505 -2.4603 -1.9487
 8642SOL    HW237563   2.838   3.323   5.615 -1.5207 -0.4398  0.6821
 8643SOL     OW37564   2.782   2.923   7.574 -0.0367  0.0415 -0.0796
 8643SOL    HW137565   2.779   2.828   7.586 -0.8603  0.0725 -0.0574
 8643SOL    HW237566   2.741   2.948   7.656  1.9624  1.5931  0.4393
 8644SOL     OW37567   0.346   1.161   9.387 -0.8074  1.0128 -0.6167
 8644SOL    HW137568   0.274   1.104   9.415  0.5482 -0.3911  0.0044
 8644SOL    HW237569   0.396   1.148   9.467  1.9472 -1.7048 -2.7465
 8645SOL     OW37570   2.291   1.908   7.733  0.1151  0.0908  0.0979
 8645SOL    HW137571   2.354   1.921   7.662  3.8377 -1.1989  3.1294
 8645SOL    HW237572   2.345   1.937   7.807 -0.6756 -0.7783  1.0182
 8646SOL     OW37573   1.303   2.615   4.482  0.1706  0.7760  0.0961
 8646SOL    HW137574   1.276   2.556   4.412  2.7919 -0.2843 -0.0127
 8646SOL    HW237575   1.237   2.607   4.551  2.4042 -2.6809  1.8195
 8647SOL     OW37576   1.308   2.473   6.164  0.2849 -0.0743 -0.2035
 8647SOL    HW137577   1.303   2.530   6.241 -0.2275  0.2703 -0.4907
 8647SOL    HW237578   1.371   2.411   6.200 -1.1663 -0.1487  2.2908
 8648SOL     OW37579   0.384   2.633   8.319  0.1149 -0.0396 -0.1488
 8648SOL    HW137580   0.479   2.639   8.326  0.2088  0.3872 -1.8270
 8648SOL    HW237581   0.357   2.711   8.271 -0.5729  0.9131  1.8036
 8649SOL     OW37582   4.548   1.928  12.319  0.1283  0.8258 -0.5499
 8649SOL    HW137583   4.592   1.963  12.242  0.7925  1.6425  0.1961
 8649SOL    HW237584   4.546   1.833  12.312  0.8303  0.9026 -1.7005
 8650SOL     OW37585   2.424   2.400   0.516  0.6938  0.4217  0.5252
 8650SOL    HW137586   2.403   2.479   0.468 -0.1027 -1.4865 -2.2937
 8650SOL    HW237587   2.419   2.324   0.458  1.0073 -0.0441  1.1012
 8651SOL     OW37588   2.468   4.116   9.766 -0.4317  0.0678 -0.1611
 8651SOL    HW137589   2.517   4.114   9.684  0.2313 -1.5657  0.2724
 8651SOL    HW237590   2.529   4.143   9.834  1.2326 -1.3451 -1.0805
 8652SOL     OW37591   2.291   1.541   6.785 -0.0142  1.0061 -0.0591
 8652SOL    HW137592   2.301   1.480   6.712  1.9585  2.2062 -0.7920
 8652SOL    HW237593   2.364   1.516   6.841 -0.0825  4.5136  1.5891
 8653SOL     OW37594   1.804   4.574   9.137 -0.3535  0.4059  0.0002
 8653SOL    HW137595   1.836   4.665   9.138  0.3104  0.1328  2.3157
 8653SOL    HW237596   1.737   4.576   9.069 -2.0207 -0.6370  1.6327
 8654SOL     OW37597   0.502   0.799   8.110 -0.4288  0.2293  0.3789
 8654SOL    HW137598   0.582   0.747   8.100 -0.5110 -0.2529  2.2988
 8654SOL    HW237599   0.449   0.754   8.044  0.6974 -0.1911 -0.2510
 8655SOL     OW37600   1.704   3.416   9.611  0.0823 -0.8103  0.9837
 8655SOL    HW137601   1.732   3.483   9.674  0.0296  1.2681 -1.1834
 8655SOL    HW237602   1.784   3.411   9.558  0.5387 -0.6708  1.6662
 8656SOL     OW37603   3.604   2.556   2.657 -0.2669 -0.5957 -0.3063
 8656SOL    HW137604   3.674   2.579   2.596  0.2918 -2.2899 -0.3072
 8656SOL    HW237605   3.623   2.462   2.668 -0.3129 -0.4078  1.4370
 8657SOL     OW37606   2.278   3.550   3.613  0.3902 -0.5150  0.5354
 8657SOL    HW137607   2.311   3.471   3.656 -1.5469 -2.0204 -0.7399
 8657SOL    HW237608   2.270   3.517   3.524  0.6839  0.8473  0.0027
 8658SOL     OW37609   3.152   1.921   2.255 -0.1536  0.1728 -0.0031
 8658SOL    HW137610   3.162   1.958   2.167  0.3485 -3.0663 -1.2942
 8658SOL    HW237611   3.066   1.879   2.249 -0.7332  1.0891  1.7135
 8659SOL     OW37612   1.538   4.568   7.875  0.6146 -0.3156  0.3877
 8659SOL    HW137613   1.470   4.501   7.883 -0.0220  0.2624 -0.2164
 8659SOL    HW237614   1.615   4.511   7.871 -0.1423 -1.2290 -0.9346
 8660SOL     OW37615   0.485   1.597   2.465  0.4459 -0.1193 -0.6403
 8660SOL    HW137616   0.559   1.633   2.515  1.6629 -0.3979 -2.2249
 8660SOL    HW237617   0.421   1.665   2.444 -0.4884 -0.4114  1.2654
 8661SOL     OW37618   0.497   2.932   0.723  0.7122  0.2000 -0.9746
 8661SOL    HW137619   0.565   2.985   0.683  0.7185  0.8064 -0.1584
 8661SOL    HW237620   0.548   2.851   0.727 -2.6414 -1.9395 -1.0232
 8662SOL     OW37621   3.400   0.434  13.971 -0.2063 -0.3187  0.5993
 8662SOL    HW137622   3.379   0.348  13.935 -2.7862  0.1787  0.9052
 8662SOL    HW237623   3.350   0.424  14.052  1.8428  0.7882  2.0066
 8663SOL     OW37624   2.013   1.211   1.281 -0.4128 -0.4976 -0.5463
 8663SOL    HW137625   1.969   1.295   1.288 -1.0241 -0.9103  0.5967
 8663SOL    HW237626   1.961   1.161   1.345 -2.3248  1.0724 -0.8659
 8664SOL     OW37627   3.533   0.664  12.384 -0.6139  0.1226 -0.2365
 8664SOL    HW137628   3.627   0.661  12.402 -0.9988 -1.5066  1.5173
 8664SOL    HW237629   3.518   0.742  12.330 -2.5909  0.1449  0.3564
 8665SOL     OW37630   2.817   0.561   1.874 -0.2232  0.1538  0.5171
 8665SOL    HW137631   2.728   0.585   1.900 -1.5990 -3.7282 -0.5730
 8665SOL    HW237632   2.824   0.536   1.782 -1.6310  2.2020 -0.1361
 8666SOL     OW37633   3.373   3.629   8.336 -0.0265  0.4866  0.3671
 8666SOL    HW137634   3.376   3.667   8.248  0.5436 -1.1116 -0.3073
 8666SOL    HW237635   3.465   3.626   8.361 -0.2372  2.4211  1.4073
 8667SOL     OW37636   0.592   3.531   9.371  1.0693 -0.1997  0.0000
 8667SOL    HW137637   0.601   3.499   9.461 -1.1965 -2.2464 -0.4894
 8667SOL    HW237638   0.632   3.460   9.320 -0.0496  0.2070 -1.4677
 8668SOL     OW37639   0.394   1.785  13.567 -0.5944  0.2047  0.5512
 8668SOL    HW137640   0.413   1.875  13.594  2.4217 -0.7101  1.4809
 8668SOL    HW237641   0.365   1.742  13.647  1.0263  0.1122  1.0758
 8669SOL     OW37642   4.539   2.017   6.126 -0.4654 -0.4621 -0.3022
 8669SOL    HW137643   4.593   1.938   6.121  1.1522  0.6831 -0.7809
 8669SOL    HW237644   4.577   2.076   6.061 -0.6898  0.4752  0.4274
 8670SOL     OW37645   1.303   2.295   7.647  0.0572 -0.0318  0.3662
 8670SOL    HW137646   1.378   2.240   7.627 -0.1529  0.2509 -1.2235
 8670SOL    HW237647   1.284   2.287   7.740  1.1961  0.3762  0.6286
 8671SOL     OW37648   3.432   4.479   5.986  0.3615  0.1809  0.6581
 8671SOL    HW137649   3.489   4.554   6.005 -0.7874  1.2961 -0.2659
 8671SOL    HW237650   3.384   4.468   6.068  1.5406 -2.3288  0.9860
 8672SOL     OW37651   3.331   2.702   3.012 -0.3112  0.9185 -0.1464
 8672SOL    HW137652   3.247   2.732   2.977 -0.0724  2.0429  0.2248
 8672SOL    HW237653   3.388   2.779   3.017  1.0657  0.0320 -2.0893
 8673SOL     OW37654   0.029   0.866   1.932 -0.0576  0.2416 -0.4863
 8673SOL    HW137655   4.668   0.862   1.940 -0.2770  1.0646 -2.7392
 8673SOL    HW237656   0.038   0.845   1.839 -0.2322  4.0782 -1.3843
 8674SOL     OW37657   2.802   0.884   6.339 -0.4276  0.1252  0.1718
 8674SOL    HW137658   2.861   0.848   6.405  1.7459  3.0993 -0.1125
 8674SOL    HW237659   2.723   0.834   6.356  1.2101 -1.5636  2.8492
 8675SOL     OW37660   0.600   0.370  11.247 -0.1654  0.0369  0.8783
 8675SOL    HW137661   0.689   0.366  11.213  0.0744 -0.4024  1.5621
 8675SOL    HW237662   0.599   0.461  11.278 -0.6360  0.2593  0.2105
 8676SOL     OW37663   1.538   0.905  12.643 -0.2682  0.0131 -0.0866
 8676SOL    HW137664   1.563   0.958  12.719  0.4105 -0.8218  0.2655
 8676SOL    HW237665   1.450   0.879  12.668 -0.5430  0.9897 -0.0244
 8677SOL     OW37666   0.814   1.925   7.359  0.4826  0.6977  0.0162
 8677SOL    HW137667   0.848   1.880   7.437 -0.6167 -3.2366 -1.7439
 8677SOL    HW237668   0.764   1.995   7.401  0.4987  0.8207 -0.1729
 8678SOL     OW37669   2.636   3.760   2.445 -0.6067 -0.3037  0.7161
 8678SOL    HW137670   2.624   3.675   2.488  0.1924  0.3539  2.2513
 8678SOL    HW237671   2.681   3.724   2.369  1.5800  1.4346  1.1861
 8679SOL     OW37672   1.270   0.655   7.274  0.0226  0.1604  0.6345
 8679SOL    HW137673   1.271   0.587   7.341 -0.3291 -1.7788 -1.3190
 8679SOL    HW237674   1.268   0.595   7.200  0.0963  1.2810 -0.2821
 8680SOL     OW37675   1.269   3.970   5.578  0.6119 -0.6833 -0.1787
 8680SOL    HW137676   1.201   4.026   5.541  1.1942  0.8332  1.0675
 8680SOL    HW237677   1.212   3.907   5.622 -0.0386  0.3087  0.3876
 8681SOL     OW37678   1.597   3.169   2.173  0.1942  0.5183  0.1110
 8681SOL    HW137679   1.560   3.158   2.261  2.2690 -0.9183  0.8023
 8681SOL    HW237680   1.587   3.079   2.142  0.9766  1.2967 -2.3665
 8682SOL     OW37681   4.111   0.176   3.745 -0.9147 -0.0297  0.0361
 8682SOL    HW137682   4.161   0.101   3.713  1.4621  0.9669  1.3945
 8682SOL    HW237683   4.097   0.139   3.832 -1.6966  0.6577  0.2016
 8683SOL     OW37684   1.451   4.451   2.563  0.3578  0.0703 -0.7320
 8683SOL    HW137685   1.538   4.411   2.566  1.0257  1.3900 -2.2811
 8683SOL    HW237686   1.431   4.424   2.473  1.4227 -0.3845 -0.8293
 8684SOL     OW37687   0.096   0.367   5.397  0.1166  0.1229  0.1672
 8684SOL    HW137688   0.028   0.326   5.344  0.3439 -0.7840  0.5707
 8684SOL    HW237689   0.127   0.292   5.448  1.1891 -0.0932 -0.8087
 8685SOL     OW37690   1.515   1.990   9.378 -0.2081 -0.0040  0.0142
 8685SOL    HW137691   1.488   2.006   9.288 -0.8124  1.9808  0.5442
 8685SOL    HW237692   1.452   2.047   9.422 -0.4283 -1.3320  1.4694
 8686SOL     OW37693   3.205   3.417   1.150  0.5558  0.2896  0.0775
 8686SOL    HW137694   3.146   3.444   1.080 -0.8368 -0.1154  1.1042
 8686SOL    HW237695   3.289   3.454   1.123 -0.4224  1.5138 -1.2701
 8687SOL     OW37696   2.304   3.031  15.475 -0.1123  0.2733 -0.4028
 8687SOL    HW137697   2.367   3.041  15.404 -1.0375  0.6781 -1.1656
 8687SOL    HW237698   2.253   3.112  15.467  0.3782  0.8039  1.7609
 8688SOL     OW37699   2.819   0.317   3.133 -0.2360  0.1074  0.2511
 8688SOL    HW137700   2.812   0.296   3.040 -0.1677  0.7249  0.1071
 8688SOL    HW237701   2.819   0.412   3.131 -0.9142  0.0916 -0.2780
 8689SOL     OW37702   3.509   0.730  17.105 -0.1164  0.1921 -0.3743
 8689SOL    HW137703   3.581   0.693  17.155 -0.3255  0.0293 -0.1903
 8689SOL    HW237704   3.484   0.653  17.053  2.5825 -2.0618  1.6215
 8690SOL     OW37705   4.152   2.344  11.864 -0.1619  0.3232 -0.5715
 8690SOL    HW137706   4.145   2.429  11.906 -0.8949 -0.0362  0.0258
 8690SOL    HW237707   4.209   2.293  11.922  0.2378  1.6001  0.1442
 8691SOL     OW37708   2.213   1.600   9.857 -0.8379  0.3197  0.2444
 8691SOL    HW137709   2.300   1.628   9.884 -1.5092  1.0943  1.5749
 8691SOL    HW237710   2.219   1.600   9.761 -1.7503 -3.0388  0.1682
 8692SOL     OW37711   1.041   1.425  11.397  0.1799 -0.3320 -0.2540
 8692SOL    HW137712   1.091   1.441  11.477 -2.2850  1.0043  1.0018
 8692SOL    HW237713   1.075   1.337  11.380  1.2665  0.6635 -3.1851
 8693SOL     OW37714   0.282   3.997   5.425 -0.4623  1.0512  0.5045
 8693SOL    HW137715   0.207   4.023   5.479 -1.7328 -0.0373 -0.7439
 8693SOL    HW237716   0.303   3.911   5.463  1.1353  1.8595  1.4689
 8694SOL     OW37717   0.199   1.134  10.883  0.5937  0.4580 -0.1126
 8694SOL    HW137718   0.239   1.052  10.910  0.4470  0.0049 -1.2582
 8694SOL    HW237719   0.106   1.114  10.891  0.6292 -0.6060 -2.5506
 8695SOL     OW37720   0.365   1.362  10.800 -0.0715 -0.2279  0.3468
 8695SOL    HW137721   0.313   1.284  10.818 -1.0057  0.0041 -1.3269
 8695SOL    HW237722   0.292   1.404  10.753  0.6739  2.3258  1.4659
 8696SOL     OW37723   1.027   0.097   3.834 -0.4491 -0.2278  0.1938
 8696SOL    HW137724   0.980   0.013   3.832  0.7310 -0.9177  1.2329
 8696SOL    HW237725   1.008   0.118   3.743 -0.2925 -2.5955 -0.3995
 8697SOL     OW37726   4.210   0.271   6.351 -0.1492  0.1305 -0.5988
 8697SOL    HW137727   4.161   0.202   6.307  2.8168 -1.5839 -1.1924
 8697SOL    HW237728   4.294   0.259   6.308 -0.4817 -0.4374 -1.0803
 8698SOL     OW37729   2.143   0.052  13.239 -0.1892  0.7205 -0.0916
 8698SOL    HW137730   2.116   4.718  13.179  1.0972 -3.2544  3.8638
 8698SOL    HW237731   2.184   0.005  13.312 -1.7348 -3.0860 -1.7243
 8699SOL     OW37732   4.460   4.263   7.103  0.2305  0.3710  0.1853
 8699SOL    HW137733   4.446   4.358   7.103  1.8338  0.6177  1.4689
 8699SOL    HW237734   4.383   4.248   7.157  1.4051 -0.5416  1.6234
 8700SOL     OW37735   2.498   4.397   5.458  0.4117 -0.1344 -0.1918
 8700SOL    HW137736   2.438   4.385   5.532 -0.7719  0.4379 -1.0676
 8700SOL    HW237737   2.570   4.340   5.484  0.1436 -0.4864 -0.2136
 8701SOL     OW37738   4.484   0.309   9.523  0.3500  0.4675  0.7603
 8701SOL    HW137739   4.444   0.355   9.449 -0.6303 -2.6661 -0.6767
 8701SOL    HW237740   4.473   0.372   9.593 -1.7058  0.2324  0.6513
 8702SOL     OW37741   2.282   0.956   6.105 -0.5886  0.0795  0.1229
 8702SOL    HW137742   2.256   1.015   6.034  1.8982  2.6967  1.4181
 8702SOL    HW237743   2.378   0.958   6.096 -0.5198 -0.2961  0.7813
 8703SOL     OW37744   4.529   0.504  11.011  0.3181 -0.1934 -0.9988
 8703SOL    HW137745   4.479   0.557  10.950  1.4640  2.3877  0.3167
 8703SOL    HW237746   4.483   0.420  11.012  1.9002 -1.0629 -0.5392
 8704SOL     OW37747   1.176   0.597   4.298 -0.5093 -0.0150  0.2357
 8704SOL    HW137748   1.267   0.573   4.312 -0.4353 -1.0375 -1.9386
 8704SOL    HW237749   1.182   0.670   4.235  1.4798 -0.7945 -0.4769
 8705SOL     OW37750   2.483   2.866   2.483  0.1839 -0.0881 -0.2055
 8705SOL    HW137751   2.447   2.897   2.400  1.3894  1.8226 -0.0085
 8705SOL    HW237752   2.481   2.947   2.534  1.5800  0.7137 -1.4391
 8706SOL     OW37753   3.838   0.507   2.472  0.2165  0.2442  0.5962
 8706SOL    HW137754   3.760   0.473   2.516 -0.0865  1.7813  1.2461
 8706SOL    HW237755   3.880   0.552   2.545  1.9653 -1.1510  0.4647
 8707SOL     OW37756   1.091   1.881   8.577  0.2163  0.8519 -0.2319
 8707SOL    HW137757   1.042   1.894   8.658  2.1747 -0.6502  1.1972
 8707SOL    HW237758   1.182   1.896   8.603  0.8845  0.7799 -2.5058
 8708SOL     OW37759   0.736   2.001   6.256  0.4115 -0.0441 -0.1721
 8708SOL    HW137760   0.654   2.014   6.208  0.3564 -1.4803 -0.4634
 8708SOL    HW237761   0.766   1.922   6.212  2.1288 -0.4931  1.8541
 8709SOL     OW37762   2.786   3.096   9.790 -0.4878 -0.9265  0.0235
 8709SOL    HW137763   2.711   3.037   9.785 -1.4930  0.2211  1.3188
 8709SOL    HW237764   2.746   3.172   9.747  0.6552 -1.0849 -1.3130
 8710SOL     OW37765   0.497   2.473   8.128  0.2862  0.6237  0.3162
 8710SOL    HW137766   0.464   2.541   8.187 -1.0396  0.7167 -0.5318
 8710SOL    HW237767   0.428   2.476   8.062 -0.6264  1.5713  1.3199
 8711SOL     OW37768   3.336   0.742   8.793  0.0659 -0.0116 -0.1928
 8711SOL    HW137769   3.305   0.745   8.702  0.6138  0.9892 -0.3508
 8711SOL    HW237770   3.372   0.831   8.802  0.6690 -0.2363 -0.4054
 8712SOL     OW37771   4.688   3.167  11.402 -0.7303 -0.4627 -0.1797
 8712SOL    HW137772   4.681   3.178  11.307 -1.7684  1.1368  0.0674
 8712SOL    HW237773   0.010   3.090  11.404  1.5841  1.2183 -0.7139
 8713SOL     OW37774   2.808   2.888   6.794 -0.7614  0.5133 -0.0631
 8713SOL    HW137775   2.821   2.974   6.834 -0.3717  0.0879  0.7148
 8713SOL    HW237776   2.743   2.907   6.727 -0.5630  0.1197 -0.3722
 8714SOL     OW37777   2.929   1.329   2.165  0.6607 -0.4907 -0.3111
 8714SOL    HW137778   2.898   1.400   2.221  2.7946 -0.5920  1.0099
 8714SOL    HW237779   2.933   1.369   2.078 -0.2112  0.5251  0.1243
 8715SOL     OW37780   1.585   0.588   1.725 -0.1233  0.2819  0.3003
 8715SOL    HW137781   1.591   0.538   1.806  2.3219 -0.5057 -0.3785
 8715SOL    HW237782   1.563   0.674   1.760 -0.3126  0.4205 -0.1521
 8716SOL     OW37783   4.290   1.175   3.464  0.2786 -0.3350  0.4571
 8716SOL    HW137784   4.246   1.162   3.380  0.0651  0.3649  0.4592
 8716SOL    HW237785   4.245   1.248   3.507  2.1921  0.1441  1.6504
 8717SOL     OW37786   0.792   2.581   2.392  0.3563  0.1722  0.3205
 8717SOL    HW137787   0.854   2.550   2.326  0.0500  0.9314 -0.3253
 8717SOL    HW237788   0.712   2.555   2.347  0.3827  0.3282  0.1799
 8718SOL     OW37789   0.367   0.161   9.755 -0.3772  0.2467  0.5280
 8718SOL    HW137790   0.457   0.156   9.723 -0.4139 -1.5261  0.6928
 8718SOL    HW237791   0.322   0.193   9.676  0.9433 -0.7364 -0.6194
 8719SOL     OW37792   4.263   3.696   6.677  0.4305 -0.4897  0.0987
 8719SOL    HW137793   4.236   3.766   6.617 -1.2604  1.5077  3.2228
 8719SOL    HW237794   4.197   3.703   6.745  0.9123  0.2703  0.4819
 8720SOL     OW37795   4.054   1.660   7.989 -0.5116 -0.0515  0.3161
 8720SOL    HW137796   3.989   1.625   7.928 -1.1316 -0.3025  1.1221
 8720SOL    HW237797   4.013   1.631   8.071 -1.5142  1.7648  0.4593
 8721SOL     OW37798   0.249   1.226   6.988 -0.1231  0.1745 -0.4207
 8721SOL    HW137799   0.239   1.168   7.064  0.4566 -1.4196 -1.5475
 8721SOL    HW237800   0.249   1.155   6.923 -0.5445 -0.9115  0.7598
 8722SOL     OW37801   4.086   3.409  14.287  0.1210 -0.0380 -0.3481
 8722SOL    HW137802   4.023   3.459  14.339  1.5063 -0.0075  1.2959
 8722SOL    HW237803   4.143   3.393  14.362 -1.8101 -3.2537  0.4538
 8723SOL     OW37804   2.988   2.627  16.258 -0.0277 -1.1176 -0.6885
 8723SOL    HW137805   3.028   2.701  16.304 -1.8612  0.6524 -1.9253
 8723SOL    HW237806   2.917   2.677  16.217 -0.3770  0.6982  2.1094
 8724SOL     OW37807   3.863   4.515  12.042  0.5370  0.2234 -0.2881
 8724SOL    HW137808   3.841   4.422  12.049 -1.2393  0.5486 -1.4361
 8724SOL    HW237809   3.905   4.512  11.957  2.4237  1.7864  0.6004
 8725SOL     OW37810   3.823   4.223  12.021 -0.2734  0.2552 -0.0138
 8725SOL    HW137811   3.770   4.145  12.038 -0.4677 -0.1515 -2.5476
 8725SOL    HW237812   3.804   4.236  11.928  1.3518 -0.0213 -0.3831
 8726SOL     OW37813   2.307   0.089  14.766 -0.5549  0.4438 -0.3867
 8726SOL    HW137814   2.402   0.087  14.777 -0.3780 -0.1810 -2.1513
 8726SOL    HW237815   2.290   0.171  14.811  1.9892  0.0091  1.4165
 8727SOL     OW37816   0.743   1.214   5.251  0.0558  0.1111 -0.0214
 8727SOL    HW137817   0.655   1.237   5.223  0.4097  0.6744 -0.6765
 8727SOL    HW237818   0.763   1.286   5.312 -0.1316  0.9904 -1.0011
 8728SOL     OW37819   1.067   3.808   2.066 -0.3254  0.1829  0.4167
 8728SOL    HW137820   1.106   3.721   2.054  0.0377  0.5613 -1.2506
 8728SOL    HW237821   1.094   3.817   2.157 -0.0607 -1.2454  0.4810
 8729SOL     OW37822   3.680   2.090  13.200 -0.0814 -0.7236 -0.4163
 8729SOL    HW137823   3.752   2.031  13.220  1.7078  1.8448  0.7473
 8729SOL    HW237824   3.688   2.093  13.104  0.8004 -1.5720 -0.3695
 8730SOL     OW37825   1.089   3.543  10.763 -0.6850  0.0348  0.3521
 8730SOL    HW137826   1.008   3.523  10.809  0.9417 -1.8374  2.3637
 8730SOL    HW237827   1.053   3.624  10.726 -2.2114 -0.9616 -0.3062
 8731SOL     OW37828   1.945   2.959   1.132  0.1642 -0.4856 -0.3457
 8731SOL    HW137829   2.035   2.933   1.152 -0.3350 -2.1153 -0.2758
 8731SOL    HW237830   1.966   3.052   1.144 -0.6477 -0.5255  1.3523
 8732SOL     OW37831   1.074   3.979   5.251  0.7265 -1.2374  0.4380
 8732SOL    HW137832   1.063   4.060   5.302  1.3948 -0.8582 -0.0248
 8732SOL    HW237833   1.030   3.918   5.311  0.1306 -1.1084  0.1355
 8733SOL     OW37834   3.417   4.039   2.256 -0.2752 -0.6065  0.1230
 8733SOL    HW137835   3.332   4.040   2.300  0.1970  0.3512  1.0215
 8733SOL    HW237836   3.389   4.016   2.168 -1.5628 -2.4197  0.9998
 8734SOL     OW37837   1.281   0.753  11.629  0.3055  0.3422 -0.2389
 8734SOL    HW137838   1.254   0.817  11.695  3.3219 -0.2305  1.5234
 8734SOL    HW237839   1.199   0.721  11.592  0.3434  0.7700 -0.7050
 8735SOL     OW37840   3.321   4.582   4.392  0.2217  0.8786 -0.2796
 8735SOL    HW137841   3.319   4.660   4.447 -4.3415  0.3368  0.3213
 8735SOL    HW237842   3.338   4.621   4.306 -0.9909  2.0288 -0.0004
 8736SOL     OW37843   1.876   2.429  15.387 -0.2300 -0.0602  0.7240
 8736SOL    HW137844   1.932   2.353  15.405  0.5280  0.5924  1.1195
 8736SOL    HW237845   1.924   2.503  15.425 -0.0725  0.8290 -1.2291
 8737SOL     OW37846   1.178   2.883  16.819  0.0752 -0.0966  0.0954
 8737SOL    HW137847   1.162   2.803  16.770 -0.7525 -0.0044  0.1998
 8737SOL    HW237848   1.090   2.906  16.850 -0.0039  0.1691 -0.3245
 8738SOL     OW37849   1.711   1.874  11.558  0.0981  0.8362  0.0526
 8738SOL    HW137850   1.683   1.935  11.627 -0.6180 -0.8182  1.2375
 8738SOL    HW237851   1.762   1.809  11.606  0.1630  1.7952  1.2731
 8739SOL     OW37852   0.292   3.365   0.798 -0.2898 -0.0282 -0.2622
 8739SOL    HW137853   0.298   3.436   0.733 -0.1558 -1.1111 -1.4206
 8739SOL    HW237854   0.340   3.293   0.758 -0.6442  0.8197 -2.1998
 8740SOL     OW37855   2.889   2.531   6.141 -0.2243 -0.3493 -0.1570
 8740SOL    HW137856   2.886   2.437   6.125 -1.3200 -0.2923 -0.2956
 8740SOL    HW237857   2.808   2.519   6.190 -1.1710  2.3489 -1.0737
 8741SOL     OW37858   3.429   4.139  14.758 -0.1180 -0.5190  0.1796
 8741SOL    HW137859   3.448   4.118  14.850  1.0785  1.1992  0.3195
 8741SOL    HW237860   3.339   4.172  14.756  0.3116  0.5912 -0.6890
 8742SOL     OW37861   0.956   2.136   3.666 -1.2110 -0.3984  0.0831
 8742SOL    HW137862   0.975   2.213   3.613  0.8863 -0.3045  0.9424
 8742SOL    HW237863   0.929   2.084   3.591 -2.4760  1.0923 -0.4741
 8743SOL     OW37864   3.725   4.180   7.334 -0.5248  0.3798 -0.4873
 8743SOL    HW137865   3.787   4.172   7.406 -1.3205 -0.5046  0.1120
 8743SOL    HW237866   3.685   4.264   7.357  0.5736  0.4442  1.1689
 8744SOL     OW37867   0.519   0.713   2.813 -0.0456  0.1964  0.0089
 8744SOL    HW137868   0.533   0.795   2.766  2.4881  0.2967  0.9150
 8744SOL    HW237869   0.435   0.691   2.773  0.3451  1.6870 -1.6439
 8745SOL     OW37870   4.704   0.345   2.971 -0.1313  0.0634  0.1590
 8745SOL    HW137871   0.018   0.349   2.888 -2.1737  0.0554 -1.0291
 8745SOL    HW237872   0.024   0.284   3.021  0.2028 -0.2388 -0.5741
 8746SOL     OW37873   3.541   1.952  14.171  0.2965 -0.4057 -0.2798
 8746SOL    HW137874   3.475   1.990  14.113 -1.0723  0.1003  1.5952
 8746SOL    HW237875   3.508   1.998  14.248 -0.0052  1.0419 -1.2729
 8747SOL     OW37876   3.461   3.763   5.663 -0.4516 -0.2077  0.3899
 8747SOL    HW137877   3.456   3.667   5.654  0.8931 -0.3085  0.6663
 8747SOL    HW237878   3.396   3.789   5.598  0.1481  0.7519  0.1854
 8748SOL     OW37879   2.935   1.762   5.458 -0.0892 -0.5741  0.8627
 8748SOL    HW137880   2.904   1.781   5.370  0.3290  2.3122  1.3450
 8748SOL    HW237881   2.857   1.739   5.508 -0.1069  0.5109  1.3298
 8749SOL     OW37882   4.293   1.649   2.182  0.2161  0.1715 -0.1514
 8749SOL    HW137883   4.239   1.592   2.236 -1.2450  2.0624  0.3897
 8749SOL    HW237884   4.255   1.653   2.094 -1.7669  1.6331  0.7614
 8750SOL     OW37885   4.585   2.448   8.544  0.4611 -0.3605  0.4404
 8750SOL    HW137886   4.628   2.389   8.482 -0.4849 -0.2838 -0.2743
 8750SOL    HW237887   4.629   2.420   8.625  1.0093  4.3587  1.7869
 8751SOL     OW37888   3.053   1.366   2.877 -0.1134 -0.1495 -0.3145
 8751SOL    HW137889   3.021   1.332   2.961 -1.9463  0.8377 -0.6334
 8751SOL    HW237890   3.115   1.428   2.914  0.7592 -0.4542 -1.2594
 8752SOL     OW37891   4.302   3.595  15.204 -0.4267  0.2385  0.2443
 8752SOL    HW137892   4.363   3.597  15.131  1.5407  1.9405  1.9241
 8752SOL    HW237893   4.364   3.593  15.277 -0.1758  0.2343  0.0287
 8753SOL     OW37894   0.364   4.356  12.873 -0.1350  0.0680  0.0760
 8753SOL    HW137895   0.342   4.448  12.859 -1.1033 -0.1835 -0.0316
 8753SOL    HW237896   0.379   4.338  12.781  0.7401 -1.4855  0.5219
 8754SOL     OW37897   4.184   4.668   2.340  0.3694 -0.3009 -0.2683
 8754SOL    HW137898   4.213   4.585   2.377  1.8276 -0.2021 -1.2113
 8754SOL    HW237899   4.199   4.662   2.246  0.5956 -2.4225 -0.1006
 8755SOL     OW37900   0.039   4.256   6.562 -0.3151  0.0808 -0.3155
 8755SOL    HW137901   0.064   4.253   6.655  0.4400 -1.7226 -0.5698
 8755SOL    HW237902   4.690   4.208   6.558 -0.6042  0.6064 -0.4828
 8756SOL     OW37903   1.221   2.751   3.783 -0.0214 -0.0981  0.3861
 8756SOL    HW137904   1.191   2.665   3.753 -2.7911  0.6623  0.9179
 8756SOL    HW237905   1.305   2.759   3.739 -0.7546  1.3409 -0.7881
 8757SOL     OW37906   0.855   3.059  15.691 -0.3651 -0.3686  0.3598
 8757SOL    HW137907   0.788   3.103  15.638  0.2943 -0.7487 -0.7873
 8757SOL    HW237908   0.825   3.084  15.778  0.4319 -0.8456  0.7679
 8758SOL     OW37909   0.292   0.830  17.421 -0.4252  0.0677  0.1853
 8758SOL    HW137910   0.371   0.855  17.372  0.5308  1.4284  2.4397
 8758SOL    HW237911   0.227   0.884  17.376 -1.4758 -0.8977  0.5510
 8759SOL     OW37912   1.407   1.215   5.089  0.3955  0.0897  0.2030
 8759SOL    HW137913   1.370   1.248   5.171  0.4103 -1.7286  0.9539
 8759SOL    HW237914   1.331   1.230   5.032 -1.4348  1.1979  2.9403
 8760SOL     OW37915   0.170   1.000  16.533  0.6188  0.0212  0.6502
 8760SOL    HW137916   0.145   1.047  16.453 -0.3387 -1.5983 -0.0030
 8760SOL    HW237917   0.103   0.934  16.547  1.1819 -1.4400 -3.5693
 8761SOL     OW37918   0.158   1.272   2.059  0.7019  0.0561  0.0848
 8761SOL    HW137919   0.170   1.335   1.987 -0.5795  0.0388 -0.1401
 8761SOL    HW237920   0.082   1.229   2.021 -1.1916  0.9812  2.8017
 8762SOL     OW37921   4.182   3.313   1.303 -0.4122 -0.1418 -0.2132
 8762SOL    HW137922   4.139   3.346   1.382  0.8148  0.1485  0.3470
 8762SOL    HW237923   4.116   3.257   1.263 -1.6057  0.5069  0.8605
 8763SOL     OW37924   4.203   2.674  17.397 -0.4455 -0.0513 -0.0182
 8763SOL    HW137925   4.194   2.587  17.360  0.7309 -0.0597 -0.2945
 8763SOL    HW237926   4.121   2.661  17.444 -1.0499  0.6597 -0.8701
 8764SOL     OW37927   4.303   1.072   7.634  0.4768  0.2701 -0.2918
 8764SOL    HW137928   4.252   1.133   7.581  0.2791 -0.9191 -1.4698
 8764SOL    HW237929   4.233   1.012   7.659  1.4402 -1.2602 -1.2717
 8765SOL     OW37930   1.300   2.218   2.410  0.4998 -0.5928  0.2497
 8765SOL    HW137931   1.262   2.162   2.343 -0.1245  0.6940 -0.4692
 8765SOL    HW237932   1.374   2.263   2.368 -1.2609  2.6997  0.6408
 8766SOL     OW37933   3.421   3.796   6.222 -0.0202  0.2272  0.3645
 8766SOL    HW137934   3.449   3.762   6.137 -0.3357  2.4556 -0.6367
 8766SOL    HW237935   3.424   3.718   6.278 -0.0237 -0.2509 -0.3014
 8767SOL     OW37936   2.871   4.657  12.502 -0.1182 -0.6294  0.4906
 8767SOL    HW137937   2.960   4.669  12.535  0.6368 -0.2908 -1.6805
 8767SOL    HW237938   2.823   4.725  12.549 -1.6853 -3.6942  3.3296
 8768SOL     OW37939   3.055   3.294  14.784  0.2178  0.1032  0.1449
 8768SOL    HW137940   3.111   3.229  14.741  0.5668  0.2366  0.3989
 8768SOL    HW237941   2.970   3.271  14.746 -0.2168 -0.9741  1.7497
 8769SOL     OW37942   0.317   0.279   9.530  0.0889  0.1047  0.2428
 8769SOL    HW137943   0.335   0.197   9.485  1.2327  0.9129 -0.7657
 8769SOL    HW237944   0.327   0.347   9.463 -2.6926 -0.0521 -0.3522
 8770SOL     OW37945   4.163   1.363   3.574 -0.2637 -0.3917  0.2323
 8770SOL    HW137946   4.099   1.433   3.561 -0.9407 -0.9752  0.4739
 8770SOL    HW237947   4.122   1.316   3.647 -1.5988 -0.5480 -0.6345
 8771SOL     OW37948   3.904   1.961   2.282  0.3201 -0.0911  0.5690
 8771SOL    HW137949   3.932   1.923   2.199  0.9337  3.5181 -0.8412
 8771SOL    HW237950   3.968   2.031   2.286 -0.0599  0.4154 -2.4235
 8772SOL     OW37951   2.926   1.262  15.991 -0.3173  0.6747  0.7497
 8772SOL    HW137952   2.898   1.276  16.082  0.7095  1.2033  0.9833
 8772SOL    HW237953   2.961   1.174  16.001  0.6913  1.0732  0.7209
 8773SOL     OW37954   1.580   1.832   7.614 -0.9428  0.4894  0.1098
 8773SOL    HW137955   1.490   1.818   7.642 -0.8603  0.2999  0.2899
 8773SOL    HW237956   1.630   1.793   7.686 -2.3965  2.2529  2.0698
 8774SOL     OW37957   1.875   2.993   3.982 -0.0262 -0.4666  0.5250
 8774SOL    HW137958   1.904   3.083   3.988 -1.1829  0.0323 -1.5735
 8774SOL    HW237959   1.949   2.954   3.936 -0.2701 -1.2856  0.8184
 8775SOL     OW37960   4.382   3.366   7.077 -0.4147 -0.5748  0.1672
 8775SOL    HW137961   4.417   3.376   6.989  0.0353  1.1577  0.5376
 8775SOL    HW237962   4.466   3.355   7.122 -0.5276 -0.2155  0.4725
 8776SOL     OW37963   4.355   1.529   1.630  1.1469  0.3761  0.2328
 8776SOL    HW137964   4.388   1.511   1.542  2.5132  0.8933  0.6463
 8776SOL    HW237965   4.377   1.447   1.672 -3.2265 -0.9718 -0.1176
 8777SOL     OW37966   2.356   3.822   6.317 -0.7635 -0.2928  0.1959
 8777SOL    HW137967   2.382   3.730   6.315  0.1406 -0.0467  0.5292
 8777SOL    HW237968   2.414   3.866   6.255 -0.3171 -0.8752  0.1921
 8778SOL     OW37969   1.614   0.354  11.720 -0.3694 -0.3618 -0.1144
 8778SOL    HW137970   1.634   0.380  11.810  0.4641  1.1859 -0.7672
 8778SOL    HW237971   1.545   0.418  11.701  0.3694  0.0858 -1.2270
 8779SOL     OW37972   3.484   4.112   2.980 -0.0283 -0.2563  0.2883
 8779SOL    HW137973   3.448   4.158   2.904  1.4780  1.6954  0.7438
 8779SOL    HW237974   3.399   4.102   3.023 -0.7838 -1.2501 -1.4242
 8780SOL     OW37975   3.661   1.618  13.939 -0.4098 -0.6568  0.8698
 8780SOL    HW137976   3.719   1.694  13.931 -2.1754  0.7334  1.2569
 8780SOL    HW237977   3.693   1.569  14.015 -0.4558 -0.2611  1.1480
 8781SOL     OW37978   1.575   0.898   3.276 -0.0145 -0.4294 -0.7502
 8781SOL    HW137979   1.578   0.818   3.329  0.0182  0.3262  0.3841
 8781SOL    HW237980   1.655   0.895   3.225 -0.7725  1.4835 -2.0471
 8782SOL     OW37981   0.585   0.153   8.219 -0.5392  0.3206 -0.1486
 8782SOL    HW137982   0.535   0.219   8.170  1.0340  1.4740 -0.2185
 8782SOL    HW237983   0.671   0.195   8.221 -0.4179 -0.0663  2.8665
 8783SOL     OW37984   3.364   3.262  17.277 -0.1164 -0.4051 -0.5640
 8783SOL    HW137985   3.284   3.306  17.305  0.4513  0.9956 -1.1342
 8783SOL    HW237986   3.424   3.269  17.351  1.3524  1.7833 -1.9684
 8784SOL     OW37987   1.798   0.487  12.415 -0.3596  1.0794 -0.6993
 8784SOL    HW137988   1.766   0.535  12.492  0.6446  0.0355  0.3668
 8784SOL    HW237989   1.892   0.506  12.416  0.1628 -1.4567 -1.1607
 8785SOL     OW37990   0.938   4.201   8.103 -0.5019  0.2210  0.0253
 8785SOL    HW137991   0.921   4.109   8.123  0.4881  0.0577  0.1411
 8785SOL    HW237992   0.881   4.216   8.028 -0.7709  2.6496  0.7197
 8786SOL     OW37993   1.479   0.042  10.920  0.6382 -0.0875 -0.1805
 8786SOL    HW137994   1.424   4.698  10.918 -2.6275  2.2135 -1.6584
 8786SOL    HW237995   1.560   0.019  10.873  0.4277 -0.0137 -0.5850
 8787SOL     OW37996   0.990   4.549   4.655  0.2665 -0.4261  0.3015
 8787SOL    HW137997   1.078   4.532   4.621  0.4081 -0.3111  0.6089
 8787SOL    HW237998   0.941   4.549   4.573 -0.3361 -0.3814  0.6625
 8788SOL     OW37999   3.762   3.602   7.662 -0.2260 -0.0319  0.3305
 8788SOL    HW138000   3.793   3.560   7.582 -2.1195  1.4288 -1.1666
 8788SOL    HW238001   3.703   3.538   7.703  0.9243 -0.9015  0.6102
 8789SOL     OW38002   4.046   0.277   3.196 -0.3581 -0.9935 -0.5025
 8789SOL    HW138003   4.089   0.260   3.280 -1.4883  1.8749  0.6688
 8789SOL    HW238004   3.953   0.264   3.213 -0.4138  0.2052  0.0935
 8790SOL     OW38005   3.419   0.899   4.407 -0.2678 -0.1091 -0.2951
 8790SOL    HW138006   3.475   0.977   4.401 -1.7243  0.8768 -0.8489
 8790SOL    HW238007   3.331   0.935   4.398  0.0869  0.7450 -0.4035
 8791SOL     OW38008   3.108   2.492   6.928  0.0013  0.0005  0.0147
 8791SOL    HW138009   3.053   2.413   6.927  1.0433 -0.7330  2.1825
 8791SOL    HW238010   3.057   2.574   6.927  1.2071  0.7416 -1.0336
 8792SOL     OW38011   0.354   2.390  12.649 -0.4715  0.2342  0.2974
 8792SOL    HW138012   0.443   2.425  12.662  0.7611 -1.4128 -3.5829
 8792SOL    HW238013   0.388   2.302  12.663  0.3364  1.0430  3.4759
 8793SOL     OW38014   1.520   4.501   5.897  0.1791 -0.3640  0.6708
 8793SOL    HW138015   1.538   4.516   5.804  1.2194 -0.6228  0.8324
 8793SOL    HW238016   1.479   4.583   5.925  1.7841 -0.1289  2.3345
 8794SOL     OW38017   2.138   4.550   9.733 -0.5909  0.0917 -0.0530
 8794SOL    HW138018   2.082   4.513   9.665  0.7736  0.0251 -1.1220
 8794SOL    HW238019   2.110   4.642   9.735 -2.0430 -0.3650  1.0449
 8795SOL     OW38020   4.507   0.891  16.139  0.9990  0.4249  0.1549
 8795SOL    HW138021   4.541   0.832  16.072 -2.1722 -1.1307 -0.0922
 8795SOL    HW238022   4.430   0.928  16.096  0.5268  1.6786  2.1174
 8796SOL     OW38023   0.147   3.063  17.128 -0.3064  0.6236  0.5890
 8796SOL    HW138024   0.207   3.056  17.053  1.8000 -1.4618  2.4764
 8796SOL    HW238025   0.159   3.154  17.154  0.7856  0.5223  0.4324
 8797SOL     OW38026   2.731   3.602   3.723  0.5576 -0.3921  0.1485
 8797SOL    HW138027   2.823   3.626   3.738  0.4579  0.6223 -0.8967
 8797SOL    HW238028   2.687   3.655   3.788  0.5142  1.1633 -1.1547
 8798SOL     OW38029   1.864   2.884  16.035  0.1950 -0.0909  0.6634
 8798SOL    HW138030   1.901   2.942  15.968  1.8872  0.6609  2.2461
 8798SOL    HW238031   1.794   2.944  16.059  0.3545 -0.0278  0.9623
 8799SOL     OW38032   0.583   2.765   5.552 -0.4920 -0.0649 -0.1839
 8799SOL    HW138033   0.650   2.712   5.509 -0.4456 -0.6651  0.6463
 8799SOL    HW238034   0.606   2.751   5.644  2.4243  0.2333 -0.8521
 8800SOL     OW38035   4.080   4.518   2.862  0.1124 -0.2135 -0.1204
 8800SOL    HW138036   4.009   4.534   2.800  0.4377 -0.2558 -0.5126
 8800SOL    HW238037   4.059   4.430   2.894 -0.2264 -0.8698 -2.1157
 8801SOL     OW38038   0.303   2.573  14.323  0.0383 -0.0065 -0.0653
 8801SOL    HW138039   0.310   2.607  14.413 -1.7152 -0.3130  0.1957
 8801SOL    HW238040   0.236   2.635  14.294 -1.6843 -1.5318  0.6848
 8802SOL     OW38041   3.033   3.620  12.278  0.5504 -0.7047  0.2385
 8802SOL    HW138042   3.003   3.618  12.187  2.7527 -0.4752 -0.5028
 8802SOL    HW238043   2.993   3.542  12.316  1.2237 -0.8885  0.5711
 8803SOL     OW38044   4.490   1.533  14.951  0.0178 -0.4766 -0.9513
 8803SOL    HW138045   4.468   1.625  14.966  1.1327 -0.4151  0.3572
 8803SOL    HW238046   4.403   1.500  14.929 -1.1840  1.1379  1.4206
 8804SOL     OW38047   1.794   1.059   2.269  0.1460  0.2578 -0.1419
 8804SOL    HW138048   1.725   1.082   2.206 -1.9155 -2.7049  1.0700
 8804SOL    HW238049   1.813   1.153   2.277  0.6128  0.3051 -1.6598
 8805SOL     OW38050   2.879   4.008   5.591 -0.7395  0.6173 -0.6288
 8805SOL    HW138051   2.853   4.048   5.674 -0.9936 -1.0363  0.0682
 8805SOL    HW238052   2.899   3.922   5.626  0.2306  2.2289  2.7850
 8806SOL     OW38053   1.242   4.641   3.507  0.7385  0.5508 -0.4360
 8806SOL    HW138054   1.307   4.592   3.457  0.1235  0.9619 -1.6607
 8806SOL    HW238055   1.306   4.677   3.568  0.2323  0.6541  0.0415
 8807SOL     OW38056   3.217   3.005   5.631 -0.1072  0.5258 -0.4808
 8807SOL    HW138057   3.305   3.029   5.601  0.0123  0.5973 -0.0667
 8807SOL    HW238058   3.199   2.946   5.557 -0.4115  0.3175 -0.2362
 8808SOL     OW38059   3.988   3.153  14.175 -0.3589  0.3517  1.0301
 8808SOL    HW138060   3.899   3.183  14.158 -0.2720  0.8211  1.3702
 8808SOL    HW238061   4.011   3.230  14.228 -0.8552  0.8336  0.5420
 8809SOL     OW38062   1.032   2.079  15.574 -0.2151 -0.6450  0.2994
 8809SOL    HW138063   1.063   2.117  15.656 -0.4850 -1.3619  0.7350
 8809SOL    HW238064   0.952   2.033  15.601 -2.1511  0.9882 -2.5529
 8810SOL     OW38065   0.541   2.261   6.374  0.0524 -0.3627 -0.2822
 8810SOL    HW138066   0.572   2.335   6.321 -0.9535  1.0136  1.0579
 8810SOL    HW238067   0.489   2.222   6.303  1.6304 -0.9143 -1.1357
 8811SOL     OW38068   2.082   3.879   6.340 -0.1467 -0.0559 -0.2675
 8811SOL    HW138069   2.075   3.882   6.435 -1.2957 -1.2726 -0.3143
 8811SOL    HW238070   2.163   3.831   6.321  0.9817  1.8363 -0.2225
 8812SOL     OW38071   2.288   0.568   7.650 -0.1819  0.4712 -0.3650
 8812SOL    HW138072   2.347   0.583   7.577 -0.3002 -1.4249 -0.8665
 8812SOL    HW238073   2.210   0.592   7.599  0.4585  0.9913 -1.0869
 8813SOL     OW38074   3.849   0.358   1.091  0.6466 -0.4445 -0.3901
 8813SOL    HW138075   3.828   0.315   1.008  0.5627  0.7572 -0.9819
 8813SOL    HW238076   3.786   0.321   1.152  2.0850 -2.6514 -0.2379
 8814SOL     OW38077   4.208   0.808   5.426 -0.1272 -0.5324 -0.1127
 8814SOL    HW138078   4.287   0.788   5.376  1.4212  2.2555  1.2297
 8814SOL    HW238079   4.190   0.895   5.391 -0.0335 -0.1188  0.8622
 8815SOL     OW38080   0.520   3.878   3.265 -0.1803  0.1355  0.4369
 8815SOL    HW138081   0.614   3.891   3.258 -0.2165  0.5630  0.7235
 8815SOL    HW238082   0.505   3.830   3.184  1.5818  2.1418 -1.0788
 8816SOL     OW38083   1.645   0.210   2.629 -0.5978  0.0214 -0.2235
 8816SOL    HW138084   1.719   0.260   2.662 -0.9860 -0.4862  1.3950
 8816SOL    HW238085   1.586   0.214   2.703 -0.0221 -0.2152  0.2501
 8817SOL     OW38086   2.859   2.214   3.965  0.0677  0.0350 -0.5261
 8817SOL    HW138087   2.895   2.146   4.022 -0.4179  0.6929  0.5619
 8817SOL    HW238088   2.777   2.235   4.012 -1.0080 -1.6524 -1.6422
 8818SOL     OW38089   2.197   2.910   3.362 -0.1038  0.0008 -0.1195
 8818SOL    HW138090   2.249   2.959   3.426  0.0138  1.0020 -0.9731
 8818SOL    HW238091   2.258   2.878   3.296 -1.0189  0.3838 -1.1719
 8819SOL     OW38092   1.076   3.226   5.285 -0.7367  0.4692 -0.4897
 8819SOL    HW138093   1.129   3.153   5.255 -3.0486 -1.5249  0.3323
 8819SOL    HW238094   1.002   3.193   5.336 -0.0187  0.8351  0.7928
 8820SOL     OW38095   1.275   3.542   3.752  0.4560  0.0932  0.5167
 8820SOL    HW138096   1.218   3.481   3.800 -1.6865  1.9507  0.3009
 8820SOL    HW238097   1.208   3.598   3.714  1.4543  0.7379 -0.2785
 8821SOL     OW38098   2.612   4.356   8.009  0.3449 -0.3965 -0.0293
 8821SOL    HW138099   2.608   4.265   7.980  1.0133  0.4379 -2.7378
 8821SOL    HW238100   2.525   4.367   8.048  0.7678 -1.7343  1.2894
 8822SOL     OW38101   0.261   4.701   3.486  0.0584  1.1301  0.4802
 8822SOL    HW138102   0.183   4.681   3.434 -1.4578 -0.6283  3.4181
 8822SOL    HW238103   0.233   4.671   3.573  0.4550 -1.0070 -0.1330
 8823SOL     OW38104   2.223   0.275   0.594  0.3145  0.2653  0.0059
 8823SOL    HW138105   2.272   0.200   0.628 -1.2180  0.0668  1.8062
 8823SOL    HW238106   2.286   0.346   0.600  1.5679 -0.9731  1.5404
 8824SOL     OW38107   1.407   0.604  12.944 -0.6037 -0.4715 -0.0108
 8824SOL    HW138108   1.376   0.683  12.899  0.3260  1.1329  2.1694
 8824SOL    HW238109   1.414   0.642  13.032 -0.0310  2.1034 -1.1719
 8825SOL     OW38110   2.180   1.559   8.066 -0.0091 -0.0899  0.0514
 8825SOL    HW138111   2.129   1.639   8.074  0.5395 -0.0750  3.1387
 8825SOL    HW238112   2.267   1.594   8.049  0.5954 -2.0522 -0.9450
 8826SOL     OW38113   0.031   3.405   1.591 -1.1445 -0.3378 -0.4904
 8826SOL    HW138114   0.081   3.429   1.513  0.2831  3.0453  1.4767
 8826SOL    HW238115   4.697   3.472   1.596 -0.5461  0.1951  0.4274
 8827SOL     OW38116   0.487   3.764  12.724  0.1179  0.5163 -0.0058
 8827SOL    HW138117   0.536   3.732  12.799 -0.3184  0.5340  0.2875
 8827SOL    HW238118   0.476   3.854  12.755  0.1903  0.1325  1.1082
 8828SOL     OW38119   1.216   3.340   3.923  0.5254 -0.1280  0.0484
 8828SOL    HW138120   1.218   3.378   4.010 -0.2942 -1.6162  0.7144
 8828SOL    HW238121   1.167   3.260   3.946  1.1102 -0.1645  1.1349
 8829SOL     OW38122   2.550   4.390   0.722  0.3939 -0.5130  0.0305
 8829SOL    HW138123   2.508   4.311   0.755 -0.0484 -0.4495 -0.3762
 8829SOL    HW238124   2.640   4.366   0.745 -0.0394 -0.9456  1.2605
 8830SOL     OW38125   0.651   1.278   7.715  0.2460 -0.0571  0.5065
 8830SOL    HW138126   0.654   1.332   7.794  0.2514  1.6045 -0.6296
 8830SOL    HW238127   0.741   1.246   7.724  0.5657  0.8872  0.7088
 8831SOL     OW38128   2.314   1.264   3.809 -0.0325  0.3948  0.1661
 8831SOL    HW138129   2.339   1.319   3.883 -1.6773  2.5585 -0.8609
 8831SOL    HW238130   2.230   1.308   3.794  0.8546  2.7391  2.0153
 8832SOL     OW38131   3.919   2.291   7.692  0.3323 -0.1367  0.4011
 8832SOL    HW138132   3.922   2.372   7.742  0.2499  0.7890 -1.0721
 8832SOL    HW238133   3.843   2.302   7.634  0.5532 -0.6361  0.0098
 8833SOL     OW38134   4.537   1.020   6.588  0.1166 -0.1515 -0.0085
 8833SOL    HW138135   4.577   1.102   6.558  1.2955 -0.9747 -0.7087
 8833SOL    HW238136   4.443   1.038   6.586  0.0709 -0.2796  1.2942
 8834SOL     OW38137   2.282   0.891   8.404  0.0247  0.4554 -0.6337
 8834SOL    HW138138   2.187   0.886   8.401 -0.0225  0.4600  0.9371
 8834SOL    HW238139   2.310   0.956   8.469  2.1509 -3.5492  2.4875
 8835SOL     OW38140   0.970   1.423   7.117  0.1075  0.2242  0.1659
 8835SOL    HW138141   0.992   1.397   7.207  0.5534  2.0234  0.5675
 8835SOL    HW238142   1.026   1.357   7.076 -1.6849 -1.1112 -0.1471
 8836SOL     OW38143   0.516   0.050  16.033  0.1859  0.3292  0.3188
 8836SOL    HW138144   0.478   4.717  15.976  1.3243 -2.0250  2.3379
 8836SOL    HW238145   0.449   0.118  16.025 -0.9717 -0.8381 -0.0192
 8837SOL     OW38146   4.459   0.149  13.300  0.4800  0.4843 -0.2179
 8837SOL    HW138147   4.429   0.059  13.293  0.5627  0.4942 -0.6626
 8837SOL    HW238148   4.545   0.152  13.259  0.5094  1.5749 -0.0755
 8838SOL     OW38149   2.858   1.792   6.616 -0.0894 -0.3425  0.4802
 8838SOL    HW138150   2.939   1.782   6.667 -0.0812 -0.9650  0.3427
 8838SOL    HW238151   2.829   1.701   6.622 -2.5442  0.3331 -1.2778
 8839SOL     OW38152   3.082   1.347   3.395  0.2207  0.5711  1.0423
 8839SOL    HW138153   3.175   1.371   3.395 -0.1308  1.9154  0.6853
 8839SOL    HW238154   3.042   1.419   3.443  1.5891  1.1264  1.3648
 8840SOL     OW38155   4.209   0.354  15.432  0.7637 -0.0069 -0.0674
 8840SOL    HW138156   4.211   0.446  15.406  1.9327  0.5047  1.8503
 8840SOL    HW238157   4.261   0.316  15.361  1.0070  2.0810 -0.9955
 8841SOL     OW38158   0.983   1.508   4.399  0.2590  0.4334 -0.2282
 8841SOL    HW138159   0.996   1.597   4.364 -1.5011  0.7117 -0.1788
 8841SOL    HW238160   0.929   1.525   4.476 -0.8023  0.0879 -0.9022
 8842SOL     OW38161   1.698   2.072   5.544 -0.4651  0.5279 -0.2893
 8842SOL    HW138162   1.651   1.988   5.537  0.8847 -0.0802 -2.0477
 8842SOL    HW238163   1.744   2.083   5.461 -2.2321 -0.2190 -1.3679
 8843SOL     OW38164   4.597   0.581   7.058  0.3003 -0.2051 -0.6205
 8843SOL    HW138165   4.523   0.612   7.007 -1.4535 -3.7774 -0.2260
 8843SOL    HW238166   4.549   0.516   7.108 -0.2611 -0.5540 -1.6105
 8844SOL     OW38167   0.901   2.698   8.215 -0.0318  0.7816  0.3851
 8844SOL    HW138168   0.887   2.792   8.223  0.7283  0.7818  1.7060
 8844SOL    HW238169   0.972   2.687   8.152 -1.4886  2.6206 -1.5855
 8845SOL     OW38170   1.628   1.795   8.873 -0.6647  0.3421  0.1694
 8845SOL    HW138171   1.703   1.850   8.853 -0.9933  1.4250  1.9007
 8845SOL    HW238172   1.661   1.714   8.835 -0.5992 -0.2156  1.4028
 8846SOL     OW38173   2.138   4.672  14.167  0.3842 -0.1151 -0.0418
 8846SOL    HW138174   2.105   0.027  14.165  1.4071  0.2137 -1.2310
 8846SOL    HW238175   2.183   4.674  14.252 -0.2629  2.6294  0.2331
 8847SOL     OW38176   2.980   3.458   8.686  0.5504 -0.1321 -0.2829
 8847SOL    HW138177   2.947   3.382   8.637 -0.6265  0.1334  0.0917
 8847SOL    HW238178   3.072   3.442   8.704  0.5729  0.7889  0.4280
 8848SOL     OW38179   0.635   0.487   5.864  0.0895 -0.1053 -0.3951
 8848SOL    HW138180   0.590   0.463   5.783 -2.0675  0.4941  0.6305
 8848SOL    HW238181   0.620   0.409   5.917  0.4722 -1.0279 -1.6509
 8849SOL     OW38182   3.805   4.015  12.527 -0.4052  0.3629 -0.1746
 8849SOL    HW138183   3.712   4.035  12.512 -0.2118 -0.1124 -1.9633
 8849SOL    HW238184   3.817   4.042  12.618 -2.4679  0.2614  0.1337
 8850SOL     OW38185   2.077   2.767   6.493 -0.3179 -0.7715  0.0659
 8850SOL    HW138186   2.162   2.759   6.451 -1.2668 -1.6818 -1.6693
 8850SOL    HW238187   2.097   2.784   6.585  1.0564 -3.0714  0.1950
 8851SOL     OW38188   0.345   3.976   3.652 -0.3397  0.7790  0.4537
 8851SOL    HW138189   0.366   4.013   3.566  1.1724 -1.4800 -0.1439
 8851SOL    HW238190   0.377   4.039   3.717 -2.5086  2.1298  0.2040
 8852SOL     OW38191   1.987   1.078   3.807  0.0587 -0.4379 -0.3559
 8852SOL    HW138192   1.921   1.020   3.768 -2.1741  0.9655  1.3260
 8852SOL    HW238193   2.034   1.021   3.868 -1.7153 -0.8460  0.6282
 8853SOL     OW38194   3.433   0.176   1.570  0.0612  0.1315  0.9352
 8853SOL    HW138195   3.476   0.232   1.634  0.6651  2.7677 -1.7410
 8853SOL    HW238196   3.343   0.210   1.568  0.1390  0.3789  1.5284
 8854SOL     OW38197   2.916   3.988   2.743  0.6880 -0.0969 -0.1532
 8854SOL    HW138198   2.836   4.005   2.693  0.4605  0.1910  0.3052
 8854SOL    HW238199   2.932   4.083   2.749  1.8261 -0.2924 -0.1630
 8855SOL     OW38200   3.218   2.522   3.504 -0.2302 -0.2357 -0.1556
 8855SOL    HW138201   3.246   2.553   3.417 -1.6108 -0.5151 -0.7066
 8855SOL    HW238202   3.257   2.435   3.502  1.6271  0.5542  2.2078
 8856SOL     OW38203   2.033   0.619   7.191  0.1045 -0.5990  0.5827
 8856SOL    HW138204   2.062   0.538   7.148  1.3397  1.1647 -1.8444
 8856SOL    HW238205   1.997   0.580   7.271  2.6239 -3.0847  0.5049
 8857SOL     OW38206   1.220   3.947   7.607 -0.7285 -0.0530 -0.1963
 8857SOL    HW138207   1.207   3.855   7.583  0.1384 -0.1856 -0.1446
 8857SOL    HW238208   1.214   3.995   7.525 -1.2542  2.5139  1.3542
 8858SOL     OW38209   2.628   3.133   5.382  0.3356  0.7436  0.2115
 8858SOL    HW138210   2.714   3.097   5.405 -0.2071 -1.7084 -1.5645
 8858SOL    HW238211   2.654   3.190   5.310 -1.4950  0.2686 -0.8212
 8859SOL     OW38212   2.381   4.670  11.764  0.6027 -0.5021  0.1699
 8859SOL    HW138213   2.319   4.726  11.811  0.8297  1.1611 -1.5070
 8859SOL    HW238214   2.401   4.711  11.681 -0.2745 -0.0571  0.1801
 8860SOL     OW38215   3.754   3.169   5.924  0.2519  0.4284 -0.1649
 8860SOL    HW138216   3.803   3.136   6.000 -0.9331 -1.1773 -0.0917
 8860SOL    HW238217   3.712   3.088   5.896 -0.4712  0.4873  0.7558
 8861SOL     OW38218   0.831   0.345   2.872  0.3180  0.2391 -0.0571
 8861SOL    HW138219   0.926   0.339   2.859 -0.0114 -2.2098 -1.2968
 8861SOL    HW238220   0.815   0.419   2.931  1.0780  1.8311 -1.8349
 8862SOL     OW38221   2.076   3.992  16.953  0.1136  0.3831 -0.5250
 8862SOL    HW138222   2.094   4.082  16.923  1.1285  0.3805  0.0833
 8862SOL    HW238223   2.156   3.968  17.000  0.3226  1.8124 -0.1539
 8863SOL     OW38224   3.142   2.100   5.942 -0.2245 -0.4619 -0.3630
 8863SOL    HW138225   3.195   2.109   5.863 -0.9323  0.4503 -0.7378
 8863SOL    HW238226   3.193   2.052   6.008 -1.1995 -1.0807 -0.0482
 8864SOL     OW38227   2.312   4.526   2.781 -0.3312  0.0469 -0.5174
 8864SOL    HW138228   2.364   4.598   2.745 -0.9305 -0.6770 -2.8416
 8864SOL    HW238229   2.295   4.476   2.701 -0.4171 -0.6416 -0.0675
 8865SOL     OW38230   4.227   0.885  16.063  0.0395  0.3789 -0.0295
 8865SOL    HW138231   4.145   0.914  16.103 -0.5978 -0.2139 -0.9014
 8865SOL    HW238232   4.204   0.902  15.971 -1.6621 -1.3312  0.0922
 8866SOL     OW38233   4.297   4.183   6.735  0.1155  0.0290 -0.1301
 8866SOL    HW138234   4.217   4.180   6.788  1.5005 -2.0914  1.8225
 8866SOL    HW238235   4.257   4.163   6.650 -1.2111  1.6382  0.1162
 8867SOL     OW38236   4.731   1.177  12.792  0.1882 -0.0741 -0.4379
 8867SOL    HW138237   0.004   1.163  12.698  0.8883  0.0802 -0.4000
 8867SOL    HW238238   0.076   1.148  12.836  0.5762  1.7380  0.0260
 8868SOL     OW38239   2.948   4.037   0.378 -0.6395  0.4458  0.4013
 8868SOL    HW138240   2.884   4.103   0.404 -1.6822 -0.2647 -0.3582
 8868SOL    HW238241   2.961   3.978   0.452 -2.3895 -0.6775 -0.1824
 8869SOL     OW38242   0.013   4.387   2.886 -0.1279  0.6579 -0.2750
 8869SOL    HW138243   4.730   4.419   2.797 -1.5416  0.4010 -0.0919
 8869SOL    HW238244   4.667   4.387   2.936  1.7274 -1.8222  2.6330
 8870SOL     OW38245   2.851   4.431   7.378  0.2914  0.5249  0.1547
 8870SOL    HW138246   2.831   4.355   7.433  0.1588  0.2466 -0.2824
 8870SOL    HW238247   2.793   4.409   7.306  2.0449 -1.4931 -0.6125
 8871SOL     OW38248   3.210   1.729   0.585 -0.1728 -0.4603 -0.3393
 8871SOL    HW138249   3.175   1.816   0.604  1.6084  0.1016  0.3327
 8871SOL    HW238250   3.165   1.710   0.503 -1.2133 -0.3410  0.1988
 8872SOL     OW38251   4.649   3.310   7.129  0.6939 -1.3862 -0.3495
 8872SOL    HW138252   4.711   3.303   7.201 -0.9134  0.3972  1.1940
 8872SOL    HW238253   4.706   3.350   7.063 -0.9628 -0.2595 -1.1017
 8873SOL     OW38254   1.245   4.470  13.015 -0.3326  0.0359  0.0722
 8873SOL    HW138255   1.272   4.532  13.083 -2.1779 -0.8155  1.5957
 8873SOL    HW238256   1.313   4.405  13.035  1.1006  1.5673  0.1484
 8874SOL     OW38257   2.841   1.956   7.172 -0.1732  0.1632 -0.5438
 8874SOL    HW138258   2.807   2.045   7.169  0.0597  0.2873  0.6291
 8874SOL    HW238259   2.923   1.971   7.217  0.3015  0.7332 -1.6215
 8875SOL     OW38260   3.868   2.557   2.908 -0.0785 -0.1445 -0.1080
 8875SOL    HW138261   3.785   2.511   2.905  0.5894 -1.3804  0.3878
 8875SOL    HW238262   3.892   2.554   3.001 -1.5767  0.4590  0.2858
 8876SOL     OW38263   0.199   4.226  14.809  0.1970  0.2987 -0.0341
 8876SOL    HW138264   0.213   4.299  14.870 -1.0734  1.0635 -0.6461
 8876SOL    HW238265   0.199   4.275  14.727 -2.3066  2.1248  1.0414
 8877SOL     OW38266   4.623   4.281  11.877  0.6569  0.1626  0.7665
 8877SOL    HW138267   4.641   4.233  11.958  0.5470  0.4340  0.9522
 8877SOL    HW238268   4.663   4.364  11.903 -1.6603  2.5808 -3.3875
 8878SOL     OW38269   1.740   4.420   2.585 -0.0220  0.5723 -0.1326
 8878SOL    HW138270   1.746   4.370   2.667 -2.0400 -1.6379 -1.3138
 8878SOL    HW238271   1.764   4.507   2.617  0.2400 -0.4328  2.3790
 8879SOL     OW38272   2.134   4.101   3.200 -0.7613 -0.1097 -0.0597
 8879SOL    HW138273   2.067   4.129   3.137 -0.6451 -1.0392 -0.6019
 8879SOL    HW238274   2.090   4.143   3.274 -0.6284 -2.1402  1.1794
 8880SOL     OW38275   3.019   3.302   2.944  0.3075 -0.3237 -0.0376
 8880SOL    HW138276   3.015   3.276   3.036  0.0631 -0.1910 -0.0111
 8880SOL    HW238277   3.027   3.397   2.947 -0.3435 -0.3894  4.1910
 8881SOL     OW38278   1.398   2.515   9.703  0.8914  0.0263  0.4236
 8881SOL    HW138279   1.380   2.490   9.794 -0.7208  0.5048  0.2377
 8881SOL    HW238280   1.346   2.448   9.659  1.1209  0.3224 -0.2832
 8882SOL     OW38281   0.479   0.736   2.443 -0.2087  0.3745  0.3940
 8882SOL    HW138282   0.458   0.642   2.436 -0.4670  0.3693  1.2543
 8882SOL    HW238283   0.515   0.732   2.532  0.1724  0.0692  0.2261
 8883SOL     OW38284   0.537   2.817   8.970  0.5297  0.2417 -0.4848
 8883SOL    HW138285   0.455   2.842   8.929 -0.5986 -1.2984  0.8492
 8883SOL    HW238286   0.502   2.736   9.007  1.7103  0.4631  1.1198
 8884SOL     OW38287   3.400   3.183  15.051 -0.5272  0.2640  0.2723
 8884SOL    HW138288   3.470   3.186  15.115 -0.4472 -1.2294  0.2599
 8884SOL    HW238289   3.451   3.156  14.975 -2.1004  0.3710 -0.8275
 8885SOL     OW38290   3.726   0.757   4.233  0.0484 -0.2611  0.2087
 8885SOL    HW138291   3.742   0.820   4.304 -1.4166  2.3268 -1.7576
 8885SOL    HW238292   3.680   0.816   4.173 -1.7786 -2.1987 -0.2931
 8886SOL     OW38293   0.005   1.158   8.158 -0.0970 -0.0080 -0.1286
 8886SOL    HW138294   4.731   1.251   8.140 -1.5556 -0.6576 -2.7943
 8886SOL    HW238295   4.711   1.127   8.072  0.5456 -0.0265 -0.3360
 8887SOL     OW38296   4.683   2.843   1.803  0.6686  0.1888  0.1585
 8887SOL    HW138297   4.608   2.822   1.859 -1.2280  1.8133 -1.7793
 8887SOL    HW238298   4.663   2.812   1.715  1.2693 -1.3682  0.5707
 8888SOL     OW38299   3.738   4.015   5.694 -0.2040 -0.0905 -0.5149
 8888SOL    HW138300   3.697   4.055   5.617 -0.2011  3.0516  1.1335
 8888SOL    HW238301   3.751   3.925   5.664 -0.4020  0.0129 -0.9146
 8889SOL     OW38302   2.504   0.189   2.001  0.2488  0.2095 -0.3381
 8889SOL    HW138303   2.451   0.170   2.078  2.1230 -0.8220  0.6708
 8889SOL    HW238304   2.592   0.197   2.039 -0.6292 -1.0124  1.8983
 8890SOL     OW38305   4.044   0.886   4.068  0.0735 -0.2389  0.7962
 8890SOL    HW138306   4.122   0.884   4.013 -1.2805 -1.9822 -1.0312
 8890SOL    HW238307   4.052   0.963   4.125  0.3730  0.2533  0.0916
 8891SOL     OW38308   0.953   1.490  13.326 -0.2985 -0.0269 -0.4940
 8891SOL    HW138309   0.885   1.427  13.351 -1.3597  0.7560 -1.4198
 8891SOL    HW238310   1.027   1.454  13.375 -0.6275 -0.7105 -0.5025
 8892SOL     OW38311   3.276   0.533   7.160  0.1002  0.1977  0.3257
 8892SOL    HW138312   3.245   0.457   7.112  0.3415 -0.1371  0.7045
 8892SOL    HW238313   3.260   0.604   7.097 -3.8217  1.1815  2.4009
 8893SOL     OW38314   2.375   2.248   7.447  0.5040 -0.4937 -0.1897
 8893SOL    HW138315   2.397   2.288   7.363 -0.9996  1.0538  0.1629
 8893SOL    HW238316   2.284   2.269   7.468  0.4156 -0.5619 -0.5055
 8894SOL     OW38317   2.837   2.578  12.085 -0.5056  0.3403  0.5631
 8894SOL    HW138318   2.895   2.541  12.151 -1.3924 -1.6262  0.2374
 8894SOL    HW238319   2.874   2.524  12.014  0.5127 -1.2511  2.3005
 8895SOL     OW38320   2.660   4.249   9.927  0.4499 -0.3624  0.0495
 8895SOL    HW138321   2.694   4.337   9.910 -3.0243  0.7540 -1.1393
 8895SOL    HW238322   2.727   4.193   9.887 -0.2578 -0.6436 -0.7342
 8896SOL     OW38323   3.366   1.957  13.626 -0.1412  0.3183  0.2507
 8896SOL    HW138324   3.429   1.937  13.556 -0.7779 -1.3651  0.1375
 8896SOL    HW238325   3.374   2.052  13.624 -0.9749  0.4091  1.4491
 8897SOL     OW38326   0.926   3.179   2.879 -0.0964 -0.7690  0.3491
 8897SOL    HW138327   1.013   3.141   2.889 -0.0108 -0.7216 -0.1992
 8897SOL    HW238328   0.949   3.233   2.804 -1.4436  0.4055  0.7786
 8898SOL     OW38329   3.133   3.797   2.785  0.0301  0.3421  0.1762
 8898SOL    HW138330   3.100   3.876   2.744  2.6873  1.4930  0.2309
 8898SOL    HW238331   3.128   3.805   2.880 -1.1850  1.8330 -0.0258
 8899SOL     OW38332   2.674   2.772  17.030 -0.5789  0.1406  0.1888
 8899SOL    HW138333   2.696   2.836  16.962  0.4758 -1.2376 -0.7707
 8899SOL    HW238334   2.735   2.703  17.004 -0.6177  0.3664 -0.5033
 8900SOL     OW38335   0.858   2.393   7.153 -0.1991  0.0295 -0.5565
 8900SOL    HW138336   0.863   2.447   7.074 -2.1930  2.1525  0.7666
 8900SOL    HW238337   0.867   2.311   7.104 -1.9084 -1.0593  1.0012
 8901SOL     OW38338   0.479   0.974   3.313  0.6751 -0.6215  0.3935
 8901SOL    HW138339   0.442   1.026   3.242 -2.9836  0.6314  3.1811
 8901SOL    HW238340   0.571   0.987   3.293  0.2030  1.1525 -0.6172
 8902SOL     OW38341   4.079   3.714   0.103 -0.1640 -0.2320 -0.2673
 8902SOL    HW138342   4.124   3.640   0.064 -1.9439 -0.0156 -2.7210
 8902SOL    HW238343   4.151   3.776   0.118  1.1207 -1.7455 -0.2145
 8903SOL     OW38344   4.034   0.688   6.714 -0.1245  0.3330  0.5411
 8903SOL    HW138345   4.048   0.715   6.805 -1.1119  1.6937  0.2969
 8903SOL    HW238346   3.988   0.763   6.676  0.1850  0.1152 -0.2447
 8904SOL     OW38347   1.316   0.322   3.312 -0.5594  0.5183 -0.2729
 8904SOL    HW138348   1.391   0.275   3.347 -0.5555  1.1125  0.5172
 8904SOL    HW238349   1.256   0.327   3.387 -2.2629 -0.4507 -1.5586
 8905SOL     OW38350   3.344   1.017   2.457  0.1089 -0.8850 -0.3869
 8905SOL    HW138351   3.380   1.037   2.543  1.1803  2.0711 -1.5361
 8905SOL    HW238352   3.320   0.926   2.475  0.3994 -0.3834  2.4957
 8906SOL     OW38353   4.416   3.667  10.859  0.7063  0.2365 -0.3048
 8906SOL    HW138354   4.422   3.758  10.830  0.3335 -0.5356 -2.8152
 8906SOL    HW238355   4.322   3.662  10.876  0.6944 -0.5772 -0.6197
 8907SOL     OW38356   2.240   4.134   9.933 -0.5540  0.6805 -0.0450
 8907SOL    HW138357   2.299   4.136   9.858 -0.6112 -0.7594 -0.1401
 8907SOL    HW238358   2.204   4.222   9.935  1.1745  1.3482  1.2752
 8908SOL     OW38359   2.291   0.180   8.924 -0.1999 -0.1334  0.1823
 8908SOL    HW138360   2.201   0.182   8.891 -0.0140 -0.3997 -0.3522
 8908SOL    HW238361   2.315   0.092   8.894 -0.3692 -0.6135  1.4585
 8909SOL     OW38362   3.237   1.304  14.778 -0.6681  0.6832  0.4424
 8909SOL    HW138363   3.194   1.286  14.695 -1.6979 -0.8953  1.3270
 8909SOL    HW238364   3.208   1.225  14.824 -1.1668  0.5929 -0.0285
 8910SOL     OW38365   0.781   3.728   7.679 -0.1216  0.3061 -0.0486
 8910SOL    HW138366   0.800   3.783   7.755 -2.3249 -0.4838  1.0581
 8910SOL    HW238367   0.775   3.790   7.606  1.4890  0.6944  0.1562
 8911SOL     OW38368   1.904   3.019   9.462  0.0561 -0.0605  0.1714
 8911SOL    HW138369   1.969   3.019   9.391 -0.0336 -1.5131  0.0835
 8911SOL    HW238370   1.821   3.047   9.424  1.0108  2.4509 -0.1083
 8912SOL     OW38371   1.973   3.336   6.714  0.5181 -0.4527  0.1490
 8912SOL    HW138372   1.957   3.410   6.655 -0.0492 -0.4268  0.3369
 8912SOL    HW238373   1.925   3.267   6.668 -1.2162  0.9097 -0.0886
 8913SOL     OW38374   3.390   2.040   7.441 -0.3673 -0.6046  0.4031
 8913SOL    HW138375   3.396   1.983   7.364  1.5786  0.9828 -0.6343
 8913SOL    HW238376   3.410   2.126   7.402 -2.7473 -0.2862 -0.1225
 8914SOL     OW38377   1.669   3.004   9.947 -0.4224 -0.6750 -0.2193
 8914SOL    HW138378   1.612   3.081   9.938 -0.1231 -0.1919  1.8428
 8914SOL    HW238379   1.600   2.951   9.988 -0.4178  1.7786  3.0048
 8915SOL     OW38380   0.116   0.742   3.896 -0.2585  0.2461  0.1915
 8915SOL    HW138381   0.058   0.818   3.896 -1.4390 -0.6484  0.2297
 8915SOL    HW238382   0.178   0.784   3.835  0.6291  0.2972  1.1218
 8916SOL     OW38383   4.441   0.725   5.055  0.4077 -0.0966  0.4865
 8916SOL    HW138384   4.434   0.745   5.149  0.2870  3.7947 -0.3500
 8916SOL    HW238385   4.535   0.714   5.041 -0.1837 -1.2286 -2.4145
 8917SOL     OW38386   3.559   0.061  14.651 -0.5203 -0.6451  0.0103
 8917SOL    HW138387   3.553   4.702  14.672  0.3865 -0.6602  0.1805
 8917SOL    HW238388   3.575   0.062  14.557 -2.9217 -1.8924 -0.4218
 8918SOL     OW38389   1.413   3.840  13.701 -0.1451 -0.4079 -0.1378
 8918SOL    HW138390   1.349   3.900  13.738 -0.3220 -0.8800  0.3089
 8918SOL    HW238391   1.480   3.899  13.668  0.2233  0.1862  1.7000
 8919SOL     OW38392   2.371   3.831   9.800  0.2296  0.1186 -0.5827
 8919SOL    HW138393   2.425   3.802   9.727 -0.3277 -2.7681  0.1560
 8919SOL    HW238394   2.392   3.925   9.792  0.4626  0.0692 -0.5499
 8920SOL     OW38395   1.137   4.186   5.463  0.1135 -0.5294  0.5331
 8920SOL    HW138396   1.125   4.238   5.542  1.2656  1.1881 -0.4023
 8920SOL    HW238397   1.140   4.257   5.398 -0.1756 -1.0374 -0.0355
 8921SOL     OW38398   1.609   4.196   8.722 -0.1446 -0.2690  0.2907
 8921SOL    HW138399   1.539   4.242   8.770  0.6208  1.2586 -0.0391
 8921SOL    HW238400   1.617   4.257   8.649 -1.5780 -1.9020 -1.2213
 8922SOL     OW38401   4.433   3.165   5.195 -0.1600 -0.3983  0.2453
 8922SOL    HW138402   4.463   3.255   5.208  2.6971 -1.3610  0.3721
 8922SOL    HW238403   4.417   3.136   5.285  2.0489  2.9326  1.7277
 8923SOL     OW38404   4.302   1.903  12.032 -0.0636  0.1388 -0.8570
 8923SOL    HW138405   4.316   1.966  11.961  2.4239 -0.0991 -0.5733
 8923SOL    HW238406   4.312   1.964  12.105 -0.1014  0.2768 -0.9660
 8924SOL     OW38407   1.785   3.847   9.839 -0.2714 -0.0066  0.6111
 8924SOL    HW138408   1.755   3.936   9.821 -0.2926 -0.7324 -2.9876
 8924SOL    HW238409   1.745   3.828   9.924 -1.0529  0.3943  0.3356
 8925SOL     OW38410   2.066   1.242   6.741  0.2637  0.8818  0.6595
 8925SOL    HW138411   2.109   1.316   6.699 -0.0324 -0.1509 -1.4809
 8925SOL    HW238412   2.069   1.270   6.832  3.6241  0.9500  0.5497
 8926SOL     OW38413   0.592   2.021   8.596  0.5161 -0.3857  0.2914
 8926SOL    HW138414   0.579   2.034   8.690 -2.0706  0.8695 -0.2508
 8926SOL    HW238415   0.506   2.054   8.570  1.7274  1.0961 -1.8647
 8927SOL     OW38416   1.129   3.231   1.961  0.1413  1.2164  0.4387
 8927SOL    HW138417   1.200   3.223   1.897  0.4846 -2.2512  1.2499
 8927SOL    HW238418   1.164   3.192   2.040  0.9954  1.5084  0.2033
 8928SOL     OW38419   3.324   3.333  17.724  0.2636 -0.1017 -0.1000
 8928SOL    HW138420   3.373   3.380  17.656 -0.6020  0.1821 -0.5260
 8928SOL    HW238421   3.311   3.246  17.686  0.5025 -0.2710  0.2034
 8929SOL     OW38422   3.652   3.985  17.211 -0.4199 -0.7824  0.0046
 8929SOL    HW138423   3.592   3.996  17.285  0.1980  1.0184  0.2365
 8929SOL    HW238424   3.708   4.058  17.239 -0.3878 -0.9467  0.3811
 8930SOL     OW38425   2.382   2.355   6.324  0.2354  0.3778  0.3658
 8930SOL    HW138426   2.301   2.318   6.358  0.6683 -0.8916  0.0399
 8930SOL    HW238427   2.429   2.272   6.310 -0.6616  0.5856 -4.0852
 8931SOL     OW38428   1.917   4.065   6.593 -0.0531 -0.5554 -0.3708
 8931SOL    HW138429   1.991   4.006   6.609 -1.2742 -1.5783  1.5499
 8931SOL    HW238430   1.862   4.008   6.539  1.1099 -1.4804 -0.6010
 8932SOL     OW38431   2.871   4.407   9.434  0.0184  0.4543  0.0170
 8932SOL    HW138432   2.953   4.456   9.432 -0.6984  1.6576  0.4391
 8932SOL    HW238433   2.849   4.402   9.527  1.3390  0.9681  0.3608
 8933SOL     OW38434   0.688   1.138   9.721 -0.2887  0.2275 -0.1941
 8933SOL    HW138435   0.774   1.099   9.710 -0.2998 -0.4438  2.3066
 8933SOL    HW238436   0.702   1.181   9.805 -0.3894  0.6882 -0.4101
 8934SOL     OW38437   3.240   0.703   2.209  0.1717 -0.0993  0.5259
 8934SOL    HW138438   3.284   0.788   2.202  1.1221 -0.6320  0.0398
 8934SOL    HW238439   3.247   0.681   2.116 -1.5497 -1.7328  0.7789
 8935SOL     OW38440   1.896   3.715   3.500 -0.3210  0.3002 -0.6245
 8935SOL    HW138441   1.954   3.643   3.523  0.4367  0.5060 -1.9177
 8935SOL    HW238442   1.811   3.674   3.517 -0.3024 -0.3780 -2.1843
 8936SOL     OW38443   2.247   1.088   2.522  0.0985  0.2431 -0.2178
 8936SOL    HW138444   2.181   1.126   2.580 -2.5394 -2.0464 -1.7431
 8936SOL    HW238445   2.321   1.063   2.577  0.0449  1.1336  0.2599
 8937SOL     OW38446   0.423   0.933  14.145 -0.7984 -0.0169 -0.2171
 8937SOL    HW138447   0.462   0.847  14.126 -0.7998 -0.6493  2.5997
 8937SOL    HW238448   0.413   0.934  14.241 -2.0699 -0.7170 -0.3458
 8938SOL     OW38449   2.831   1.596   7.227  0.3217  0.0675 -0.0790
 8938SOL    HW138450   2.787   1.644   7.156  0.2150  0.1255  0.0268
 8938SOL    HW238451   2.756   1.549   7.263  0.7944 -0.4802  0.1930
 8939SOL     OW38452   4.499   4.260   1.865  0.3404 -0.1186  0.8227
 8939SOL    HW138453   4.475   4.242   1.956 -0.7115  2.5889  1.0926
 8939SOL    HW238454   4.591   4.278   1.880 -0.1090  0.6718  2.6456
 8940SOL     OW38455   0.389   2.660   3.477  1.0675 -0.5466  0.6819
 8940SOL    HW138456   0.426   2.632   3.561  2.2966 -0.3069  0.2233
 8940SOL    HW238457   0.330   2.732   3.500 -1.0776 -2.6407  1.7329
 8941SOL     OW38458   0.726   4.284   6.650 -0.1973 -0.6554 -0.6461
 8941SOL    HW138459   0.818   4.296   6.625  0.3064 -2.4435  0.3543
 8941SOL    HW238460   0.745   4.253   6.738 -0.5714  1.1150  0.0668
 8942SOL     OW38461   4.299   3.108   6.509 -0.7297 -0.0490  0.4555
 8942SOL    HW138462   4.305   3.021   6.547 -1.1181 -0.8898 -1.4394
 8942SOL    HW238463   4.206   3.107   6.489 -0.3249 -0.2196 -1.4262
 8943SOL     OW38464   1.226   2.350   9.590  0.6818  0.3331  0.3284
 8943SOL    HW138465   1.246   2.324   9.500  1.6383  1.3322  0.2506
 8943SOL    HW238466   1.140   2.311   9.599  1.6147 -1.7141  0.3561
 8944SOL     OW38467   4.387   0.018   5.172 -0.0088  0.2943  0.4887
 8944SOL    HW138468   4.450   4.683   5.191  0.5300  0.7464  0.3659
 8944SOL    HW238469   4.319   4.723   5.232  1.9929 -1.5604  1.8394
 8945SOL     OW38470   2.034   3.082   5.672  0.3343  0.2096 -0.7314
 8945SOL    HW138471   2.071   3.033   5.598 -0.5727 -2.1520  0.4078
 8945SOL    HW238472   2.107   3.115   5.725 -0.3225 -1.8461  1.4476
 8946SOL     OW38473   1.328   4.388   3.852  0.2024 -0.2370 -0.0476
 8946SOL    HW138474   1.418   4.394   3.820  0.9930 -1.4113  1.9578
 8946SOL    HW238475   1.336   4.448   3.926 -0.2082 -1.1065  0.6983
 8947SOL     OW38476   1.567   0.110  10.583  0.3459  0.5482 -0.1851
 8947SOL    HW138477   1.617   0.048  10.636 -0.9349  0.2632  0.7047
 8947SOL    HW238478   1.616   0.120  10.502 -1.0509  1.2292 -0.9452
 8948SOL     OW38479   3.101   0.727  17.289 -0.4237  0.0084 -0.1407
 8948SOL    HW138480   3.179   0.747  17.239  1.0545 -0.0062  2.1557
 8948SOL    HW238481   3.136   0.732  17.378 -1.3067  0.1290  0.2015
 8949SOL     OW38482   1.793   2.315   8.347 -0.2360 -0.0952  0.2505
 8949SOL    HW138483   1.728   2.380   8.375 -1.3396 -0.4648 -1.4256
 8949SOL    HW238484   1.807   2.269   8.429  0.1771  2.2295  1.4888
 8950SOL     OW38485   0.157   3.972   3.318 -0.1260  0.0366  0.2976
 8950SOL    HW138486   0.126   4.057   3.286 -1.2878 -0.5458 -0.1401
 8950SOL    HW238487   0.238   4.012   3.350  1.1479 -1.9890 -0.4280
 8951SOL     OW38488   3.136   3.740   3.436 -0.3786 -0.2932  0.1244
 8951SOL    HW138489   3.094   3.732   3.351 -1.5202 -1.3055  0.7726
 8951SOL    HW238490   3.218   3.785   3.417 -0.2751 -0.1657  0.8766
 8952SOL     OW38491   0.609   3.959   6.596 -0.4852 -0.1227 -0.2696
 8952SOL    HW138492   0.611   4.028   6.529  0.1193  1.2105  1.1223
 8952SOL    HW238493   0.685   3.991   6.645 -0.9997 -1.7254  1.5465
 8953SOL     OW38494   2.117   0.838   7.329 -0.2589  0.0123  0.9170
 8953SOL    HW138495   2.129   0.803   7.417 -0.1424 -1.9416  0.1309
 8953SOL    HW238496   2.076   0.763   7.286  2.8674 -0.7591 -0.7723
 8954SOL     OW38497   0.877   1.513   8.798 -0.1506  0.0856 -0.4364
 8954SOL    HW138498   0.842   1.581   8.856 -0.2673 -1.5082  1.3606
 8954SOL    HW238499   0.966   1.498   8.831 -0.2417  1.3310  0.3656
 8955SOL     OW38500   3.033   2.349   5.309  0.6134 -0.1087 -0.1421
 8955SOL    HW138501   3.059   2.278   5.368  1.3788 -0.3358 -0.7606
 8955SOL    HW238502   3.105   2.338   5.247 -0.2646 -0.6665 -1.0579
 8956SOL     OW38503   2.218   0.871   2.773 -0.0900  0.3682  0.4018
 8956SOL    HW138504   2.264   0.888   2.855  2.9958 -1.2382 -0.9868
 8956SOL    HW238505   2.139   0.822   2.798  0.6479 -0.9099  0.2675
 8957SOL     OW38506   1.185   3.750   1.067 -0.4799 -0.6379 -0.2328
 8957SOL    HW138507   1.126   3.675   1.064 -1.4538  0.2244 -3.1730
 8957SOL    HW238508   1.133   3.811   1.013 -1.8267 -0.6635  1.0400
 8958SOL     OW38509   0.555   2.831  14.802  0.2877 -0.1821  0.2707
 8958SOL    HW138510   0.478   2.852  14.854  0.0945  0.7802 -0.4081
 8958SOL    HW238511   0.620   2.794  14.863 -0.7014 -0.6080  1.0643
 8959SOL     OW38512   0.698   2.578  12.072  0.2317  0.2688  0.1118
 8959SOL    HW138513   0.639   2.546  12.140  0.8578 -1.1506 -0.0021
 8959SOL    HW238514   0.651   2.652  12.033 -1.6876 -0.1946  1.5993
 8960SOL     OW38515   0.595   1.002   6.164 -0.4965  0.5061  0.5225
 8960SOL    HW138516   0.691   1.002   6.154 -0.5121 -1.0853  0.3865
 8960SOL    HW238517   0.599   0.922   6.217 -0.3037  1.0071  1.2807
 8961SOL     OW38518   3.449   4.528   2.825  0.1368 -0.0005 -0.5623
 8961SOL    HW138519   3.488   4.578   2.753 -0.0056  3.0148  1.4572
 8961SOL    HW238520   3.496   4.448   2.800 -0.6505 -0.9337  1.0103
 8962SOL     OW38521   0.798   0.641  11.403  0.1560  0.3895  0.4321
 8962SOL    HW138522   0.725   0.606  11.454  1.5704  0.1421  2.2764
 8962SOL    HW238523   0.752   0.711  11.357 -3.0720 -2.0944 -0.1926
 8963SOL     OW38524   3.289   1.866   1.177 -0.4645 -0.3114 -0.0077
 8963SOL    HW138525   3.362   1.865   1.116 -0.7236  0.5825 -0.3262
 8963SOL    HW238526   3.216   1.872   1.115 -0.2408 -2.8751 -0.5284
 8964SOL     OW38527   1.109   4.569  16.783  0.1862  0.3207  0.5610
 8964SOL    HW138528   1.162   4.514  16.726 -0.3450  0.7742 -0.3689
 8964SOL    HW238529   1.024   4.565  16.739  1.5169  1.2799 -2.1106
 8965SOL     OW38530   3.789   2.408   9.380 -0.2026 -0.1835 -0.1953
 8965SOL    HW138531   3.827   2.431   9.465  2.5152 -0.6684 -1.2464
 8965SOL    HW238532   3.875   2.417   9.339  0.2138 -2.4372  0.1899
 8966SOL     OW38533   1.599   4.552  15.179  0.3771  0.1010  0.3092
 8966SOL    HW138534   1.566   4.493  15.111  1.4340  1.9876 -1.8357
 8966SOL    HW238535   1.550   4.523  15.256  1.4819 -1.0133  0.5840
 8967SOL     OW38536   4.613   0.776   6.635  0.3457 -0.6914 -0.0597
 8967SOL    HW138537   4.589   0.868   6.642 -0.2607 -0.5238 -4.3248
 8967SOL    HW238538   4.531   0.737   6.606  0.6048 -1.9928  0.9508
 8968SOL     OW38539   1.583   1.665   4.130  0.2937 -0.2706  0.0690
 8968SOL    HW138540   1.536   1.585   4.108 -0.0065 -0.0844  0.0275
 8968SOL    HW238541   1.556   1.729   4.064  0.6204  0.8195  0.9901
 8969SOL     OW38542   2.492   0.888   9.856 -0.0922  0.1645  0.2566
 8969SOL    HW138543   2.486   0.879   9.761 -2.5443 -1.5095  0.5586
 8969SOL    HW238544   2.584   0.909   9.868  0.4658 -3.3675  1.9733
 8970SOL     OW38545   0.190   2.747   2.902  0.1712  0.4695 -0.0074
 8970SOL    HW138546   0.204   2.787   2.987 -0.8869  0.7696  0.0289
 8970SOL    HW238547   0.270   2.774   2.857 -0.5124  2.0265 -0.2903
 8971SOL     OW38548   2.160   0.424   5.211  0.4379  0.2064  0.1019
 8971SOL    HW138549   2.253   0.433   5.190 -0.2742  2.3162 -2.1489
 8971SOL    HW238550   2.160   0.475   5.292 -0.0423 -1.8711  1.4103
 8972SOL     OW38551   1.875   0.057  10.488  0.3835  0.3590  0.6804
 8972SOL    HW138552   1.955   0.107  10.506 -0.4494  1.6538  0.7785
 8972SOL    HW238553   1.897   0.014  10.406 -0.9265  0.5841  0.2032
 8973SOL     OW38554   3.963   2.477   3.596 -0.2323 -0.9283 -0.1666
 8973SOL    HW138555   3.885   2.430   3.626 -0.6586 -0.0993  0.0195
 8973SOL    HW238556   4.020   2.401   3.583  0.2988 -0.2759 -1.5425
 8974SOL     OW38557   3.080   0.447  15.584 -0.5229  0.2715 -0.2106
 8974SOL    HW138558   3.045   0.534  15.564 -2.8998 -1.0857 -2.1027
 8974SOL    HW238559   3.173   0.457  15.567 -0.5259 -0.0412 -0.4026
 8975SOL     OW38560   0.098   3.947   1.794  0.6051  0.2254  0.3396
 8975SOL    HW138561   0.153   4.016   1.757  1.3564 -0.2017  0.6877
 8975SOL    HW238562   0.130   3.879   1.735  0.2664  1.2244 -1.0111
 8976SOL     OW38563   2.425   1.613  16.987 -0.0518  0.7421 -0.0760
 8976SOL    HW138564   2.370   1.541  17.017  0.2105  0.4193 -0.3636
 8976SOL    HW238565   2.390   1.683  17.042 -1.0589 -0.8540  1.3204
 8977SOL     OW38566   4.360   0.874  15.735 -0.0007 -0.1889 -0.0966
 8977SOL    HW138567   4.383   0.924  15.813 -0.2587  0.9526 -0.7557
 8977SOL    HW238568   4.342   0.944  15.672  1.6362  1.2013  0.9980
 8978SOL     OW38569   2.875   4.072   9.778  0.1530  0.3606 -0.0164
 8978SOL    HW138570   2.842   4.019   9.851 -0.7805 -0.9381 -1.3659
 8978SOL    HW238571   2.882   4.012   9.703  0.5334  0.1835  0.1567
 8979SOL     OW38572   0.887   2.161   5.709  0.2218 -0.1434 -0.0463
 8979SOL    HW138573   0.818   2.136   5.769  0.5548 -0.5101  0.1885
 8979SOL    HW238574   0.961   2.115   5.750  0.9017  1.2703  0.3017
 8980SOL     OW38575   4.283   0.870  16.473  0.2192 -0.1080  0.1509
 8980SOL    HW138576   4.298   0.787  16.427  1.7153  0.6481 -0.7039
 8980SOL    HW238577   4.351   0.929  16.441 -0.7075  0.9075  0.0449
 8981SOL     OW38578   4.541   4.156   8.164  0.5012  0.0427 -0.1032
 8981SOL    HW138579   4.588   4.237   8.184 -0.2869  0.2572  0.9250
 8981SOL    HW238580   4.480   4.185   8.096 -2.0478 -1.0562  1.7213
 8982SOL     OW38581   2.776   0.710   5.864  0.5066  0.1751 -0.1961
 8982SOL    HW138582   2.803   0.729   5.774  3.0743 -1.0940  0.3125
 8982SOL    HW238583   2.701   0.770   5.871 -0.9119 -1.5612 -0.3366
 8983SOL     OW38584   0.001   3.942   2.504 -0.1124 -0.0905  0.1096
 8983SOL    HW138585   4.720   3.930   2.410 -2.4629  1.0373  0.3528
 8983SOL    HW238586   0.011   3.849   2.522 -1.1129 -0.1580  0.3561
 8984SOL     OW38587   3.648   2.409   4.202 -0.7066 -0.0607 -0.3642
 8984SOL    HW138588   3.651   2.321   4.166 -0.9802 -0.8912  1.6601
 8984SOL    HW238589   3.722   2.443   4.152  1.4374 -1.8512  1.6366
 8985SOL     OW38590   4.582   2.087  15.556 -0.3997  0.2499 -0.3532
 8985SOL    HW138591   4.504   2.048  15.517  0.7177  0.1684 -2.5154
 8985SOL    HW238592   4.644   2.024  15.521 -1.9432 -0.2498 -2.1988
 8986SOL     OW38593   0.438   2.368   5.512 -0.0441  0.2285  0.4329
 8986SOL    HW138594   0.343   2.358   5.502 -0.1390  1.9558 -0.4412
 8986SOL    HW238595   0.476   2.287   5.477 -3.4010 -1.3440  0.3528
 8987SOL     OW38596   0.955   0.561   5.471 -0.5231 -0.2021  0.0805
 8987SOL    HW138597   0.969   0.470   5.446 -0.4684  0.3466 -1.9004
 8987SOL    HW238598   0.861   0.573   5.460 -0.2904  2.3119  0.8534
 8988SOL     OW38599   2.501   1.013   2.614  0.0219  0.3302 -0.3727
 8988SOL    HW138600   2.537   1.010   2.525 -2.7047  0.6602 -1.5189
 8988SOL    HW238601   2.528   1.103   2.634  0.2455  0.5048 -1.4572
 8989SOL     OW38602   0.519   2.082   2.160 -0.1503  0.0637  0.2812
 8989SOL    HW138603   0.532   2.008   2.219  0.9334  0.1239  0.1052
 8989SOL    HW238604   0.594   2.073   2.102 -1.7467  0.9625 -1.9316
 8990SOL     OW38605   3.669   0.036   6.837 -0.1197 -0.0151 -0.1173
 8990SOL    HW138606   3.750   4.722   6.824 -0.6329 -0.9134  0.0240
 8990SOL    HW238607   3.664   0.059   6.929 -0.1903 -0.8600  0.0946
 8991SOL     OW38608   3.643   0.361   7.422  0.5974 -0.0792 -0.1284
 8991SOL    HW138609   3.735   0.387   7.433 -0.3041  2.8958  0.1486
 8991SOL    HW238610   3.622   0.390   7.333  0.2296  0.3207  0.0911
 8992SOL     OW38611   0.777   3.566  14.599 -0.2371  0.0499 -0.4242
 8992SOL    HW138612   0.805   3.588  14.510 -0.3264 -2.8580 -1.1854
 8992SOL    HW238613   0.833   3.498  14.634 -3.1075 -2.0490  0.1401
 8993SOL     OW38614   0.531   3.799  14.144  0.1302  0.3428  0.2498
 8993SOL    HW138615   0.600   3.777  14.207 -1.0712 -0.4771  1.2627
 8993SOL    HW238616   0.540   3.895  14.145 -2.2953  0.6175 -2.3604
 8994SOL     OW38617   2.073   0.357  12.747 -0.3668 -0.2331 -0.8305
 8994SOL    HW138618   2.002   0.292  12.746 -1.8972  1.4517 -0.7187
 8994SOL    HW238619   2.126   0.325  12.820 -1.4575  2.8607  1.2899
 8995SOL     OW38620   4.391   0.415   9.286  0.3221 -0.0277  0.3295
 8995SOL    HW138621   4.423   0.501   9.259 -0.0309 -0.1638 -0.5187
 8995SOL    HW238622   4.304   0.406   9.248  1.1679 -3.6487 -0.7737
 8996SOL     OW38623   1.607   1.561   1.656 -0.0367  0.2429  0.5530
 8996SOL    HW138624   1.697   1.570   1.624  0.4611  0.7389  2.0982
 8996SOL    HW238625   1.604   1.569   1.751 -0.9252  2.1062  0.3749
 8997SOL     OW38626   2.198   4.717   7.568  0.7948 -0.2024 -0.3514
 8997SOL    HW138627   2.282   4.707   7.524  0.8744 -1.7303  0.1222
 8997SOL    HW238628   2.222   0.047   7.634 -0.4532 -0.0182 -0.0891
 8998SOL     OW38629   0.042   1.913   4.070  0.0314 -0.1995  0.5895
 8998SOL    HW138630   0.015   1.963   4.147 -1.8026 -0.6185  0.2154
 8998SOL    HW238631   0.136   1.929   4.075  0.1185 -0.3990 -0.3270
 8999SOL     OW38632   1.301   3.101   4.221 -0.8716 -0.0678  0.2041
 8999SOL    HW138633   1.387   3.129   4.252 -0.1815 -0.1695 -1.6122
 8999SOL    HW238634   1.248   3.167   4.267 -0.5390 -2.0465  3.4574
 9000SOL     OW38635   1.618   2.044   3.136 -0.3361  0.8152  1.0967
 9000SOL    HW138636   1.535   2.092   3.133 -0.1831  0.8914 -2.0912
 9000SOL    HW238637   1.643   2.065   3.226  1.7884 -0.0799  0.7230
 9001SOL     OW38638   3.984   1.976   2.648 -0.5803 -0.3637 -0.2904
 9001SOL    HW138639   4.075   1.981   2.618 -0.1530 -0.9511  0.8654
 9001SOL    HW238640   3.940   2.018   2.575 -0.9309 -0.2099  0.0081
 9002SOL     OW38641   3.304   3.489  12.426 -0.7594  0.1839 -0.1730
 9002SOL    HW138642   3.330   3.397  12.413  2.1592  0.7041  1.9391
 9002SOL    HW238643   3.258   3.509  12.344  0.0462 -0.6932 -0.8470
 9003SOL     OW38644   3.693   1.337   5.904 -0.1371 -0.4203 -0.5297
 9003SOL    HW138645   3.773   1.389   5.908  1.3079 -2.6801  0.4272
 9003SOL    HW238646   3.717   1.247   5.927 -2.2611 -0.6047  0.9744
 9004SOL     OW38647   0.890   1.860   4.067  0.0273 -0.4589 -0.4786
 9004SOL    HW138648   0.869   1.953   4.066 -0.5737 -0.5972 -0.9847
 9004SOL    HW238649   0.925   1.840   3.980 -1.9732 -1.5658 -1.0608
 9005SOL     OW38650   2.973   2.731   6.915 -0.0041  0.0322  0.4593
 9005SOL    HW138651   2.897   2.712   6.971 -0.0961  0.4679  0.4760
 9005SOL    HW238652   2.931   2.785   6.849  0.7911 -0.1028 -0.1484
 9006SOL     OW38653   3.378   1.054   7.884  0.8195 -0.2030  0.3703
 9006SOL    HW138654   3.364   0.961   7.900  1.3745 -0.5108 -0.9626
 9006SOL    HW238655   3.407   1.080   7.972  3.3829 -0.2632 -0.4762
 9007SOL     OW38656   2.862   0.822   3.942 -0.2940  0.3080 -0.2764
 9007SOL    HW138657   2.934   0.837   4.003 -0.0550 -0.1749 -0.4364
 9007SOL    HW238658   2.784   0.835   3.996  1.4189 -2.6003  2.9253
 9008SOL     OW38659   2.324   0.262   3.239  0.0457 -0.0019 -0.2951
 9008SOL    HW138660   2.297   0.193   3.300  2.9006  0.1895  1.1627
 9008SOL    HW238661   2.283   0.337   3.280  0.3226  0.6826 -1.2675
 9009SOL     OW38662   1.890   3.320   1.905 -0.0868  0.1719 -0.3208
 9009SOL    HW138663   1.900   3.413   1.886  0.9935  0.5236  1.9564
 9009SOL    HW238664   1.797   3.307   1.886 -0.1068  3.0001 -2.1887
 9010SOL     OW38665   3.387   0.169   5.986 -0.2778  0.1780  0.0760
 9010SOL    HW138666   3.366   0.237   5.922  1.4737  1.0928  0.4586
 9010SOL    HW238667   3.483   0.178   5.989 -0.2257 -0.5661  0.6131
 9011SOL     OW38668   1.480   0.258   2.859  0.6155  0.2172  0.3328
 9011SOL    HW138669   1.406   0.317   2.844  0.5616  0.5316  1.8417
 9011SOL    HW238670   1.449   0.199   2.928 -1.1957 -0.6790 -1.2549
 9012SOL     OW38671   3.210   0.180   6.433 -0.4806  0.5493 -0.2881
 9012SOL    HW138672   3.181   0.261   6.391 -0.1598 -0.3840 -2.3406
 9012SOL    HW238673   3.265   0.143   6.364  0.7068  2.4292 -0.3681
 9013SOL     OW38674   2.340   3.397  14.368 -0.2240 -0.0559  0.2569
 9013SOL    HW138675   2.294   3.332  14.314  3.3668 -0.3769 -2.4429
 9013SOL    HW238676   2.288   3.373  14.445 -0.9708  0.3223 -0.1269
 9014SOL     OW38677   2.978   3.326   5.092  0.0546  0.5230 -0.0983
 9014SOL    HW138678   2.965   3.308   4.999 -0.5076 -1.3761  0.3511
 9014SOL    HW238679   3.064   3.288   5.105 -0.0216  0.6720  0.8413
 9015SOL     OW38680   1.171   2.904   5.804  0.2489 -0.3346  0.4416
 9015SOL    HW138681   1.249   2.849   5.794  0.4593 -0.0760  0.6442
 9015SOL    HW238682   1.149   2.890   5.896  1.3556 -1.1696  0.5807
 9016SOL     OW38683   3.013   3.508   0.613  0.0092 -0.2638  0.0977
 9016SOL    HW138684   2.961   3.494   0.534  0.5274 -1.5159 -0.0269
 9016SOL    HW238685   2.962   3.449   0.669 -1.3073  1.3305  0.5814
 9017SOL     OW38686   2.675   4.402   2.999 -0.3277 -0.0975 -0.0922
 9017SOL    HW138687   2.736   4.335   2.968 -1.1514 -1.3286  0.9592
 9017SOL    HW238688   2.727   4.450   3.063 -1.4166  1.6133 -0.4959
 9018SOL     OW38689   4.449   0.319   4.344 -0.0396 -0.3931 -0.2746
 9018SOL    HW138690   4.450   0.415   4.349  0.3968 -0.3863 -0.4739
 9018SOL    HW238691   4.530   0.302   4.297  0.5730  0.9809  0.2713
 9019SOL     OW38692   2.262   4.526   8.379 -0.2962 -0.8275  0.2954
 9019SOL    HW138693   2.299   4.597   8.431 -1.1743  0.2238 -0.5064
 9019SOL    HW238694   2.198   4.574   8.326 -0.3350  0.1891  1.2738
 9020SOL     OW38695   0.346   0.477   5.386  0.4056 -0.1575 -0.5276
 9020SOL    HW138696   0.349   0.566   5.353 -2.6218  0.7546  1.7065
 9020SOL    HW238697   0.259   0.442   5.368  0.1017  0.8926 -1.0420
 9021SOL     OW38698   2.151   3.586   0.866 -0.4734 -0.0742 -0.0361
 9021SOL    HW138699   2.116   3.670   0.837 -1.5584 -1.6598 -3.2796
 9021SOL    HW238700   2.187   3.548   0.786 -3.4806 -3.0473 -0.0199
 9022SOL     OW38701   0.319   2.662  16.490  0.0097 -0.6964 -0.0681
 9022SOL    HW138702   0.311   2.632  16.581  2.0982  0.3439  0.4752
 9022SOL    HW238703   0.234   2.705  16.487  0.7251  0.6079 -1.4318
 9023SOL     OW38704   1.936   2.529   8.554 -0.0540  0.1127  0.1322
 9023SOL    HW138705   1.898   2.610   8.519 -1.1171 -0.0522  0.9073
 9023SOL    HW238706   1.871   2.510   8.622  0.0923  0.3302  0.3344
 9024SOL     OW38707   1.190   1.244  11.058  0.0535 -0.4171 -0.2020
 9024SOL    HW138708   1.167   1.234  11.150 -1.5882  4.4310 -0.1137
 9024SOL    HW238709   1.185   1.337  11.037  3.7281  0.0739  1.0127
 9025SOL     OW38710   2.877   2.527  12.623 -0.0156  0.9578  0.3663
 9025SOL    HW138711   2.855   2.451  12.570  0.7120  1.1052 -0.1423
 9025SOL    HW238712   2.791   2.569  12.629 -1.0737 -1.3554  1.7551
 9026SOL     OW38713   0.892   0.476  12.735  0.3480 -0.4087  0.2719
 9026SOL    HW138714   0.820   0.535  12.757 -1.1875 -1.1842 -2.6674
 9026SOL    HW238715   0.911   0.444  12.823  0.8918 -1.6376 -0.2842
 9027SOL     OW38716   4.639   1.080   8.700 -0.0152  0.0851 -0.1202
 9027SOL    HW138717   4.722   1.034   8.717 -0.6552 -1.3412 -0.8938
 9027SOL    HW238718   4.618   1.068   8.608  1.8224 -4.1129  0.0186
 9028SOL     OW38719   2.218   4.195  16.817 -0.3575  0.3644 -0.2441
 9028SOL    HW138720   2.291   4.211  16.757 -1.3731 -0.3438 -1.6746
 9028SOL    HW238721   2.256   4.251  16.885  2.1522  0.5772 -1.8480
 9029SOL     OW38722   0.798   0.438   3.818  0.1375  0.4945 -0.3155
 9029SOL    HW138723   0.827   0.498   3.748  0.3949  0.5967 -0.1219
 9029SOL    HW238724   0.832   0.355   3.784  0.2043  1.2573 -2.1033
 9030SOL     OW38725   0.704   1.577   4.115 -0.2832 -0.0578  0.0821
 9030SOL    HW138726   0.793   1.542   4.104 -0.0389  0.9822 -1.2044
 9030SOL    HW238727   0.705   1.639   4.042 -1.5023  0.1636  0.2475
 9031SOL     OW38728   2.464   0.708  15.679 -0.2862 -0.1919  0.1764
 9031SOL    HW138729   2.473   0.618  15.710  1.5646 -0.6318 -1.6439
 9031SOL    HW238730   2.484   0.751  15.762  1.2603  1.7188 -1.1804
 9032SOL     OW38731   0.103   0.256   8.849  0.3178 -0.1938 -0.5743
 9032SOL    HW138732   0.121   0.268   8.755 -0.4915 -0.5730 -0.7840
 9032SOL    HW238733   0.130   0.342   8.878  0.1668 -1.0485  2.0616
 9033SOL     OW38734   1.666   4.084  11.021 -0.3532  0.4549  0.6736
 9033SOL    HW138735   1.762   4.083  11.018 -0.3525 -1.1745  1.0985
 9033SOL    HW238736   1.660   4.107  11.113  0.3666  0.0808  0.8124
 9034SOL     OW38737   3.481   2.561   6.320 -0.5603 -0.0106 -0.1119
 9034SOL    HW138738   3.529   2.586   6.399 -0.2058 -1.1081  0.0266
 9034SOL    HW238739   3.451   2.474   6.348 -1.4079  1.1797  2.7155
 9035SOL     OW38740   1.782   3.793   2.139  0.1265 -0.2836  0.3946
 9035SOL    HW138741   1.810   3.727   2.076 -2.1339 -0.9687  0.1165
 9035SOL    HW238742   1.704   3.823   2.092  1.1239  0.6863 -0.6330
 9036SOL     OW38743   0.056   2.191   1.483 -0.3015  0.1404  0.1789
 9036SOL    HW138744   4.720   2.228   1.430  1.6974  4.4172  0.4822
 9036SOL    HW238745   0.053   2.250   1.558  0.3496 -0.3085  0.5635
 9037SOL     OW38746   3.366   2.899  15.183  0.4223 -0.3762  1.1203
 9037SOL    HW138747   3.354   2.931  15.273  0.3843  2.1909  0.2011
 9037SOL    HW238748   3.280   2.910  15.143  0.2498  0.7076  1.7891
 9038SOL     OW38749   1.001   1.838   5.113  0.3162  0.4369  0.5551
 9038SOL    HW138750   0.910   1.818   5.138 -0.3589  1.4689 -1.0518
 9038SOL    HW238751   0.986   1.837   5.019 -1.6974  0.1306  0.8769
 9039SOL     OW38752   3.566   1.856   2.896 -0.4148 -0.5858 -0.0787
 9039SOL    HW138753   3.653   1.850   2.936 -0.2996  1.0737 -0.0654
 9039SOL    HW238754   3.510   1.838   2.971  0.8248  3.1280  1.7425
 9040SOL     OW38755   2.651   4.701  15.008  0.2064 -0.1684 -0.2127
 9040SOL    HW138756   2.619   0.045  15.052  0.0794 -0.5215  0.3233
 9040SOL    HW238757   2.612   4.639  15.069  1.4448  0.8301  1.5870
 9041SOL     OW38758   2.777   1.434   5.061  0.1354  0.2830  0.6781
 9041SOL    HW138759   2.762   1.350   5.106  3.3631 -0.0803  1.0950
 9041SOL    HW238760   2.761   1.414   4.969  2.3826 -1.5286  0.6617
 9042SOL     OW38761   2.214   0.518  13.761 -1.0000 -0.1847 -0.0045
 9042SOL    HW138762   2.216   0.612  13.744  0.0661 -0.7366 -2.8363
 9042SOL    HW238763   2.158   0.503  13.685 -0.4194 -0.0855 -0.4495
 9043SOL     OW38764   0.296   4.427   6.157  0.2997  0.1541  0.3262
 9043SOL    HW138765   0.334   4.339   6.160  0.9106  0.3663 -1.3101
 9043SOL    HW238766   0.299   4.451   6.249 -0.4710  2.9223 -0.3795
 9044SOL     OW38767   3.914   3.326  17.587  0.0497  0.3998 -0.0648
 9044SOL    HW138768   4.003   3.345  17.616 -0.7629  3.7255  0.1898
 9044SOL    HW238769   3.858   3.378  17.645  0.2769  1.1388 -0.5199
 9045SOL     OW38770   3.572   4.715   7.343 -0.2854 -0.0742 -0.0073
 9045SOL    HW138771   3.614   0.005   7.426 -0.3327 -0.5217  0.1464
 9045SOL    HW238772   3.480   4.717   7.368  0.2352  2.1219  1.7305
 9046SOL     OW38773   1.189   0.078   4.463  0.3852 -0.1698  0.2810
 9046SOL    HW138774   1.110   0.122   4.433  0.6365  1.2509  1.7212
 9046SOL    HW238775   1.171   0.084   4.557  0.7191 -0.3025  0.3525
 9047SOL     OW38776   4.220   2.673   6.555 -0.7038  0.0292 -0.5823
 9047SOL    HW138777   4.158   2.664   6.628 -0.7375  1.0183 -0.4894
 9047SOL    HW238778   4.222   2.581   6.528  0.5526 -0.0557 -0.1851
 9048SOL     OW38779   2.338   0.011  13.014 -0.2555 -0.3111  0.4401
 9048SOL    HW138780   2.397   4.698  12.956  0.7863  1.1184  0.3313
 9048SOL    HW238781   2.349   4.694  13.094  1.2980  0.7123  0.9053
 9049SOL     OW38782   2.306   1.750  14.494  0.3037 -0.1032  0.0327
 9049SOL    HW138783   2.332   1.692  14.567  1.9704  0.5295 -0.0557
 9049SOL    HW238784   2.356   1.823  14.531 -0.1194 -0.5124  1.4260
 9050SOL     OW38785   2.582   4.456   9.561 -0.0928 -0.0556  0.2683
 9050SOL    HW138786   2.521   4.473   9.632  0.2174  2.5088 -0.1081
 9050SOL    HW238787   2.583   4.361   9.577  2.7082  0.1810  1.5949
 9051SOL     OW38788   0.293   2.525   7.272  0.7846  0.2151 -0.4552
 9051SOL    HW138789   0.331   2.557   7.189  2.0314 -0.8708 -0.2966
 9051SOL    HW238790   0.307   2.600   7.330 -2.0989 -1.0181  1.8211
 9052SOL     OW38791   3.030   0.189  15.557 -0.3397  0.3441 -0.5290
 9052SOL    HW138792   3.029   0.205  15.462  2.6174 -0.8596 -0.7429
 9052SOL    HW238793   3.062   0.276  15.581  0.4973 -0.0657 -0.1752
 9053SOL     OW38794   4.080   0.180   7.014 -0.3013 -0.0893  0.4386
 9053SOL    HW138795   4.105   0.263   6.974 -1.6512 -0.1569 -0.5544
 9053SOL    HW238796   4.129   0.121   6.957  0.0421 -0.7886  1.4563
 9054SOL     OW38797   3.671   4.351   5.782 -0.4029 -0.5843 -0.4125
 9054SOL    HW138798   3.617   4.339   5.703 -0.8112  1.1769 -0.4092
 9054SOL    HW238799   3.606   4.382   5.845 -0.1218  0.7733 -0.7895
 9055SOL     OW38800   3.071   0.234  13.162  0.2360 -0.0543 -0.2650
 9055SOL    HW138801   3.155   0.206  13.126 -0.2126 -2.7998  0.8806
 9055SOL    HW238802   3.009   0.210  13.093 -1.9931  1.7245  1.0909
 9056SOL     OW38803   4.632   0.810   2.299 -0.5096  0.6574 -0.3695
 9056SOL    HW138804   4.658   0.728   2.256 -1.7937  1.0142 -1.8586
 9056SOL    HW238805   4.560   0.776   2.352  0.7364  1.1367  1.6165
 9057SOL     OW38806   4.050   4.544   3.634  0.4835  0.0526 -0.1270
 9057SOL    HW138807   4.117   4.507   3.690 -1.0709 -2.1992  0.2612
 9057SOL    HW238808   4.065   4.499   3.551  0.1733  0.2092 -0.2698
 9058SOL     OW38809   0.313   1.450   3.240 -0.3690 -0.1089  0.0472
 9058SOL    HW138810   0.340   1.362   3.214  1.4409  0.8287 -1.2714
 9058SOL    HW238811   0.365   1.502   3.177  0.5975 -0.8734  0.2128
 9059SOL     OW38812   2.053   0.025   8.037  0.2322  0.4548  0.3000
 9059SOL    HW138813   2.129   0.014   7.980  0.0374  1.6255 -0.1761
 9059SOL    HW238814   2.085   0.014   8.127 -1.0877  1.3036  0.8743
 9060SOL     OW38815   2.041   0.407  15.588 -0.4369  0.3002 -0.0181
 9060SOL    HW138816   2.084   0.425  15.672  1.4376 -0.6648 -0.7724
 9060SOL    HW238817   1.990   0.329  15.609 -1.0078  0.1590 -1.9553
 9061SOL     OW38818   1.644   3.255  14.817 -0.0296  0.2540 -0.2221
 9061SOL    HW138819   1.727   3.276  14.860 -1.7971  2.1502  2.3129
 9061SOL    HW238820   1.587   3.276  14.891  0.5947  0.4749  0.1955
 9062SOL     OW38821   4.072   0.597   4.919  0.4053 -0.0614  0.1151
 9062SOL    HW138822   4.139   0.529   4.919 -0.9338 -1.3876  1.4437
 9062SOL    HW238823   4.082   0.628   5.009 -1.0791  1.6504 -0.3073
 9063SOL     OW38824   3.980   3.589  17.471 -0.1532 -0.2672 -0.2336
 9063SOL    HW138825   3.921   3.517  17.496 -0.9199  0.3181 -0.3390
 9063SOL    HW238826   3.979   3.572  17.377 -1.6517 -0.8838 -0.1133
 9064SOL     OW38827   1.280   2.556   9.009 -0.2677  0.4422 -0.3071
 9064SOL    HW138828   1.247   2.629   8.955 -1.2233 -0.5458 -1.0544
 9064SOL    HW238829   1.348   2.607   9.052 -1.5300  1.3073  0.6623
 9065SOL     OW38830   1.798   1.241  15.178  0.7780 -0.2012 -0.3532
 9065SOL    HW138831   1.859   1.191  15.232  1.8912  0.5169 -0.9500
 9065SOL    HW238832   1.791   1.181  15.103  0.6577  0.1728 -0.6428
 9066SOL     OW38833   0.751   0.639   3.529  0.2469  0.1255  0.0568
 9066SOL    HW138834   0.722   0.726   3.557 -0.3002  0.5479 -1.8242
 9066SOL    HW238835   0.755   0.640   3.433  0.4041 -0.0422  0.0624
 9067SOL     OW38836   0.988   1.777   5.646  0.5895  0.0792 -0.3030
 9067SOL    HW138837   1.056   1.775   5.714 -0.2360 -0.9891  0.4906
 9067SOL    HW238838   0.985   1.694   5.598  0.6750 -0.0741 -0.0456
 9068SOL     OW38839   2.127   1.765  16.549 -0.6062  0.2242  0.0777
 9068SOL    HW138840   2.163   1.724  16.628 -0.8126  0.6762  0.4011
 9068SOL    HW238841   2.076   1.693  16.511 -0.0383  0.4470 -1.1085
 9069SOL     OW38842   0.732   3.228   8.293  0.0461 -0.5774  0.1155
 9069SOL    HW138843   0.715   3.317   8.261  0.8898 -1.0361 -1.6251
 9069SOL    HW238844   0.722   3.175   8.214 -1.2061  0.4188 -0.3996
 9070SOL     OW38845   4.429   3.309   9.156  0.1479 -0.0399 -0.4755
 9070SOL    HW138846   4.424   3.215   9.173 -0.4162  0.1955  0.6676
 9070SOL    HW238847   4.521   3.306   9.130  0.6529 -1.4357  1.4697
 9071SOL     OW38848   2.257   3.873   6.015  0.4493 -0.1344  0.4502
 9071SOL    HW138849   2.331   3.930   6.036 -0.5829  0.3352  2.7836
 9071SOL    HW238850   2.294   3.788   6.039 -0.0435 -0.9951 -1.8300
 9072SOL     OW38851   2.952   0.527   8.357  0.1233 -0.2112 -0.3146
 9072SOL    HW138852   2.957   0.551   8.264 -0.7235 -0.3176 -0.3827
 9072SOL    HW238853   2.904   0.604   8.385  0.9023  0.0851  0.2001
 9073SOL     OW38854   3.279   1.154   1.868  0.2427 -0.0151 -0.2667
 9073SOL    HW138855   3.283   1.107   1.951 -2.2325 -0.0092 -0.1497
 9073SOL    HW238856   3.364   1.196   1.873  0.1053  0.0133  1.5753
 9074SOL     OW38857   4.537   3.436   6.308  0.3974  0.2728 -0.8999
 9074SOL    HW138858   4.494   3.407   6.228 -1.2128 -0.5155  0.2686
 9074SOL    HW238859   4.458   3.465   6.353  0.0660 -3.3885  0.8445
 9075SOL     OW38860   2.421   4.681   7.179  0.0933  0.7739  0.3574
 9075SOL    HW138861   2.342   4.630   7.197  1.8354 -1.6128  1.2106
 9075SOL    HW238862   2.443   4.712   7.267 -0.7522 -0.3545  0.9649
 9076SOL     OW38863   0.068   4.469   1.825  0.1766 -0.6320 -1.4155
 9076SOL    HW138864   0.046   4.392   1.877  2.1286 -0.3296 -0.1326
 9076SOL    HW238865   0.157   4.462   1.790  2.2282  0.3695  3.6080
 9077SOL     OW38866   4.155   2.179   8.254 -0.1068  0.0645 -0.3013
 9077SOL    HW138867   4.126   2.094   8.220  1.4186 -0.8301  0.6538
 9077SOL    HW238868   4.130   2.242   8.186  0.3669 -1.0866 -1.5536
 9078SOL     OW38869   1.371   0.598   9.190 -0.1169 -0.2586  0.3291
 9078SOL    HW138870   1.301   0.588   9.254 -0.4558  2.1947  0.3331
 9078SOL    HW238871   1.371   0.691   9.169 -1.6428 -0.1073  1.0039
 9079SOL     OW38872   2.871   2.859   1.048 -0.4862  0.2912  0.0863
 9079SOL    HW138873   2.817   2.833   0.973 -0.8784  1.3514  0.0100
 9079SOL    HW238874   2.920   2.780   1.071 -0.4086  1.3537  3.5792
 9080SOL     OW38875   2.326   3.079   2.334  0.1985 -0.2915 -0.0805
 9080SOL    HW138876   2.258   3.016   2.360 -1.6409  2.0381  0.8243
 9080SOL    HW238877   2.320   3.078   2.239  1.4363 -0.6254 -0.1465
 9081SOL     OW38878   0.053   3.793   2.056 -0.5300  0.0524  0.0103
 9081SOL    HW138879   0.059   3.706   2.016  0.4489  0.5306 -0.8902
 9081SOL    HW238880   4.722   3.839   2.004  0.3006 -2.2475 -3.0783
 9082SOL     OW38881   0.973   2.669   8.952 -0.0087 -0.0225  0.3997
 9082SOL    HW138882   1.032   2.742   8.969 -1.3516  1.1271  0.1594
 9082SOL    HW238883   0.900   2.702   9.005 -0.6615 -0.2588 -0.3536
 9083SOL     OW38884   1.681   2.784   9.299 -0.7862  0.6589 -0.3296
 9083SOL    HW138885   1.762   2.816   9.338  0.8957 -2.2777 -1.4327
 9083SOL    HW238886   1.652   2.706   9.346  0.8043  1.5241  2.1104
 9084SOL     OW38887   1.744   2.900   1.292 -0.1563 -0.3215  0.0646
 9084SOL    HW138888   1.735   2.823   1.236 -1.1102  0.3134 -0.6387
 9084SOL    HW238889   1.831   2.925   1.261 -0.3814  1.0756  0.5589
 9085SOL     OW38890   0.582   1.101  10.191 -0.5425  0.3250  0.7063
 9085SOL    HW138891   0.491   1.112  10.215 -0.6855 -1.9462  1.2142
 9085SOL    HW238892   0.608   1.068  10.277 -0.0541 -2.1953 -0.4177
 9086SOL     OW38893   1.589   4.663   9.892 -0.1844  0.5478  0.3036
 9086SOL    HW138894   1.546   4.707   9.966  0.3798 -0.5157  1.2676
 9086SOL    HW238895   1.651   4.595   9.919  0.4483  0.7055 -0.7561
 9087SOL     OW38896   2.041   1.321   7.595  0.1949  0.8217  0.1041
 9087SOL    HW138897   2.036   1.241   7.544  0.1645  0.0393  1.3246
 9087SOL    HW238898   2.010   1.388   7.534 -2.1224 -0.8190 -0.5096
 9088SOL     OW38899   2.381   1.344   8.276  0.2093  1.1424 -0.1726
 9088SOL    HW138900   2.368   1.252   8.255 -3.1396  1.7289 -0.5858
 9088SOL    HW238901   2.302   1.376   8.320 -0.5280 -3.1394  1.5390
 9089SOL     OW38902   0.809   4.151   9.216 -0.2057  0.2310 -0.2637
 9089SOL    HW138903   0.869   4.224   9.200 -0.0452 -0.0216 -0.8316
 9089SOL    HW238904   0.732   4.190   9.257 -1.7966 -1.7486 -1.3723
 9090SOL     OW38905   0.061   2.968   0.971  0.4726  0.0090  0.0608
 9090SOL    HW138906   0.077   2.973   0.876  2.7848 -0.1808  0.4358
 9090SOL    HW238907   0.146   3.005   0.994  0.5214  0.0586 -0.1951
 9091SOL     OW38908   0.127   4.382  15.525  0.0009  0.0330  0.0197
 9091SOL    HW138909   0.064   4.454  15.523 -0.0663  0.0004  0.7488
 9091SOL    HW238910   0.187   4.420  15.461  0.0117  1.7109  1.0213
 9092SOL     OW38911   4.323   0.292  15.666 -0.3785 -0.0953  0.0746
 9092SOL    HW138912   4.286   0.301  15.579  1.0149 -1.6782 -0.6819
 9092SOL    HW238913   4.326   0.382  15.696  0.6052  0.6333 -2.2328
 9093SOL     OW38914   1.134   2.344  17.492 -0.5303  0.6515  0.7234
 9093SOL    HW138915   1.177   2.302  17.567  0.0479  0.7319  0.4424
 9093SOL    HW238916   1.213   2.384  17.454 -0.8155 -2.1530 -2.8261
 9094SOL     OW38917   2.845   3.444  14.418 -0.0977  0.4425  0.1821
 9094SOL    HW138918   2.888   3.522  14.383  1.6753 -0.3339  0.6193
 9094SOL    HW238919   2.754   3.472  14.429 -0.2777 -0.7998  1.8249
 9095SOL     OW38920   4.146   1.837   4.105 -0.5226  0.2534 -0.1430
 9095SOL    HW138921   4.174   1.929   4.106  0.1157  0.0566 -0.1060
 9095SOL    HW238922   4.106   1.826   4.191 -0.3663 -2.3608 -0.4212
 9096SOL     OW38923   1.749   2.506   8.755 -0.4076  0.3959  0.1196
 9096SOL    HW138924   1.655   2.489   8.757 -0.1433 -1.1170  0.1654
 9096SOL    HW238925   1.769   2.506   8.848 -0.6362  1.7014  0.1613
 9097SOL     OW38926   2.622   0.074   9.524  0.5420 -0.1058  0.0334
 9097SOL    HW138927   2.708   0.092   9.561 -0.3323 -1.1180  2.5122
 9097SOL    HW238928   2.628   0.105   9.433  0.3491 -0.2842 -0.0385
 9098SOL     OW38929   3.575   1.136   3.098  0.4713 -0.0425 -0.2179
 9098SOL    HW138930   3.521   1.180   3.032  2.8332  0.4099 -1.8433
 9098SOL    HW238931   3.528   1.054   3.113 -2.5254  1.8988  0.9606
 9099SOL     OW38932   0.388   0.053   4.815 -0.7593  0.7313  0.1271
 9099SOL    HW138933   0.398   0.122   4.881  0.0459 -0.0181  0.7972
 9099SOL    HW238934   0.434   0.084   4.737 -1.4865 -0.6548 -0.8563
 9100SOL     OW38935   2.874   2.450   2.416  0.0821 -0.3053 -0.3403
 9100SOL    HW138936   2.935   2.522   2.435  0.2855 -0.1376 -1.6175
 9100SOL    HW238937   2.849   2.429   2.505  1.1510 -1.4927 -0.3152
 9101SOL     OW38938   3.030   1.738   2.968 -0.2591  0.3354 -0.2786
 9101SOL    HW138939   2.964   1.731   2.900 -0.2660 -2.2824  0.0083
 9101SOL    HW238940   3.070   1.654   2.946 -1.1167  0.4008 -2.0838
 9102SOL     OW38941   2.664   2.479   6.299  0.1476  0.3171  0.7508
 9102SOL    HW138942   2.583   2.445   6.261  0.1523  2.2447 -0.9799
 9102SOL    HW238943   2.680   2.422   6.374  1.4510  0.6367  0.7120
 9103SOL     OW38944   1.765   0.643   3.642  0.4275 -0.4249  0.1404
 9103SOL    HW138945   1.748   0.556   3.605 -1.3305  0.3758 -0.9516
 9103SOL    HW238946   1.764   0.616   3.734 -1.7224 -0.2637  0.1820
 9104SOL     OW38947   2.034   3.926  11.369  0.0932  0.1558 -0.2736
 9104SOL    HW138948   2.029   4.022  11.372  2.9516  0.2967  0.6562
 9104SOL    HW238949   1.974   3.911  11.297 -1.0800 -0.8197  0.9157
 9105SOL     OW38950   3.929   1.117  10.951  0.6767  1.0155  0.1631
 9105SOL    HW138951   3.937   1.211  10.967  1.3572  0.6633  1.7969
 9105SOL    HW238952   3.854   1.124  10.892 -0.9134 -0.3825  2.0172
 9106SOL     OW38953   1.589   3.473   5.979 -0.2185  0.3870  0.1552
 9106SOL    HW138954   1.662   3.492   6.038 -0.5095  0.3478  0.5289
 9106SOL    HW238955   1.589   3.552   5.925 -1.0355  1.4342  1.6787
 9107SOL     OW38956   2.188   4.298   4.002  0.2334  0.0207 -0.3940
 9107SOL    HW138957   2.245   4.272   4.074  1.1174  0.2176 -1.0143
 9107SOL    HW238958   2.237   4.251   3.934 -0.9313 -1.1840 -0.3895
 9108SOL     OW38959   3.296   4.687   4.137  0.6210  0.3880 -0.4493
 9108SOL    HW138960   3.358   0.010   4.092  0.0737  1.4863  0.1853
 9108SOL    HW238961   3.259   4.630   4.070  0.3274  0.2043 -0.1317
 9109SOL     OW38962   3.756   4.127  17.676  0.8610 -0.1497 -0.1193
 9109SOL    HW138963   3.839   4.141  17.722  0.2286  0.1436  0.9479
 9109SOL    HW238964   3.766   4.038  17.642  3.2305  0.7299 -1.6866
 9110SOL     OW38965   1.606   1.291   6.582 -0.0951  0.2433 -0.0322
 9110SOL    HW138966   1.674   1.251   6.636 -1.8663  1.0772  2.8254
 9110SOL    HW238967   1.534   1.268   6.641 -0.7958  0.4852 -0.7968
 9111SOL     OW38968   2.982   0.923   7.688  0.5737 -0.3989  0.5059
 9111SOL    HW138969   2.965   0.905   7.780  0.2630  1.6516  0.8462
 9111SOL    HW238970   2.995   1.017   7.701  0.6900 -0.5026  1.1515
 9112SOL     OW38971   0.509   0.106   2.034  0.1335 -0.2940  0.1774
 9112SOL    HW138972   0.465   0.159   2.101 -1.6887  0.2841 -1.4981
 9112SOL    HW238973   0.596   0.088   2.070 -0.3370 -2.4021  0.2694
 9113SOL     OW38974   3.181   2.417   4.685  0.2299 -0.3070 -0.0824
 9113SOL    HW138975   3.109   2.368   4.725 -0.2603  0.8660  0.5020
 9113SOL    HW238976   3.238   2.352   4.646 -1.7089 -2.6140  0.8805
 9114SOL     OW38977   3.709   1.131   5.691 -0.0974 -0.1030  0.0080
 9114SOL    HW138978   3.626   1.143   5.644 -0.9867  1.0179  1.8625
 9114SOL    HW238979   3.719   1.213   5.738  0.7328  0.1581 -0.6297
 9115SOL     OW38980   2.590   1.949   8.793 -0.7843 -0.3713  0.5423
 9115SOL    HW138981   2.585   2.045   8.792  0.1683 -0.3540 -1.7421
 9115SOL    HW238982   2.667   1.935   8.847  0.6891  0.4184 -1.3701
 9116SOL     OW38983   1.401   3.355   4.829  0.0363  0.3441 -0.1832
 9116SOL    HW138984   1.493   3.370   4.852  0.4168 -0.3496 -1.2885
 9116SOL    HW238985   1.352   3.367   4.911 -1.8931 -1.2549 -1.1107
 9117SOL     OW38986   3.420   3.128   0.693  0.6761 -0.8876  0.2605
 9117SOL    HW138987   3.329   3.101   0.682  0.5729 -0.4000 -0.0760
 9117SOL    HW238988   3.413   3.214   0.652 -2.1589 -1.7500 -1.0834
 9118SOL     OW38989   1.781   1.369   7.806  0.2309  0.1827  0.8025
 9118SOL    HW138990   1.720   1.378   7.733 -0.6458 -0.1548  1.4997
 9118SOL    HW238991   1.800   1.276   7.802 -0.6364  0.0763 -0.9364
 9119SOL     OW38992   0.140   3.791   2.877 -0.2583  0.1890 -0.0193
 9119SOL    HW138993   0.233   3.774   2.860 -0.0899  0.4237  0.6619
 9119SOL    HW238994   0.108   3.702   2.863  1.7536 -0.5062 -0.1890
 9120SOL     OW38995   1.444   0.533   4.343 -0.2351 -0.0404 -0.0050
 9120SOL    HW138996   1.438   0.440   4.363  0.1849 -0.4001 -1.5344
 9120SOL    HW238997   1.521   0.551   4.289 -1.6128  0.8085 -1.6950
 9121SOL     OW38998   3.163   0.458   2.359 -0.1792  0.2028  0.3557
 9121SOL    HW138999   3.195   0.538   2.317  2.7415 -1.0728  0.1803
 9121SOL    HW239000   3.078   0.488   2.392 -1.3802 -1.8820 -0.8142
 9122SOL     OW39001   4.625   1.494  16.835  0.0180 -0.5779  0.2884
 9122SOL    HW139002   4.642   1.503  16.929 -1.0323 -1.6066  0.5805
 9122SOL    HW239003   4.574   1.572  16.817  1.0656  0.0962  0.1988
 9123SOL     OW39004   1.539   2.435   5.420 -0.0520  0.5688 -0.4561
 9123SOL    HW139005   1.566   2.402   5.334 -0.9948 -1.6170  0.0914
 9123SOL    HW239006   1.614   2.483   5.456 -0.3894 -1.5091  2.9995
 9124SOL     OW39007   1.383   2.814   7.293 -0.0896 -0.2922  0.0696
 9124SOL    HW139008   1.423   2.805   7.206  0.2937 -1.8923  0.4124
 9124SOL    HW239009   1.289   2.799   7.285 -0.1137 -0.2420  0.2879
 9125SOL     OW39010   3.550   0.649  13.876  0.9480 -0.1905 -0.0302
 9125SOL    HW139011   3.634   0.651  13.921  0.9796 -4.7961  0.1735
 9125SOL    HW239012   3.500   0.581  13.922 -1.8081  1.2041 -0.9276
 9126SOL     OW39013   1.372   2.549   3.487  0.1258  0.3081 -0.0813
 9126SOL    HW139014   1.317   2.484   3.443  1.0809 -1.2046  0.9818
 9126SOL    HW239015   1.370   2.630   3.436 -0.2429  1.3252  1.5525
 9127SOL     OW39016   2.114   2.094   9.087  0.2191 -0.3261  0.9139
 9127SOL    HW139017   2.204   2.080   9.116  0.4664  0.9653  0.7826
 9127SOL    HW239018   2.073   2.016   9.125 -1.5782  0.7244  1.1723
 9128SOL     OW39019   2.533   3.418   3.332  0.4237 -0.2552  0.5620
 9128SOL    HW139020   2.444   3.439   3.359  0.0956 -0.9959  0.0410
 9128SOL    HW239021   2.592   3.435   3.406 -0.3660  1.5046  0.8001
 9129SOL     OW39022   1.016   1.683  12.909  0.4361  0.4119 -0.0830
 9129SOL    HW139023   1.070   1.647  12.979  0.3485 -0.1600 -0.3081
 9129SOL    HW239024   1.057   1.655  12.827 -2.3450  2.0174 -2.0444
 9130SOL     OW39025   1.865   1.656  11.681 -0.1907  0.1116  0.4066
 9130SOL    HW139026   1.863   1.691  11.771  0.6735 -0.7240  0.7446
 9130SOL    HW239027   1.883   1.565  11.700 -1.7704 -0.4820 -0.9210
 9131SOL     OW39028   0.170   2.801   0.389  0.4364  0.1814 -0.2511
 9131SOL    HW139029   0.101   2.850   0.345  1.1450  0.4284 -1.0879
 9131SOL    HW239030   0.135   2.712   0.387  1.3808 -0.1583 -1.8017
 9132SOL     OW39031   3.689   4.323   6.612  0.5251  0.3481  0.0023
 9132SOL    HW139032   3.640   4.405   6.617  0.6027  0.2680  2.0426
 9132SOL    HW239033   3.772   4.350   6.650  2.0601 -1.5157 -2.0360
 9133SOL     OW39034   3.940   1.029  11.448  0.2712 -0.3126  0.0202
 9133SOL    HW139035   3.968   1.082  11.373  1.2758 -0.4036  0.3250
 9133SOL    HW239036   3.934   1.093  11.519  3.2418 -0.9569  0.8780
 9134SOL     OW39037   4.508   4.280   9.131 -0.1568 -0.2414 -0.1317
 9134SOL    HW139038   4.552   4.236   9.058  0.6064  1.3402 -0.6245
 9134SOL    HW239039   4.574   4.345   9.155 -1.7445  0.7604  1.4962
 9135SOL     OW39040   3.923   4.103  15.615  0.2014 -0.3748 -0.0252
 9135SOL    HW139041   3.941   4.075  15.525 -3.5245  0.4652 -1.0076
 9135SOL    HW239042   3.956   4.193  15.606 -0.2691 -0.2882 -0.8898
 9136SOL     OW39043   1.982   3.322  10.921  0.1096 -0.4652 -0.0618
 9136SOL    HW139044   2.035   3.247  10.892 -1.2213 -0.9484 -1.2460
 9136SOL    HW239045   1.984   3.309  11.016 -0.8245  1.1450  0.1791
 9137SOL     OW39046   1.641   4.304   4.415 -0.6258  0.0825  0.1650
 9137SOL    HW139047   1.602   4.282   4.500 -0.2236 -2.8076 -0.3911
 9137SOL    HW239048   1.725   4.258   4.412 -0.5081  0.0599  3.1163
 9138SOL     OW39049   0.252   2.444   0.722 -0.4445  0.6322  0.0891
 9138SOL    HW139050   0.230   2.436   0.815 -0.3603  0.8968  0.1323
 9138SOL    HW239051   0.200   2.522   0.699  1.7634  1.7076 -1.2878
 9139SOL     OW39052   1.606   1.860   6.682 -0.4461 -0.1924 -0.1700
 9139SOL    HW139053   1.538   1.908   6.635 -2.0136 -1.9999  0.2946
 9139SOL    HW239054   1.617   1.784   6.625 -1.6291  0.5179 -1.3572
 9140SOL     OW39055   3.241   1.538   2.965 -0.6116 -0.0316  0.0375
 9140SOL    HW139056   3.322   1.545   3.016 -1.7186 -1.0423  1.9102
 9140SOL    HW239057   3.255   1.587   2.884  0.7792  1.0439  0.9386
 9141SOL     OW39058   2.247   4.606   5.182  0.5392  0.0087  0.4056
 9141SOL    HW139059   2.180   4.667   5.213  0.3020 -0.3663  0.6381
 9141SOL    HW239060   2.323   4.664   5.187  0.6256  0.2963 -3.8664
 9142SOL     OW39061   2.718   1.651   1.475 -0.4983  0.1788 -0.2529
 9142SOL    HW139062   2.646   1.712   1.488 -2.1175 -1.9728  0.8494
 9142SOL    HW239063   2.660   1.580   1.447  0.2635  0.6348 -2.9834
 9143SOL     OW39064   0.779   4.534   5.918  0.2551  0.0949 -0.0857
 9143SOL    HW139065   0.866   4.505   5.891  0.9083  0.9787  1.0917
 9143SOL    HW239066   0.761   4.607   5.858  3.1527  0.9085  0.0122
 9144SOL     OW39067   1.867   0.318   2.767 -0.2840 -0.0486  0.1593
 9144SOL    HW139068   1.948   0.268   2.750 -1.8709 -1.5863 -2.9685
 9144SOL    HW239069   1.902   0.403   2.793 -0.7613  0.5223 -1.0610
 9145SOL     OW39070   2.334   1.531   1.929 -0.0580  0.5856 -0.1143
 9145SOL    HW139071   2.306   1.507   2.018 -0.9876  0.6052 -0.4027
 9145SOL    HW239072   2.266   1.591   1.900  0.6538  1.5496  0.2043
 9146SOL     OW39073   2.238   1.242   4.855 -0.3447 -0.0246  0.5178
 9146SOL    HW139074   2.188   1.221   4.934  0.2250 -2.1654  0.3011
 9146SOL    HW239075   2.328   1.240   4.887 -0.1715 -1.9661 -0.0691
 9147SOL     OW39076   2.332   2.680   6.732  0.0946 -0.1327 -0.3875
 9147SOL    HW139077   2.413   2.629   6.739  0.0006 -0.2588 -0.2197
 9147SOL    HW239078   2.265   2.618   6.701 -1.1445  0.2098  1.6302
 9148SOL     OW39079   4.331   2.794   1.772 -0.2668 -0.3002 -0.3116
 9148SOL    HW139080   4.359   2.746   1.850 -1.1161  2.3666  1.6386
 9148SOL    HW239081   4.356   2.885   1.786  1.0374 -0.7227  0.0935
 9149SOL     OW39082   1.320   1.424   7.111 -0.0564  0.5457  0.8432
 9149SOL    HW139083   1.268   1.348   7.134  0.4859 -0.3713 -0.9808
 9149SOL    HW239084   1.304   1.474   7.191 -1.9474 -0.5753  1.1659
 9150SOL     OW39085   1.112   1.651   8.267  0.2991 -0.3905 -0.1574
 9150SOL    HW139086   1.124   1.574   8.323 -1.8601  0.1143  1.0305
 9150SOL    HW239087   1.070   1.602   8.196  0.8473 -1.5328  0.3068
 9151SOL     OW39088   1.755   1.382  13.437 -0.7246  0.4196 -0.0602
 9151SOL    HW139089   1.762   1.473  13.409 -0.3513 -0.0679 -1.5690
 9151SOL    HW239090   1.726   1.395  13.527 -1.6566 -0.9339 -0.1669
 9152SOL     OW39091   4.579   2.014   5.190 -0.3240 -0.7152 -0.3473
 9152SOL    HW139092   4.494   2.055   5.208 -0.2987 -0.2975 -1.1799
 9152SOL    HW239093   4.631   2.060   5.256  0.9192  1.4630 -2.8541
 9153SOL     OW39094   2.077   4.356   4.624 -0.0113 -0.1801 -0.1802
 9153SOL    HW139095   2.009   4.417   4.594 -1.6074 -1.5524  0.6477
 9153SOL    HW239096   2.053   4.349   4.717 -1.6355 -3.0300 -0.8256
 9154SOL     OW39097   1.539   2.558   5.007 -0.2473 -0.4811 -0.2087
 9154SOL    HW139098   1.483   2.567   5.084 -1.1923  1.5673 -1.1471
 9154SOL    HW239099   1.505   2.475   4.973 -2.0816  0.3069 -0.2591
 9155SOL     OW39100   3.051   1.398   2.425  0.1598 -0.8028  0.1658
 9155SOL    HW139101   3.063   1.344   2.347 -0.2274 -1.4954  0.5830
 9155SOL    HW239102   3.067   1.483   2.384  0.1653 -1.2756 -0.8084
 9156SOL     OW39103   0.434   0.631   1.221 -0.0992  0.1987 -0.1478
 9156SOL    HW139104   0.355   0.685   1.229 -0.7028 -0.8409  0.9929
 9156SOL    HW239105   0.390   0.547   1.215  1.0640 -0.4432  0.3362
 9157SOL     OW39106   1.256   2.881   7.811  0.4162  0.4304  0.6332
 9157SOL    HW139107   1.294   2.856   7.728 -2.0213  0.6529 -0.5573
 9157SOL    HW239108   1.166   2.893   7.781  0.9619 -1.8886 -1.8891
 9158SOL     OW39109   4.710   1.073   7.890 -1.0918 -0.2389  0.1459
 9158SOL    HW139110   0.001   1.042   7.803  1.2678 -1.6655  1.3367
 9158SOL    HW239111   4.617   1.093   7.879 -0.7632 -0.0981 -2.3331
 9159SOL     OW39112   1.425   4.608   9.624 -0.2742  0.1727  1.0179
 9159SOL    HW139113   1.519   4.614   9.637 -0.0857 -1.7237  0.6530
 9159SOL    HW239114   1.395   4.570   9.706  1.0180 -0.2282  1.3033
 9160SOL     OW39115   1.690   1.787   7.108 -0.0681  0.1893  0.0084
 9160SOL    HW139116   1.663   1.826   7.191  2.6132 -1.3653  1.5784
 9160SOL    HW239117   1.603   1.749   7.092 -0.2140  1.0038 -1.1544
 9161SOL     OW39118   0.877   3.362   5.086  0.0120 -0.4400  0.4965
 9161SOL    HW139119   0.926   3.313   5.151 -0.9632 -0.4954  1.1895
 9161SOL    HW239120   0.788   3.330   5.101 -1.0774  1.2134 -2.3731
 9162SOL     OW39121   3.382   4.035  15.228 -0.3986 -0.3572 -0.1638
 9162SOL    HW139122   3.475   4.059  15.231 -1.1741  2.6956 -0.2671
 9162SOL    HW239123   3.343   4.078  15.304  2.5550  2.7874 -0.3796
 9163SOL     OW39124   3.962   2.249   0.604  0.1029 -0.2810  0.1158
 9163SOL    HW139125   3.881   2.299   0.594  0.6380  0.6136  0.3143
 9163SOL    HW239126   3.937   2.176   0.547  0.3648  1.4821 -2.2414
 9164SOL     OW39127   3.964   2.497  10.285 -0.0787  0.2943 -0.0860
 9164SOL    HW139128   3.994   2.561  10.349 -1.7020  1.2165 -0.2628
 9164SOL    HW239129   4.031   2.429  10.287  1.3278  1.6725 -1.3898
 9165SOL     OW39130   2.643   3.878   5.900  0.1961  0.0417 -0.3623
 9165SOL    HW139131   2.695   3.802   5.926  1.8390  1.5980  0.9023
 9165SOL    HW239132   2.591   3.846   5.826  0.1462 -1.6825  0.4198
 9166SOL     OW39133   2.335   1.558   4.571 -0.6333  0.2750 -0.2051
 9166SOL    HW139134   2.262   1.592   4.520  0.2506  0.9374 -1.0159
 9166SOL    HW239135   2.284   1.551   4.652 -0.3422 -1.0725 -0.1363
 9167SOL     OW39136   1.400   1.913   2.863 -0.2954  0.4551 -0.0222
 9167SOL    HW139137   1.384   1.839   2.804 -0.4958  0.0099  0.5957
 9167SOL    HW239138   1.458   1.962   2.805  2.7418 -1.2033  1.6545
 9168SOL     OW39139   2.516   1.761   8.606 -0.0621 -0.4545 -0.0254
 9168SOL    HW139140   2.529   1.818   8.682  0.0227 -0.5352  0.0208
 9168SOL    HW239141   2.576   1.691   8.630 -0.0782  0.5970  3.2018
 9169SOL     OW39142   0.394   0.035   7.016  0.5782 -0.1239  0.2366
 9169SOL    HW139143   0.316   0.021   6.962  0.2025  2.0091  0.2448
 9169SOL    HW239144   0.439   0.113   6.982 -0.7573  1.1358  1.4031
 9170SOL     OW39145   1.765   3.530   6.786 -0.3578 -0.0240  0.2810
 9170SOL    HW139146   1.688   3.475   6.797  0.4255 -1.5623 -2.0191
 9170SOL    HW239147   1.839   3.469   6.778 -0.7003 -0.3790 -0.1302
 9171SOL     OW39148   3.889   1.547  12.778  0.2446  0.3219 -0.0023
 9171SOL    HW139149   3.945   1.586  12.845  1.5578 -0.0428 -0.8943
 9171SOL    HW239150   3.872   1.628  12.729  0.5679 -0.4299 -1.3544
 9172SOL     OW39151   3.995   0.068   1.157  0.3538  0.3316 -0.5156
 9172SOL    HW139152   4.039   4.723   1.187  0.5798 -0.4814 -3.0144
 9172SOL    HW239153   4.045   0.139   1.196 -0.3953 -0.3123  1.6729
 9173SOL     OW39154   3.000   3.646   4.898 -0.4462 -0.2992 -0.1335
 9173SOL    HW139155   3.085   3.632   4.938 -1.8154 -1.6241  2.3124
 9173SOL    HW239156   2.936   3.622   4.965 -0.9693  2.5770  0.3928
 9174SOL     OW39157   2.932   1.578   9.994 -0.6125 -0.2895  0.2646
 9174SOL    HW139158   2.945   1.484   9.982 -2.9319 -0.3806 -1.3765
 9174SOL    HW239159   2.861   1.596   9.933 -1.4201 -2.0576  0.6954
 9175SOL     OW39160   3.840   0.076   0.045  0.0915 -0.1308  0.0247
 9175SOL    HW139161   3.824   0.023   0.124 -1.0126  1.1010  0.6217
 9175SOL    HW239162   3.820   0.164   0.077 -0.4540 -0.3544  0.2969
 9176SOL     OW39163   4.376   3.682   0.300  0.1396 -0.0700 -0.5706
 9176SOL    HW139164   4.338   3.755   0.251  1.0435  1.1997  0.5913
 9176SOL    HW239165   4.301   3.638   0.340  0.4794 -0.2938 -0.1698
 9177SOL     OW39166   0.335   1.505   4.369  0.2930 -1.4194  0.2909
 9177SOL    HW139167   0.384   1.464   4.298  2.4875 -0.1725  1.0711
 9177SOL    HW239168   0.243   1.476   4.369 -0.1817  0.1874  3.4337
 9178SOL     OW39169   0.687   1.822  16.983 -0.4956 -0.2145  0.4930
 9178SOL    HW139170   0.720   1.912  16.978  0.0965 -0.6189 -2.4099
 9178SOL    HW239171   0.603   1.818  17.030 -1.7768  1.0762 -1.6920
 9179SOL     OW39172   1.113   1.354  11.889  0.0342  0.5523 -0.1985
 9179SOL    HW139173   1.200   1.378  11.919  0.0347  1.3260 -0.8009
 9179SOL    HW239174   1.119   1.395  11.803 -1.1596  1.4040  0.1159
 9180SOL     OW39175   4.724   1.752   5.602  0.3193  0.2432  0.1154
 9180SOL    HW139176   4.721   1.758   5.506 -0.9239  0.3753  0.1674
 9180SOL    HW239177   4.647   1.806   5.616 -0.0005 -0.0836 -0.3778
 9181SOL     OW39178   0.693   1.180   3.095  0.5729 -0.1514  0.1139
 9181SOL    HW139179   0.740   1.103   3.126 -0.3956 -1.3298 -1.3190
 9181SOL    HW239180   0.600   1.172   3.118  0.2625 -0.3225 -1.1961
 9182SOL     OW39181   2.074   2.193   2.581 -0.4864  0.5840  0.8545
 9182SOL    HW139182   2.022   2.178   2.502  1.8429 -1.3435 -0.3174
 9182SOL    HW239183   2.023   2.148   2.649 -0.7553  0.6977  0.7264
 9183SOL     OW39184   0.246   3.770  14.247  0.2947 -0.1019 -0.3232
 9183SOL    HW139185   0.265   3.679  14.224  0.4425  0.0897 -0.9599
 9183SOL    HW239186   0.325   3.820  14.230  0.5465 -0.3896  0.0081
 9184SOL     OW39187   1.395   3.942   3.815  0.5473 -0.3077 -0.5210
 9184SOL    HW139188   1.352   3.916   3.897  0.0840  1.7253 -0.1397
 9184SOL    HW239189   1.488   3.931   3.835  0.1091  0.6560  2.0719
 9185SOL     OW39190   3.582   3.554   1.126 -0.0457 -0.2945 -0.4605
 9185SOL    HW139191   3.675   3.571   1.140 -0.3421 -0.1182  1.2818
 9185SOL    HW239192   3.591   3.491   1.055 -0.6001 -0.9084  0.0030
 9186SOL     OW39193   2.117   1.209   5.110  0.0856 -0.5725 -0.1528
 9186SOL    HW139194   2.148   1.266   5.180  0.7949 -3.1420  1.6055
 9186SOL    HW239195   2.022   1.202   5.118 -0.3254  4.2661 -0.6709
 9187SOL     OW39196   3.281   4.163   5.460 -0.3873 -0.1213 -0.4592
 9187SOL    HW139197   3.307   4.072   5.446 -1.9774 -0.6600  0.1176
 9187SOL    HW239198   3.274   4.161   5.555 -0.0399  0.2178 -0.4264
 9188SOL     OW39199   0.467   4.117   6.392 -0.8644 -0.5194  0.3774
 9188SOL    HW139200   0.508   4.118   6.306 -2.2817 -0.4817 -0.2780
 9188SOL    HW239201   0.383   4.155   6.370 -0.6651  0.1008  0.6865
 9189SOL     OW39202   2.244   0.817   1.561 -0.2557  0.0924  0.1143
 9189SOL    HW139203   2.215   0.907   1.572 -1.7043 -0.7190  2.8544
 9189SOL    HW239204   2.329   0.828   1.518  0.0910  1.7079  1.2490
 9190SOL     OW39205   2.672   2.995   7.830  0.0800 -0.0143 -0.8307
 9190SOL    HW139206   2.596   3.033   7.875 -0.1308 -0.9349 -0.4139
 9190SOL    HW239207   2.687   2.918   7.885 -1.3531  0.3142  0.0262
 9191SOL     OW39208   1.641   2.323  15.449  0.9449 -0.7781 -0.9078
 9191SOL    HW139209   1.614   2.349  15.537  0.6965 -0.0262 -1.2065
 9191SOL    HW239210   1.727   2.359  15.427  1.0835  0.1524  1.0986
 9192SOL     OW39211   2.240   1.090   9.464 -0.3413  0.2737 -0.3151
 9192SOL    HW139212   2.312   1.031   9.487 -0.4697  0.6928  1.1683
 9192SOL    HW239213   2.166   1.043   9.501  0.6052 -3.0983 -2.7743
 9193SOL     OW39214   2.442   0.008   9.877 -0.2897  0.4404  0.6632
 9193SOL    HW139215   2.435   4.647   9.881  0.4747  0.4343  1.9522
 9193SOL    HW239216   2.375   0.021   9.811  1.3146  0.0362 -1.0506
 9194SOL     OW39217   4.047   1.720   4.945  0.1983 -0.0087  0.5911
 9194SOL    HW139218   3.982   1.652   4.931  0.7002 -0.3922  0.1514
 9194SOL    HW239219   4.130   1.674   4.933 -0.2341 -0.7814  0.5802
 9195SOL     OW39220   1.061   4.478   9.892  0.2361  0.4246  0.3080
 9195SOL    HW139221   1.001   4.410   9.861  0.6132 -0.5741  1.7319
 9195SOL    HW239222   1.149   4.441   9.883 -0.5337 -1.6896  1.3090
 9196SOL     OW39223   0.952   3.771   5.406 -0.6189  0.3157  0.2122
 9196SOL    HW139224   0.858   3.782   5.418 -0.6808  1.3082 -1.1839
 9196SOL    HW239225   0.972   3.820   5.486 -0.9546 -1.4441  1.3970
 9197SOL     OW39226   4.388   1.265   1.740 -0.2870 -0.1696 -0.0887
 9197SOL    HW139227   4.367   1.279   1.833  0.1234  2.2861 -0.3557
 9197SOL    HW239228   4.447   1.190   1.744  1.0427  0.7970 -1.7236
 9198SOL     OW39229   0.284   1.943  10.731  0.2173 -0.1790  0.0514
 9198SOL    HW139230   0.275   2.037  10.742 -0.4744 -0.3931  1.4014
 9198SOL    HW239231   0.305   1.932  10.638 -0.7114 -0.6344 -0.1090
 9199SOL     OW39232   2.468   0.787   6.877 -0.2622  0.5941  0.1319
 9199SOL    HW139233   2.517   0.800   6.958 -0.6374 -0.2959  0.5030
 9199SOL    HW239234   2.533   0.781   6.807  0.2923 -1.2139  0.7811
 9200SOL     OW39235   3.375   1.139   4.902 -0.5443  0.3764 -0.1941
 9200SOL    HW139236   3.425   1.184   4.833 -0.6213  0.3414 -0.2735
 9200SOL    HW239237   3.361   1.056   4.856 -0.0369  0.3899 -0.3759
 9201SOL     OW39238   0.262   4.169  12.096  0.4833  0.5358  0.3882
 9201SOL    HW139239   0.223   4.255  12.106 -0.1853  0.3880 -0.8881
 9201SOL    HW239240   0.200   4.117  12.045  0.0405  0.5332  0.9361
 9202SOL     OW39241   0.675   3.067   2.752 -0.3777 -0.5307  0.3494
 9202SOL    HW139242   0.756   3.116   2.766 -0.8529  0.1870  0.5868
 9202SOL    HW239243   0.692   3.025   2.667  2.5434  2.1212 -0.4082
 9203SOL     OW39244   4.662   1.814   9.896 -0.5298  0.2152 -0.4692
 9203SOL    HW139245   4.618   1.859   9.823  1.8364  0.6876 -1.5986
 9203SOL    HW239246   0.008   1.865   9.905 -0.8807  0.5639  0.6447
 9204SOL     OW39247   4.348   2.174   8.433  0.1332  0.7427 -0.3215
 9204SOL    HW139248   4.420   2.126   8.392  1.1060 -0.6602  3.0160
 9204SOL    HW239249   4.291   2.176   8.356 -0.4182  0.3037  0.0745
 9205SOL     OW39250   0.024   4.453   7.624  0.4144  0.0171 -0.2196
 9205SOL    HW139251   0.019   4.446   7.719 -0.5816  3.3197  0.0029
 9205SOL    HW239252   0.119   4.449   7.611  0.1611 -0.8520 -1.8589
 9206SOL     OW39253   1.073   0.132   7.065 -0.3914 -0.3644 -0.2007
 9206SOL    HW139254   1.056   0.147   7.158 -0.1345  1.7575 -0.5007
 9206SOL    HW239255   1.126   0.053   7.072 -0.2561 -0.1427  1.1413
 9207SOL     OW39256   3.980   2.793   5.428  0.3128 -0.1733 -0.0697
 9207SOL    HW139257   3.922   2.724   5.393  1.2109 -1.0786  0.2477
 9207SOL    HW239258   3.936   2.826   5.506 -0.7758 -1.3497 -0.1809
 9208SOL     OW39259   1.365   0.123  11.148  0.3619  0.4719 -0.3549
 9208SOL    HW139260   1.394   0.117  11.057 -0.4505  2.1501 -0.7186
 9208SOL    HW239261   1.371   0.215  11.173  3.2187  0.0687  0.4698
 9209SOL     OW39262   1.972   0.832   6.255 -0.2730  0.5229 -0.3406
 9209SOL    HW139263   1.977   0.781   6.174  1.7224  0.5097 -0.2130
 9209SOL    HW239264   1.984   0.757   6.312  0.5320  0.9374  0.0411
 9210SOL     OW39265   1.010   2.870   2.720 -0.4670  0.2734 -0.2828
 9210SOL    HW139266   0.939   2.806   2.723 -0.0585 -0.1074  1.3005
 9210SOL    HW239267   1.085   2.812   2.739  0.8727  2.5436  1.3757
 9211SOL     OW39268   3.273   0.383   4.812 -0.8772  0.2322  0.0876
 9211SOL    HW139269   3.262   0.470   4.849  0.1860  0.5441 -0.3327
 9211SOL    HW239270   3.250   0.336   4.892 -2.6876  2.9869  1.1846
 9212SOL     OW39271   3.500   2.930  12.228 -0.1643 -0.8414 -0.0129
 9212SOL    HW139272   3.454   2.967  12.152 -0.1681 -0.8280 -0.0040
 9212SOL    HW239273   3.538   3.011  12.261 -0.7427 -0.7401  0.3994
 9213SOL     OW39274   3.683   1.491   4.229 -0.1847  0.6164  0.1584
 9213SOL    HW139275   3.667   1.416   4.172 -0.3590  0.4729  0.3944
 9213SOL    HW239276   3.597   1.529   4.246 -0.7182  0.5071 -2.3646
 9214SOL     OW39277   1.267   2.866   0.368 -0.1520  0.1461 -0.5535
 9214SOL    HW139278   1.212   2.855   0.291 -0.2732  1.1945 -0.6203
 9214SOL    HW239279   1.204   2.864   0.441  0.0295  0.7731 -0.3718
 9215SOL     OW39280   4.721   3.364   2.097  0.1754 -0.6072 -0.8497
 9215SOL    HW139281   0.079   3.339   2.108  1.1212  2.1821 -2.4619
 9215SOL    HW239282   4.675   3.280   2.093 -0.0216 -0.5099 -0.6178
 9216SOL     OW39283   0.903   3.777  13.005  0.1844 -0.2302  0.3054
 9216SOL    HW139284   0.963   3.707  13.030  0.9807  1.1691  2.3542
 9216SOL    HW239285   0.965   3.841  12.970  0.5081 -0.9973 -0.5500
 9217SOL     OW39286   1.071   1.866   0.219  0.4895 -0.0630 -0.0345
 9217SOL    HW139287   1.089   1.931   0.151 -1.8723 -0.2628 -0.8424
 9217SOL    HW239288   1.159   1.833   0.235 -0.4347 -1.3191  2.5223
 9218SOL     OW39289   1.475   4.229  10.013  0.0019  0.2108 -0.1953
 9218SOL    HW139290   1.494   4.160  10.076  1.4142 -0.7308 -1.6755
 9218SOL    HW239291   1.552   4.286  10.011 -0.7587  1.3280  1.8213
 9219SOL     OW39292   3.433   0.320   5.751  0.3908 -0.0717  0.1888
 9219SOL    HW139293   3.377   0.299   5.676  0.3155 -1.8464  0.7310
 9219SOL    HW239294   3.472   0.397   5.710 -0.0018 -0.7394 -1.4626
 9220SOL     OW39295   4.733   0.691  13.943 -0.1523  0.0066 -0.3357
 9220SOL    HW139296   4.678   0.732  13.876  0.4880 -1.8223 -1.9749
 9220SOL    HW239297   4.675   0.656  14.011  1.3141  1.7645  1.8496
 9221SOL     OW39298   3.956   3.564  17.197 -0.5465 -0.0926 -0.3280
 9221SOL    HW139299   4.038   3.582  17.152 -0.7359  1.2120 -0.1587
 9221SOL    HW239300   3.896   3.563  17.123 -0.3094 -2.3387 -0.4952
 9222SOL     OW39301   2.780   4.620   4.004 -0.0924  0.0496  0.1141
 9222SOL    HW139302   2.803   4.712   4.010  2.8082 -0.7892  1.9615
 9222SOL    HW239303   2.839   4.586   3.937 -1.1931 -0.8669 -0.3963
 9223SOL     OW39304   3.982   0.520  13.896 -0.0808 -0.0368 -0.2435
 9223SOL    HW139305   3.924   0.570  13.952  0.8126 -0.9478  1.4738
 9223SOL    HW239306   3.975   0.433  13.935 -0.8060  0.6651  1.1850
 9224SOL     OW39307   3.485   1.719   1.420 -0.4845  0.1167 -0.2670
 9224SOL    HW139308   3.544   1.785   1.384 -0.9935  0.1989 -0.9565
 9224SOL    HW239309   3.478   1.731   1.515 -4.3266 -0.1262 -0.4921
 9225SOL     OW39310   2.063   1.738   2.635  0.0125  0.2519  0.1299
 9225SOL    HW139311   2.097   1.665   2.686 -0.2342 -1.2473 -1.8565
 9225SOL    HW239312   1.969   1.731   2.653 -0.0158  0.1089 -0.0742
 9226SOL     OW39313   0.396   3.151  15.019 -0.1313 -0.0216 -0.4750
 9226SOL    HW139314   0.348   3.082  14.971 -1.0750 -0.4017  1.0334
 9226SOL    HW239315   0.323   3.203  15.052  1.1793 -0.4353  3.0864
 9227SOL     OW39316   1.898   0.145  11.793  0.2448 -0.0831 -0.0467
 9227SOL    HW139317   1.821   0.113  11.841 -1.0867  3.2103  0.0788
 9227SOL    HW239318   1.858   0.194  11.721 -1.1020 -1.4498 -0.2425
 9228SOL     OW39319   1.115   2.596   1.056  0.0291  0.4104  0.7134
 9228SOL    HW139320   1.166   2.675   1.070 -1.2803  1.1125  1.4843
 9228SOL    HW239321   1.054   2.619   0.986  0.3689  0.3968  0.4144
 9229SOL     OW39322   2.610   0.967   8.659 -0.1915  0.0560 -0.7703
 9229SOL    HW139323   2.698   0.979   8.624  0.0953  3.4593  1.1310
 9229SOL    HW239324   2.628   0.951   8.752 -2.6462 -0.9383 -0.4442
 9230SOL     OW39325   0.996   3.577   2.736 -0.3705  0.2693 -0.5136
 9230SOL    HW139326   0.990   3.541   2.825  0.6229  1.3715  0.0065
 9230SOL    HW239327   1.088   3.563   2.718 -0.2335  0.9776 -0.3634
 9231SOL     OW39328   3.918   0.424  16.183 -0.3061  0.2617  0.7700
 9231SOL    HW139329   3.937   0.469  16.265 -0.5913  2.1870 -0.2423
 9231SOL    HW239330   3.999   0.445  16.137 -0.2102 -1.2922  0.2240
 9232SOL     OW39331   1.365   0.166  14.772  0.0026 -0.7231  0.0950
 9232SOL    HW139332   1.318   0.172  14.688  1.1418 -0.6345 -0.5344
 9232SOL    HW239333   1.283   0.137  14.811 -0.3836 -1.5773 -1.3359
 9233SOL     OW39334   4.597   2.436   2.104 -0.3892 -0.3391 -0.0264
 9233SOL    HW139335   4.656   2.505   2.072 -1.5157 -0.4823 -2.3692
 9233SOL    HW239336   4.661   2.374   2.138  0.6778 -0.3714 -2.0738
 9234SOL     OW39337   0.819   2.005   3.454  0.3213  0.1658  0.1252
 9234SOL    HW139338   0.724   1.994   3.450  0.2887  2.2596 -4.0982
 9234SOL    HW239339   0.842   1.912   3.457  0.6936  0.2513 -0.1059
 9235SOL     OW39340   2.850   3.312   7.198 -0.3851 -0.6269 -0.1900
 9235SOL    HW139341   2.925   3.268   7.157 -0.1013 -0.4314  0.1217
 9235SOL    HW239342   2.805   3.235   7.233  0.8219 -1.6637 -0.8927
 9236SOL     OW39343   0.183   1.833   8.129  0.0183 -0.5880  0.0847
 9236SOL    HW139344   0.173   1.748   8.087 -1.1523 -0.1333 -0.5720
 9236SOL    HW239345   0.146   1.824   8.217 -1.3326 -0.0387 -0.4194
 9237SOL     OW39346   2.979   2.436  12.848  0.1342 -0.1410  0.1309
 9237SOL    HW139347   2.985   2.349  12.809 -1.7436  0.4088 -1.3409
 9237SOL    HW239348   2.957   2.488  12.771 -2.6751 -0.9502  0.3672
 9238SOL     OW39349   0.309   2.801   4.944  0.2881 -0.4838  0.0285
 9238SOL    HW139350   0.361   2.881   4.945 -0.4231 -0.0766  3.4165
 9238SOL    HW239351   0.231   2.854   4.931 -0.4254 -1.9136 -1.5770
 9239SOL     OW39352   0.669   1.022   1.937  0.0643  0.3669 -0.0065
 9239SOL    HW139353   0.757   0.989   1.954  0.4283  1.7273  0.7525
 9239SOL    HW239354   0.655   0.968   1.859 -0.5111  1.0108 -0.3568
 9240SOL     OW39355   3.842   1.417   4.745 -0.8044 -0.0663  0.0630
 9240SOL    HW139356   3.903   1.370   4.689 -2.7444 -0.3622 -1.8043
 9240SOL    HW239357   3.859   1.509   4.727 -0.4583 -0.2081 -0.3257
 9241SOL     OW39358   3.042   2.668   3.815  0.3169 -0.0843  0.1417
 9241SOL    HW139359   3.043   2.581   3.855 -0.7954 -0.6785 -1.1372
 9241SOL    HW239360   3.021   2.719   3.894  0.1359 -0.2128  0.1786
 9242SOL     OW39361   2.939   0.007   8.628  0.1434  0.6698  0.1847
 9242SOL    HW139362   2.884   4.678   8.675 -0.6523  0.4407 -1.0645
 9242SOL    HW239363   2.879   0.081   8.617 -1.1905 -0.0731  2.4454
 9243SOL     OW39364   2.126   3.196   1.831  0.4272 -0.0351  0.0304
 9243SOL    HW139365   2.039   3.232   1.852  0.1134  0.1122 -1.5233
 9243SOL    HW239366   2.164   3.278   1.799 -0.8084  0.5653  0.0728
 9244SOL     OW39367   3.484   2.288  15.682  0.3698 -0.1720  0.4340
 9244SOL    HW139368   3.414   2.276  15.619  1.5739  0.6650 -1.0550
 9244SOL    HW239369   3.470   2.221  15.749  1.0048 -1.2517 -0.5221
 9245SOL     OW39370   3.052   2.630   9.625  0.0416 -0.2564 -0.0196
 9245SOL    HW139371   3.008   2.547   9.639 -0.5740  0.1206  0.2664
 9245SOL    HW239372   3.006   2.691   9.683 -0.9327 -1.4739  0.4734
 9246SOL     OW39373   4.076   2.952   7.804  0.0688 -0.6273 -0.0965
 9246SOL    HW139374   4.004   2.985   7.750  2.4195  2.9059 -1.0730
 9246SOL    HW239375   4.078   2.871   7.751 -0.7431 -0.7266  0.0246
 9247SOL     OW39376   2.095   0.335   7.028  0.6322  0.0192  0.3541
 9247SOL    HW139377   2.186   0.319   7.054  0.6407  0.0609  0.3500
 9247SOL    HW239378   2.060   0.249   7.005 -0.7222  0.9690 -1.1811
 9248SOL     OW39379   1.115   3.790   5.698  0.3529  0.1743 -1.0672
 9248SOL    HW139380   1.079   3.866   5.743 -1.4747 -1.2222 -0.1321
 9248SOL    HW239381   1.062   3.718   5.735  1.1994  0.4316  0.6559
 9249SOL     OW39382   4.568   2.947   8.686  0.1351  0.2332  0.1176
 9249SOL    HW139383   4.600   3.031   8.653 -0.1572 -0.5656 -2.1981
 9249SOL    HW239384   4.507   2.968   8.757  0.8086  0.8094  0.5236
 9250SOL     OW39385   4.388   1.211   1.437 -0.0679 -0.3315 -0.8296
 9250SOL    HW139386   4.379   1.287   1.380  2.8193 -0.0883 -1.0059
 9250SOL    HW239387   4.392   1.251   1.524  5.3393 -1.5725 -0.4733
 9251SOL     OW39388   2.156   4.118  12.511 -0.0749  0.1837 -0.2353
 9251SOL    HW139389   2.149   4.037  12.461  0.8609  1.3876 -2.3072
 9251SOL    HW239390   2.171   4.183  12.443 -0.4258  0.0775 -0.4092
 9252SOL     OW39391   1.902   0.120  13.042  0.2893 -0.0823  0.5736
 9252SOL    HW139392   1.887   0.026  13.035  1.5480 -0.0331 -2.7549
 9252SOL    HW239393   1.857   0.144  12.961  0.4340 -0.6664  0.3226
 9253SOL     OW39394   2.582   2.092   4.629 -0.1910 -0.9120 -0.3199
 9253SOL    HW139395   2.567   1.998   4.633  1.2857 -1.2038 -1.3206
 9253SOL    HW239396   2.516   2.112   4.562 -0.5675  0.1938  0.3802
 9254SOL     OW39397   1.224   1.933   3.660 -0.6108 -0.2623  0.4002
 9254SOL    HW139398   1.248   2.022   3.686  0.6890 -0.5201  0.0585
 9254SOL    HW239399   1.206   1.938   3.566  1.3015  1.0746  0.1120
 9255SOL     OW39400   3.232   3.952   6.064 -0.2201 -0.0843 -0.4213
 9255SOL    HW139401   3.287   3.886   6.107  1.7896  2.3234  0.6832
 9255SOL    HW239402   3.296   4.017   6.036 -0.6396  1.0235  1.1820
 9256SOL     OW39403   3.255   4.035   8.370 -0.3673 -0.0373  0.7990
 9256SOL    HW139404   3.317   4.021   8.442  0.1130 -1.5597  0.0715
 9256SOL    HW239405   3.244   4.128   8.390  0.2200  0.6572 -2.0591
 9257SOL     OW39406   4.598   1.384   9.124 -0.2749 -0.1683 -0.6903
 9257SOL    HW139407   4.607   1.357   9.032  0.5469 -4.0810  0.5135
 9257SOL    HW239408   4.686   1.420   9.135 -0.7220  0.9638 -0.8776
 9258SOL     OW39409   2.940   3.321   1.186 -0.2949  0.6142 -0.3778
 9258SOL    HW139410   3.035   3.327   1.169 -0.0983  1.4367  1.0590
 9258SOL    HW239411   2.924   3.229   1.207  1.9983  0.5592  1.1731
 9259SOL     OW39412   3.171   3.295  12.919 -0.0711  0.5396  0.1684
 9259SOL    HW139413   3.199   3.309  12.829  0.1892 -0.5300  0.0714
 9259SOL    HW239414   3.090   3.345  12.927 -0.9600 -0.9051  0.2080
 9260SOL     OW39415   3.907   1.084   5.353 -0.5429 -0.2923  0.4222
 9260SOL    HW139416   3.871   1.091   5.265 -1.9274 -0.4011  0.9794
 9260SOL    HW239417   3.993   1.044   5.341 -0.2105  0.7430 -0.6797
 9261SOL     OW39418   3.417   0.358   9.111  0.0818 -0.2238  0.1465
 9261SOL    HW139419   3.331   0.396   9.093  0.8412  0.6621 -1.5965
 9261SOL    HW239420   3.467   0.434   9.143 -0.3637  0.8267 -1.6431
 9262SOL     OW39421   3.158   2.067   2.017 -0.1885  0.3685 -0.0422
 9262SOL    HW139422   3.085   2.128   2.009 -0.9946 -0.7840 -1.4155
 9262SOL    HW239423   3.227   2.102   1.960  2.5673  0.7362  3.4648
 9263SOL     OW39424   4.076   0.849  13.900 -0.3107  0.1905 -0.4903
 9263SOL    HW139425   4.022   0.877  13.974 -1.0176 -0.8526 -0.6276
 9263SOL    HW239426   4.158   0.863  13.948 -1.1880  2.2808  0.4498
 9264SOL     OW39427   2.473   3.972   7.381  0.0622  0.1130 -0.4138
 9264SOL    HW139428   2.532   3.938   7.448 -1.6771  1.5162  1.8181
 9264SOL    HW239429   2.532   3.974   7.305  4.4781 -0.6167  3.0010
 9265SOL     OW39430   1.878   0.747  13.619  0.3824 -0.5915 -0.3959
 9265SOL    HW139431   1.894   0.837  13.589 -2.2827 -0.1796 -0.5673
 9265SOL    HW239432   1.822   0.756  13.695 -0.4858 -1.7816 -0.9070
 9266SOL     OW39433   3.135   2.564   2.473  0.1099  0.4740 -0.2805
 9266SOL    HW139434   3.143   2.657   2.456  0.1082  0.7114  0.9838
 9266SOL    HW239435   3.222   2.533   2.445 -0.4360 -1.6836  0.3785
 9267SOL     OW39436   2.407   0.050   1.739 -0.0796 -0.1223 -0.3662
 9267SOL    HW139437   2.395   0.053   1.834 -2.1729  0.7080 -0.6548
 9267SOL    HW239438   2.427   0.144   1.737 -1.5385  0.2002  0.4671
 9268SOL     OW39439   0.157   1.053  17.626  0.3567  0.2526 -0.7594
 9268SOL    HW139440   0.176   1.045  17.533  2.7224  0.2181 -0.2556
 9268SOL    HW239441   0.072   1.010  17.635 -1.3130  4.0591  2.0890
 9269SOL     OW39442   3.152   2.769   7.141 -0.6419 -0.1961  0.3430
 9269SOL    HW139443   3.115   2.770   7.052 -0.3039  0.1576  0.2079
 9269SOL    HW239444   3.229   2.821   7.119 -0.4988 -0.2673  0.6759
 9270SOL     OW39445   4.543   4.091   6.505  0.0351  0.3543  0.1128
 9270SOL    HW139446   4.452   4.068   6.488 -0.2188  1.2850  0.1895
 9270SOL    HW239447   4.588   4.014   6.473  1.2825  0.6051  1.2715
 9271SOL     OW39448   3.760   1.065  11.728  0.2295  0.5307  0.0095
 9271SOL    HW139449   3.804   1.026  11.653  0.6922  0.1615  0.4673
 9271SOL    HW239450   3.828   1.090  11.791 -1.3250  1.0274  1.5144
 9272SOL     OW39451   0.403   3.558   6.650 -0.1064 -0.1058 -0.3723
 9272SOL    HW139452   0.412   3.593   6.738 -2.8106  0.0124 -0.1458
 9272SOL    HW239453   0.309   3.539   6.646 -0.0613 -0.2539 -0.7608
 9273SOL     OW39454   3.719   3.328  14.307 -0.4552  0.0445 -0.7548
 9273SOL    HW139455   3.768   3.405  14.279 -2.7209  1.9606  0.5623
 9273SOL    HW239456   3.733   3.327  14.401 -2.2999 -2.3089 -0.5134
 9274SOL     OW39457   2.355   4.591   4.130 -0.2308  0.0628 -0.2519
 9274SOL    HW139458   2.388   4.539   4.203  0.9254 -1.8691 -2.1252
 9274SOL    HW239459   2.420   4.575   4.062 -0.5580  1.4003 -0.8808
 9275SOL     OW39460   2.577   4.141   3.649 -0.0020 -0.0206 -0.0778
 9275SOL    HW139461   2.594   4.171   3.559 -1.6304 -0.5638 -0.5687
 9275SOL    HW239462   2.650   4.088   3.679  0.1314 -0.4257 -1.1068
 9276SOL     OW39463   2.198   0.534   0.393 -0.1772 -0.2537  0.2995
 9276SOL    HW139464   2.227   0.524   0.303  1.1497  1.3471  0.5335
 9276SOL    HW239465   2.237   0.464   0.445  0.8914  1.3691  1.6946
 9277SOL     OW39466   2.535   2.553   8.052  0.1634 -0.6303 -0.0287
 9277SOL    HW139467   2.453   2.588   8.085  0.5256 -0.2096  0.4205
 9277SOL    HW239468   2.509   2.463   8.031  0.7966 -0.4129 -1.7425
 9278SOL     OW39469   4.400   1.249   7.343 -0.9306  0.1489  0.2673
 9278SOL    HW139470   4.482   1.249   7.294 -0.9097  3.8697  0.3283
 9278SOL    HW239471   4.443   1.302   7.410 -0.1730 -0.4845  0.2786
 9279SOL     OW39472   1.924   2.414  10.276  0.0657  0.3446 -0.3676
 9279SOL    HW139473   1.966   2.484  10.225  0.5308  0.4068  0.1005
 9279SOL    HW239474   1.996   2.389  10.333  1.3153 -0.7225 -2.3937
 9280SOL     OW39475   2.806   3.171   3.738  0.4646 -0.6015 -0.0257
 9280SOL    HW139476   2.817   3.081   3.768 -0.0184 -0.7162 -0.1857
 9280SOL    HW239477   2.719   3.198   3.769  1.3933  2.1239  0.1694
 9281SOL     OW39478   1.272   0.347  13.668  0.0519 -0.2499 -0.1562
 9281SOL    HW139479   1.362   0.376  13.658  0.3731 -1.1600  0.0766
 9281SOL    HW239480   1.225   0.429  13.653 -0.9366 -1.4692 -3.7129
 9282SOL     OW39481   4.727   0.333   4.915  0.3235 -0.0412 -0.3416
 9282SOL    HW139482   4.667   0.271   4.957 -0.9271 -0.6678 -3.0865
 9282SOL    HW239483   0.072   0.324   4.969 -0.3824 -0.2777  0.6492
 9283SOL     OW39484   4.270   1.615   4.803  0.0335  0.2694 -0.0309
 9283SOL    HW139485   4.324   1.675   4.751  0.4855  1.0560  1.3540
 9283SOL    HW239486   4.332   1.603   4.875 -1.3284 -1.9871  0.7346
 9284SOL     OW39487   4.206   1.937   8.507 -0.0208 -0.4375  0.3423
 9284SOL    HW139488   4.253   1.894   8.435  2.0832 -0.1109  1.5273
 9284SOL    HW239489   4.219   2.027   8.476 -0.2081 -1.4457 -2.6954
 9285SOL     OW39490   2.417   2.524   3.212 -0.1883  0.4920  0.1773
 9285SOL    HW139491   2.481   2.497   3.278 -0.2855  0.9195  0.4525
 9285SOL    HW239492   2.375   2.440   3.195  0.9028 -0.1450  0.6557
 9286SOL     OW39493   0.560   0.300   4.903 -0.4602 -0.0193 -0.1081
 9286SOL    HW139494   0.580   0.365   4.971 -0.6655 -0.6547  0.5669
 9286SOL    HW239495   0.517   0.347   4.831  2.0790  1.7976 -0.4178
 9287SOL     OW39496   2.715   0.536   7.475 -0.1686 -0.2703  0.4654
 9287SOL    HW139497   2.744   0.445   7.487  0.1252  0.0806  2.5168
 9287SOL    HW239498   2.743   0.594   7.546  2.4313  0.7760 -1.4169
 9288SOL     OW39499   0.032   1.899   6.402 -0.5421 -0.1797  0.4877
 9288SOL    HW139500   4.707   1.824   6.392 -2.0789  0.9103  1.5468
 9288SOL    HW239501   0.022   1.915   6.496  0.4144 -0.2547  0.6046
 9289SOL     OW39502   2.112   1.769   5.093  0.0940 -0.0616  0.4383
 9289SOL    HW139503   2.105   1.859   5.127 -1.1139 -0.0337  0.1299
 9289SOL    HW239504   2.020   1.748   5.077  0.8768 -1.9557 -1.5718
 9290SOL     OW39505   2.296   2.617   8.134 -0.2515  0.1876  0.5830
 9290SOL    HW139506   2.226   2.596   8.071 -0.9055  0.8522  1.0830
 9290SOL    HW239507   2.244   2.598   8.213 -2.2775 -0.0269 -0.7931
 9291SOL     OW39508   4.665   2.445  13.466  0.0696  0.3538 -0.2649
 9291SOL    HW139509   4.640   2.412  13.380  2.0922  0.0716 -0.7386
 9291SOL    HW239510   0.017   2.405  13.469  0.2978  0.7432 -1.7821
 9292SOL     OW39511   0.387   1.763   6.664 -0.2558  0.3991 -1.0750
 9292SOL    HW139512   0.430   1.753   6.749  0.9741  0.3542 -1.7062
 9292SOL    HW239513   0.338   1.683   6.643 -2.5614  1.8336 -1.0752
 9293SOL     OW39514   1.136   0.353  12.614 -0.0246  0.1070 -0.1172
 9293SOL    HW139515   1.192   0.387  12.684  1.0783 -1.3972 -0.2684
 9293SOL    HW239516   1.053   0.395  12.636  0.4986  0.4176  1.2361
 9294SOL     OW39517   1.502   3.400   2.035  0.2936  0.0397  0.7822
 9294SOL    HW139518   1.450   3.353   1.969 -1.3759  1.1298  1.3325
 9294SOL    HW239519   1.556   3.327   2.066  0.2097 -0.9109 -1.3095
 9295SOL     OW39520   1.724   1.120   4.072  0.2730 -0.1962 -0.2082
 9295SOL    HW139521   1.670   1.103   3.995  0.2546 -1.8712  0.1619
 9295SOL    HW239522   1.655   1.115   4.139 -2.4474 -0.3868 -3.0417
 9296SOL     OW39523   4.146   2.947   6.106  0.2247 -0.3673  0.2058
 9296SOL    HW139524   4.216   3.001   6.068  0.1143 -0.3515  0.0288
 9296SOL    HW239525   4.195   2.905   6.178  0.5759 -1.9995 -0.9780
 9297SOL     OW39526   4.054   1.548   2.835  0.2914 -0.1023 -0.2525
 9297SOL    HW139527   4.003   1.587   2.765 -2.5606 -1.0257  1.3281
 9297SOL    HW239528   4.093   1.472   2.792  0.1598 -1.2853  1.7110
 9298SOL     OW39529   1.438   0.559   7.888 -0.1037  0.1107  0.3241
 9298SOL    HW139530   1.473   0.531   7.973  0.3191  0.6737  0.3357
 9298SOL    HW239531   1.359   0.506   7.884 -0.2488  0.4369 -1.0853
 9299SOL     OW39532   2.888   4.459  17.195  0.3701 -0.4240 -0.0008
 9299SOL    HW139533   2.894   4.402  17.119  1.7496 -0.3963  0.0714
 9299SOL    HW239534   2.794   4.449  17.208 -0.0336  3.5481  0.1439
 9300SOL     OW39535   1.838   1.959  11.274  0.3339 -0.4283 -0.1191
 9300SOL    HW139536   1.757   2.003  11.249 -0.0306  0.0380  1.8960
 9300SOL    HW239537   1.814   1.915  11.355  1.4296  0.3555  0.6305
 9301SOL     OW39538   1.476   0.703  13.825 -0.4112  0.5368 -0.0175
 9301SOL    HW139539   1.399   0.719  13.880  1.7930  0.8179  3.0180
 9301SOL    HW239540   1.460   0.614  13.796 -1.2506  0.4836  0.6181
 9302SOL     OW39541   2.023   2.909   2.952  0.2046 -0.2080 -0.1317
 9302SOL    HW139542   1.934   2.878   2.970 -0.8212  2.8243 -0.0159
 9302SOL    HW239543   2.073   2.833   2.922  0.0748 -0.2438 -0.2596
 9303SOL     OW39544   4.725   1.586   2.127 -0.0208  0.3701  0.3127
 9303SOL    HW139545   0.083   1.587   2.150 -0.0034  3.0218  0.2266
 9303SOL    HW239546   4.702   1.678   2.111 -1.3612  0.0484  0.3282
 9304SOL     OW39547   4.464   2.180   9.807  0.1545  0.2867  0.0691
 9304SOL    HW139548   4.491   2.176   9.898 -1.4773 -1.3338  0.4832
 9304SOL    HW239549   4.510   2.104   9.770  0.3786  0.9770 -1.0727
 9305SOL     OW39550   0.584   4.016   4.007  0.3039 -0.3271  0.0995
 9305SOL    HW139551   0.654   4.032   3.944  0.9857 -1.2780  0.6151
 9305SOL    HW239552   0.512   4.078   3.994 -0.4698 -0.5707  3.0371
 9306SOL     OW39553   2.297   2.042   2.467 -0.1011  0.5225 -0.1461
 9306SOL    HW139554   2.238   1.974   2.435  0.3143  0.3982 -0.6377
 9306SOL    HW239555   2.239   2.090   2.527 -0.2168 -1.5603  1.4058
 9307SOL     OW39556   4.382   2.625   4.719  0.4458 -0.5178 -0.4368
 9307SOL    HW139557   4.478   2.618   4.718  0.4728 -0.6197  2.2900
 9307SOL    HW239558   4.371   2.587   4.632  1.9811 -0.5361 -0.6264
 9308SOL     OW39559   2.897   1.836   2.242 -0.0175  0.3948  0.6743
 9308SOL    HW139560   2.812   1.793   2.255 -0.3116  0.6840 -0.3148
 9308SOL    HW239561   2.876   1.861   2.152 -0.0061  0.9278  0.8169
 9309SOL     OW39562   3.113   0.510   8.756  0.3464  0.0280 -0.0800
 9309SOL    HW139563   3.193   0.504   8.808  0.7214 -3.1104 -1.0298
 9309SOL    HW239564   3.124   0.599   8.722  0.7329  0.4039  1.0286
 9310SOL     OW39565   0.661   3.839   6.353 -0.1299  0.6323 -0.4317
 9310SOL    HW139566   0.729   3.884   6.402 -0.8827  0.2388  0.9776
 9310SOL    HW239567   0.583   3.856   6.407 -0.2852 -0.7421 -0.2312
 9311SOL     OW39568   2.576   3.247   3.910  0.1052 -0.2717  0.0047
 9311SOL    HW139569   2.601   3.324   3.961 -0.1751 -0.9593  1.1779
 9311SOL    HW239570   2.515   3.216   3.977  2.6365 -0.4616  2.2186
 9312SOL     OW39571   2.913   3.643   8.401  0.3062  0.0054 -0.0972
 9312SOL    HW139572   2.983   3.705   8.379  1.3068 -0.6942  1.0984
 9312SOL    HW239573   2.899   3.663   8.494  1.5434  0.3005  0.0236
 9313SOL     OW39574   2.145   0.663  10.546 -0.1277  0.2204 -0.1673
 9313SOL    HW139575   2.162   0.719  10.470  1.8264 -1.0032 -0.6457
 9313SOL    HW239576   2.170   0.715  10.622 -1.6375  1.8078 -0.7687
 9314SOL     OW39577   0.351   2.931   2.005 -0.2025  0.2561 -0.1063
 9314SOL    HW139578   0.405   3.005   1.978 -0.3725 -0.1697 -1.6243
 9314SOL    HW239579   0.260   2.957   1.990 -0.0532  1.6623  1.5238
 9315SOL     OW39580   0.520   0.076  12.345 -0.7988 -0.2042 -0.1134
 9315SOL    HW139581   0.532   0.133  12.268  2.4727 -1.0546 -0.2304
 9315SOL    HW239582   0.525   4.725  12.302  2.9002  0.6780 -1.4478
 9316SOL     OW39583   0.291   3.650   9.048 -0.0596  0.0488  0.2428
 9316SOL    HW139584   0.213   3.594   9.059 -0.2817  0.8206  2.6614
 9316SOL    HW239585   0.301   3.689   9.135  1.7764 -2.3449  1.1182
 9317SOL     OW39586   4.303   2.761   3.468 -0.1467  0.4150 -0.7653
 9317SOL    HW139587   4.212   2.753   3.496  0.2490 -0.9429  0.1412
 9317SOL    HW239588   4.297   2.837   3.410 -1.0417  1.2196  0.3855
 9318SOL     OW39589   3.256   0.989   1.661 -0.4556  0.1404 -0.5461
 9318SOL    HW139590   3.182   0.928   1.663 -0.0406 -0.4536 -3.3443
 9318SOL    HW239591   3.243   1.038   1.742  1.6619 -0.9113  0.4332
 9319SOL     OW39592   1.931   1.455   2.091 -0.0242  0.4630  0.3579
 9319SOL    HW139593   1.942   1.549   2.104 -1.3236  0.4587  1.4735
 9319SOL    HW239594   1.890   1.457   2.005  1.4011  1.9347 -0.2898
 9320SOL     OW39595   1.161   1.398   5.522  0.0286 -0.4971  0.0533
 9320SOL    HW139596   1.199   1.413   5.609  2.3259 -1.8648 -0.7118
 9320SOL    HW239597   1.244   1.392   5.476  0.1210  3.2369 -0.2529
 9321SOL     OW39598   0.419   1.482  10.231 -0.4472  0.5932  0.1764
 9321SOL    HW139599   0.486   1.453  10.169 -0.8998 -3.0431  1.4088
 9321SOL    HW239600   0.477   1.529  10.292 -0.6035 -1.3666  1.8376
 9322SOL     OW39601   2.204   3.476   7.483 -0.2203 -0.0180  0.1004
 9322SOL    HW139602   2.254   3.550   7.515 -0.0357  0.7705 -2.0286
 9322SOL    HW239603   2.160   3.442   7.560  2.9656  0.9803  2.3508
 9323SOL     OW39604   2.291   4.574   6.202  0.1085 -0.4926 -0.4479
 9323SOL    HW139605   2.232   4.504   6.228 -2.2047  1.2714 -0.9348
 9323SOL    HW239606   2.287   4.637   6.273  1.2219 -0.7453 -0.1589
 9324SOL     OW39607   3.580   0.536   5.042 -0.0864  0.5537  0.0759
 9324SOL    HW139608   3.657   0.524   4.986  1.0241 -0.7811  1.8734
 9324SOL    HW239609   3.612   0.491   5.120 -0.3666  2.0797  1.0668
 9325SOL     OW39610   3.321   0.158   9.542 -0.1993 -0.1962 -0.1823
 9325SOL    HW139611   3.399   0.103   9.537 -0.3533 -0.4860  0.5645
 9325SOL    HW239612   3.277   0.131   9.462 -0.0063 -0.8194 -0.0794
 9326SOL     OW39613   2.032   0.477   3.841 -0.2057 -0.0856 -0.1588
 9326SOL    HW139614   1.968   0.536   3.881  0.4963  0.7954 -0.3353
 9326SOL    HW239615   2.100   0.543   3.830 -0.2185  0.1939  1.4110
 9327SOL     OW39616   1.936   4.468  12.490  0.5274  0.2711  0.1152
 9327SOL    HW139617   1.979   4.411  12.426  0.4285  0.3625 -0.0309
 9327SOL    HW239618   1.882   4.523  12.433 -0.1577  2.1369  2.5500
 9328SOL     OW39619   2.388   2.419   4.622 -0.9801  0.2905 -0.0828
 9328SOL    HW139620   2.339   2.354   4.570  1.8051 -1.4124 -0.5600
 9328SOL    HW239621   2.318   2.458   4.675 -0.5861  0.7760  0.0774
 9329SOL     OW39622   3.606   1.665  17.370 -0.2217 -0.4071 -0.4671
 9329SOL    HW139623   3.538   1.677  17.303 -0.0959 -1.0626 -0.7065
 9329SOL    HW239624   3.551   1.625  17.437 -0.3653 -1.3044 -1.1337
 9330SOL     OW39625   3.714   3.075   1.825  0.3615 -0.2985  0.4509
 9330SOL    HW139626   3.710   3.009   1.756 -1.2329  1.1795 -0.8635
 9330SOL    HW239627   3.773   3.035   1.889 -1.7092 -0.3214  2.3565
 9331SOL     OW39628   4.208   2.574   0.527  0.1203 -0.2541 -0.5226
 9331SOL    HW139629   4.147   2.625   0.581  1.3355 -1.1301  1.6828
 9331SOL    HW239630   4.232   2.508   0.592 -1.7794 -0.4516 -0.0250
 9332SOL     OW39631   1.262   4.162  10.980 -0.0355 -0.6327  0.5494
 9332SOL    HW139632   1.220   4.223  11.041  1.9009  1.9437 -0.6857
 9332SOL    HW239633   1.188   4.124  10.932 -0.7552  0.2960  0.9261
 9333SOL     OW39634   1.943   0.807   5.352  0.4441  0.6202  0.1473
 9333SOL    HW139635   2.012   0.871   5.365  1.7268 -0.3730 -1.7772
 9333SOL    HW239636   1.958   0.782   5.261  1.1964 -1.2055  0.7718
 9334SOL     OW39637   1.934   3.491   8.610 -0.5824 -0.1186  0.1793
 9334SOL    HW139638   1.855   3.538   8.637 -1.0060  0.3986 -1.9763
 9334SOL    HW239639   1.905   3.402   8.593 -0.9978  0.1141 -0.3223
 9335SOL     OW39640   2.890   3.216   2.439  0.2744 -0.0417  0.1869
 9335SOL    HW139641   2.887   3.132   2.485  1.4779 -0.4570 -0.4817
 9335SOL    HW239642   2.864   3.179   2.354 -0.2995  2.4468 -0.7182
 9336SOL     OW39643   4.232   0.054   2.802 -0.2285 -0.0055 -0.4102
 9336SOL    HW139644   4.184   4.706   2.811  0.4590 -0.6855 -3.1403
 9336SOL    HW239645   4.227   0.089   2.891 -2.5477 -0.4608 -0.3659
 9337SOL     OW39646   3.209   3.905   5.773 -0.2564 -0.0663  0.1767
 9337SOL    HW139647   3.266   3.839   5.813  1.4084  3.3867  3.4673
 9337SOL    HW239648   3.128   3.876   5.815 -0.0796  0.4433  0.8775
 9338SOL     OW39649   3.923   0.645  16.675 -0.0042 -0.0205  0.0472
 9338SOL    HW139650   3.952   0.724  16.721  0.4204 -0.2633  0.1852
 9338SOL    HW239651   3.863   0.609  16.740  0.3823 -0.1675  0.3178
 9339SOL     OW39652   1.055   2.557  16.271 -0.6324  0.2576  0.7806
 9339SOL    HW139653   1.023   2.490  16.332 -0.5516 -0.1969  0.3217
 9339SOL    HW239654   1.145   2.527  16.260 -1.2084 -1.1734 -0.2010
 9340SOL     OW39655   2.502   3.398  14.019 -0.3402  0.3001  0.1603
 9340SOL    HW139656   2.500   3.455  14.095 -0.6623  1.1609 -0.4941
 9340SOL    HW239657   2.414   3.412  13.983 -0.7221  2.5841  2.0014
 9341SOL     OW39658   0.270   1.768   2.408 -0.0441  0.2577  0.2034
 9341SOL    HW139659   0.266   1.799   2.317 -2.0387 -0.3116  0.0993
 9341SOL    HW239660   0.195   1.709   2.416  1.0489 -0.7599  2.9852
 9342SOL     OW39661   2.422   4.025   3.927 -0.6197 -0.5724  0.3311
 9342SOL    HW139662   2.421   3.958   3.858 -1.7993 -1.3414  1.1093
 9342SOL    HW239663   2.424   4.102   3.869 -1.2724 -1.6549 -1.1339
 9343SOL     OW39664   0.899   0.461   8.067 -0.2427 -0.1654  0.6618
 9343SOL    HW139665   0.817   0.428   8.104 -0.3951  0.8189  1.2243
 9343SOL    HW239666   0.923   0.386   8.014 -4.0641 -1.2567  0.4943
 9344SOL     OW39667   2.069   0.496  12.440  0.4136 -0.0270 -0.1998
 9344SOL    HW139668   2.119   0.558  12.494  1.3024 -0.5547 -0.4234
 9344SOL    HW239669   2.074   0.414  12.490 -0.8601 -0.5868 -0.9975
 9345SOL     OW39670   0.422   0.261   5.229 -0.5984 -0.1801  0.6274
 9345SOL    HW139671   0.427   0.173   5.267 -2.4849 -0.7195 -0.3442
 9345SOL    HW239672   0.428   0.324   5.300 -0.3366  0.1551  0.3062
 9346SOL     OW39673   1.270   2.037   6.200  0.3380  0.4390 -0.1584
 9346SOL    HW139674   1.253   2.101   6.269 -1.0087  1.0306 -1.0541
 9346SOL    HW239675   1.310   2.100   6.139 -2.7433 -0.4175 -3.0691
 9347SOL     OW39676   1.331   4.251  13.537  0.3056 -0.3399 -0.0961
 9347SOL    HW139677   1.299   4.200  13.611 -2.8983 -0.9703 -1.9052
 9347SOL    HW239678   1.274   4.328  13.535 -1.6072 -1.7379 -0.0577
 9348SOL     OW39679   1.843   1.432   4.917  0.2688 -0.2695  0.0163
 9348SOL    HW139680   1.767   1.390   4.958  0.0260 -0.7255 -0.8995
 9348SOL    HW239681   1.834   1.383   4.835 -0.9645 -0.0564  0.0314
 9349SOL     OW39682   3.240   2.512  16.508 -0.0980  0.3125 -0.1430
 9349SOL    HW139683   3.203   2.481  16.425 -0.6938  1.5732 -0.3625
 9349SOL    HW239684   3.257   2.437  16.565 -1.6257  1.8586  2.3634
 9350SOL     OW39685   1.831   4.354   9.336  0.3553  0.0427 -0.2325
 9350SOL    HW139686   1.869   4.312   9.259  1.8479  0.4634  0.2732
 9350SOL    HW239687   1.785   4.427   9.295 -0.7981 -0.3260  0.4190
 9351SOL     OW39688   1.189   2.155  13.317  0.0820  0.1175  0.1755
 9351SOL    HW139689   1.128   2.229  13.325 -0.9557 -0.8974  1.5747
 9351SOL    HW239690   1.243   2.157  13.396 -2.2381  0.1353  1.7370
 9352SOL     OW39691   3.318   0.839  10.733  0.3058 -0.1003 -0.6956
 9352SOL    HW139692   3.352   0.757  10.771 -2.7105 -1.0461 -0.0171
 9352SOL    HW239693   3.277   0.864  10.816  0.9168  0.5071 -0.5778
 9353SOL     OW39694   3.985   0.149   4.176 -0.5332 -0.3247  0.6142
 9353SOL    HW139695   3.968   0.237   4.143  1.4109  0.0437  0.5536
 9353SOL    HW239696   4.016   0.175   4.263 -0.6535  0.6613  0.3560
 9354SOL     OW39697   1.357   1.275   2.332  0.1959 -0.1033 -0.2152
 9354SOL    HW139698   1.310   1.319   2.261 -1.9754  1.8078  2.4191
 9354SOL    HW239699   1.305   1.199   2.358 -1.2050  0.9810  0.1695
 9355SOL     OW39700   2.767   1.357   4.373  0.4117 -0.0133 -0.3411
 9355SOL    HW139701   2.709   1.432   4.391  2.4376  1.3125  0.6045
 9355SOL    HW239702   2.710   1.281   4.360  0.1130  0.5746 -2.5916
 9356SOL     OW39703   3.922   2.203  15.124  0.0505 -0.5655  0.7650
 9356SOL    HW139704   4.006   2.166  15.096 -0.0461 -1.3091  1.4483
 9356SOL    HW239705   3.862   2.176  15.055  0.2686  1.7494 -0.3210
 9357SOL     OW39706   2.493   0.101   5.287 -0.2674  0.3430 -0.3391
 9357SOL    HW139707   2.588   0.105   5.288 -0.1231 -3.4096  2.6184
 9357SOL    HW239708   2.485   0.021   5.340  0.3212 -1.3147 -2.7484
 9358SOL     OW39709   4.649   1.090  11.576  0.4768  0.2441  0.1379
 9358SOL    HW139710   4.588   1.151  11.619  0.9342 -0.2891  1.5444
 9358SOL    HW239711   4.603   1.008  11.558 -1.1254  1.7869 -2.8407
 9359SOL     OW39712   3.712   0.596   8.533  0.0657 -0.1777  0.1193
 9359SOL    HW139713   3.668   0.565   8.454  0.0739  1.3186 -0.4781
 9359SOL    HW239714   3.707   0.519   8.589 -1.4145  1.0299  1.6568
 9360SOL     OW39715   1.857   0.779  15.223 -0.1112 -0.7401 -0.5388
 9360SOL    HW139716   1.884   0.741  15.306  1.3199 -0.4744 -0.8769
 9360SOL    HW239717   1.792   0.714  15.194 -0.4368 -1.8098  2.6675
 9361SOL     OW39718   1.076   2.964  16.040  0.3813  0.5372  0.2033
 9361SOL    HW139719   1.017   3.038  16.056  0.9422  1.0321 -0.0308
 9361SOL    HW239720   1.045   2.904  16.107  1.3100 -0.7948 -0.5714
 9362SOL     OW39721   0.820   1.262  11.301 -0.6793 -0.1816  0.4564
 9362SOL    HW139722   0.881   1.309  11.358 -0.1932  0.7096 -0.8150
 9362SOL    HW239723   0.856   1.174  11.306 -1.5685 -0.5786 -0.0868
 9363SOL     OW39724   4.168   3.983   3.389 -0.3012  0.3073  0.0867
 9363SOL    HW139725   4.112   3.914   3.424  0.4437 -0.7259 -0.7681
 9363SOL    HW239726   4.250   3.940   3.367  0.2871  1.7268 -0.5078
 9364SOL     OW39727   1.996   1.527   5.851  0.2304  0.5494  0.0147
 9364SOL    HW139728   1.914   1.570   5.878  0.2855 -0.8414  2.3667
 9364SOL    HW239729   2.057   1.601   5.854  0.7873  0.1249 -0.7570
 9365SOL     OW39730   0.367   1.103   0.252 -0.1215 -0.0403 -0.6666
 9365SOL    HW139731   0.340   1.016   0.223  1.4610 -0.5458 -0.6345
 9365SOL    HW239732   0.454   1.089   0.290 -0.2828  2.4448  0.5970
 9366SOL     OW39733   0.246   4.043   0.470 -0.1089 -0.3937 -0.4009
 9366SOL    HW139734   0.203   4.126   0.490 -2.4054 -1.5653 -0.3890
 9366SOL    HW239735   0.259   4.047   0.375 -0.1093  0.1186 -0.3775
 9367SOL     OW39736   2.988   1.114   4.202 -0.4362 -0.5596 -0.5960
 9367SOL    HW139737   2.949   1.188   4.156  0.7672  0.7842  0.5640
 9367SOL    HW239738   2.917   1.088   4.261 -1.0886 -1.0419 -1.5787
 9368SOL     OW39739   1.306   0.491   5.499  0.1772  0.7727  0.2607
 9368SOL    HW139740   1.398   0.487   5.474  0.1428  0.3473  0.2072
 9368SOL    HW239741   1.304   0.454   5.588 -0.6363 -0.5062 -0.2992
 9369SOL     OW39742   2.691   2.058   5.673  0.3072 -0.1493  0.7365
 9369SOL    HW139743   2.616   2.118   5.668  1.0627  0.8310  1.2341
 9369SOL    HW239744   2.767   2.111   5.650 -0.0286 -0.1022 -0.2588
 9370SOL     OW39745   1.237   3.582  12.127  0.1192  0.6503  0.5701
 9370SOL    HW139746   1.308   3.591  12.191 -0.8323  0.5947  1.6425
 9370SOL    HW239747   1.168   3.629  12.174 -0.4551 -0.6714  1.0388
 9371SOL     OW39748   0.559   4.249   7.635  0.2762  0.1390  0.1945
 9371SOL    HW139749   0.491   4.257   7.702 -0.1709 -0.6000 -0.1689
 9371SOL    HW239750   0.625   4.306   7.675  2.0589 -0.9601 -1.2160
 9372SOL     OW39751   2.585   4.637   9.031  0.2407 -0.7463 -0.4845
 9372SOL    HW139752   2.624   4.609   8.949  0.1345  2.2817 -1.5492
 9372SOL    HW239753   2.596   4.551   9.073  0.4639  0.5385  2.0858
 9373SOL     OW39754   2.389   3.633  14.197  0.7536 -0.2260 -0.1972
 9373SOL    HW139755   2.328   3.612  14.126  0.5771 -1.4919  0.3372
 9373SOL    HW239756   2.372   3.558  14.254 -0.3548  1.2705  1.4328
 9374SOL     OW39757   3.321   1.445  17.185 -0.3752 -0.2809  0.0349
 9374SOL    HW139758   3.272   1.430  17.104  2.4796 -3.2561 -1.1626
 9374SOL    HW239759   3.358   1.532  17.173  1.2427 -1.1352 -1.1767
 9375SOL     OW39760   4.028   3.702  12.197 -0.5184  0.4183  0.1228
 9375SOL    HW139761   4.082   3.731  12.270  0.6517 -1.8334  0.1584
 9375SOL    HW239762   3.950   3.756  12.204 -0.0953  1.0554  0.0103
 9376SOL     OW39763   1.748   2.322   7.516 -0.5205  0.1620 -0.4631
 9376SOL    HW139764   1.823   2.378   7.495  0.4388 -0.8335  0.3623
 9376SOL    HW239765   1.681   2.386   7.491  3.1062  3.0984 -2.6439
 9377SOL     OW39766   1.648   3.550   2.934  0.2061 -0.2398 -0.2352
 9377SOL    HW139767   1.715   3.618   2.939  1.5341 -1.6413  1.0146
 9377SOL    HW239768   1.635   3.557   2.839  0.5889  1.2941 -0.1737
 9378SOL     OW39769   1.167   2.569  16.814  0.2707  0.2273 -0.0187
 9378SOL    HW139770   1.085   2.546  16.857 -0.3824  2.8166  0.1092
 9378SOL    HW239771   1.192   2.486  16.774 -2.5492 -0.7729  0.3196
 9379SOL     OW39772   0.973   2.447   7.558 -0.6152 -0.4757  0.6356
 9379SOL    HW139773   0.991   2.474   7.648 -1.0296  2.3263 -0.1222
 9379SOL    HW239774   0.974   2.351   7.565 -0.3171 -0.4373  1.1279
 9380SOL     OW39775   0.943   2.442  15.598  0.5336  0.5376 -0.0040
 9380SOL    HW139776   1.024   2.408  15.560  1.2040 -0.4289  2.2847
 9380SOL    HW239777   0.979   2.488  15.674  0.3024 -0.5044  0.7324
 9381SOL     OW39778   3.544   1.521   5.703  0.1942  0.8905  0.4545
 9381SOL    HW139779   3.596   1.474   5.638  0.6235  0.1578  1.3284
 9381SOL    HW239780   3.580   1.464   5.771 -1.8542 -2.0431 -0.9452
 9382SOL     OW39781   0.147   3.566   7.275  0.2164 -0.4027  0.5212
 9382SOL    HW139782   0.127   3.529   7.361 -1.2833  0.6280  0.6212
 9382SOL    HW239783   0.070   3.622   7.267 -0.4419 -1.3928 -0.0346
 9383SOL     OW39784   2.921   0.118   1.684 -0.0820 -0.5227 -0.2453
 9383SOL    HW139785   2.923   0.030   1.646 -1.7376 -0.1221 -1.2868
 9383SOL    HW239786   2.930   0.101   1.777 -0.3452 -1.6356 -0.4289
 9384SOL     OW39787   4.271   2.020  11.761  0.1076 -0.0240 -0.2222
 9384SOL    HW139788   4.303   1.963  11.690 -0.6133 -0.6939 -0.0022
 9384SOL    HW239789   4.200   2.063  11.715  0.7981  0.2462 -1.0373
 9385SOL     OW39790   0.128   2.318   7.274  0.5829  0.0144  0.5174
 9385SOL    HW139791   0.195   2.385   7.282 -0.0319  0.7533 -0.3838
 9385SOL    HW239792   0.104   2.311   7.367  3.0161 -1.1311  1.0493
 9386SOL     OW39793   2.358   4.267   7.632 -0.7595  0.2683 -0.6289
 9386SOL    HW139794   2.329   4.346   7.678 -1.0810 -0.6313  0.7140
 9386SOL    HW239795   2.350   4.193   7.692 -0.0589  0.5324 -0.2007
 9387SOL     OW39796   4.104   4.354   5.918  0.2649 -0.3523  0.5589
 9387SOL    HW139797   4.033   4.290   5.921 -0.3311  0.2422 -0.7996
 9387SOL    HW239798   4.181   4.305   5.944  1.1538 -0.2440 -1.8062
 9388SOL     OW39799   1.635   0.592  17.241 -0.2479 -0.0951 -0.4736
 9388SOL    HW139800   1.687   0.570  17.164  0.5655 -1.4350  0.4552
 9388SOL    HW239801   1.636   0.506  17.282  0.7751  0.4907  0.7324
 9389SOL     OW39802   2.928   1.529   6.241 -0.0079 -0.1714 -0.4297
 9389SOL    HW139803   2.950   1.503   6.331  3.7880 -0.0789 -1.3413
 9389SOL    HW239804   2.879   1.611   6.254 -1.8373 -1.4692  0.9690
 9390SOL     OW39805   3.976   3.382   5.807 -0.9376  0.0675  0.1047
 9390SOL    HW139806   3.906   3.325   5.837  0.2235 -0.8338  1.0952
 9390SOL    HW239807   4.045   3.322   5.780 -0.6119 -0.1701  1.4391
 9391SOL     OW39808   0.228   1.619   0.772 -0.1449 -0.1863  0.1814
 9391SOL    HW139809   0.265   1.570   0.846 -0.3502  3.4115  2.6382
 9391SOL    HW239810   0.138   1.590   0.786 -0.0146 -0.4142  0.5493
 9392SOL     OW39811   3.760   1.764   4.632  0.3476 -0.2861 -0.4049
 9392SOL    HW139812   3.807   1.742   4.552 -0.3916 -0.7150 -0.7217
 9392SOL    HW239813   3.791   1.852   4.653  0.6266 -0.2221 -1.0769
 9393SOL     OW39814   1.202   3.055   2.877  0.2335 -0.4511  0.2423
 9393SOL    HW139815   1.285   3.044   2.830  0.5436 -0.5192  0.8060
 9393SOL    HW239816   1.157   2.975   2.848 -0.7059  0.1315  0.0970
 9394SOL     OW39817   0.531   1.294   7.482 -0.7260  0.3871 -0.1467
 9394SOL    HW139818   0.553   1.275   7.573  0.7727 -0.1791 -0.6227
 9394SOL    HW239819   0.447   1.249   7.477 -0.3639 -0.3798  0.6598
 9395SOL     OW39820   2.164   1.569   3.927 -0.7429  0.2927 -0.0955
 9395SOL    HW139821   2.125   1.496   3.880 -0.4703 -0.5253  0.9369
 9395SOL    HW239822   2.231   1.518   3.973 -0.9000  0.6342  0.5207
 9396SOL     OW39823   0.952   1.546   8.092  0.1377 -0.3278 -0.0548
 9396SOL    HW139824   0.879   1.607   8.085 -1.5172 -2.4248 -1.3030
 9396SOL    HW239825   0.906   1.473   8.134 -1.2246  0.8785  0.5661
 9397SOL     OW39826   3.059   0.564   7.757 -0.5821  1.1433 -0.3470
 9397SOL    HW139827   3.083   0.584   7.666 -1.4990  1.2948 -0.5515
 9397SOL    HW239828   3.067   0.647   7.803  0.9564 -0.5486  2.4444
 9398SOL     OW39829   2.597   2.462  13.490 -0.2787  0.8213  0.1430
 9398SOL    HW139830   2.643   2.456  13.406  0.5991 -1.2552  0.7702
 9398SOL    HW239831   2.638   2.536  13.534  2.2613 -0.5470  0.0839
 9399SOL     OW39832   1.250   1.584   6.381  0.4811  0.0617 -0.1572
 9399SOL    HW139833   1.274   1.620   6.466  0.2668  1.1852 -0.5659
 9399SOL    HW239834   1.259   1.490   6.393 -1.9560 -0.4624 -2.3858
 9400SOL     OW39835   1.685   1.875   7.872  0.9314  0.1071  0.0334
 9400SOL    HW139836   1.594   1.896   7.892  0.7084 -0.4418 -0.4216
 9400SOL    HW239837   1.733   1.923   7.940  1.5688 -1.3492  0.6000
 9401SOL     OW39838   1.071   2.246  10.596 -0.3610  0.5312 -0.0222
 9401SOL    HW139839   1.153   2.204  10.622 -0.8250  1.1800  2.3925
 9401SOL    HW239840   1.062   2.206  10.509 -1.7226 -2.6700  1.5814
 9402SOL     OW39841   3.150   2.911   3.262 -0.0862  0.5934  0.1466
 9402SOL    HW139842   3.231   2.952   3.229  0.6967 -1.4330 -0.4622
 9402SOL    HW239843   3.186   2.834   3.305  0.8478  1.4512  0.9118
 9403SOL     OW39844   3.742   0.526  15.985  0.4491 -0.0551 -0.1466
 9403SOL    HW139845   3.775   0.509  15.897 -1.5868 -0.3096 -0.8620
 9403SOL    HW239846   3.802   0.484  16.046  0.3778  0.4645  0.2861
 9404SOL     OW39847   3.733   2.124   3.155  0.2083 -0.1109  0.1464
 9404SOL    HW139848   3.650   2.086   3.129  0.1643  0.2422 -0.2320
 9404SOL    HW239849   3.802   2.071   3.114 -0.0390 -0.1179 -0.2561
 9405SOL     OW39850   3.216   1.292   5.735 -0.0353 -0.0026  0.0600
 9405SOL    HW139851   3.129   1.254   5.719  0.8439 -1.0851 -2.2121
 9405SOL    HW239852   3.234   1.261   5.824 -1.4081 -0.3395  0.2259
 9406SOL     OW39853   3.787   2.324   2.327  0.0569  0.2793  0.4289
 9406SOL    HW139854   3.879   2.327   2.302  0.0380  3.4595  0.7459
 9406SOL    HW239855   3.799   2.239   2.369 -2.0624  0.5624  1.6141
 9407SOL     OW39856   3.913   4.641   6.770 -0.2211  0.1241  0.1086
 9407SOL    HW139857   3.907   4.546   6.776  1.6202  0.1358  1.9405
 9407SOL    HW239858   4.005   4.663   6.784  0.6203 -0.8684 -3.6394
 9408SOL     OW39859   4.058   4.427   9.001 -0.3031  0.0584  0.4216
 9408SOL    HW139860   4.059   4.332   9.006  1.4281  0.0544  0.0077
 9408SOL    HW239861   4.104   4.451   9.081 -1.6910 -0.4370  1.3708
 9409SOL     OW39862   2.100   3.037   7.053 -0.0477  0.4870 -0.2598
 9409SOL    HW139863   2.044   3.060   7.127  1.3065  2.3647  0.1866
 9409SOL    HW239864   2.177   3.092   7.066  1.0743 -1.1885  0.3151
 9410SOL     OW39865   3.418   4.279   1.787  0.0509  0.4006 -0.2420
 9410SOL    HW139866   3.427   4.187   1.765 -1.3870  0.5007 -1.2763
 9410SOL    HW239867   3.405   4.317   1.700 -0.3172 -2.2599 -1.3432
 9411SOL     OW39868   1.503   2.268   9.011 -0.0031 -0.2258 -0.0649
 9411SOL    HW139869   1.468   2.183   9.036  1.2453 -1.2735 -1.8475
 9411SOL    HW239870   1.494   2.310   9.096 -2.7876  0.5812 -0.7599
 9412SOL     OW39871   1.169   3.344   7.337 -0.6272 -0.3958  0.1647
 9412SOL    HW139872   1.192   3.433   7.311  0.8556 -0.1452  2.3578
 9412SOL    HW239873   1.076   3.346   7.359 -0.2743  0.7085  1.5197
 9413SOL     OW39874   3.712   2.607  14.768  0.1252  0.0400  0.4749
 9413SOL    HW139875   3.766   2.538  14.806  1.5468  0.0909 -1.4698
 9413SOL    HW239876   3.631   2.589  14.817  1.0886 -0.5527  1.8421
 9414SOL     OW39877   1.529   0.033   3.074 -0.1409 -0.0410 -0.4665
 9414SOL    HW139878   1.545   0.033   3.168 -1.5895  1.0972 -0.2257
 9414SOL    HW239879   1.608   0.074   3.037 -0.3835 -0.7148 -1.7455
 9415SOL     OW39880   4.013   0.763  17.137  0.1082  0.1302  0.3622
 9415SOL    HW139881   3.986   0.837  17.083 -0.4774 -1.3177 -1.3360
 9415SOL    HW239882   4.088   0.746  17.080 -0.4148  0.1156 -0.3243
 9416SOL     OW39883   0.613   1.855   3.117  0.1116  0.1939 -0.3343
 9416SOL    HW139884   0.661   1.838   3.036  2.0919  0.0057  0.8798
 9416SOL    HW239885   0.666   1.929   3.145 -1.5658  1.3515 -0.2006
 9417SOL     OW39886   1.289   0.982   5.606 -0.2491 -0.3644 -0.3625
 9417SOL    HW139887   1.289   0.886   5.608  0.0099 -0.3896 -1.4099
 9417SOL    HW239888   1.222   0.995   5.539 -0.3525 -1.5872 -0.5054
 9418SOL     OW39889   2.523   4.297   8.439 -0.1567  0.5342  0.2769
 9418SOL    HW139890   2.522   4.247   8.357 -2.4917 -1.0168  1.2512
 9418SOL    HW239891   2.610   4.270   8.470 -0.2455 -0.7022 -0.5208
 9419SOL     OW39892   1.060   1.651   5.938  0.5693  0.2369  0.2957
 9419SOL    HW139893   1.041   1.744   5.950  1.1102  0.0052  2.8108
 9419SOL    HW239894   1.067   1.626   6.030 -0.7151  1.4367  0.7071
 9420SOL     OW39895   1.044   1.257  13.956 -0.2284  0.3550 -0.1434
 9420SOL    HW139896   1.056   1.351  13.942  0.4594  0.2766 -0.0638
 9420SOL    HW239897   1.059   1.239  14.049  1.2910 -1.3707 -0.7284
 9421SOL     OW39898   3.826   3.873  12.183  0.0632 -0.6856 -0.0876
 9421SOL    HW139899   3.861   3.953  12.223  0.6886 -1.6769  1.3720
 9421SOL    HW239900   3.772   3.916  12.117 -0.0145  0.0106  0.4315
 9422SOL     OW39901   3.226   1.048  15.633  0.3526  0.8618 -0.1213
 9422SOL    HW139902   3.136   1.026  15.609  1.2949 -0.7681 -2.1116
 9422SOL    HW239903   3.264   0.962  15.617 -0.2838  0.3814  0.9834
 9423SOL     OW39904   2.909   4.303  10.205  0.3428  0.0534 -0.3389
 9423SOL    HW139905   2.963   4.276  10.130 -1.6740 -0.7746 -1.4942
 9423SOL    HW239906   2.907   4.227  10.263 -0.3699 -0.4039 -0.9588
 9424SOL     OW39907   1.391   1.974   5.548  0.0559 -0.0375 -0.2068
 9424SOL    HW139908   1.454   1.903   5.536  0.8994  0.7113 -0.2572
 9424SOL    HW239909   1.373   1.973   5.642 -3.2003 -2.4809 -0.8759
 9425SOL     OW39910   0.635   4.279   4.744 -0.5711  0.4085  0.1785
 9425SOL    HW139911   0.605   4.317   4.826  0.6281 -1.1263  1.3194
 9425SOL    HW239912   0.654   4.355   4.688 -0.1328  0.3348  0.2307
 9426SOL     OW39913   0.731   2.110   4.153  0.1973 -1.0069  0.2094
 9426SOL    HW139914   0.715   2.125   4.060 -0.2716 -0.5091  0.3718
 9426SOL    HW239915   0.646   2.082   4.185 -0.3096  0.5828  0.2763
 9427SOL     OW39916   0.770   1.053   1.560 -0.0494 -0.1097 -0.0083
 9427SOL    HW139917   0.785   1.008   1.476 -0.8333  0.2175 -0.3321
 9427SOL    HW239918   0.741   0.980   1.616 -1.6927 -0.3798 -1.1888
 9428SOL     OW39919   1.089   2.449   5.984 -0.1873  0.1557  0.2471
 9428SOL    HW139920   1.133   2.422   5.904 -0.6043  1.4730 -0.4373
 9428SOL    HW239921   1.160   2.439   6.047  0.0375 -0.4407 -0.1058
 9429SOL     OW39922   1.512   1.176   7.105 -0.1883 -0.4027 -0.5628
 9429SOL    HW139923   1.439   1.145   7.050 -0.7864  0.6738 -0.3916
 9429SOL    HW239924   1.531   1.259   7.060  0.7695 -0.1166  0.4023
 9430SOL     OW39925   2.055   3.335   7.670 -0.5406  0.4348 -0.2054
 9430SOL    HW139926   2.044   3.378   7.755 -1.8195 -0.5315  0.1141
 9430SOL    HW239927   1.967   3.297   7.664 -0.6310  0.1976  2.6910
 9431SOL     OW39928   1.844   3.237   5.568 -0.1475  0.4773 -0.0540
 9431SOL    HW139929   1.809   3.284   5.644 -1.7003 -0.5121 -0.1722
 9431SOL    HW239930   1.906   3.183   5.617 -0.5997 -1.5457 -1.7219
 9432SOL     OW39931   2.003   3.603  11.476 -0.3620  0.2727 -0.4311
 9432SOL    HW139932   2.077   3.583  11.417  0.5048  2.2945 -0.0438
 9432SOL    HW239933   1.957   3.522  11.459 -1.2570  0.8444 -0.7188
 9433SOL     OW39934   4.478   4.019   5.802  0.1773  0.8360  0.1050
 9433SOL    HW139935   4.447   4.013   5.711  0.0670  4.6654 -0.0961
 9433SOL    HW239936   4.453   3.929   5.826 -0.7352  0.7894 -1.0048
 9434SOL     OW39937   1.815   3.262   8.148  0.9354  0.7474 -0.8469
 9434SOL    HW139938   1.741   3.216   8.109  0.6830 -1.7899  2.6527
 9434SOL    HW239939   1.830   3.208   8.226 -1.1631  0.5767 -0.5578
 9435SOL     OW39940   2.682   3.799   1.377  0.0207  0.2645 -0.2879
 9435SOL    HW139941   2.769   3.781   1.343 -0.0449 -0.8765  0.1443
 9435SOL    HW239942   2.652   3.879   1.334  0.4824  0.3219 -0.4928
 9436SOL     OW39943   1.653   4.454   3.208 -0.1499 -0.5341 -0.0371
 9436SOL    HW139944   1.700   4.378   3.242 -2.3915 -1.1215  1.7357
 9436SOL    HW239945   1.711   4.469   3.133  0.5504 -4.0308 -0.1670
 9437SOL     OW39946   3.437   3.831  15.046  0.4359  0.0133  0.7787
 9437SOL    HW139947   3.421   3.918  15.083 -0.2425  0.1384  0.1828
 9437SOL    HW239948   3.452   3.791  15.132 -1.6696 -0.7393  0.7952
 9438SOL     OW39949   0.540   3.164   2.052  0.1478 -0.0126 -0.0324
 9438SOL    HW139950   0.561   3.093   2.113 -1.6304 -0.1808  0.3922
 9438SOL    HW239951   0.627   3.184   2.018 -0.5133  0.4827 -1.4291
 9439SOL     OW39952   3.501   4.525   8.279 -0.1929  0.0025 -0.4392
 9439SOL    HW139953   3.446   4.593   8.317 -0.6435 -1.6066  1.7813
 9439SOL    HW239954   3.437   4.490   8.216 -0.0646  0.3658 -0.7700
 9440SOL     OW39955   2.193   0.711  15.724 -0.2077 -0.1015 -0.6526
 9440SOL    HW139956   2.199   0.737  15.816 -0.0435 -1.0284 -0.4065
 9440SOL    HW239957   2.284   0.728  15.699  0.5729 -1.2426  1.4279
 9441SOL     OW39958   2.143   4.332  12.831 -0.3449 -0.0840 -0.4140
 9441SOL    HW139959   2.062   4.358  12.874  1.9956  0.8356  3.4015
 9441SOL    HW239960   2.155   4.384  12.751  0.6448  0.6072  0.1825
 9442SOL     OW39961   3.092   0.910   9.438 -0.0244  0.1842  0.6473
 9442SOL    HW139962   3.027   0.937   9.373 -0.9571 -3.6070  0.0048
 9442SOL    HW239963   3.095   0.815   9.433  1.6832  0.2732  0.1175
 9443SOL     OW39964   3.244   4.266  14.367  0.1584 -0.3830  0.0932
 9443SOL    HW139965   3.304   4.313  14.308 -0.8839  0.3873 -0.3471
 9443SOL    HW239966   3.200   4.204  14.308  0.3977 -0.2802 -0.1947
 9444SOL     OW39967   2.701   3.272  17.682  0.7126  0.0275  0.6752
 9444SOL    HW139968   2.771   3.333  17.704  0.3424  0.1238  1.5979
 9444SOL    HW239969   2.628   3.333  17.671 -0.4995 -1.8302 -1.5023
 9445SOL     OW39970   3.446   3.180   7.889 -0.8970  0.0724  0.6774
 9445SOL    HW139971   3.353   3.201   7.896 -0.9602  0.2335 -0.5322
 9445SOL    HW239972   3.451   3.085   7.884 -1.5377  0.1269 -1.1398
 9446SOL     OW39973   3.129   4.314   2.990  0.0684 -0.2454 -0.1885
 9446SOL    HW139974   3.086   4.306   2.905  0.2684  2.8004 -0.5785
 9446SOL    HW239975   3.163   4.403   2.983  0.0701 -0.1398  1.1152
 9447SOL     OW39976   3.277   0.767   2.520  0.0282 -0.0770 -0.3902
 9447SOL    HW139977   3.321   0.712   2.456 -0.0420 -1.3325  0.6249
 9447SOL    HW239978   3.321   0.744   2.602 -2.1604 -0.1521  0.7717
 9448SOL     OW39979   4.596   3.978   4.119 -0.2593  0.2788 -0.3294
 9448SOL    HW139980   4.505   3.947   4.116  0.2968 -1.2110 -1.7516
 9448SOL    HW239981   4.591   4.074   4.127 -0.1418  0.2297  0.2950
 9449SOL     OW39982   0.141   0.152   9.247  1.1395 -0.4484 -0.3389
 9449SOL    HW139983   0.219   0.180   9.198  0.3123  2.1022 -0.1937
 9449SOL    HW239984   0.180   0.103   9.320  1.4443 -2.6322 -1.9514
 9450SOL     OW39985   0.521   3.523   8.555 -0.3830  0.3782  0.1154
 9450SOL    HW139986   0.432   3.554   8.539 -0.1050  1.1279  0.0167
 9450SOL    HW239987   0.524   3.457   8.485 -0.1956  0.9115 -0.3819
 9451SOL     OW39988   0.479   1.324   2.549  0.2134  0.0594  0.1763
 9451SOL    HW139989   0.545   1.349   2.613  0.0367 -0.2612  0.4865
 9451SOL    HW239990   0.476   1.410   2.506  0.9392 -0.6976 -1.3788
 9452SOL     OW39991   2.339   1.626   5.062 -0.2267 -0.5391 -0.3529
 9452SOL    HW139992   2.268   1.688   5.079 -1.9597 -1.4633 -4.2597
 9452SOL    HW239993   2.307   1.549   5.110 -0.9897  0.8013  1.2788
 9453SOL     OW39994   2.602   1.564   4.092 -0.4549  0.1277  0.0929
 9453SOL    HW139995   2.564   1.604   4.014  1.0599  0.4156 -0.5017
 9453SOL    HW239996   2.659   1.495   4.058 -1.4292 -0.3803 -0.4804
 9454SOL     OW39997   0.528   2.011   3.504 -0.4505  0.3329 -0.4808
 9454SOL    HW139998   0.528   2.078   3.436  1.2296  0.6449 -0.1622
 9454SOL    HW239999   0.466   1.950   3.465  0.6059  0.9404 -3.0779
 9455SOL     OW40000   0.571   1.644  10.411  0.0090  0.2000  0.1919
 9455SOL    HW140001   0.572   1.710  10.480  1.6606 -0.2923  0.6251
 9455SOL    HW240002   0.593   1.693  10.332 -0.5424 -1.0098 -0.7135
 9456SOL     OW40003   0.169   0.025   2.722 -0.3285 -0.5132 -0.1740
 9456SOL    HW140004   0.078   0.014   2.750 -0.4450  0.9988  0.0185
 9456SOL    HW240005   0.164   0.035   2.627  0.5471 -0.2454 -0.1920
 9457SOL     OW40006   3.752   0.784   1.983 -0.3883 -0.2834 -0.2250
 9457SOL    HW140007   3.738   0.780   1.888 -0.9631  1.1813 -0.2005
 9457SOL    HW240008   3.792   0.871   1.985 -1.0411  0.0189 -0.2782
 9458SOL     OW40009   4.259   4.475   9.418  0.3365 -0.1639  0.0458
 9458SOL    HW140010   4.323   4.545   9.407 -0.6088  0.6359 -0.4466
 9458SOL    HW240011   4.256   4.431   9.332 -0.6925 -0.8537  0.4285
 9459SOL     OW40012   2.670   1.513   4.701  0.7285 -0.7317  0.0759
 9459SOL    HW140013   2.691   1.426   4.735  0.8255 -1.1735 -1.0927
 9459SOL    HW240014   2.758   1.549   4.689  1.3288 -2.4784 -0.8135
 9460SOL     OW40015   4.629   0.775   8.397 -0.5847 -0.5133 -0.7851
 9460SOL    HW140016   4.575   0.699   8.375  1.2809 -2.1368  0.1276
 9460SOL    HW240017   4.689   0.774   8.323  1.3579  0.4879  0.7598
 9461SOL     OW40018   2.784   2.817  12.177 -0.5120  0.0878 -0.4268
 9461SOL    HW140019   2.786   2.839  12.270  2.3956  0.3147 -0.5628
 9461SOL    HW240020   2.820   2.728  12.183 -0.8855 -0.0874 -0.7987
 9462SOL     OW40021   2.184   1.760   5.743  0.5914 -0.3492 -0.3147
 9462SOL    HW140022   2.262   1.783   5.693  0.0101  2.9712  0.2725
 9462SOL    HW240023   2.131   1.741   5.665  1.8569  0.0469 -1.2661
 9463SOL     OW40024   3.510   0.958   5.417  0.1445  0.5683 -0.0650
 9463SOL    HW140025   3.415   0.953   5.422  0.2569 -2.0194 -0.4780
 9463SOL    HW240026   3.518   1.044   5.457  1.1040 -0.0218  1.0082
 9464SOL     OW40027   1.860   0.504   6.889  0.1604  0.1572 -0.2024
 9464SOL    HW140028   1.897   0.592   6.899  3.2040 -0.8925 -1.9625
 9464SOL    HW240029   1.924   0.443   6.927 -1.1735 -0.8118  0.4699
 9465SOL     OW40030   3.573   2.396   2.178  0.3637 -0.1111  0.1985
 9465SOL    HW140031   3.503   2.369   2.237 -0.0179  2.3662  0.8821
 9465SOL    HW240032   3.649   2.385   2.236  2.2038  0.9246 -2.0149
 9466SOL     OW40033   2.089   0.468   6.650 -0.3495 -0.1606  0.3720
 9466SOL    HW140034   2.163   0.510   6.606  0.2396 -0.4500  1.0907
 9466SOL    HW240035   2.099   0.460   6.744 -1.4891 -1.6221  0.3649
 9467SOL     OW40036   0.183   0.498   4.004  0.5050 -0.4886 -0.2099
 9467SOL    HW140037   0.258   0.514   4.061 -1.4813 -0.1017  2.2792
 9467SOL    HW240038   0.157   0.586   3.979 -1.7414 -1.4062 -1.1110
 9468SOL     OW40039   3.160   3.367  15.014  0.1558  0.0474  0.2799
 9468SOL    HW140040   3.120   3.345  14.931 -1.6813  1.7023  0.7230
 9468SOL    HW240041   3.189   3.282  15.045 -1.6160 -1.0705 -1.1478
 9469SOL     OW40042   4.222   2.573  12.485 -0.4593  0.5393  0.4122
 9469SOL    HW140043   4.272   2.517  12.426  0.8576  3.7469 -1.5129
 9469SOL    HW240044   4.261   2.542  12.566 -1.1321 -0.3651  0.3985
 9470SOL     OW40045   2.701   1.446   9.842 -0.4511 -0.3245 -0.7853
 9470SOL    HW140046   2.631   1.387   9.872 -1.4700  1.3227  0.0537
 9470SOL    HW240047   2.776   1.411   9.891  1.6669  0.6620 -3.3188
 9471SOL     OW40048   1.134   1.555  13.144 -0.3589 -0.0766  0.3022
 9471SOL    HW140049   1.165   1.641  13.172 -2.0132  0.2669  1.0586
 9471SOL    HW240050   1.070   1.528  13.209  1.1289 -1.0170  1.3670
 9472SOL     OW40051   2.011   2.701   9.267  0.4437 -0.3131 -0.2789
 9472SOL    HW140052   2.043   2.789   9.286  0.6157 -0.3975 -0.1728
 9472SOL    HW240053   1.990   2.702   9.173  1.4469 -0.8824 -0.5122
 9473SOL     OW40054   4.155   0.659  12.391  0.1614 -0.6055  0.5765
 9473SOL    HW140055   4.132   0.751  12.400  0.2298 -0.5179 -0.1717
 9473SOL    HW240056   4.152   0.627  12.481 -0.1996  1.6307  1.3553
 9474SOL     OW40057   1.045   1.285   3.428 -0.1042 -0.4258 -0.2281
 9474SOL    HW140058   1.120   1.227   3.422 -0.5667 -1.1510  0.9620
 9474SOL    HW240059   1.075   1.375   3.440 -0.3965 -0.3732  0.1148
 9475SOL     OW40060   2.611   2.802   4.038  1.0057 -0.3851 -0.4403
 9475SOL    HW140061   2.642   2.725   3.990  0.5996 -0.6166 -0.3251
 9475SOL    HW240062   2.532   2.767   4.078  0.9960 -0.4491 -0.5143
 9476SOL     OW40063   4.484   3.354   6.833 -0.1890 -0.1563 -0.4217
 9476SOL    HW140064   4.490   3.326   6.741 -0.3200  1.2563 -0.8501
 9476SOL    HW240065   4.576   3.375   6.849 -0.6167  2.3349 -1.3006
 9477SOL     OW40066   3.929   2.154   8.069 -0.1364  0.6570 -0.2262
 9477SOL    HW140067   3.854   2.168   8.127 -1.3982 -0.5333 -1.5661
 9477SOL    HW240068   3.906   2.069   8.031 -0.2982  0.0767  1.1624
 9478SOL     OW40069   2.274   0.306   5.602  0.4380  0.1327 -0.0595
 9478SOL    HW140070   2.211   0.354   5.655  1.4679 -1.1630  2.3452
 9478SOL    HW240071   2.267   0.356   5.520 -2.1223  0.5968  0.4497
 9479SOL     OW40072   1.678   1.081   0.279  0.5020  0.3738  0.3082
 9479SOL    HW140073   1.752   1.034   0.319  0.4441 -0.2646 -0.3271
 9479SOL    HW240074   1.626   1.008   0.248 -3.4629  2.9195  0.9781
 9480SOL     OW40075   1.673   1.249   1.830 -0.3498 -0.1711  0.2296
 9480SOL    HW140076   1.715   1.335   1.816 -1.6125  0.2005 -1.2729
 9480SOL    HW240077   1.604   1.291   1.882  0.6250 -1.0249  2.2427
 9481SOL     OW40078   4.262   0.985   5.690  0.1750  0.3015  0.1557
 9481SOL    HW140079   4.232   0.938   5.612  0.3527 -0.3030  0.4482
 9481SOL    HW240080   4.224   0.931   5.759  2.2393 -2.5647 -0.9576
 9482SOL     OW40081   3.984   0.331   5.128 -0.1131 -0.0247  0.2230
 9482SOL    HW140082   3.986   0.393   5.201  0.8121 -1.0985  1.1094
 9482SOL    HW240083   4.037   0.255   5.154  1.3198  1.6849  2.3713
 9483SOL     OW40084   0.924   1.071  14.640  0.4005 -0.0423  0.5125
 9483SOL    HW140085   0.868   1.137  14.682 -1.6576 -0.5657 -1.4604
 9483SOL    HW240086   0.895   0.998  14.696  1.0174 -1.6981 -1.3257
 9484SOL     OW40087   2.605   3.536   5.549 -0.0104 -0.2138 -0.0465
 9484SOL    HW140088   2.526   3.559   5.498  0.0866 -1.8212 -0.9178
 9484SOL    HW240089   2.588   3.444   5.569 -1.6483  0.5603  2.1117
 9485SOL     OW40090   3.787   0.793   6.632  0.1579 -0.3076 -0.3301
 9485SOL    HW140091   3.787   0.701   6.606 -0.0658  0.3813 -2.7197
 9485SOL    HW240092   3.715   0.837   6.586 -0.2105 -0.8296 -0.2598
 9486SOL     OW40093   1.341   4.126   7.158  0.3748 -0.1465  0.2972
 9486SOL    HW140094   1.417   4.069   7.142  1.2511  1.4787 -1.4071
 9486SOL    HW240095   1.373   4.188   7.223  0.3867  0.3033 -0.1372
 9487SOL     OW40096   4.521   3.290  17.151  0.5524 -0.1790  0.4233
 9487SOL    HW140097   4.477   3.248  17.225  0.2410 -1.1629 -0.3176
 9487SOL    HW240098   4.442   3.308  17.099 -0.8873 -1.7436  2.0657
 9488SOL     OW40099   0.225   0.280   5.050  0.2610 -0.0072 -0.0990
 9488SOL    HW140100   0.187   0.194   5.064 -0.4993  0.2797 -0.3566
 9488SOL    HW240101   0.293   0.278   5.118  0.2378 -2.0310 -0.1472
 9489SOL     OW40102   4.450   2.514   2.324 -1.0138 -0.0001  0.2947
 9489SOL    HW140103   4.522   2.498   2.385 -1.9906 -2.4014  0.8334
 9489SOL    HW240104   4.486   2.472   2.247 -1.1828 -2.5185  1.5844
 9490SOL     OW40105   0.324   3.139   8.371  0.1061 -0.5464 -0.0164
 9490SOL    HW140106   0.246   3.191   8.352  1.3181  0.5337 -2.0304
 9490SOL    HW240107   0.290   3.083   8.441  1.3307  0.4324  1.3467
 9491SOL     OW40108   2.924   0.556   5.643 -0.8282 -0.2968 -0.0638
 9491SOL    HW140109   2.946   0.634   5.592  0.4072 -0.7129 -0.1599
 9491SOL    HW240110   2.987   0.567   5.714  1.0910 -0.6660 -1.7163
 9492SOL     OW40111   1.280   1.630   7.308 -0.0610  0.3722  0.2109
 9492SOL    HW140112   1.252   1.624   7.399 -0.2006 -0.2628  0.1222
 9492SOL    HW240113   1.191   1.643   7.274  0.2363  1.1057 -0.3115
 9493SOL     OW40114   1.012   0.757   6.077 -0.5120 -0.4163  0.5048
 9493SOL    HW140115   1.044   0.795   5.996 -3.4284 -0.8092 -0.8032
 9493SOL    HW240116   0.961   0.683   6.043 -1.8088 -0.5004  2.5928
 9494SOL     OW40117   0.343   0.433   6.401  0.4153  0.2555 -0.6401
 9494SOL    HW140118   0.253   0.438   6.432  0.5203  1.1741 -0.4840
 9494SOL    HW240119   0.329   0.490   6.325 -2.4543  3.0168  1.9509
 9495SOL     OW40120   0.904   3.276   3.239 -0.1312 -0.1202  0.1813
 9495SOL    HW140121   0.950   3.269   3.322  1.7115 -1.6683 -0.9492
 9495SOL    HW240122   0.950   3.219   3.177 -1.8886  1.7497 -2.8775
 9496SOL     OW40123   1.800   2.678   7.824  0.4305  0.1646 -0.1267
 9496SOL    HW140124   1.710   2.657   7.799  0.4091 -0.8852  0.8272
 9496SOL    HW240125   1.852   2.642   7.752  0.0789 -3.4249  1.4086
 9497SOL     OW40126   3.447   1.503  17.520  0.2823  0.3210  0.6910
 9497SOL    HW140127   3.431   1.434  17.456  0.8282 -0.6409  1.5798
 9497SOL    HW240128   3.536   1.475  17.544  0.9233  0.8039 -1.1154
 9498SOL     OW40129   0.255   2.045   7.596  0.3172  0.4197  0.2114
 9498SOL    HW140130   0.250   2.003   7.510 -1.5318 -0.0888  0.5812
 9498SOL    HW240131   0.232   1.975   7.657  0.2450  0.6549  0.4541
 9499SOL     OW40132   1.689   1.742   4.363  0.3501  0.0987 -0.0587
 9499SOL    HW140133   1.698   1.659   4.409 -2.6743 -0.5760 -0.7048
 9499SOL    HW240134   1.668   1.706   4.277 -0.2448 -0.6170  0.3882
 9500SOL     OW40135   0.113   1.445   8.326  0.4296 -0.1266  0.1832
 9500SOL    HW140136   0.196   1.415   8.288 -0.1820 -1.0362 -0.4258
 9500SOL    HW240137   0.079   1.487   8.247 -2.5602 -1.5615  0.7180
 9501SOL     OW40138   0.991   1.965  16.695  0.0916 -0.0874 -0.1455
 9501SOL    HW140139   0.908   1.972  16.743  0.9268 -0.2611  1.3151
 9501SOL    HW240140   1.054   2.011  16.750 -0.2074  0.0453  0.0858
 9502SOL     OW40141   1.006   0.481   7.231  0.3208 -0.1671 -0.4797
 9502SOL    HW140142   1.046   0.409   7.279  2.0324  0.1326 -1.4526
 9502SOL    HW240143   1.079   0.514   7.178  1.0571  1.7186  1.6694
 9503SOL     OW40144   3.043   4.652  15.583  0.4276  0.1313  0.4286
 9503SOL    HW140145   2.979   4.613  15.523  0.1174  2.0005 -0.4791
 9503SOL    HW240146   3.032   0.012  15.568  0.4555 -0.0108 -0.4620
 9504SOL     OW40147   2.503   2.290   7.984  0.0363  0.7140  0.2043
 9504SOL    HW140148   2.573   2.233   8.016 -2.1302  0.5809  4.5603
 9504SOL    HW240149   2.504   2.262   7.892 -0.2304  0.8244  0.1679
 9505SOL     OW40150   4.185   0.976   9.783 -0.0984 -0.4951 -0.6663
 9505SOL    HW140151   4.272   0.979   9.821  0.2144  3.1247 -1.6789
 9505SOL    HW240152   4.175   0.882   9.767  2.5136 -0.6870 -1.1397
 9506SOL     OW40153   2.712   1.087   3.283  0.4909 -0.0213  0.5355
 9506SOL    HW140154   2.788   1.071   3.228 -1.4648  0.4369 -2.3039
 9506SOL    HW240155   2.678   1.167   3.242  1.0951 -0.6270 -1.1191
 9507SOL     OW40156   3.014   2.148  14.284  0.3057 -0.2695  0.4253
 9507SOL    HW140157   2.928   2.108  14.271  0.8835 -1.0551 -0.9564
 9507SOL    HW240158   3.035   2.188  14.199  1.6193 -1.0089  0.4106
 9508SOL     OW40159   0.105   2.426   1.608  0.2065  0.0553 -0.6569
 9508SOL    HW140160   0.182   2.471   1.643  0.0582 -0.2148  0.0101
 9508SOL    HW240161   0.041   2.494   1.630  0.5744  0.7441 -1.6906
 9509SOL     OW40162   1.841   3.263   3.419 -0.0337 -0.1871 -0.4726
 9509SOL    HW140163   1.842   3.299   3.330 -0.6722 -0.5913 -0.6355
 9509SOL    HW240164   1.826   3.344   3.468  0.1270 -1.4295  1.6513
 9510SOL     OW40165   0.534   4.127   6.872 -0.1386  0.0989  0.2265
 9510SOL    HW140166   0.520   4.153   6.964 -0.9975  0.5926 -0.0411
 9510SOL    HW240167   0.604   4.186   6.847 -0.6433  1.6305  2.3893
 9511SOL     OW40168   1.947   3.215   3.786 -0.0083 -0.6359  0.2281
 9511SOL    HW140169   1.862   3.245   3.819 -0.0341  1.1053 -1.3885
 9511SOL    HW240170   2.002   3.208   3.863  2.1714  0.4877 -1.2093
 9512SOL     OW40171   1.639   0.250  10.249  0.4785  0.3667 -0.3220
 9512SOL    HW140172   1.561   0.303  10.237  1.8354  2.4540  0.1059
 9512SOL    HW240173   1.606   0.164  10.221 -0.5734  1.3615 -2.1451
 9513SOL     OW40174   2.100   3.651   3.800  0.0339 -0.0710 -0.7368
 9513SOL    HW140175   2.155   3.616   3.729  1.3946  0.3718  0.0899
 9513SOL    HW240176   2.051   3.574   3.828 -0.7254  0.3269 -0.9627
 9514SOL     OW40177   1.886   4.153   4.435 -0.3144  0.1288 -0.1168
 9514SOL    HW140178   1.941   4.184   4.507 -0.2643 -2.1150  0.7963
 9514SOL    HW240179   1.904   4.060   4.430  0.2885  0.2720 -0.5316
 9515SOL     OW40180   3.677   3.328   0.426 -0.1389  0.0855 -0.2116
 9515SOL    HW140181   3.628   3.248   0.410 -2.3488  0.8480  2.6267
 9515SOL    HW240182   3.613   3.399   0.420  0.0663  0.4353  1.7532
 9516SOL     OW40183   1.187   3.858   6.857  0.1048 -0.3460  0.2303
 9516SOL    HW140184   1.208   3.789   6.919  2.2852 -0.4025 -0.5785
 9516SOL    HW240185   1.269   3.894   6.824 -0.8367  1.3282 -0.3155
 9517SOL     OW40186   2.830   2.155   3.455 -0.4818  0.3674 -0.1662
 9517SOL    HW140187   2.882   2.216   3.506 -0.6433  2.1010 -2.0820
 9517SOL    HW240188   2.745   2.153   3.500  0.0371 -3.0683  0.7126
 9518SOL     OW40189   1.749   0.023   6.200  0.1625  0.2041  0.1549
 9518SOL    HW140190   1.778   4.701   6.271 -1.1756 -0.5629  0.1033
 9518SOL    HW240191   1.792   4.721   6.122  0.4570  3.0654 -1.0340
 9519SOL     OW40192   2.072   1.959   7.556 -0.0106  0.7255  0.4784
 9519SOL    HW140193   2.032   1.910   7.627  1.8898 -1.3808  0.0996
 9519SOL    HW240194   2.160   1.981   7.587 -0.2503  0.2863  1.4486
 9520SOL     OW40195   2.414   0.720   0.838 -0.0275 -0.4289  0.5991
 9520SOL    HW140196   2.508   0.740   0.832 -0.1280 -1.2812 -3.3892
 9520SOL    HW240197   2.400   0.706   0.932  0.4619  1.3234  0.9466
 9521SOL     OW40198   2.705   2.763   7.967 -0.1283 -0.1483 -0.3260
 9521SOL    HW140199   2.642   2.698   7.997 -2.6317  2.0145 -0.9522
 9521SOL    HW240200   2.776   2.749   8.030  0.3261 -1.5285 -1.1437
 9522SOL     OW40201   2.958   1.569   5.792  0.5168 -0.2125 -0.3499
 9522SOL    HW140202   2.908   1.647   5.816 -1.3070 -1.5358  0.0676
 9522SOL    HW240203   2.999   1.618   5.719 -0.1305  1.9304  0.7324
 9523SOL     OW40204   0.546   0.503  12.255  0.7928 -0.2875 -0.1910
 9523SOL    HW140205   0.549   0.418  12.300 -1.4347  0.7131  1.8210
 9523SOL    HW240206   0.632   0.513  12.213  1.3809 -0.2981  1.0216
 9524SOL     OW40207   0.636   3.849   6.995  0.7063 -0.3479 -0.4214
 9524SOL    HW140208   0.597   3.921   7.043 -1.4469 -1.0072 -1.2099
 9524SOL    HW240209   0.673   3.890   6.917  0.5986 -0.4034 -0.5016
 9525SOL     OW40210   1.154   4.133   7.795  0.0885  1.0369  0.4119
 9525SOL    HW140211   1.170   4.062   7.732 -0.4819 -0.0908  1.5449
 9525SOL    HW240212   1.106   4.087   7.864  0.1448 -0.2647 -0.4146
 9526SOL     OW40213   4.495   4.242   3.635  0.2370 -0.2430  0.2700
 9526SOL    HW140214   4.425   4.177   3.635  0.6702 -0.6922  1.6872
 9526SOL    HW240215   4.445   4.322   3.654 -2.4178 -1.6018 -1.0038
 9527SOL     OW40216   4.648   0.572   1.890 -0.3639 -0.3400  0.4180
 9527SOL    HW140217   4.633   0.650   1.837  0.1755 -0.3521  0.2522
 9527SOL    HW240218   4.563   0.530   1.880  0.5139 -1.8919 -0.4437
 9528SOL     OW40219   0.277   3.100   4.240  0.7364 -0.1370 -0.3476
 9528SOL    HW140220   0.246   3.185   4.209 -0.8055 -0.2479  0.9262
 9528SOL    HW240221   0.328   3.079   4.162 -3.3307  1.2819 -3.3651
 9529SOL     OW40222   2.034   0.418   4.610  0.4746  0.3826  0.5367
 9529SOL    HW140223   2.000   0.358   4.676  0.3316  0.4667  0.5385
 9529SOL    HW240224   1.967   0.419   4.542  0.8292  2.8306  0.2329
 9530SOL     OW40225   4.007   4.107   0.575 -1.1028 -0.3183  0.1839
 9530SOL    HW140226   4.079   4.162   0.545 -1.5027  0.7195  1.1618
 9530SOL    HW240227   3.937   4.173   0.574 -2.0756 -1.3203  2.4770
 9531SOL     OW40228   1.985   2.473  12.039  0.6416 -0.5819  0.0131
 9531SOL    HW140229   1.966   2.474  12.133 -0.4610  4.5650 -0.2657
 9531SOL    HW240230   2.018   2.563  12.038 -0.9232  0.0061  1.8723
 9532SOL     OW40231   4.450   0.324   2.919 -0.0221 -0.9707  0.3911
 9532SOL    HW140232   4.545   0.333   2.921 -0.0149 -1.4378  2.2225
 9532SOL    HW240233   4.440   0.231   2.899 -2.0695 -0.5589 -0.4763
 9533SOL     OW40234   3.044   3.933   7.601  0.4529  0.4137 -0.2063
 9533SOL    HW140235   3.007   3.867   7.659 -1.0222  0.5212 -1.0203
 9533SOL    HW240236   3.110   3.975   7.656  1.3740  0.1001 -1.0677
 9534SOL     OW40237   1.958   0.007   4.045  0.0547 -0.3120 -0.2790
 9534SOL    HW140238   2.012   0.004   3.966  0.7122 -1.1608  0.2062
 9534SOL    HW240239   2.014   4.688   4.101 -1.7066 -0.5487  1.2965
 9535SOL     OW40240   2.011   2.788   2.599  0.2008 -0.0144  0.1463
 9535SOL    HW140241   2.087   2.773   2.654  0.5628  0.0080 -0.3464
 9535SOL    HW240242   2.047   2.808   2.512 -1.0378  0.5502 -0.2305
 9536SOL     OW40243   1.835   3.654   9.674 -0.2668 -0.0942 -0.5152
 9536SOL    HW140244   1.919   3.663   9.717  0.0360  0.8030 -1.3088
 9536SOL    HW240245   1.797   3.726   9.724 -2.5474 -0.9479 -1.0162
 9537SOL     OW40246   0.017   3.358  13.011  0.0180 -0.1859  0.1701
 9537SOL    HW140247   0.106   3.379  12.983 -0.7658  1.3122 -1.2317
 9537SOL    HW240248   0.018   3.339  13.105  0.6975 -1.3257 -0.0651
 9538SOL     OW40249   3.577   1.086   6.706 -0.9891  0.2221  0.0498
 9538SOL    HW140250   3.606   1.019   6.768  0.1356  1.1954  0.5794
 9538SOL    HW240251   3.600   1.044   6.623 -2.3342  0.5689 -0.4983
 9539SOL     OW40252   0.427   2.522   0.405 -0.1523  0.8496 -0.3807
 9539SOL    HW140253   0.396   2.517   0.495 -1.9488 -1.8060 -1.1501
 9539SOL    HW240254   0.452   2.613   0.418  3.9514 -0.4756  1.0740
 9540SOL     OW40255   0.116   1.325   7.812  0.1453 -0.4523 -0.1438
 9540SOL    HW140256   0.034   1.335   7.861 -1.8064 -1.0515 -3.2391
 9540SOL    HW240257   0.106   1.232   7.790  2.4119 -0.8235  0.4610
 9541SOL     OW40258   3.856   0.311  16.754 -0.6690 -0.7854  0.2384
 9541SOL    HW140259   3.781   0.306  16.813 -1.6209  0.1261 -0.9046
 9541SOL    HW240260   3.880   0.220  16.736  0.1051 -0.7076  0.8449
 9542SOL     OW40261   2.656   3.564   0.801 -0.3815 -0.0872  0.5546
 9542SOL    HW140262   2.707   3.512   0.863  1.2218  1.5213  0.5879
 9542SOL    HW240263   2.683   3.540   0.712  2.5219 -0.2371  1.4846
 9543SOL     OW40264   2.895   1.803   8.864  0.2835 -0.2213 -0.7307
 9543SOL    HW140265   2.976   1.800   8.915 -0.0170  3.0604 -0.0153
 9543SOL    HW240266   2.828   1.787   8.931  0.1953  1.4485 -0.4101
 9544SOL     OW40267   4.062   0.558   8.385  0.2781 -0.0438 -0.0196
 9544SOL    HW140268   4.091   0.468   8.370  0.6018  0.3882 -1.9527
 9544SOL    HW240269   3.969   0.560   8.406  0.5687  2.9640  1.0337
 9545SOL     OW40270   3.563   0.746   2.972 -0.5514  0.5340 -0.2031
 9545SOL    HW140271   3.604   0.682   3.031 -0.8618  1.3990  0.9696
 9545SOL    HW240272   3.557   0.686   2.898 -1.6315  0.5786 -0.1509
 9546SOL     OW40273   1.031   1.975   6.085  0.8847  0.1951  0.3242
 9546SOL    HW140274   1.107   1.994   6.139  1.6940 -0.4191 -0.5919
 9546SOL    HW240275   0.964   1.979   6.153 -0.5128 -0.1085 -1.0473
 9547SOL     OW40276   2.574   2.145   1.531 -0.1354 -0.3143 -0.1294
 9547SOL    HW140277   2.522   2.211   1.486 -2.2507 -1.2528  0.9275
 9547SOL    HW240278   2.531   2.157   1.616  2.1056 -2.0588  1.2379
 9548SOL     OW40279   0.251   3.039  16.679  0.3549 -0.3064  0.0026
 9548SOL    HW140280   0.194   3.040  16.602 -1.4919  0.0804  1.3806
 9548SOL    HW240281   0.316   3.108  16.662 -1.3207  1.9700  2.8242
 9549SOL     OW40282   3.475   1.149  10.056 -0.3022 -0.5177  0.3912
 9549SOL    HW140283   3.503   1.120   9.969 -0.5526  1.7556 -0.4480
 9549SOL    HW240284   3.383   1.168  10.037  0.3131  2.5941  0.4272
 9550SOL     OW40285   4.022   3.867   4.132  0.0136  0.0272  0.4370
 9550SOL    HW140286   4.002   3.910   4.049 -0.1880 -1.9990 -0.5763
 9550SOL    HW240287   4.063   3.932   4.189  0.7918 -1.3793  1.4836
 9551SOL     OW40288   3.858   3.376  15.364  0.3214 -0.3829  0.6020
 9551SOL    HW140289   3.944   3.396  15.327  0.6615  1.5678  2.4503
 9551SOL    HW240290   3.828   3.463  15.390  2.2515  0.1923  0.8844
 9552SOL     OW40291   2.545   0.727   9.265  0.1625 -0.5671  0.2293
 9552SOL    HW140292   2.579   0.772   9.343  0.7516 -0.2178 -0.2312
 9552SOL    HW240293   2.492   0.802   9.241 -1.2690 -1.7832 -0.4010
 9553SOL     OW40294   4.734   3.182  11.138 -0.7756  0.3512  0.0163
 9553SOL    HW140295   4.663   3.190  11.074 -1.9064 -0.1607  1.2145
 9553SOL    HW240296   0.074   3.163  11.081  0.5401  1.5759  1.3277
 9554SOL     OW40297   3.461   1.548   5.004  0.1347 -0.0571 -0.4313
 9554SOL    HW140298   3.479   1.614   4.937 -1.2156  0.4696 -0.2588
 9554SOL    HW240299   3.511   1.477   4.963 -1.5817 -0.7839 -1.2600
 9555SOL     OW40300   3.294   4.467   8.118  0.1375 -0.1297  0.3387
 9555SOL    HW140301   3.226   4.401   8.105 -1.5748  1.3624  1.7117
 9555SOL    HW240302   3.310   4.488   8.026  0.4981  1.4782  0.7641
 9556SOL     OW40303   1.591   2.178   7.076  0.1145  0.8108 -0.0651
 9556SOL    HW140304   1.652   2.152   7.007  1.0502  1.8465  0.3740
 9556SOL    HW240305   1.528   2.106   7.083 -0.9076  1.6009 -1.1068
 9557SOL     OW40306   1.678   0.378   5.794  0.1017 -0.0649  0.0195
 9557SOL    HW140307   1.644   0.328   5.868 -0.3655 -0.8558 -0.7180
 9557SOL    HW240308   1.619   0.452   5.791  3.7867  2.8917  0.4511
 9558SOL     OW40309   2.154   0.635  12.721 -0.0571  0.4203  0.1112
 9558SOL    HW140310   2.088   0.678  12.775 -2.3873 -0.3112 -2.0977
 9558SOL    HW240311   2.125   0.544  12.734  2.4477  0.1916  3.9884
 9559SOL     OW40312   1.357   4.091   3.592  0.2544  0.1045 -0.2369
 9559SOL    HW140313   1.442   4.070   3.552 -0.1025 -0.3471 -0.7608
 9559SOL    HW240314   1.365   4.044   3.674 -0.5570 -1.9004 -1.2992
 9560SOL     OW40315   3.747   1.654   5.441  0.3264 -0.4732  0.1596
 9560SOL    HW140316   3.659   1.655   5.404 -0.9451 -1.5450  3.1160
 9560SOL    HW240317   3.753   1.561   5.466 -1.2824 -0.5958  0.0644
 9561SOL     OW40318   2.562   2.732  17.286  0.0343 -0.2890  0.2730
 9561SOL    HW140319   2.571   2.732  17.191 -0.3503 -0.2034  0.2363
 9561SOL    HW240320   2.472   2.766  17.290 -0.8357 -2.6354  0.3801
 9562SOL     OW40321   4.670   1.667   7.847  0.0901  0.2916 -0.5925
 9562SOL    HW140322   4.587   1.625   7.828  0.7473 -1.5589  0.5721
 9562SOL    HW240323   4.666   1.679   7.942 -0.0165  1.4780 -0.7448
 9563SOL     OW40324   4.683   4.538  11.982 -0.2940  0.1004 -0.5952
 9563SOL    HW140325   4.667   4.566  12.072  0.2515 -1.2649 -0.0701
 9563SOL    HW240326   4.603   4.565  11.938 -0.9116  1.0071  1.0980
 9564SOL     OW40327   0.965   0.282   5.405  0.4629  0.2686  0.4319
 9564SOL    HW140328   0.949   0.189   5.389 -3.2412  0.7773  1.1532
 9564SOL    HW240329   1.010   0.270   5.489  1.1812 -0.3107 -0.0314
 9565SOL     OW40330   4.366   1.649   5.068 -0.0389  0.2681  0.4760
 9565SOL    HW140331   4.311   1.577   5.098  2.3683 -2.7169 -2.3318
 9565SOL    HW240332   4.354   1.702   5.147  1.1651  1.1625  0.0469
 9566SOL     OW40333   2.514   0.873   7.376  0.3753  0.2867  0.3193
 9566SOL    HW140334   2.493   0.788   7.338  2.7732 -0.1858  0.0655
 9566SOL    HW240335   2.565   0.839   7.450  0.9477 -2.6571 -1.4536
 9567SOL     OW40336   1.633   3.934  12.466 -0.3902 -0.2173 -0.0284
 9567SOL    HW140337   1.618   4.003  12.401 -0.9027  0.5163  0.8781
 9567SOL    HW240338   1.552   3.915  12.512 -1.0326 -1.1086 -1.5110
 9568SOL     OW40339   3.264   3.444  16.634 -0.3470  0.0862  0.1419
 9568SOL    HW140340   3.270   3.502  16.559 -1.7313 -1.2177 -0.9742
 9568SOL    HW240341   3.199   3.379  16.607 -0.1914  0.1445 -0.3632
 9569SOL     OW40342   1.374   0.220   2.036 -0.2817  0.2934  0.3942
 9569SOL    HW140343   1.285   0.236   2.003  1.5412 -0.1511 -4.6503
 9569SOL    HW240344   1.360   0.221   2.131 -0.7015  2.3656  0.2948
   4.73452   4.73452  17.73709
